<event>
12    1  0.8724767E-002  0.2342366E+03  0.7818608E-02  0.1124292E+00
         21   -1    0    0  503  502  0.00000000000E+00  0.00000000000E+00  0.59397863516E+02  0.59397863516E+02  0.00000000000E+00 0. -1.
         21   -1    0    0  501  503 -0.00000000000E+00 -0.00000000000E+00 -0.14963673395E+04  0.14963673395E+04  0.00000000000E+00 0.  1.
          6    2    1    2  501    0  0.39394541421E+02 -0.15313403354E+03 -0.12086133098E+04  0.12311023253E+04  0.17281446933E+03 0.  0.
         24    2    3    3    0    0  0.29622189819E+01 -0.83449772941E+02 -0.10227660280E+04  0.10292496255E+04  0.79572634941E+02 0.  0.
         -6    2    1    2    0  502 -0.39394541421E+02  0.15313403354E+03 -0.22835616627E+03  0.32466287772E+03  0.16809962336E+03 0.  0.
        -24    2    5    5    0    0 -0.77093633211E+02  0.14748391058E+03 -0.21676912250E+03  0.28454436585E+03  0.79257248912E+02 0.  0.
          5    1    3    3  501    0  0.36432322439E+02 -0.69684260595E+02 -0.18584728177E+03  0.20185269985E+03  0.47000000000E+01 0. -1.
        -11    1    4    4    0    0  0.35942051188E+02 -0.14420025585E+02 -0.36573759872E+03  0.36778221721E+03  0.00000000000E+00 0.  1.
         12    1    4    4    0    0 -0.32979832206E+02 -0.69029747356E+02 -0.65702842927E+03  0.66146740828E+03  0.00000000000E+00 0. -1.
         -5    1    5    5    0  502  0.37699091789E+02  0.56501229549E+01 -0.11587043765E+02  0.40118511866E+02  0.47000000000E+01 0.  1.
         13    1    6    6    0    0 -0.94298604515E+01  0.22126024078E+02  0.12806549256E+01  0.24085748622E+02  0.00000000000E+00 0. -1.
        -14    1    6    6    0    0 -0.67663772759E+02  0.12535788650E+03 -0.21804977743E+03  0.26045861723E+03  0.00000000000E+00 0.  1.
</event>
<event>
12    1  0.8724767E-002  0.3723463E+03  0.7818608E-02  0.1053901E+00
         21   -1    0    0  501  502  0.00000000000E+00  0.00000000000E+00  0.70792207000E+02  0.70792207000E+02  0.00000000000E+00 0. -1.
         21   -1    0    0  502  503 -0.00000000000E+00 -0.00000000000E+00 -0.20838109581E+04  0.20838109581E+04  0.00000000000E+00 0.  1.
         -6    2    1    2    0  503 -0.32860772557E+03  0.71633451327E+01 -0.12752605313E+04  0.13282079929E+04  0.17266354197E+03 0.  0.
        -24    2    3    3    0    0 -0.59824933747E+02 -0.15533970374E+02 -0.31633484987E+03  0.33205543935E+03  0.79829509745E+02 0.  0.
          6    2    1    2  501    0  0.32860772557E+03 -0.71633451327E+01 -0.73775821978E+03  0.82639517225E+03  0.17494981863E+03 0.  0.
         24    2    5    5    0    0  0.27155409465E+03 -0.61719606756E+02 -0.62409248093E+03  0.68792679075E+03  0.78745847563E+02 0.  0.
          5    1    5    5  501    0  0.57053630924E+02  0.54556261624E+02 -0.11366573885E+03  0.13846838149E+03  0.47000000000E+01 0. -1.
        -13    1    6    6    0    0  0.21712583433E+03 -0.15171611539E+02 -0.46068926766E+03  0.50951781821E+03  0.00000000000E+00 0.  1.
         14    1    6    6    0    0  0.54428260314E+02 -0.46547995217E+02 -0.16340321326E+03  0.17840897254E+03  0.00000000000E+00 0. -1.
         -5    1    3    3    0  503 -0.26878279182E+03  0.22697315506E+02 -0.95892568145E+03  0.99615255351E+03  0.47000000000E+01 0.  1.
         11    1    4    4    0    0 -0.44536144669E+02 -0.46459830556E+01 -0.59154224506E+02  0.74190805477E+02  0.00000000000E+00 0. -1.
        -12    1    4    4    0    0 -0.15288789078E+02 -0.10887987318E+02 -0.25718062536E+03  0.25786463387E+03  0.00000000000E+00 0.  1.
</event>
<event>
12    1  0.8724767E-002  0.1998315E+03  0.7818608E-02  0.1150553E+00
         21   -1    0    0  503  502  0.00000000000E+00  0.00000000000E+00  0.13533612606E+04  0.13533612606E+04  0.00000000000E+00 0.  1.
         21   -1    0    0  501  503 -0.00000000000E+00 -0.00000000000E+00 -0.32787526499E+02  0.32787526499E+02  0.00000000000E+00 0. -1.
          6    2    1    2  501    0 -0.17731139847E+02  0.10316698409E+03  0.42138890666E+03  0.46502664572E+03  0.16650330520E+03 0.  0.
         24    2    3    3    0    0 -0.57478607620E+02  0.88113210880E+02  0.20152938892E+03  0.24104723857E+03  0.80137059846E+02 0.  0.
         -6    2    1    2    0  502  0.17731139847E+02 -0.10316698409E+03  0.89918482742E+03  0.92112214136E+03  0.17021993278E+03 0.  0.
        -24    2    5    5    0    0 -0.32221379706E+02 -0.93025154145E+02  0.38025235068E+03  0.39967116923E+03  0.73846439993E+02 0.  0.
          5    1    3    3  501    0  0.39747467774E+02  0.15053773211E+02  0.21985951774E+03  0.22397940714E+03  0.47000000000E+01 0. -1.
        -13    1    4    4    0    0  0.10530821994E+02  0.33292980209E+02  0.10598724815E+03  0.11159129676E+03  0.00000000000E+00 0.  1.
         14    1    4    4    0    0 -0.68009429615E+02  0.54820230671E+02  0.95542140770E+02  0.12945594181E+03  0.00000000000E+00 0. -1.
         -5    1    5    5    0  502  0.49952519553E+02 -0.10141829947E+02  0.51893247674E+03  0.52145097213E+03  0.47000000000E+01 0.  1.
         13    1    6    6    0    0 -0.14256789208E+02  0.54964542813E+01  0.16957864927E+02  0.22826218063E+02  0.00000000000E+00 0. -1.
        -14    1    6    6    0    0 -0.17964590497E+02 -0.98521608426E+02  0.36329448576E+03  0.37684495117E+03  0.00000000000E+00 0.  1.
</event>
<event>
12    1  0.8724767E-002  0.1871122E+03  0.7818608E-02  0.1161549E+00
         21   -1    0    0  501  502  0.00000000000E+00  0.00000000000E+00  0.66000567951E+03  0.66000567951E+03  0.00000000000E+00 0. -1.
         21   -1    0    0  502  503 -0.00000000000E+00 -0.00000000000E+00 -0.13472339670E+03  0.13472339670E+03  0.00000000000E+00 0.  1.
         -6    2    1    2    0  503  0.28136687284E+02  0.64786922238E+02 -0.47268379587E+02  0.19299030447E+03  0.17326840291E+03 0.  0.
        -24    2    3    3    0    0 -0.11794547994E+02  0.45127472285E+01 -0.79602406954E+02  0.11364889630E+03  0.80125228165E+02 0.  0.
          6    2    1    2  501    0 -0.28136687284E+02 -0.64786922238E+02  0.57255066239E+03  0.60173877175E+03  0.17113231708E+03 0.  0.
         24    2    5    5    0    0  0.22948140778E+02 -0.77583416261E+01  0.15093398949E+03  0.17320099332E+03  0.81429146345E+02 0.  0.
          5    1    5    5  501    0 -0.51084828062E+02 -0.57028580612E+02  0.42161667291E+03  0.42853777843E+03  0.47000000000E+01 0. -1.
        -13    1    6    6    0    0  0.22261767633E+01 -0.43180905684E+02  0.66480311694E+02  0.79304339866E+02  0.00000000000E+00 0.  1.
         14    1    6    6    0    0  0.20721964014E+02  0.35422564058E+02  0.84453677792E+02  0.93896653453E+02  0.00000000000E+00 0. -1.
         -5    1    3    3    0  503  0.39931235278E+02  0.60274175009E+02  0.32334027367E+02  0.79341408165E+02  0.47000000000E+01 0.  1.
         11    1    4    4    0    0 -0.24845470442E+02  0.41618114480E+01  0.69377377036E+01  0.26129490628E+02  0.00000000000E+00 0. -1.
        -12    1    4    4    0    0  0.13050922448E+02  0.35093578058E+00 -0.86540144658E+02  0.87519405677E+02  0.00000000000E+00 0.  1.
</event>
<event>
12    1  0.8724767E-002  0.1821923E+03  0.7818608E-02  0.1165970E+00
         21   -1    0    0  503  502  0.00000000000E+00  0.00000000000E+00  0.10536290136E+03  0.10536290136E+03  0.00000000000E+00 0.  1.
         21   -1    0    0  501  503 -0.00000000000E+00 -0.00000000000E+00 -0.15681789123E+04  0.15681789123E+04  0.00000000000E+00 0.  1.
          6    2    1    2  501    0  0.28213849013E+02 -0.53192882794E+02 -0.14795461669E+04  0.14905829670E+04  0.17074899003E+03 0.  0.
         24    2    3    3    0    0  0.49544720683E+02  0.75598404380E+01 -0.11665302491E+04  0.11709785956E+04  0.88804384412E+02 0.  0.
         -6    2    1    2    0  502 -0.28213849013E+02  0.53192882794E+02  0.16730155966E+02  0.18295884660E+03  0.17195504463E+03 0.  0.
        -24    2    5    5    0    0 -0.54571990913E+02 -0.21903581669E+02  0.19037483588E+02  0.10319892947E+03  0.82642145308E+02 0.  0.
          5    1    3    3  501    0 -0.21330871670E+02 -0.60752723232E+02 -0.31301591775E+03  0.31960437142E+03  0.47000000000E+01 0. -1.
        -13    1    4    4    0    0  0.17130092732E+02 -0.26954647326E+02 -0.87866455123E+03  0.87924478200E+03  0.00000000000E+00 0.  1.
         14    1    4    4    0    0  0.32414627951E+02  0.34514487764E+02 -0.28786569788E+03  0.29173381358E+03  0.00000000000E+00 0. -1.
         -5    1    5    5    0  502  0.26358141900E+02  0.75096464462E+02 -0.23073276215E+01  0.79759917126E+02  0.47000000000E+01 0.  1.
         11    1    6    6    0    0 -0.75093033867E+02 -0.14611801085E+02  0.37546484244E+01  0.76593510503E+02  0.00000000000E+00 0. -1.
        -12    1    6    6    0    0  0.20521042954E+02 -0.72917805837E+01  0.15282835163E+02  0.26605418971E+02  0.00000000000E+00 0.  1.
</event>
<event>
12    1  0.8724767E-002  0.2122439E+03  0.7818608E-02  0.1139850E+00
         21   -1    0    0  501  502  0.00000000000E+00  0.00000000000E+00  0.37320905816E+03  0.37320905816E+03  0.00000000000E+00 0. -1.
         21   -1    0    0  502  503 -0.00000000000E+00 -0.00000000000E+00 -0.12254821511E+03  0.12254821511E+03  0.00000000000E+00 0.  1.
         -6    2    1    2    0  503  0.11967143258E+03 -0.18043361250E+02  0.15697256869E+03  0.26398455660E+03  0.17435780493E+03 0.  0.
        -24    2    3    3    0    0  0.59155851407E+02  0.42274129586E+02  0.30222043181E+02  0.11105280390E+03  0.78312429236E+02 0.  0.
          6    2    1    2  501    0 -0.11967143258E+03  0.18043361250E+02  0.93688274355E+02  0.23177271668E+03  0.17405253455E+03 0.  0.
         24    2    5    5    0    0 -0.71457689695E+02  0.56252602025E+02  0.91994497731E+00  0.12036102959E+03  0.78837646431E+02 0.  0.
          5    1    5    5  501    0 -0.48213742883E+02 -0.38209240775E+02  0.92768329378E+02  0.11141168708E+03  0.47000000000E+01 0. -1.
        -13    1    6    6    0    0 -0.75922116015E+02  0.29542973343E+02 -0.22544414867E+02  0.84529318085E+02  0.00000000000E+00 0.  1.
         14    1    6    6    0    0  0.44644263200E+01  0.26709628682E+02  0.23464359845E+02  0.35831711508E+02  0.00000000000E+00 0. -1.
         -5    1    3    3    0  503  0.60515581171E+02 -0.60317490836E+02  0.12675052551E+03  0.15293175269E+03  0.47000000000E+01 0.  1.
         13    1    4    4    0    0 -0.17102744495E+02  0.72363788075E+01 -0.61847429058E+01  0.19573453765E+02  0.00000000000E+00 0. -1.
        -14    1    4    4    0    0  0.76258595902E+02  0.35037750779E+02  0.36406786087E+02  0.91479350138E+02  0.00000000000E+00 0.  1.
</event>
<event>
12    1  0.8724767E-002  0.2392958E+03  0.7818608E-02  0.1120293E+00
         21   -1    0    0  503  502  0.00000000000E+00  0.00000000000E+00  0.12923814810E+03  0.12923814810E+03  0.00000000000E+00 0.  1.
         21   -1    0    0  501  503 -0.00000000000E+00 -0.00000000000E+00 -0.45518669123E+03  0.45518669123E+03  0.00000000000E+00 0. -1.
          6    2    1    2  501    0  0.10772459680E+03 -0.12625762753E+03 -0.21133653507E+03  0.31925788610E+03  0.17238587389E+03 0.  0.
         24    2    3    3    0    0  0.32431220432E+00 -0.89411762759E+02 -0.14306236362E+03  0.18668378844E+03  0.79933900719E+02 0.  0.
         -6    2    1    2    0  502 -0.10772459680E+03  0.12625762753E+03 -0.11461200807E+03  0.26516695323E+03  0.17213954638E+03 0.  0.
        -24    2    5    5    0    0  0.60653295987E+00  0.16375804465E+02 -0.28154195802E+02  0.88229981357E+02  0.81995951210E+02 0.  0.
          5    1    3    3  501    0  0.10740028460E+03 -0.36845864767E+02 -0.68274171450E+02  0.13257409766E+03  0.47000000000E+01 0. -1.
        -11    1    4    4    0    0  0.16822379354E+02  0.77347943116E+01 -0.40096332106E+02  0.44164865430E+02  0.00000000000E+00 0.  1.
         12    1    4    4    0    0 -0.16498067149E+02 -0.97146557071E+02 -0.10296603151E+03  0.14251892301E+03  0.00000000000E+00 0. -1.
         -5    1    5    5    0  502 -0.10833112976E+03  0.10988182306E+03 -0.86457812267E+02  0.17693697188E+03  0.47000000000E+01 0.  1.
         13    1    6    6    0    0 -0.25139060841E+01  0.31848397705E+02 -0.51168576999E+02  0.60322992567E+02  0.00000000000E+00 0. -1.
        -14    1    6    6    0    0  0.31204390440E+01 -0.15472593240E+02  0.23014381197E+02  0.27906988789E+02  0.00000000000E+00 0.  1.
</event>
<event>
12    1  0.8724767E-002  0.1770703E+03  0.7818608E-02  0.1170688E+00
         21   -1    0    0  501  502  0.00000000000E+00  0.00000000000E+00  0.31672386215E+02  0.31672386215E+02  0.00000000000E+00 0. -1.
         21   -1    0    0  502  503 -0.00000000000E+00 -0.00000000000E+00 -0.11199245703E+04  0.11199245703E+04  0.00000000000E+00 0. -1.
         -6    2    1    2    0  503 -0.39646900111E+02  0.15741350234E+02 -0.74051334924E+03  0.76137113340E+03  0.17177402473E+03 0.  0.
        -24    2    3    3    0    0 -0.69898607416E+02  0.19569302706E+02 -0.70946508340E+03  0.71760009473E+03  0.79626744597E+02 0.  0.
          6    2    1    2  501    0  0.39646900111E+02 -0.15741350234E+02 -0.34773883488E+03  0.39022582315E+03  0.17185525589E+03 0.  0.
         24    2    5    5    0    0  0.27088698890E+02  0.49064976246E+02 -0.27574598751E+03  0.29243713034E+03  0.79639538367E+02 0.  0.
          5    1    5    5  501    0  0.12558201222E+02 -0.64806326481E+02 -0.71992847369E+02  0.97788692813E+02  0.47000000000E+01 0. -1.
        -11    1    6    6    0    0 -0.24589430090E+02  0.12296184840E+02 -0.41680193806E+02  0.49930699870E+02  0.00000000000E+00 0.  1.
         12    1    6    6    0    0  0.51678128980E+02  0.36768791406E+02 -0.23406579370E+03  0.24250643047E+03  0.00000000000E+00 0. -1.
         -5    1    3    3    0  503  0.30251707304E+02 -0.38279524713E+01 -0.31048265838E+02  0.43771038672E+02  0.47000000000E+01 0.  1.
         11    1    4    4    0    0 -0.81102184128E+02  0.40904435133E+00 -0.45524676003E+03  0.46241468846E+03  0.00000000000E+00 0. -1.
        -12    1    4    4    0    0  0.11203576712E+02  0.19160258354E+02 -0.25421832337E+03  0.25518540626E+03  0.00000000000E+00 0.  1.
</event>
<event>
12    1  0.8724767E-002  0.1802300E+03  0.7818608E-02  0.1167619E+00
         21   -1    0    0  501  502  0.00000000000E+00  0.00000000000E+00  0.14293238442E+04  0.14293238442E+04  0.00000000000E+00 0.  1.
         21   -1    0    0  502  503 -0.00000000000E+00 -0.00000000000E+00 -0.73536969186E+02  0.73536969186E+02  0.00000000000E+00 0.  1.
         -6    2    1    2    0  503 -0.25241875584E+02  0.47593198907E+02  0.53244766841E+02  0.18793050291E+03  0.17199012722E+03 0.  0.
        -24    2    3    3    0    0 -0.45067585417E+02  0.39680106833E+02  0.97507108373E+02  0.13856532617E+03  0.78019967312E+02 0.  0.
          6    2    1    2  501    0  0.25241875584E+02 -0.47593198907E+02  0.13025421082E+04  0.13149303105E+04  0.17182407569E+03 0.  0.
         24    2    5    5    0    0 -0.20638617886E+02 -0.49488793664E+02  0.11814366723E+04  0.11853261841E+04  0.79564181402E+02 0.  0.
          5    1    5    5  501    0  0.45880493470E+02  0.18955947568E+01  0.12110543592E+03  0.12960412637E+03  0.47000000000E+01 0. -1.
        -11    1    6    6    0    0  0.21150664011E+02 -0.15197992469E+02  0.13471457340E+03  0.13720913180E+03  0.00000000000E+00 0.  1.
         12    1    6    6    0    0 -0.41789281897E+02 -0.34290801194E+02  0.10467220989E+04  0.10481170523E+04  0.00000000000E+00 0. -1.
         -5    1    3    3    0  503  0.19825709833E+02  0.79130920737E+01 -0.44262341532E+02  0.49365176739E+02  0.47000000000E+01 0.  1.
         11    1    4    4    0    0  0.31724829004E+01  0.37426804386E+02  0.10411921281E+02  0.38977409342E+02  0.00000000000E+00 0. -1.
        -12    1    4    4    0    0 -0.48240068317E+02  0.22533024473E+01  0.87095187092E+02  0.99587916826E+02  0.00000000000E+00 0.  1.
</event>
<event>
12    1  0.8724767E-002  0.1993073E+03  0.7818608E-02  0.1150620E+00
         21   -1    0    0  501  502  0.00000000000E+00  0.00000000000E+00  0.64768618476E+02  0.64768618476E+02  0.00000000000E+00 0. -1.
         21   -1    0    0  502  503 -0.00000000000E+00 -0.00000000000E+00 -0.77358189589E+03  0.77358189589E+03  0.00000000000E+00 0. -1.
         -6    2    1    2    0  503 -0.28933659897E+02 -0.96612752783E+02 -0.54674708934E+03  0.58146760251E+03  0.17029683611E+03 0.  0.
        -24    2    3    3    0    0  0.29579186573E+02 -0.86682016883E+02 -0.46285627675E+03  0.47859811649E+03  0.80196782034E+02 0.  0.
          6    2    1    2  501    0  0.28933659897E+02  0.96612752783E+02 -0.16206618807E+03  0.25688291185E+03  0.17190753448E+03 0.  0.
         24    2    5    5    0    0  0.16470525064E+02 -0.50370603611E+00 -0.14105478388E+03  0.15663070285E+03  0.66069608034E+02 0.  0.
          5    1    5    5  501    0  0.12463134832E+02  0.97116458819E+02 -0.21011404194E+02  0.10025220900E+03  0.47000000000E+01 0. -1.
        -13    1    6    6    0    0  0.27543567391E+02  0.22383199764E+02 -0.11446703025E+03  0.11984305049E+03  0.00000000000E+00 0.  1.
         14    1    6    6    0    0 -0.11073042326E+02 -0.22886905801E+02 -0.26587753628E+02  0.36787652364E+02  0.00000000000E+00 0. -1.
         -5    1    3    3    0  503 -0.58512846469E+02 -0.99307359002E+01 -0.83890812590E+02  0.10286948602E+03  0.47000000000E+01 0.  1.
         11    1    4    4    0    0  0.41179759390E+02 -0.74233384655E+02 -0.23076350001E+03  0.24588241279E+03  0.00000000000E+00 0. -1.
        -12    1    4    4    0    0 -0.11600572817E+02 -0.12448632228E+02 -0.23209277674E+03  0.23271570370E+03  0.00000000000E+00 0.  1.
</event>
<event>
12    1  0.8724767E-002  0.1799657E+03  0.7818608E-02  0.1167912E+00
         21   -1    0    0  501  502  0.00000000000E+00  0.00000000000E+00  0.26703504296E+03  0.26703504296E+03  0.00000000000E+00 0.  1.
         21   -1    0    0  502  503 -0.00000000000E+00 -0.00000000000E+00 -0.12444028878E+03  0.12444028878E+03  0.00000000000E+00 0. -1.
         -6    2    1    2    0  503  0.34875903567E+02  0.40032154760E+02  0.39165917174E+02  0.18417825187E+03  0.17195568421E+03 0.  0.
        -24    2    3    3    0    0  0.30294081145E+02  0.71566331868E+02 -0.22702479137E+02  0.11442736740E+03  0.80862529281E+02 0.  0.
          6    2    1    2  501    0 -0.34875903567E+02 -0.40032154760E+02  0.10342883700E+03  0.20729707987E+03  0.17162649252E+03 0.  0.
         24    2    5    5    0    0 -0.38898731891E+02  0.83241622574E+01  0.12310142174E+03  0.15472696351E+03  0.84876794138E+02 0.  0.
          5    1    5    5  501    0  0.40228283238E+01 -0.48356317017E+02 -0.19672584743E+02  0.52570116356E+02  0.47000000000E+01 0. -1.
        -13    1    6    6    0    0 -0.56025624741E+02 -0.18449374563E+02  0.60364287881E+02  0.84398443711E+02  0.00000000000E+00 0.  1.
         14    1    6    6    0    0  0.17126892850E+02  0.26773536821E+02  0.62737133861E+02  0.70328519803E+02  0.00000000000E+00 0. -1.
         -5    1    3    3    0  503  0.45818224220E+01 -0.31534177108E+02  0.61868396311E+02  0.69750884472E+02  0.47000000000E+01 0.  1.
         11    1    4    4    0    0  0.50818457057E+02  0.33454656687E+02 -0.33990711665E+02  0.69692884222E+02  0.00000000000E+00 0. -1.
        -12    1    4    4    0    0 -0.20524375911E+02  0.38111675180E+02  0.11288232529E+02  0.44734483178E+02  0.00000000000E+00 0.  1.
</event>
<event>
12    1  0.8724767E-002  0.1958991E+03  0.7818608E-02  0.1153380E+00
         21   -1    0    0  503  502  0.00000000000E+00  0.00000000000E+00  0.15013662593E+03  0.15013662593E+03  0.00000000000E+00 0.  1.
         21   -1    0    0  501  503 -0.00000000000E+00 -0.00000000000E+00 -0.35393836063E+03  0.35393836063E+03  0.00000000000E+00 0. -1.
          6    2    1    2  501    0 -0.80751406355E+02  0.41938029593E+02 -0.23517198958E+03  0.30568004410E+03  0.17278552232E+03 0.  0.
         24    2    3    3    0    0 -0.73610074454E+02 -0.97461011790E+01 -0.63843558981E+02  0.12652154130E+03  0.80114111363E+02 0.  0.
         -6    2    1    2    0  502  0.80751406355E+02 -0.41938029593E+02  0.31370254880E+02  0.19839494246E+03  0.17348450175E+03 0.  0.
        -24    2    5    5    0    0  0.24180515095E+02 -0.89216628742E+02  0.19850733174E+02  0.12362649286E+03  0.79656474782E+02 0.  0.
          5    1    3    3  501    0 -0.71413319014E+01  0.51684130772E+02 -0.17132843060E+03  0.17915850280E+03  0.47000000000E+01 0. -1.
        -13    1    4    4    0    0 -0.61424292213E+02  0.28638344401E+02 -0.48874403986E+02  0.83557200820E+02  0.00000000000E+00 0.  1.
         14    1    4    4    0    0 -0.12185782241E+02 -0.38384445580E+02 -0.14969154995E+02  0.42964340476E+02  0.00000000000E+00 0. -1.
         -5    1    5    5    0  502  0.56570891260E+02  0.47278599149E+02  0.11519521706E+02  0.74768449601E+02  0.47000000000E+01 0.  1.
         13    1    6    6    0    0  0.37565485317E+01  0.45025170960E+01 -0.19190725866E+02  0.20066596032E+02  0.00000000000E+00 0. -1.
        -14    1    6    6    0    0  0.20423966564E+02 -0.93719145838E+02  0.39041459040E+02  0.10355989683E+03  0.00000000000E+00 0.  1.
</event>
<event>
12    1  0.8724767E-002  0.2021018E+03  0.7818608E-02  0.1148217E+00
         21   -1    0    0  503  502  0.00000000000E+00  0.00000000000E+00  0.34659215386E+03  0.34659215386E+03  0.00000000000E+00 0. -1.
         21   -1    0    0  501  503 -0.00000000000E+00 -0.00000000000E+00 -0.12290531761E+03  0.12290531761E+03  0.00000000000E+00 0. -1.
          6    2    1    2  501    0 -0.70150657028E+02  0.76068610288E+02  0.60880283984E+02  0.20997650978E+03  0.17226774953E+03 0.  0.
         24    2    3    3    0    0  0.26977788482E+00  0.94192424773E+02  0.58253065839E+02  0.13706215879E+03  0.80748560527E+02 0.  0.
         -6    2    1    2    0  502  0.70150657028E+02 -0.76068610288E+02  0.16280655227E+03  0.25952096170E+03  0.17360186619E+03 0.  0.
        -24    2    5    5    0    0  0.10488937273E+03 -0.91599259812E+02  0.11410867928E+03  0.19754070454E+03  0.81297812712E+02 0.  0.
          5    1    3    3  501    0 -0.70420434913E+02 -0.18123814485E+02  0.26272181450E+01  0.72914350988E+02  0.47000000000E+01 0. -1.
        -13    1    4    4    0    0 -0.20027684589E+02  0.61042393737E+02  0.71381637525E+02  0.96034473804E+02  0.00000000000E+00 0.  1.
         14    1    4    4    0    0  0.20297462474E+02  0.33150031036E+02 -0.13128571686E+02  0.41027684983E+02  0.00000000000E+00 0. -1.
         -5    1    5    5    0  502 -0.34738715705E+02  0.15530649523E+02  0.48697872990E+02  0.61980257156E+02  0.47000000000E+01 0.  1.
         13    1    6    6    0    0 -0.41082893099E+01 -0.53055450927E+00  0.34438972141E+02  0.34687207026E+02  0.00000000000E+00 0. -1.
        -14    1    6    6    0    0  0.10899766204E+03 -0.91068705302E+02  0.79669707143E+02  0.16285349751E+03  0.00000000000E+00 0.  1.
</event>
<event>
12    1  0.8724767E-002  0.2108163E+03  0.7818608E-02  0.1141182E+00
         21   -1    0    0  501  502  0.00000000000E+00  0.00000000000E+00  0.28532530676E+03  0.28532530676E+03  0.00000000000E+00 0. -1.
         21   -1    0    0  502  503 -0.00000000000E+00 -0.00000000000E+00 -0.17993724989E+03  0.17993724989E+03  0.00000000000E+00 0.  1.
         -6    2    1    2    0  503  0.52391085563E+02  0.11103227465E+03 -0.34415523749E+02  0.21230297258E+03  0.16975020480E+03 0.  0.
        -24    2    3    3    0    0 -0.51831661193E+01 -0.12431954198E+01  0.45903839797E+01  0.80151065769E+02  0.79841787136E+02 0.  0.
          6    2    1    2  501    0 -0.52391085563E+02 -0.11103227465E+03  0.13980358063E+03  0.25295958407E+03  0.17137828963E+03 0.  0.
         24    2    5    5    0    0  0.13656266192E+02 -0.44633631198E+00  0.30299523062E+02  0.83830251738E+02  0.76959451572E+02 0.  0.
          5    1    5    5  501    0 -0.66047351755E+02 -0.11058593834E+03  0.10950405756E+03  0.16912933233E+03  0.47000000000E+01 0. -1.
        -11    1    6    6    0    0  0.51675670008E+00 -0.37721478282E+02  0.84131312409E+01  0.38651749489E+02  0.00000000000E+00 0.  1.
         12    1    6    6    0    0  0.13139509492E+02  0.37275141970E+02  0.21886391821E+02  0.45178502250E+02  0.00000000000E+00 0. -1.
         -5    1    3    3    0  503  0.57574251682E+02  0.11227547007E+03 -0.39005907729E+02  0.13215190681E+03  0.47000000000E+01 0.  1.
         13    1    4    4    0    0 -0.38885145273E+01 -0.11465955807E+02 -0.36152143455E+02  0.38125662803E+02  0.00000000000E+00 0. -1.
        -14    1    4    4    0    0 -0.12946515920E+01  0.10222760387E+02  0.40742527435E+02  0.42025402966E+02  0.00000000000E+00 0.  1.
</event>
<event>
12    1  0.8724767E-002  0.4030137E+03  0.7818608E-02  0.1042744E+00
         21   -1    0    0  503  502  0.00000000000E+00  0.00000000000E+00  0.60501188186E+03  0.60501188186E+03  0.00000000000E+00 0.  1.
         21   -1    0    0  501  503 -0.00000000000E+00 -0.00000000000E+00 -0.98159632866E+03  0.98159632866E+03  0.00000000000E+00 0. -1.
          6    2    1    2  501    0  0.32403329496E+03  0.16722596927E+03 -0.86447776508E+03  0.95378916840E+03  0.17155136372E+03 0.  0.
         24    2    3    3    0    0  0.98145836013E+02  0.11368108517E+03 -0.31844038581E+03  0.36043336597E+03  0.77148802535E+02 0.  0.
         -6    2    1    2    0  502 -0.32403329496E+03 -0.16722596927E+03  0.48789331828E+03  0.63281904212E+03  0.17163318154E+03 0.  0.
        -24    2    5    5    0    0 -0.20042256500E+03 -0.15382608855E+03  0.40282383782E+03  0.48209387544E+03  0.79471946891E+02 0.  0.
          5    1    3    3  501    0  0.22588745895E+03  0.53544884101E+02 -0.54603737926E+03  0.59335580243E+03  0.47000000000E+01 0. -1.
        -13    1    4    4    0    0 -0.52044991699E+01  0.54902811465E+01 -0.70072394769E+02  0.70479575108E+02  0.00000000000E+00 0.  1.
         14    1    4    4    0    0  0.10335033518E+03  0.10819080403E+03 -0.24836799104E+03  0.28995379086E+03  0.00000000000E+00 0. -1.
         -5    1    5    5    0  502 -0.12361072996E+03 -0.13399880726E+02  0.85069480459E+02  0.15072516668E+03  0.47000000000E+01 0.  1.
         13    1    6    6    0    0 -0.33682041769E+02 -0.55804863751E+02  0.60633705663E+02  0.89023081380E+02  0.00000000000E+00 0. -1.
        -14    1    6    6    0    0 -0.16674052323E+03 -0.98021224796E+02  0.34219013215E+03  0.39307079406E+03  0.00000000000E+00 0.  1.
</event>
<event>
12    1  0.8724767E-002  0.1854494E+03  0.7818608E-02  0.1162759E+00
         21   -1    0    0  503  502  0.00000000000E+00  0.00000000000E+00  0.12724755603E+03  0.12724755603E+03  0.00000000000E+00 0.  1.
         21   -1    0    0  501  503 -0.00000000000E+00 -0.00000000000E+00 -0.27412470717E+03  0.27412470717E+03  0.00000000000E+00 0.  1.
          6    2    1    2  501    0 -0.65534638765E+02  0.17868492749E+02 -0.99701021004E+02  0.21055115305E+03  0.17256135880E+03 0.  0.
         24    2    3    3    0    0 -0.44957551978E+02  0.47531312487E+02 -0.12843670061E+03  0.16417089154E+03  0.78585548408E+02 0.  0.
         -6    2    1    2    0  502  0.65534638765E+02 -0.17868492749E+02 -0.47176130132E+02  0.19082111014E+03  0.17196812760E+03 0.  0.
        -24    2    5    5    0    0 -0.37510333238E+01 -0.25084859907E+02 -0.78622937488E+02  0.11424714587E+03  0.78914660186E+02 0.  0.
          5    1    3    3  501    0 -0.20577086787E+02 -0.29662819738E+02  0.28735679608E+02  0.46380261513E+02  0.47000000000E+01 0. -1.
        -11    1    4    4    0    0 -0.63701109096E+02  0.26687506216E+02 -0.65111554759E+02  0.94918748681E+02  0.00000000000E+00 0.  1.
         12    1    4    4    0    0  0.18743557118E+02  0.20843806271E+02 -0.63325145853E+02  0.69252142859E+02  0.00000000000E+00 0. -1.
         -5    1    5    5    0  502  0.69285672089E+02  0.72163671583E+01  0.31446807355E+02  0.76573964274E+02  0.47000000000E+01 0.  1.
         11    1    6    6    0    0 -0.14280688074E+02  0.14431801224E+02  0.52189843200E+01  0.20963128006E+02  0.00000000000E+00 0. -1.
        -12    1    6    6    0    0  0.10529654750E+02 -0.39516661132E+02 -0.83841921808E+02  0.93284017862E+02  0.00000000000E+00 0.  1.
</event>
<event>
12    1  0.8724767E-002  0.2211530E+03  0.7818608E-02  0.1133230E+00
         21   -1    0    0  501  502  0.00000000000E+00  0.00000000000E+00  0.80316027781E+03  0.80316027781E+03  0.00000000000E+00 0. -1.
         21   -1    0    0  502  503 -0.00000000000E+00 -0.00000000000E+00 -0.61245175590E+02  0.61245175590E+02  0.00000000000E+00 0. -1.
         -6    2    1    2    0  503  0.26858054250E+02 -0.13536539068E+03  0.41643982636E+03  0.47151966212E+03  0.17281064410E+03 0.  0.
        -24    2    3    3    0    0 -0.38861747708E+02 -0.27627455727E+02  0.20089897178E+03  0.22170672212E+03  0.80746281807E+02 0.  0.
          6    2    1    2  501    0 -0.26858054250E+02  0.13536539068E+03  0.32547527585E+03  0.39288579127E+03  0.17140579255E+03 0.  0.
         24    2    5    5    0    0 -0.52664408869E+02  0.40954315547E+02  0.89825749503E+02  0.13767566546E+03  0.80219247463E+02 0.  0.
          5    1    5    5  501    0  0.25806354619E+02  0.94411075138E+02  0.23564952635E+03  0.25521012581E+03  0.47000000000E+01 0. -1.
        -13    1    6    6    0    0  0.14781041369E+02  0.14086585504E+02 -0.21140052890E+01  0.20527544750E+02  0.00000000000E+00 0.  1.
         14    1    6    6    0    0 -0.67445450238E+02  0.26867730042E+02  0.91939754792E+02  0.11714812071E+03  0.00000000000E+00 0. -1.
         -5    1    3    3    0  503  0.65719801959E+02 -0.10773793496E+03  0.21554085458E+03  0.24981294000E+03  0.47000000000E+01 0.  1.
         11    1    4    4    0    0  0.23031443960E+02 -0.10029978227E+02  0.30197627086E+02  0.39280332938E+02  0.00000000000E+00 0. -1.
        -12    1    4    4    0    0 -0.61893191668E+02 -0.17597477501E+02  0.17070134469E+03  0.18242638918E+03  0.00000000000E+00 0.  1.
</event>
<event>
12    1  0.8724767E-002  0.1861157E+03  0.7818608E-02  0.1162466E+00
         21   -1    0    0  501  502  0.00000000000E+00  0.00000000000E+00  0.76511590679E+02  0.76511590679E+02  0.00000000000E+00 0.  1.
         21   -1    0    0  502  503 -0.00000000000E+00 -0.00000000000E+00 -0.45450638406E+03  0.45450638406E+03  0.00000000000E+00 0.  1.
         -6    2    1    2    0  503  0.49652090091E+02  0.41948386385E+02 -0.21978706051E+03  0.28674607963E+03  0.17231356606E+03 0.  0.
        -24    2    3    3    0    0 -0.77203955192E+01 -0.20442253479E+02 -0.49103647391E+02  0.96117877204E+02  0.79686811310E+02 0.  0.
          6    2    1    2  501    0 -0.49652090091E+02 -0.41948386385E+02 -0.15820773287E+03  0.24427189511E+03  0.17439631541E+03 0.  0.
         24    2    5    5    0    0 -0.14559702082E-01  0.54573452793E+01 -0.14962896459E+03  0.17494027834E+03  0.90473703988E+02 0.  0.
          5    1    5    5  501    0 -0.49637530389E+02 -0.47405731664E+02 -0.85787682847E+01  0.69331616763E+02  0.47000000000E+01 0. -1.
        -13    1    6    6    0    0 -0.28786710681E+02 -0.26943648838E+02 -0.36239319286E+02  0.53552994191E+02  0.00000000000E+00 0.  1.
         14    1    6    6    0    0  0.28772150979E+02  0.32400994118E+02 -0.11338964530E+03  0.12138728415E+03  0.00000000000E+00 0. -1.
         -5    1    3    3    0  503  0.57372485610E+02  0.62390639864E+02 -0.17068341311E+03  0.19062820243E+03  0.47000000000E+01 0.  1.
         13    1    4    4    0    0  0.46552856521E+01 -0.25546457949E+01  0.21548555763E+02  0.22193200650E+02  0.00000000000E+00 0. -1.
        -14    1    4    4    0    0 -0.12375681171E+02 -0.17887607684E+02 -0.70652203154E+02  0.73924676554E+02  0.00000000000E+00 0.  1.
</event>
<event>
12    1  0.8724767E-002  0.2437272E+03  0.7818608E-02  0.1118084E+00
         21   -1    0    0  501  502  0.00000000000E+00  0.00000000000E+00  0.57733894677E+03  0.57733894677E+03  0.00000000000E+00 0. -1.
         21   -1    0    0  502  503 -0.00000000000E+00 -0.00000000000E+00 -0.15094352162E+03  0.15094352162E+03  0.00000000000E+00 0.  1.
         -6    2    1    2    0  503 -0.16909409213E+03 -0.34018981934E+02  0.50446742922E+01  0.24377941812E+03  0.17220003727E+03 0.  0.
        -24    2    3    3    0    0 -0.24914330575E+02 -0.30392603240E+02  0.34625981605E+01  0.99468825199E+02  0.91310587561E+02 0.  0.
          6    2    1    2  501    0  0.16909409213E+03  0.34018981934E+02  0.42135075086E+03  0.48450305027E+03  0.16570047480E+03 0.  0.
         24    2    5    5    0    0  0.21797561515E+02  0.44249514996E+02  0.16931686720E+03  0.19236592451E+03  0.76832897429E+02 0.  0.
          5    1    5    5  501    0  0.14729653061E+03 -0.10230533062E+02  0.25203388366E+03  0.29213712576E+03  0.47000000000E+01 0. -1.
        -11    1    6    6    0    0 -0.60446776906E+01  0.87317305195E+01 -0.54004729570E+01  0.11914124156E+02  0.00000000000E+00 0.  1.
         12    1    6    6    0    0  0.27842239206E+02  0.35517784477E+02  0.17471734016E+03  0.18045180035E+03  0.00000000000E+00 0. -1.
         -5    1    3    3    0  503 -0.14417976155E+03 -0.36263786946E+01  0.15820761317E+01  0.14431059292E+03  0.47000000000E+01 0.  1.
         13    1    4    4    0    0 -0.19666491143E+02  0.18718732917E+02  0.32363170334E+02  0.42243776228E+02  0.00000000000E+00 0. -1.
        -14    1    4    4    0    0 -0.52478394319E+01 -0.49111336157E+02 -0.28900572174E+02  0.57225048971E+02  0.00000000000E+00 0.  1.
</event>
<event>
12    1  0.8724767E-002  0.2134264E+03  0.7818608E-02  0.1139410E+00
         21   -1    0    0  503  502  0.00000000000E+00  0.00000000000E+00  0.87219797228E+02  0.87219797228E+02  0.00000000000E+00 0.  1.
         21   -1    0    0  501  503 -0.00000000000E+00 -0.00000000000E+00 -0.51574780617E+03  0.51574780617E+03  0.00000000000E+00 0. -1.
          6    2    1    2  501    0  0.11761888218E+03 -0.48616795781E+02 -0.21123283692E+03  0.30028342994E+03  0.17132726760E+03 0.  0.
         24    2    3    3    0    0 -0.15956345459E+01  0.45349855249E+01 -0.62105016669E+02  0.10204516515E+03  0.80827411753E+02 0.  0.
         -6    2    1    2    0  502 -0.11761888218E+03  0.48616795781E+02 -0.21729517202E+03  0.30268417346E+03  0.16793666306E+03 0.  0.
        -24    2    5    5    0    0 -0.79094542127E+02 -0.30505139275E+02 -0.16191735828E+03  0.19860152535E+03  0.77709876080E+02 0.  0.
          5    1    3    3  501    0  0.11921451673E+03 -0.53151781306E+02 -0.14912782025E+03  0.19823826479E+03  0.47000000000E+01 0. -1.
        -11    1    4    4    0    0  0.73647396407E+01  0.41785898406E+02 -0.36438722807E+02  0.55929251876E+02  0.00000000000E+00 0.  1.
         12    1    4    4    0    0 -0.89603741866E+01 -0.37250912881E+02 -0.25666293863E+02  0.46115913270E+02  0.00000000000E+00 0. -1.
         -5    1    5    5    0  502 -0.38524340057E+02  0.79121935057E+02 -0.55377813743E+02  0.10408264812E+03  0.47000000000E+01 0.  1.
         11    1    6    6    0    0  0.26829915055E+01  0.85473010643E+01 -0.66146601656E+02  0.66750488459E+02  0.00000000000E+00 0. -1.
        -12    1    6    6    0    0 -0.81777533633E+02 -0.39052440340E+02 -0.95770756626E+02  0.13185103689E+03  0.00000000000E+00 0.  1.
</event>
<event>
12    1  0.8724767E-002  0.3263004E+03  0.7818608E-02  0.1072871E+00
         21   -1    0    0  503  502  0.00000000000E+00  0.00000000000E+00  0.12006885689E+04  0.12006885689E+04  0.00000000000E+00 0. -1.
         21   -1    0    0  501  503 -0.00000000000E+00 -0.00000000000E+00 -0.93322409223E+02  0.93322409223E+02  0.00000000000E+00 0.  1.
          6    2    1    2  501    0  0.26468228276E+03  0.80497451140E+02  0.70060332459E+03  0.77254387188E+03  0.17158806804E+03 0.  0.
         24    2    3    3    0    0  0.84021855857E+02  0.68928465321E+02  0.20627466366E+03  0.24608879658E+03  0.78737877429E+02 0.  0.
         -6    2    1    2    0  502 -0.26468228276E+03 -0.80497451140E+02  0.40676283507E+03  0.52146710623E+03  0.17301846273E+03 0.  0.
        -24    2    5    5    0    0 -0.22569681351E+03 -0.83848357363E+02  0.23739310748E+03  0.34757262671E+03  0.80508662253E+02 0.  0.
          5    1    3    3  501    0  0.18066042690E+03  0.11568985819E+02  0.49432866093E+03  0.52645507529E+03  0.47000000000E+01 0. -1.
        -11    1    4    4    0    0  0.95775397246E+02  0.62449895083E+02  0.15213340696E+03  0.19030893207E+03  0.00000000000E+00 0.  1.
         12    1    4    4    0    0 -0.11753541389E+02  0.64785702375E+01  0.54141256703E+02  0.55779864512E+02  0.00000000000E+00 0. -1.
         -5    1    5    5    0  502 -0.38985469247E+02  0.33509062228E+01  0.16936972759E+03  0.17389447952E+03  0.47000000000E+01 0.  1.
         11    1    6    6    0    0  0.18955480407E+01  0.61551301970E+01  0.17159860214E+02  0.18328653324E+02  0.00000000000E+00 0. -1.
        -12    1    6    6    0    0 -0.22759236155E+03 -0.90003487560E+02  0.22023324726E+03  0.32924397338E+03  0.00000000000E+00 0.  1.
</event>
<event>
12    1  0.8724767E-002  0.1941879E+03  0.7818608E-02  0.1154770E+00
         21   -1    0    0  501  502  0.00000000000E+00  0.00000000000E+00  0.17469629420E+03  0.17469629420E+03  0.00000000000E+00 0.  1.
         21   -1    0    0  502  503 -0.00000000000E+00 -0.00000000000E+00 -0.11120079826E+04  0.11120079826E+04  0.00000000000E+00 0.  1.
         -6    2    1    2    0  503  0.12035579642E+02 -0.88696641758E+02 -0.10462195519E+04  0.10640613364E+04  0.17216047000E+03 0.  0.
        -24    2    3    3    0    0  0.52030774100E+02 -0.10730349489E+03 -0.66103555059E+03  0.67633122998E+03  0.78960066123E+02 0.  0.
          6    2    1    2  501    0 -0.12035579642E+02  0.88696641758E+02  0.10890786347E+03  0.22264294041E+03  0.17232819489E+03 0.  0.
         24    2    5    5    0    0 -0.51971332483E+02  0.41757541491E+02  0.11993263703E+03  0.15985935083E+03  0.82015016616E+02 0.  0.
          5    1    5    5  501    0  0.39935752841E+02  0.46939100268E+02 -0.11024773562E+02  0.62783589584E+02  0.47000000000E+01 0. -1.
        -13    1    6    6    0    0  0.18954949473E+02  0.27131472792E+02  0.33387887733E+02  0.47012317244E+02  0.00000000000E+00 0.  1.
         14    1    6    6    0    0 -0.70926281956E+02  0.14626068699E+02  0.86544749299E+02  0.11284703358E+03  0.00000000000E+00 0. -1.
         -5    1    3    3    0  503 -0.39995194458E+02  0.18606853128E+02 -0.38518400128E+03  0.38773010640E+03  0.47000000000E+01 0.  1.
         13    1    4    4    0    0 -0.17465172397E+02 -0.42281228508E+02 -0.16372040959E+03  0.16999149110E+03  0.00000000000E+00 0. -1.
        -14    1    4    4    0    0  0.69495946497E+02 -0.65022266378E+02 -0.49731514100E+03  0.50633973889E+03  0.00000000000E+00 0.  1.
</event>
<event>
12    1  0.8724767E-002  0.2719253E+03  0.7818608E-02  0.1100556E+00
         21   -1    0    0  501  502  0.00000000000E+00  0.00000000000E+00  0.71377684554E+02  0.71377684554E+02  0.00000000000E+00 0.  1.
         21   -1    0    0  502  503 -0.00000000000E+00 -0.00000000000E+00 -0.13219148328E+04  0.13219148328E+04  0.00000000000E+00 0.  1.
         -6    2    1    2    0  503 -0.18142823968E+03 -0.10148588643E+03 -0.95722143277E+03  0.99509610069E+03  0.17529343101E+03 0.  0.
        -24    2    3    3    0    0 -0.10672635800E+02 -0.23000346814E+02 -0.33204808477E+03  0.34227050282E+03  0.79058493489E+02 0.  0.
          6    2    1    2  501    0  0.18142823968E+03  0.10148588643E+03 -0.29331571548E+03  0.39819641667E+03  0.17120363899E+03 0.  0.
         24    2    5    5    0    0  0.16865658229E+03  0.13263023460E+03 -0.21936368096E+03  0.31680797114E+03  0.78810178117E+02 0.  0.
          5    1    5    5  501    0  0.12771657388E+02 -0.31144348173E+02 -0.73952034522E+02  0.81388445528E+02  0.47000000000E+01 0. -1.
        -13    1    6    6    0    0  0.57443704945E+02  0.28812551080E+02 -0.22678870103E+02  0.68148906717E+02  0.00000000000E+00 0.  1.
         14    1    6    6    0    0  0.11121287735E+03  0.10381768352E+03 -0.19668481086E+03  0.24865906442E+03  0.00000000000E+00 0. -1.
         -5    1    3    3    0  503 -0.17075560388E+03 -0.78485539612E+02 -0.62517334800E+03  0.65282559787E+03  0.47000000000E+01 0.  1.
         13    1    4    4    0    0  0.83570814742E+01 -0.28748322420E+02 -0.42197903005E+02  0.51739442118E+02  0.00000000000E+00 0. -1.
        -14    1    4    4    0    0 -0.19029717274E+02  0.57479756062E+01 -0.28985018176E+03  0.29053106070E+03  0.00000000000E+00 0.  1.
</event>
<event>
12    1  0.8724767E-002  0.2286697E+03  0.7818608E-02  0.1127602E+00
         21   -1    0    0  501  502  0.00000000000E+00  0.00000000000E+00  0.34824192316E+03  0.34824192316E+03  0.00000000000E+00 0. -1.
         21   -1    0    0  502  503 -0.00000000000E+00 -0.00000000000E+00 -0.19208269119E+03  0.19208269119E+03  0.00000000000E+00 0. -1.
         -6    2    1    2    0  503  0.12975887617E+03 -0.77832287437E+02 -0.48284269304E+02  0.23358861139E+03  0.17128058207E+03 0.  0.
        -24    2    3    3    0    0  0.10247165115E+03 -0.10492103846E+03 -0.77513593312E+02  0.18506195415E+03  0.82040880811E+02 0.  0.
          6    2    1    2  501    0 -0.12975887617E+03  0.77832287437E+02  0.20444350128E+03  0.30673600297E+03  0.17144853277E+03 0.  0.
         24    2    5    5    0    0 -0.49429547649E+02  0.41345953691E+02  0.19161630553E+03  0.21745733518E+03  0.80113145070E+02 0.  0.
          5    1    5    5  501    0 -0.80329328521E+02  0.36486333746E+02  0.12827195749E+02  0.89278667786E+02  0.47000000000E+01 0. -1.
        -11    1    6    6    0    0 -0.65636607702E+02  0.15809615210E+02  0.97443375591E+02  0.11854669818E+03  0.00000000000E+00 0.  1.
         12    1    6    6    0    0  0.16207060053E+02  0.25536338480E+02  0.94172929937E+02  0.98910636998E+02  0.00000000000E+00 0. -1.
         -5    1    3    3    0  503  0.27287225018E+02  0.27088751018E+02  0.29229324008E+02  0.48526657240E+02  0.47000000000E+01 0.  1.
         11    1    4    4    0    0  0.83631097367E+02 -0.11556101140E+03 -0.52534151872E+02  0.15201429181E+03  0.00000000000E+00 0. -1.
        -12    1    4    4    0    0  0.18840553784E+02  0.10639972943E+02 -0.24979441440E+02  0.33047662334E+02  0.00000000000E+00 0.  1.
</event>
<event>
12    1  0.8724767E-002  0.1963202E+03  0.7818608E-02  0.1152994E+00
         21   -1    0    0  501  502  0.00000000000E+00  0.00000000000E+00  0.48640848670E+03  0.48640848670E+03  0.00000000000E+00 0. -1.
         21   -1    0    0  502  503 -0.00000000000E+00 -0.00000000000E+00 -0.15213461303E+03  0.15213461303E+03  0.00000000000E+00 0.  1.
         -6    2    1    2    0  503  0.16706319349E+01  0.94230410010E+02 -0.54070811329E+02  0.20363023400E+03  0.17221921606E+03 0.  0.
        -24    2    3    3    0    0 -0.26248333232E+02 -0.63656053562E+01 -0.45209588549E+02  0.98751074047E+02  0.83536649440E+02 0.  0.
          6    2    1    2  501    0 -0.16706319349E+01 -0.94230410010E+02  0.38834468499E+03  0.43491286573E+03  0.17162588741E+03 0.  0.
         24    2    5    5    0    0 -0.67238272632E+02 -0.35304236192E+02  0.21648976810E+03  0.24170931522E+03  0.76080214068E+02 0.  0.
          5    1    5    5  501    0  0.65567640697E+02 -0.58926173819E+02  0.17185491690E+03  0.19320355051E+03  0.47000000000E+01 0. -1.
        -13    1    6    6    0    0 -0.38863509397E+02 -0.58918261464E+02  0.14221201690E+03  0.15876394945E+03  0.00000000000E+00 0.  1.
         14    1    6    6    0    0 -0.28374763235E+02  0.23614025272E+02  0.74277751201E+02  0.82945365764E+02  0.00000000000E+00 0. -1.
         -5    1    3    3    0  503  0.27918965167E+02  0.10059601537E+03 -0.88612227798E+01  0.10487915995E+03  0.47000000000E+01 0.  1.
         11    1    4    4    0    0  0.59452981198E+01  0.30639362089E+02  0.11889778630E+01  0.31233487595E+02  0.00000000000E+00 0. -1.
        -12    1    4    4    0    0 -0.32193631352E+02 -0.37004967446E+02 -0.46398566412E+02  0.67517586452E+02  0.00000000000E+00 0.  1.
</event>
<event>
12    1  0.8724767E-002  0.1958272E+03  0.7818608E-02  0.1154166E+00
         21   -1    0    0  503  502  0.00000000000E+00  0.00000000000E+00  0.31614477331E+03  0.31614477331E+03  0.00000000000E+00 0.  1.
         21   -1    0    0  501  503 -0.00000000000E+00 -0.00000000000E+00 -0.22194733798E+03  0.22194733798E+03  0.00000000000E+00 0. -1.
          6    2    1    2  501    0  0.51002914366E+02  0.79174078610E+02 -0.13648631235E+03  0.23549783198E+03  0.16721508129E+03 0.  0.
         24    2    3    3    0    0  0.33351269180E+02 -0.19973275384E+02 -0.50018357568E+02  0.10268000341E+03  0.80809084397E+02 0.  0.
         -6    2    1    2    0  502 -0.51002914366E+02 -0.79174078610E+02  0.23068374768E+03  0.30259427931E+03  0.17169296558E+03 0.  0.
        -24    2    5    5    0    0  0.51099373267E+01 -0.22366953683E+02  0.19726301612E+03  0.21590669735E+03  0.84714888638E+02 0.  0.
          5    1    3    3  501    0  0.17651645186E+02  0.99147353995E+02 -0.86467954782E+02  0.13281782857E+03  0.47000000000E+01 0. -1.
        -13    1    4    4    0    0  0.47967167924E+02 -0.82707114729E+01  0.63264259827E+00  0.48679093085E+02  0.00000000000E+00 0.  1.
         14    1    4    4    0    0 -0.14615898743E+02 -0.11702563912E+02 -0.50651000166E+02  0.54000910326E+02  0.00000000000E+00 0. -1.
         -5    1    5    5    0  502 -0.56112851693E+02 -0.56807124927E+02  0.33420731564E+02  0.86687581959E+02  0.47000000000E+01 0.  1.
         11    1    6    6    0    0 -0.24029058774E+02 -0.12061229946E+02  0.14496782321E+02  0.30545468257E+02  0.00000000000E+00 0. -1.
        -12    1    6    6    0    0  0.29138996100E+02 -0.10305723737E+02  0.18276623380E+03  0.18536122909E+03  0.00000000000E+00 0.  1.
</event>
<event>
12    1  0.8724767E-002  0.2582028E+03  0.7818608E-02  0.1108553E+00
         21   -1    0    0  501  502  0.00000000000E+00  0.00000000000E+00  0.18689369163E+03  0.18689369163E+03  0.00000000000E+00 0. -1.
         21   -1    0    0  502  503 -0.00000000000E+00 -0.00000000000E+00 -0.70533797929E+03  0.70533797929E+03  0.00000000000E+00 0.  1.
         -6    2    1    2    0  503 -0.13898224457E+03 -0.12885489952E+03 -0.57363758781E+03  0.62819576018E+03  0.17219228067E+03 0.  0.
        -24    2    3    3    0    0 -0.10110738640E+03 -0.20895036442E+02 -0.20892427769E+03  0.24592919678E+03  0.78565322415E+02 0.  0.
          6    2    1    2  501    0  0.13898224457E+03  0.12885489952E+03  0.55193300148E+02  0.26403591075E+03  0.17535396302E+03 0.  0.
         24    2    5    5    0    0  0.16186216038E+03  0.14004559165E+03  0.61038332146E+02  0.23748451649E+03  0.82831702142E+02 0.  0.
          5    1    5    5  501    0 -0.22879915809E+02 -0.11190692132E+02 -0.58450319970E+01  0.26551394255E+02  0.47000000000E+01 0. -1.
        -11    1    6    6    0    0  0.11160713917E+03  0.12043899809E+03  0.12093263192E+02  0.16464492944E+03  0.00000000000E+00 0.  1.
         12    1    6    6    0    0  0.50255021213E+02  0.19606593559E+02  0.48945068953E+02  0.72839587059E+02  0.00000000000E+00 0. -1.
         -5    1    3    3    0  503 -0.37874858170E+02 -0.10795986307E+03 -0.36471331011E+03  0.38226656339E+03  0.47000000000E+01 0.  1.
         11    1    4    4    0    0 -0.32721370405E+02 -0.46285695602E+02 -0.86442137236E+02  0.10336970924E+03  0.00000000000E+00 0. -1.
        -12    1    4    4    0    0 -0.68386015998E+02  0.25390659160E+02 -0.12248214046E+03  0.14255948754E+03  0.00000000000E+00 0.  1.
</event>
<event>
12    1  0.8724767E-002  0.1998222E+03  0.7818608E-02  0.1153557E+00
         21   -1    0    0  503  502  0.00000000000E+00  0.00000000000E+00  0.65833784618E+02  0.65833784618E+02  0.00000000000E+00 0. -1.
         21   -1    0    0  501  503 -0.00000000000E+00 -0.00000000000E+00 -0.59085224375E+03  0.59085224375E+03  0.00000000000E+00 0. -1.
          6    2    1    2  501    0  0.73695466710E+02 -0.27448405077E+02 -0.17351775842E+03  0.25235738862E+03  0.16550348139E+03 0.  0.
         24    2    3    3    0    0  0.65278768395E+02 -0.81479917916E+02 -0.11927589866E+03  0.17519188765E+03  0.74600019246E+02 0.  0.
         -6    2    1    2    0  502 -0.73695466710E+02  0.27448405077E+02 -0.35150070072E+03  0.40432863975E+03  0.18369667814E+03 0.  0.
        -24    2    5    5    0    0 -0.11859949914E+03  0.44279977513E+02 -0.27885834398E+03  0.31715825515E+03  0.82467115847E+02 0.  0.
          5    1    3    3  501    0  0.84166983150E+01  0.54031512839E+02 -0.54241859755E+02  0.77165500970E+02  0.47000000000E+01 0. -1.
        -13    1    4    4    0    0  0.67641047959E+02 -0.38054329915E+02 -0.46684033028E+02  0.90569544185E+02  0.00000000000E+00 0.  1.
         14    1    4    4    0    0 -0.23622795635E+01 -0.43425588002E+02 -0.72591865633E+02  0.84622343468E+02  0.00000000000E+00 0. -1.
         -5    1    5    5    0  502  0.44904032427E+02 -0.16831572435E+02 -0.72642356738E+02  0.87170384600E+02  0.47000000000E+01 0.  1.
         11    1    6    6    0    0 -0.38128815766E+02  0.48380871077E+02 -0.69716096188E+02  0.93031442780E+02  0.00000000000E+00 0. -1.
        -12    1    6    6    0    0 -0.80470683371E+02 -0.41008935647E+01 -0.20914224779E+03  0.22412681237E+03  0.00000000000E+00 0.  1.
</event>
<event>
12    1  0.8724767E-002  0.1818905E+03  0.7818608E-02  0.1166074E+00
         21   -1    0    0  501  502  0.00000000000E+00  0.00000000000E+00  0.17591522763E+04  0.17591522763E+04  0.00000000000E+00 0.  1.
         21   -1    0    0  502  503 -0.00000000000E+00 -0.00000000000E+00 -0.20527627038E+02  0.20527627038E+02  0.00000000000E+00 0.  1.
         -6    2    1    2    0  503  0.55827039790E+02 -0.20688503006E+02  0.60804993272E+03  0.63456710151E+03  0.17148181567E+03 0.  0.
        -24    2    3    3    0    0  0.25778270653E+02  0.54704015017E+02  0.30042109099E+03  0.31637760676E+03  0.78644196569E+02 0.  0.
          6    2    1    2  501    0 -0.55827039790E+02  0.20688503006E+02  0.11305747166E+04  0.11451128018E+04  0.17187049399E+03 0.  0.
         24    2    5    5    0    0 -0.61062715661E+02  0.18564123934E+02  0.39185124091E+03  0.40635276722E+03  0.86613477491E+02 0.  0.
          5    1    5    5  501    0  0.52356758715E+01  0.21243790726E+01  0.73872347565E+03  0.73876003463E+03  0.47000000000E+01 0. -1.
        -11    1    6    6    0    0 -0.74756645086E+01  0.45310492441E+02  0.13447654850E+03  0.14210161287E+03  0.00000000000E+00 0.  1.
         12    1    6    6    0    0 -0.53587051153E+02 -0.26746368507E+02  0.25737469241E+03  0.26425115435E+03  0.00000000000E+00 0. -1.
         -5    1    3    3    0  503  0.30048769137E+02 -0.75392518023E+02  0.30762884174E+03  0.31818949475E+03  0.47000000000E+01 0.  1.
         11    1    4    4    0    0 -0.69176429685E+01 -0.32434872398E+01  0.16806826409E+03  0.16824183602E+03  0.00000000000E+00 0. -1.
        -12    1    4    4    0    0  0.32695913621E+02  0.57947502256E+02  0.13235282690E+03  0.14813577074E+03  0.00000000000E+00 0.  1.
</event>
<event>
12    1  0.8724767E-002  0.1777515E+03  0.7818608E-02  0.1170687E+00
         21   -1    0    0  503  502  0.00000000000E+00  0.00000000000E+00  0.25485442235E+02  0.25485442235E+02  0.00000000000E+00 0.  1.
         21   -1    0    0  501  503 -0.00000000000E+00 -0.00000000000E+00 -0.14963229715E+04  0.14963229715E+04  0.00000000000E+00 0.  1.
          6    2    1    2  501    0  0.40042926353E+02  0.21996121601E+01 -0.10668798827E+04  0.10815860068E+04  0.17316850675E+03 0.  0.
         24    2    3    3    0    0  0.21245273224E+02  0.33192875780E+02 -0.28426076876E+03  0.29811379819E+03  0.80712597376E+02 0.  0.
         -6    2    1    2    0  502 -0.40042926353E+02 -0.21996121601E+01 -0.40395764659E+03  0.44022240697E+03  0.17031063712E+03 0.  0.
        -24    2    5    5    0    0 -0.82760516119E+02  0.49806560859E+01 -0.36258538134E+03  0.38013827380E+03  0.78503748179E+02 0.  0.
          5    1    3    3  501    0  0.18797653129E+02 -0.30993263620E+02 -0.78261911391E+03  0.78347220858E+03  0.47000000000E+01 0. -1.
        -11    1    4    4    0    0 -0.20366238023E+02 -0.66807666248E+01 -0.15643589455E+03  0.15789745215E+03  0.00000000000E+00 0.  1.
         12    1    4    4    0    0  0.41611511246E+02  0.39873642405E+02 -0.12782487422E+03  0.14021634603E+03  0.00000000000E+00 0. -1.
         -5    1    5    5    0  502  0.42717589766E+02 -0.71802682461E+01 -0.41372265245E+02  0.60084133172E+02  0.47000000000E+01 0.  1.
         11    1    6    6    0    0 -0.80864107946E+01 -0.11298735682E+02 -0.20003343738E+03  0.20051540474E+03  0.00000000000E+00 0. -1.
        -12    1    6    6    0    0 -0.74674105325E+02  0.16279391768E+02 -0.16255194396E+03  0.17962286906E+03  0.00000000000E+00 0.  1.
</event>
<event>
12    1  0.8724767E-002  0.2122287E+03  0.7818608E-02  0.1140899E+00
         21   -1    0    0  503  502  0.00000000000E+00  0.00000000000E+00  0.15622514202E+03  0.15622514202E+03  0.00000000000E+00 0.  1.
         21   -1    0    0  501  503 -0.00000000000E+00 -0.00000000000E+00 -0.49512534252E+03  0.49512534252E+03  0.00000000000E+00 0. -1.
          6    2    1    2  501    0  0.95830083857E+02  0.60839765694E+02 -0.38239822685E+03  0.43471002166E+03  0.17279906531E+03 0.  0.
         24    2    3    3    0    0  0.10560425920E+03 -0.44661598132E+00 -0.18510526356E+03  0.22783286380E+03  0.80569201322E+02 0.  0.
         -6    2    1    2    0  502 -0.95830083857E+02 -0.60839765694E+02  0.43498026347E+02  0.21664046288E+03  0.17932130325E+03 0.  0.
        -24    2    5    5    0    0 -0.58786045737E+02 -0.16786803607E+02 -0.50136360532E+02  0.10662949690E+03  0.71544384923E+02 0.  0.
          5    1    3    3  501    0 -0.97741753418E+01  0.61286381676E+02 -0.19729296329E+03  0.20687715786E+03  0.47000000000E+01 0. -1.
        -13    1    4    4    0    0  0.10432136237E+02 -0.37450237211E+01  0.72160864524E+01  0.13225980978E+02  0.00000000000E+00 0.  1.
         14    1    4    4    0    0  0.95172122961E+02  0.32984077398E+01 -0.19232135002E+03  0.21460688282E+03  0.00000000000E+00 0. -1.
         -5    1    5    5    0  502 -0.37044038120E+02 -0.44052962088E+02  0.93634386879E+02  0.11001096598E+03  0.47000000000E+01 0.  1.
         13    1    6    6    0    0 -0.72595720451E+02 -0.14202205245E+02 -0.54541662786E+02  0.91905572416E+02  0.00000000000E+00 0. -1.
        -14    1    6    6    0    0  0.13809674714E+02 -0.25845983616E+01  0.44053022538E+01  0.14723924489E+02  0.00000000000E+00 0.  1.
</event>
<event>
12    1  0.8724767E-002  0.1755128E+03  0.7818608E-02  0.1172219E+00
         21   -1    0    0  503  502  0.00000000000E+00  0.00000000000E+00  0.38750746702E+02  0.38750746702E+02  0.00000000000E+00 0.  1.
         21   -1    0    0  501  503 -0.00000000000E+00 -0.00000000000E+00 -0.10302592414E+04  0.10302592414E+04  0.00000000000E+00 0.  1.
          6    2    1    2  501    0 -0.19295132307E+02 -0.36982368306E+02 -0.24029062897E+03  0.29756134399E+03  0.17047923442E+03 0.  0.
         24    2    3    3    0    0  0.15049357404E+02 -0.43365594562E+02 -0.46509350066E+02  0.10060052655E+03  0.76487177679E+02 0.  0.
         -6    2    1    2    0  502  0.19295132307E+02  0.36982368306E+02 -0.75121786578E+03  0.77144864416E+03  0.17048381455E+03 0.  0.
        -24    2    5    5    0    0  0.35053705174E+00  0.82209556281E+02 -0.38555027653E+03  0.40247808701E+03  0.81123737397E+02 0.  0.
          5    1    3    3  501    0 -0.34344489711E+02  0.63832262558E+01 -0.19378127890E+03  0.19696081743E+03  0.47000000000E+01 0. -1.
        -11    1    4    4    0    0  0.17351872420E+02  0.16749553031E+02  0.70307657965E+00  0.24127356256E+02  0.00000000000E+00 0.  1.
         12    1    4    4    0    0 -0.23025150163E+01 -0.60115147593E+02 -0.47212426645E+02  0.76473170297E+02  0.00000000000E+00 0. -1.
         -5    1    5    5    0  502  0.18944595255E+02 -0.45227187975E+02 -0.36566758924E+03  0.36897055715E+03  0.47000000000E+01 0.  1.
         13    1    6    6    0    0 -0.19809406863E+02  0.37898696783E+02 -0.62190468471E+02  0.75474354497E+02  0.00000000000E+00 0. -1.
        -14    1    6    6    0    0  0.20159943915E+02  0.44310859498E+02 -0.32335980806E+03  0.32700373252E+03  0.00000000000E+00 0.  1.
</event>
<event>
12    1  0.8724767E-002  0.2051723E+03  0.7818608E-02  0.1146839E+00
         21   -1    0    0  501  502  0.00000000000E+00  0.00000000000E+00  0.77812861953E+03  0.77812861953E+03  0.00000000000E+00 0.  1.
         21   -1    0    0  502  503 -0.00000000000E+00 -0.00000000000E+00 -0.54982160260E+02  0.54982160260E+02  0.00000000000E+00 0. -1.
         -6    2    1    2    0  503 -0.43195358253E+02 -0.90007399096E+02  0.27609725374E+03  0.34398454572E+03  0.17924425598E+03 0.  0.
        -24    2    3    3    0    0 -0.21710366503E+02 -0.72607427784E+02  0.60654092381E+02  0.12672385059E+03  0.81466783425E+02 0.  0.
          6    2    1    2  501    0  0.43195358253E+02  0.90007399096E+02  0.44704920553E+03  0.48912623408E+03  0.17153515625E+03 0.  0.
         24    2    5    5    0    0 -0.11808440035E+01 -0.98805827296E+01  0.25994124457E+03  0.27238137187E+03  0.80765963142E+02 0.  0.
          5    1    5    5  501    0  0.44376202257E+02  0.99887981825E+02  0.18710796096E+03  0.21674486221E+03  0.47000000000E+01 0. -1.
        -11    1    6    6    0    0  0.19880200402E+02 -0.35671153385E+02  0.85017129916E+02  0.94316307874E+02  0.00000000000E+00 0.  1.
         12    1    6    6    0    0 -0.21061044406E+02  0.25790570655E+02  0.17492411466E+03  0.17806506399E+03  0.00000000000E+00 0. -1.
         -5    1    3    3    0  503 -0.21484991750E+02 -0.17399971312E+02  0.21544316136E+03  0.21726069513E+03  0.47000000000E+01 0.  1.
         13    1    4    4    0    0 -0.37207548164E+02 -0.68940188244E+00  0.26033648585E+02  0.45416162034E+02  0.00000000000E+00 0. -1.
        -14    1    4    4    0    0  0.15497181660E+02 -0.71918025901E+02  0.34620443796E+02  0.81307688552E+02  0.00000000000E+00 0.  1.
</event>
<event>
12    1  0.8724767E-002  0.1771006E+03  0.7818608E-02  0.1170908E+00
         21   -1    0    0  501  502  0.00000000000E+00  0.00000000000E+00  0.35947990166E+03  0.35947990166E+03  0.00000000000E+00 0. -1.
         21   -1    0    0  502  503 -0.00000000000E+00 -0.00000000000E+00 -0.86931004289E+02  0.86931004289E+02  0.00000000000E+00 0. -1.
         -6    2    1    2    0  503  0.37020674796E+02 -0.81663977418E+00  0.12558508976E+03  0.21710882869E+03  0.17318611798E+03 0.  0.
        -24    2    3    3    0    0 -0.22385385113E+02  0.48142207516E+02  0.48082728363E+02  0.10777102780E+03  0.80522469252E+02 0.  0.
          6    2    1    2  501    0 -0.37020674796E+02  0.81663977418E+00  0.14696380761E+03  0.22930207726E+03  0.17207522955E+03 0.  0.
         24    2    5    5    0    0 -0.53460738720E+02 -0.27940923229E+02  0.26373052842E+02  0.10415618932E+03  0.80710768070E+02 0.  0.
          5    1    5    5  501    0  0.16440063924E+02  0.28757563003E+02  0.12059075477E+03  0.12514588794E+03  0.47000000000E+01 0. -1.
        -13    1    6    6    0    0  0.16734544557E+02  0.74655299085E+01 -0.57827639076E+01  0.19215084615E+02  0.00000000000E+00 0.  1.
         14    1    6    6    0    0 -0.70195283276E+02 -0.35406453137E+02  0.32155816750E+02  0.84941104707E+02  0.00000000000E+00 0. -1.
         -5    1    3    3    0  503  0.59406059909E+02 -0.48958847290E+02  0.77502361396E+02  0.10933780089E+03  0.47000000000E+01 0.  1.
         11    1    4    4    0    0  0.24026659468E+02  0.11702638616E+02 -0.63742903505E+01  0.27474782861E+02  0.00000000000E+00 0. -1.
        -12    1    4    4    0    0 -0.46412044581E+02  0.36439568900E+02  0.54457018713E+02  0.80296244937E+02  0.00000000000E+00 0.  1.
</event>
<event>
12    1  0.8724767E-002  0.2546965E+03  0.7818608E-02  0.1111920E+00
         21   -1    0    0  503  502  0.00000000000E+00  0.00000000000E+00  0.49946523451E+03  0.49946523451E+03  0.00000000000E+00 0. -1.
         21   -1    0    0  501  503 -0.00000000000E+00 -0.00000000000E+00 -0.18263018177E+03  0.18263018177E+03  0.00000000000E+00 0. -1.
          6    2    1    2  501    0 -0.18707392029E+03  0.22304373439E+02 -0.31143193526E+02  0.25659349714E+03  0.17139482940E+03 0.  0.
         24    2    3    3    0    0 -0.71265939651E+02  0.66398922851E+02  0.12673902926E+01  0.12842035794E+03  0.83681126584E+02 0.  0.
         -6    2    1    2    0  502  0.18707392029E+03 -0.22304373439E+02  0.34797824626E+03  0.42550191914E+03  0.15642533872E+03 0.  0.
        -24    2    5    5    0    0  0.11368562653E+03 -0.33465113983E+02  0.31053782643E+03  0.34222960185E+03  0.81504743428E+02 0.  0.
          5    1    3    3  501    0 -0.11580798064E+03 -0.44094549412E+02 -0.32410583819E+02  0.12817313919E+03  0.47000000000E+01 0. -1.
        -11    1    4    4    0    0  0.19044558177E+02  0.82602896708E+01  0.31574729611E+01  0.20997552645E+02  0.00000000000E+00 0.  1.
         12    1    4    4    0    0 -0.90310497827E+02  0.58138633180E+02 -0.18900826684E+01  0.10742280530E+03  0.00000000000E+00 0. -1.
         -5    1    5    5    0  502  0.73388293762E+02  0.11160740544E+02  0.37440419827E+02  0.83272317294E+02  0.47000000000E+01 0.  1.
         11    1    6    6    0    0  0.82907411577E+02 -0.58339030779E+02  0.25142702744E+03  0.27109524439E+03  0.00000000000E+00 0. -1.
        -12    1    6    6    0    0  0.30778214951E+02  0.24873916797E+02  0.59110798998E+02  0.71134357455E+02  0.00000000000E+00 0.  1.
</event>
<event>
12    1  0.8724767E-002  0.1817654E+03  0.7818608E-02  0.1166466E+00
         21   -1    0    0  503  502  0.00000000000E+00  0.00000000000E+00  0.74664662960E+02  0.74664662960E+02  0.00000000000E+00 0. -1.
         21   -1    0    0  501  503 -0.00000000000E+00 -0.00000000000E+00 -0.55742814684E+03  0.55742814684E+03  0.00000000000E+00 0. -1.
          6    2    1    2  501    0  0.33353603860E+02 -0.49800855332E+02 -0.38794016100E+03  0.42841128867E+03  0.17159858876E+03 0.  0.
         24    2    3    3    0    0  0.42919435621E+02  0.13053039487E+01 -0.35572212773E+03  0.36706443609E+03  0.79713777445E+02 0.  0.
         -6    2    1    2    0  502 -0.33353603860E+02  0.49800855332E+02 -0.94823322883E+02  0.20368152113E+03  0.17000620990E+03 0.  0.
        -24    2    5    5    0    0 -0.50716193109E+02  0.68935930015E+02 -0.16756376435E+02  0.12131557722E+03  0.84335036814E+02 0.  0.
          5    1    3    3  501    0 -0.95658317611E+01 -0.51106159281E+02 -0.32218033268E+02  0.61346852580E+02  0.47000000000E+01 0. -1.
        -11    1    4    4    0    0  0.30209045358E+02  0.17035428882E+02 -0.51017174353E+02  0.61689094154E+02  0.00000000000E+00 0.  1.
         12    1    4    4    0    0  0.12710390263E+02 -0.15730124933E+02 -0.30470495338E+03  0.30537534194E+03  0.00000000000E+00 0. -1.
         -5    1    5    5    0  502  0.17362589249E+02 -0.19135074683E+02 -0.78066946448E+02  0.82365943910E+02  0.47000000000E+01 0.  1.
         11    1    6    6    0    0  0.20548089088E+02  0.32825134048E+02 -0.14626080913E+02  0.41396082343E+02  0.00000000000E+00 0. -1.
        -12    1    6    6    0    0 -0.71264282197E+02  0.36110795967E+02 -0.21302955227E+01  0.79919494877E+02  0.00000000000E+00 0.  1.
</event>
<event>
12    1  0.8724767E-002  0.1861867E+03  0.7818608E-02  0.1164401E+00
         21   -1    0    0  501  502  0.00000000000E+00  0.00000000000E+00  0.31781318530E+03  0.31781318530E+03  0.00000000000E+00 0.  1.
         21   -1    0    0  502  503 -0.00000000000E+00 -0.00000000000E+00 -0.11084501044E+03  0.11084501044E+03  0.00000000000E+00 0.  1.
         -6    2    1    2    0  503 -0.41366576998E+02 -0.55370653101E+02  0.44234548662E+02  0.18137752375E+03  0.16175292242E+03 0.  0.
        -24    2    3    3    0    0 -0.31791916388E+02 -0.34957496917E+02  0.91731825720E+02  0.12859066555E+03  0.76733818348E+02 0.  0.
          6    2    1    2  501    0  0.41366576998E+02  0.55370653101E+02  0.16273362620E+03  0.24728067198E+03  0.17288260387E+03 0.  0.
         24    2    5    5    0    0  0.39552444729E+02  0.23482794950E+02  0.18648039366E+03  0.20720417590E+03  0.77735421445E+02 0.  0.
          5    1    5    5  501    0  0.18141322689E+01  0.31887858151E+02 -0.23746767461E+02  0.40076496082E+02  0.47000000000E+01 0. -1.
        -13    1    6    6    0    0  0.18870188192E+02  0.38379726619E+02  0.40118401952E+02  0.58639351914E+02  0.00000000000E+00 0.  1.
         14    1    6    6    0    0  0.20682256536E+02 -0.14896931669E+02  0.14636199171E+03  0.14856482398E+03  0.00000000000E+00 0. -1.
         -5    1    3    3    0  503 -0.95746606096E+01 -0.20413156184E+02 -0.47497277058E+02  0.52786858205E+02  0.47000000000E+01 0.  1.
         13    1    4    4    0    0  0.15419447035E+02 -0.95556410846E+01  0.67250677170E+02  0.69654312165E+02  0.00000000000E+00 0. -1.
        -14    1    4    4    0    0 -0.47211363423E+02 -0.25401855833E+02  0.24481148550E+02  0.58936353385E+02  0.00000000000E+00 0.  1.
</event>
<event>
12    1  0.8724767E-002  0.2084940E+03  0.7818608E-02  0.1143033E+00
         21   -1    0    0  501  502  0.00000000000E+00  0.00000000000E+00  0.12103508573E+03  0.12103508573E+03  0.00000000000E+00 0. -1.
         21   -1    0    0  502  503 -0.00000000000E+00 -0.00000000000E+00 -0.56304769268E+03  0.56304769268E+03  0.00000000000E+00 0. -1.
         -6    2    1    2    0  503  0.29740282350E+02 -0.11210954886E+03 -0.42754505419E+03  0.47508746489E+03  0.17164000289E+03 0.  0.
        -24    2    3    3    0    0  0.78618734121E+01 -0.52913847182E+02 -0.38895031778E+03  0.40096297802E+03  0.81408081718E+02 0.  0.
          6    2    1    2  501    0 -0.29740282350E+02  0.11210954886E+03 -0.14467552758E+02  0.20899531353E+03  0.17325327026E+03 0.  0.
         24    2    5    5    0    0  0.11576037201E+02  0.33538326046E+02  0.42139902617E+02  0.10360570626E+03  0.87747062781E+02 0.  0.
          5    1    5    5  501    0 -0.41316319550E+02  0.78571222810E+02 -0.56607455374E+02  0.10538960726E+03  0.47000000000E+01 0. -1.
        -11    1    6    6    0    0  0.21002094407E+02 -0.15839612751E+02 -0.12700886501E+02  0.29211193393E+02  0.00000000000E+00 0.  1.
         12    1    6    6    0    0 -0.94260572059E+01  0.49377938796E+02  0.54840789118E+02  0.74394512871E+02  0.00000000000E+00 0. -1.
         -5    1    3    3    0  503  0.21878408938E+02 -0.59195701674E+02 -0.38594736418E+02  0.74124486869E+02  0.47000000000E+01 0.  1.
         11    1    4    4    0    0 -0.20178392890E+01 -0.50057529188E+02 -0.10016780952E+03  0.11199740161E+03  0.00000000000E+00 0. -1.
        -12    1    4    4    0    0  0.98797127010E+01 -0.28563179939E+01 -0.28878250825E+03  0.28896557641E+03  0.00000000000E+00 0.  1.
</event>
<event>
12    1  0.8724767E-002  0.2302456E+03  0.7818608E-02  0.1126494E+00
         21   -1    0    0  501  502  0.00000000000E+00  0.00000000000E+00  0.45738926671E+03  0.45738926671E+03  0.00000000000E+00 0. -1.
         21   -1    0    0  502  503 -0.00000000000E+00 -0.00000000000E+00 -0.11814191520E+03  0.11814191520E+03  0.00000000000E+00 0. -1.
         -6    2    1    2    0  503 -0.12881619199E+03  0.83489143222E+02  0.20997178403E+03  0.31161062114E+03  0.17160705336E+03 0.  0.
        -24    2    3    3    0    0 -0.14382388030E+03  0.25710583655E+02  0.17720634287E+03  0.24335187233E+03  0.80446896510E+02 0.  0.
          6    2    1    2  501    0  0.12881619199E+03 -0.83489143222E+02  0.12927556748E+03  0.26392056078E+03  0.17139965490E+03 0.  0.
         24    2    5    5    0    0  0.67815008877E+02  0.43959792729E+01  0.15634422952E+02  0.10777531164E+03  0.82175924429E+02 0.  0.
          5    1    5    5  501    0  0.61001183112E+02 -0.87885122495E+02  0.11364114453E+03  0.15614524914E+03  0.47000000000E+01 0. -1.
        -11    1    6    6    0    0  0.15134628490E+02  0.53176805748E+01 -0.32606039604E+02  0.36338526730E+02  0.00000000000E+00 0.  1.
         12    1    6    6    0    0  0.52680380387E+02 -0.92170130190E+00  0.48240462556E+02  0.71436784913E+02  0.00000000000E+00 0. -1.
         -5    1    3    3    0  503  0.15007688308E+02  0.57778559567E+02  0.32765441160E+02  0.68258748805E+02  0.47000000000E+01 0.  1.
         11    1    4    4    0    0 -0.85806953733E+02  0.11320634405E+02  0.15871861724E+03  0.18078326674E+03  0.00000000000E+00 0. -1.
        -12    1    4    4    0    0 -0.58016926564E+02  0.14389949250E+02  0.18487725629E+02  0.62568605596E+02  0.00000000000E+00 0.  1.
</event>
<event>
12    1  0.8724767E-002  0.1795685E+03  0.7818608E-02  0.1168999E+00
         21   -1    0    0  503  502  0.00000000000E+00  0.00000000000E+00  0.58426568095E+03  0.58426568095E+03  0.00000000000E+00 0.  1.
         21   -1    0    0  501  503 -0.00000000000E+00 -0.00000000000E+00 -0.57698667244E+02  0.57698667244E+02  0.00000000000E+00 0.  1.
          6    2    1    2  501    0 -0.37291208967E+02  0.12523875156E+01  0.18223120098E+03  0.25361915244E+03  0.17240145340E+03 0.  0.
         24    2    3    3    0    0  0.33513619156E+02 -0.22608788541E+02  0.51934552177E+02  0.10334611395E+03  0.79679994795E+02 0.  0.
         -6    2    1    2    0  502  0.37291208967E+02 -0.12523875156E+01  0.34433581273E+03  0.38834519576E+03  0.17564918559E+03 0.  0.
        -24    2    5    5    0    0  0.85558851287E+02  0.17672981874E+02  0.18051887733E+03  0.21645565790E+03  0.81445291096E+02 0.  0.
          5    1    3    3  501    0 -0.70804828123E+02  0.23861176057E+02  0.13029664880E+03  0.15027303849E+03  0.47000000000E+01 0. -1.
        -13    1    4    4    0    0  0.41106008884E+02  0.19365016674E+02  0.18139382790E+02  0.48925913841E+02  0.00000000000E+00 0.  1.
         14    1    4    4    0    0 -0.75923897282E+01 -0.41973805215E+02  0.33795169387E+02  0.54420200109E+02  0.00000000000E+00 0. -1.
         -5    1    5    5    0  502 -0.48267642320E+02 -0.18925369389E+02  0.16381693540E+03  0.17188953786E+03  0.47000000000E+01 0.  1.
         11    1    6    6    0    0  0.37986779831E+02 -0.15848557982E+02  0.20098120743E+02  0.45805094579E+02  0.00000000000E+00 0. -1.
        -12    1    6    6    0    0  0.47572071456E+02  0.33521539855E+02  0.16042075659E+03  0.17065056332E+03  0.00000000000E+00 0.  1.
</event>
<event>
12    1  0.8724767E-002  0.1746684E+03  0.7818608E-02  0.1173267E+00
         21   -1    0    0  503  502  0.00000000000E+00  0.00000000000E+00  0.77954079193E+02  0.77954079193E+02  0.00000000000E+00 0.  1.
         21   -1    0    0  501  503 -0.00000000000E+00 -0.00000000000E+00 -0.40269079669E+03  0.40269079669E+03  0.00000000000E+00 0.  1.
          6    2    1    2  501    0 -0.15136661539E+02  0.25196648809E+02 -0.20608804866E+03  0.27015055980E+03  0.17217738390E+03 0.  0.
         24    2    3    3    0    0 -0.27239498132E+02 -0.17983030866E+01 -0.22102349904E+03  0.23667872448E+03  0.80126196347E+02 0.  0.
         -6    2    1    2    0  502  0.15136661539E+02 -0.25196648809E+02 -0.11864866884E+03  0.21049431609E+03  0.17136616017E+03 0.  0.
        -24    2    5    5    0    0  0.44363929598E+02  0.35703332554E+02 -0.10312212971E+03  0.14102342761E+03  0.77527719519E+02 0.  0.
          5    1    3    3  501    0  0.12102836594E+02  0.26994951896E+02  0.14935450382E+02  0.33471835319E+02  0.47000000000E+01 0. -1.
        -11    1    4    4    0    0 -0.15074989558E+02  0.36395548282E+02 -0.68941412190E+02  0.79402830931E+02  0.00000000000E+00 0.  1.
         12    1    4    4    0    0 -0.12164508574E+02 -0.38193851369E+02 -0.15208208685E+03  0.15727589355E+03  0.00000000000E+00 0. -1.
         -5    1    5    5    0  502 -0.29227268059E+02 -0.60899981363E+02 -0.15526539128E+02  0.69470888475E+02  0.47000000000E+01 0.  1.
         11    1    6    6    0    0  0.51701138009E+01  0.36622039915E+02 -0.93652941044E+02  0.10069149542E+03  0.00000000000E+00 0. -1.
        -12    1    6    6    0    0  0.39193815797E+02 -0.91870736113E+00 -0.94691886674E+01  0.40331932187E+02  0.00000000000E+00 0.  1.
</event>
<event>
12    1  0.8724767E-002  0.2140113E+03  0.7818608E-02  0.1138524E+00
         21   -1    0    0  503  502  0.00000000000E+00  0.00000000000E+00  0.63078044370E+02  0.63078044370E+02  0.00000000000E+00 0. -1.
         21   -1    0    0  501  503 -0.00000000000E+00 -0.00000000000E+00 -0.78036246753E+03  0.78036246753E+03  0.00000000000E+00 0. -1.
          6    2    1    2  501    0 -0.11541253354E+03  0.52234724131E+02 -0.47117257974E+03  0.51729348116E+03  0.17187328603E+03 0.  0.
         24    2    3    3    0    0 -0.95312146428E+02  0.93158377926E+02 -0.27157024858E+03  0.31249613838E+03  0.78361648523E+02 0.  0.
         -6    2    1    2    0  502  0.11541253354E+03 -0.52234724131E+02 -0.24611184342E+03  0.32614703074E+03  0.17248862828E+03 0.  0.
        -24    2    5    5    0    0  0.11874770997E+03 -0.29359592778E+02 -0.26027165651E+03  0.29863366411E+03  0.80484320494E+02 0.  0.
          5    1    3    3  501    0 -0.20100387109E+02 -0.40923653795E+02 -0.19960233117E+03  0.20479734278E+03  0.47000000000E+01 0. -1.
        -13    1    4    4    0    0 -0.14265093574E+02  0.57341791201E+02 -0.15635668500E+03  0.16714959424E+03  0.00000000000E+00 0.  1.
         14    1    4    4    0    0 -0.81047052854E+02  0.35816586725E+02 -0.11521356358E+03  0.14534654414E+03  0.00000000000E+00 0. -1.
         -5    1    5    5    0  502 -0.33351764292E+01 -0.22875131353E+02  0.14159813096E+02  0.27513366627E+02  0.47000000000E+01 0.  1.
         13    1    6    6    0    0  0.55142115934E+02  0.71208339104E+01 -0.45995972730E+02  0.72159467381E+02  0.00000000000E+00 0. -1.
        -14    1    6    6    0    0  0.63605594032E+02 -0.36480426689E+02 -0.21427568378E+03  0.22647419673E+03  0.00000000000E+00 0.  1.
</event>
<event>
12    1  0.8724767E-002  0.1881980E+03  0.7818608E-02  0.1160197E+00
         21   -1    0    0  503  502  0.00000000000E+00  0.00000000000E+00  0.53177746044E+02  0.53177746044E+02  0.00000000000E+00 0.  1.
         21   -1    0    0  501  503 -0.00000000000E+00 -0.00000000000E+00 -0.67486376170E+03  0.67486376170E+03  0.00000000000E+00 0. -1.
          6    2    1    2  501    0  0.68850508453E+02  0.33944035460E+02 -0.35561453035E+03  0.40213888839E+03  0.17135168894E+03 0.  0.
         24    2    3    3    0    0  0.73222200011E+02  0.29929831527E+02 -0.36956568080E+03  0.38626595170E+03  0.79782878036E+02 0.  0.
         -6    2    1    2    0  502 -0.68850508453E+02 -0.33944035460E+02 -0.26607148530E+03  0.32590261935E+03  0.17183099823E+03 0.  0.
        -24    2    5    5    0    0  0.13656040219E+02 -0.55845941861E+02 -0.11233927745E+03  0.14999723055E+03  0.81078969274E+02 0.  0.
          5    1    3    3  501    0 -0.43716915580E+01  0.40142039329E+01  0.13951150449E+02  0.15872936690E+02  0.47000000000E+01 0. -1.
        -13    1    4    4    0    0  0.56443725979E+02  0.74478891640E+01 -0.98635669014E+02  0.11388749035E+03  0.00000000000E+00 0.  1.
         14    1    4    4    0    0  0.16778474032E+02  0.22481942363E+02 -0.27093001179E+03  0.27237846136E+03  0.00000000000E+00 0. -1.
         -5    1    5    5    0  502 -0.82506548671E+02  0.21901906401E+02 -0.15373220786E+03  0.17590538880E+03  0.47000000000E+01 0.  1.
         11    1    6    6    0    0  0.33027130119E+02 -0.10241092147E+01 -0.72030390416E+02  0.79247821844E+02  0.00000000000E+00 0. -1.
        -12    1    6    6    0    0 -0.19371089900E+02 -0.54821832646E+02 -0.40308887033E+02  0.70749408707E+02  0.00000000000E+00 0.  1.
</event>
<event>
12    1  0.8724767E-002  0.1814863E+03  0.7818608E-02  0.1167627E+00
         21   -1    0    0  501  502  0.00000000000E+00  0.00000000000E+00  0.10102714645E+04  0.10102714645E+04  0.00000000000E+00 0.  1.
         21   -1    0    0  502  503 -0.00000000000E+00 -0.00000000000E+00 -0.41559943607E+02  0.41559943607E+02  0.00000000000E+00 0. -1.
         -6    2    1    2    0  503  0.34263662128E+02 -0.19407435757E+02  0.22264523302E+03  0.28400838986E+03  0.17186977227E+03 0.  0.
        -24    2    3    3    0    0  0.19819270195E+02  0.52193356394E+02  0.86544545174E+02  0.12947424759E+03  0.78464466904E+02 0.  0.
          6    2    1    2  501    0 -0.34263662128E+02  0.19407435757E+02  0.74606628783E+03  0.76782301820E+03  0.17716273407E+03 0.  0.
         24    2    5    5    0    0 -0.34240266100E+02 -0.20885814998E+02  0.70419795434E+03  0.70952555725E+03  0.76961967317E+02 0.  0.
          5    1    5    5  501    0 -0.23396027185E-01  0.40293250755E+02  0.41868333490E+02  0.58297460948E+02  0.47000000000E+01 0. -1.
        -13    1    6    6    0    0  0.16861703950E+02  0.86063331204E+01  0.34457729868E+03  0.34509694405E+03  0.00000000000E+00 0.  1.
         14    1    6    6    0    0 -0.51101970050E+02 -0.29492148118E+02  0.35962065566E+03  0.36442861320E+03  0.00000000000E+00 0. -1.
         -5    1    3    3    0  503  0.14444391933E+02 -0.71600792151E+02  0.13610068785E+03  0.15453414227E+03  0.47000000000E+01 0.  1.
         11    1    4    4    0    0 -0.12651272666E+02  0.41945004807E+02  0.89199665434E+01  0.44710221779E+02  0.00000000000E+00 0. -1.
        -12    1    4    4    0    0  0.32470542861E+02  0.10248351587E+02  0.77624578631E+02  0.84764025810E+02  0.00000000000E+00 0.  1.
</event>
<event>
12    1  0.8724767E-002  0.2033670E+03  0.7818608E-02  0.1147089E+00
         21   -1    0    0  503  502  0.00000000000E+00  0.00000000000E+00  0.43588505989E+02  0.43588505989E+02  0.00000000000E+00 0. -1.
         21   -1    0    0  501  503 -0.00000000000E+00 -0.00000000000E+00 -0.10200289440E+04  0.10200289440E+04  0.00000000000E+00 0. -1.
          6    2    1    2  501    0 -0.10805963933E+03  0.87121213919E+01 -0.63308844359E+03  0.66495044687E+03  0.17206200244E+03 0.  0.
         24    2    3    3    0    0  0.11088769555E+02  0.15479392411E+02 -0.29183321863E+03  0.30339912568E+03  0.80757845235E+02 0.  0.
         -6    2    1    2    0  502  0.10805963933E+03 -0.87121213919E+01 -0.34335199443E+03  0.39866700312E+03  0.17114905955E+03 0.  0.
        -24    2    5    5    0    0  0.90191995318E+02 -0.66980532345E+01 -0.35623847276E+03  0.37605151071E+03  0.79557710484E+02 0.  0.
          5    1    3    3  501    0 -0.11914840889E+03 -0.67672710196E+01 -0.34125522496E+03  0.36155132120E+03  0.47000000000E+01 0. -1.
        -11    1    4    4    0    0  0.70023707459E+00 -0.23689800385E+02 -0.28963940243E+02  0.37424681811E+02  0.00000000000E+00 0.  1.
         12    1    4    4    0    0  0.10388532480E+02  0.39169192796E+02 -0.26286927838E+03  0.26597444387E+03  0.00000000000E+00 0. -1.
         -5    1    5    5    0  502  0.17867644016E+02 -0.20140681574E+01  0.12886478329E+02  0.22615492410E+02  0.47000000000E+01 0.  1.
         11    1    6    6    0    0  0.10242095641E+03 -0.14096317780E+02 -0.27983385936E+03  0.29832155023E+03  0.00000000000E+00 0. -1.
        -12    1    6    6    0    0 -0.12228961093E+02  0.73982645458E+01 -0.76404613395E+02  0.77729960477E+02  0.00000000000E+00 0.  1.
</event>
<event>
12    1  0.8724767E-002  0.2052878E+03  0.7818608E-02  0.1145733E+00
         21   -1    0    0  501  502  0.00000000000E+00  0.00000000000E+00  0.29039513856E+02  0.29039513856E+02  0.00000000000E+00 0. -1.
         21   -1    0    0  502  503 -0.00000000000E+00 -0.00000000000E+00 -0.14454438532E+04  0.14454438532E+04  0.00000000000E+00 0. -1.
         -6    2    1    2    0  503 -0.10535820618E+03  0.31447858036E+02 -0.75739160189E+03  0.78423639547E+03  0.17115889102E+03 0.  0.
        -24    2    3    3    0    0 -0.67996985456E+02  0.86709312937E+02 -0.50043251207E+03  0.51871849955E+03  0.80585902340E+02 0.  0.
          6    2    1    2  501    0  0.10535820618E+03 -0.31447858036E+02 -0.65901273748E+03  0.69024697162E+03  0.17336024424E+03 0.  0.
         24    2    5    5    0    0  0.11684241070E+03  0.28128034704E+02 -0.44117093143E+03  0.46406492898E+03  0.79253594826E+02 0.  0.
          5    1    5    5  501    0 -0.11484204528E+02 -0.59575892740E+02 -0.21784180604E+03  0.22618204263E+03  0.47000000000E+01 0. -1.
        -13    1    6    6    0    0  0.50821160890E+02 -0.24951964981E+01 -0.30918392212E+03  0.31334280604E+03  0.00000000000E+00 0.  1.
         14    1    6    6    0    0  0.66021249814E+02  0.30623231202E+02 -0.13198700932E+03  0.15072212294E+03  0.00000000000E+00 0. -1.
         -5    1    3    3    0  503 -0.37361220720E+02 -0.55261454901E+02 -0.25695908983E+03  0.26551789592E+03  0.47000000000E+01 0.  1.
         11    1    4    4    0    0  0.11559408490E+02  0.31296232635E+02 -0.20732828208E+03  0.20999545388E+03  0.00000000000E+00 0. -1.
        -12    1    4    4    0    0 -0.79556393946E+02  0.55413080302E+02 -0.29310422999E+03  0.30872304566E+03  0.00000000000E+00 0.  1.
</event>
<event>
12    1  0.8724767E-002  0.2520142E+03  0.7818608E-02  0.1112115E+00
         21   -1    0    0  501  502  0.00000000000E+00  0.00000000000E+00  0.14268626224E+03  0.14268626224E+03  0.00000000000E+00 0. -1.
         21   -1    0    0  502  503 -0.00000000000E+00 -0.00000000000E+00 -0.78226269601E+03  0.78226269601E+03  0.00000000000E+00 0.  1.
         -6    2    1    2    0  503 -0.14265850305E+03 -0.11421080463E+03 -0.62361702646E+03  0.67242992908E+03  0.17282435434E+03 0.  0.
        -24    2    3    3    0    0 -0.11926720320E+02 -0.39074496954E+01 -0.19811632389E+03  0.21381182324E+03  0.79422308854E+02 0.  0.
          6    2    1    2  501    0  0.14265850305E+03  0.11421080463E+03 -0.15959407314E+02  0.25251902916E+03  0.17353847129E+03 0.  0.
         24    2    5    5    0    0 -0.22721977355E+01  0.27097119543E+02 -0.49550431572E+01  0.82999448608E+02  0.78261991071E+02 0.  0.
          5    1    5    5  501    0  0.14493070078E+03  0.87113685089E+02 -0.11004364157E+02  0.16951958055E+03  0.47000000000E+01 0. -1.
        -11    1    6    6    0    0 -0.24703043217E+02  0.43317837959E+02  0.10977325569E+02  0.51060523952E+02  0.00000000000E+00 0.  1.
         12    1    6    6    0    0  0.22430845482E+02 -0.16220718416E+02 -0.15932368726E+02  0.31938924656E+02  0.00000000000E+00 0. -1.
         -5    1    3    3    0  503 -0.13073178273E+03 -0.11030335494E+03 -0.42550070257E+03  0.45861810585E+03  0.47000000000E+01 0.  1.
         13    1    4    4    0    0 -0.77386425568E+01 -0.39975620470E+02 -0.73637627881E+02  0.84145332969E+02  0.00000000000E+00 0. -1.
        -14    1    4    4    0    0 -0.41880777634E+01  0.36068170774E+02 -0.12447869601E+03  0.12966649027E+03  0.00000000000E+00 0.  1.
</event>
<event>
12    1  0.8724767E-002  0.1909624E+03  0.7818608E-02  0.1157696E+00
         21   -1    0    0  503  502  0.00000000000E+00  0.00000000000E+00  0.18374790595E+03  0.18374790595E+03  0.00000000000E+00 0.  1.
         21   -1    0    0  501  503 -0.00000000000E+00 -0.00000000000E+00 -0.22152316272E+03  0.22152316272E+03  0.00000000000E+00 0.  1.
          6    2    1    2  501    0  0.57893769439E+02 -0.58255261463E+02 -0.84905843576E+02  0.20857857743E+03  0.17190304436E+03 0.  0.
         24    2    3    3    0    0 -0.31646103771E+02 -0.48730388307E+01 -0.41639110009E+02  0.95613313647E+02  0.79892852452E+02 0.  0.
         -6    2    1    2    0  502 -0.57893769439E+02  0.58255261463E+02  0.47130586813E+02  0.19669249124E+03  0.17239860750E+03 0.  0.
        -24    2    5    5    0    0 -0.35309711645E+02 -0.28693739675E+02 -0.96473462543E+01  0.90315838968E+02  0.77419461674E+02 0.  0.
          5    1    3    3  501    0  0.89539873210E+02 -0.53382222632E+02 -0.43266733567E+02  0.11296526378E+03  0.47000000000E+01 0. -1.
        -11    1    4    4    0    0 -0.33406530021E+02 -0.24205611535E+02  0.82583354497E+01  0.42072651238E+02  0.00000000000E+00 0.  1.
         12    1    4    4    0    0  0.17604262502E+01  0.19332572704E+02 -0.49897445458E+02  0.53540662409E+02  0.00000000000E+00 0. -1.
         -5    1    5    5    0  502 -0.22584057794E+02  0.86949001138E+02  0.56777933068E+02  0.10637665227E+03  0.47000000000E+01 0.  1.
         13    1    6    6    0    0 -0.51040285402E+02 -0.33378523473E+02 -0.26765261139E+02  0.66600418669E+02  0.00000000000E+00 0. -1.
        -14    1    6    6    0    0  0.15730573757E+02  0.46847837978E+01  0.17117914884E+02  0.23715420299E+02  0.00000000000E+00 0.  1.
</event>
<event>
12    1  0.8724767E-002  0.2281263E+03  0.7818608E-02  0.1128248E+00
         21   -1    0    0  501  502  0.00000000000E+00  0.00000000000E+00  0.21043540546E+03  0.21043540546E+03  0.00000000000E+00 0.  1.
         21   -1    0    0  502  503 -0.00000000000E+00 -0.00000000000E+00 -0.24810831903E+03  0.24810831903E+03  0.00000000000E+00 0. -1.
         -6    2    1    2    0  503 -0.14651743843E+03 -0.11932301175E+02 -0.41852106794E+02  0.23037914313E+03  0.17237520462E+03 0.  0.
        -24    2    3    3    0    0 -0.11366102526E+03 -0.61400656337E+02  0.82078443463E+01  0.15256686417E+03  0.80749056161E+02 0.  0.
          6    2    1    2  501    0  0.14651743843E+03  0.11932301175E+02  0.41791932236E+01  0.22816458137E+03  0.17444733005E+03 0.  0.
         24    2    5    5    0    0  0.78061985981E+02  0.15677411531E+02 -0.66067710386E+02  0.12989509329E+03  0.78538767608E+02 0.  0.
          5    1    5    5  501    0  0.68455452446E+02 -0.37451103557E+01  0.70246903609E+02  0.98269488082E+02  0.47000000000E+01 0. -1.
        -13    1    6    6    0    0  0.27339737523E+02  0.44194613717E+02 -0.42426590399E+02  0.67086814668E+02  0.00000000000E+00 0.  1.
         14    1    6    6    0    0  0.50722248459E+02 -0.28517202186E+02 -0.23641119986E+02  0.62808278622E+02  0.00000000000E+00 0. -1.
         -5    1    3    3    0  503 -0.32856413168E+02  0.49468355162E+02 -0.50059951141E+02  0.77812278960E+02  0.47000000000E+01 0.  1.
         11    1    4    4    0    0 -0.80192399707E+02 -0.47909029562E+02 -0.31810591550E+02  0.98681354972E+02  0.00000000000E+00 0. -1.
        -12    1    4    4    0    0 -0.33468625553E+02 -0.13491626775E+02  0.40018435897E+02  0.53885509193E+02  0.00000000000E+00 0.  1.
</event>
<event>
12    1  0.8724767E-002  0.2324690E+03  0.7818608E-02  0.1125114E+00
         21   -1    0    0  501  502  0.00000000000E+00  0.00000000000E+00  0.33367372690E+03  0.33367372690E+03  0.00000000000E+00 0.  1.
         21   -1    0    0  502  503 -0.00000000000E+00 -0.00000000000E+00 -0.22617205256E+03  0.22617205256E+03  0.00000000000E+00 0. -1.
         -6    2    1    2    0  503 -0.88332019195E+02  0.12778704289E+03 -0.96230167650E+02  0.25159904506E+03  0.17294438518E+03 0.  0.
        -24    2    3    3    0    0 -0.12547557215E+03  0.11629576818E+03 -0.96883596287E+02  0.21243005363E+03  0.80444213920E+02 0.  0.
          6    2    1    2  501    0  0.88332019195E+02 -0.12778704289E+03  0.20373184200E+03  0.30824673439E+03  0.17139810931E+03 0.  0.
         24    2    5    5    0    0  0.11731193661E+03 -0.76995862277E+02  0.18771783095E+03  0.24743457943E+03  0.79343769533E+02 0.  0.
          5    1    5    5  501    0 -0.28979917417E+02 -0.50791180612E+02  0.16014011054E+02  0.60812154965E+02  0.47000000000E+01 0. -1.
        -11    1    6    6    0    0  0.63463243074E+02  0.19187205450E+01  0.95293119922E+02  0.11450783124E+03  0.00000000000E+00 0.  1.
         12    1    6    6    0    0  0.53848693538E+02 -0.78914582822E+02  0.92424711023E+02  0.13292674819E+03  0.00000000000E+00 0. -1.
         -5    1    3    3    0  503  0.37143552959E+02  0.11491274712E+02  0.65342863652E+00  0.39168991433E+02  0.47000000000E+01 0.  1.
         13    1    4    4    0    0 -0.26687564595E+02  0.57805426074E+02 -0.69795200914E+02  0.94472553994E+02  0.00000000000E+00 0. -1.
        -14    1    4    4    0    0 -0.98788007559E+02  0.58490342103E+02 -0.27088395373E+02  0.11795749964E+03  0.00000000000E+00 0.  1.
</event>
<event>
12    1  0.8724767E-002  0.1946939E+03  0.7818608E-02  0.1154671E+00
         21   -1    0    0  501  502  0.00000000000E+00  0.00000000000E+00  0.26037511794E+03  0.26037511794E+03  0.00000000000E+00 0.  1.
         21   -1    0    0  502  503 -0.00000000000E+00 -0.00000000000E+00 -0.35122789940E+03  0.35122789940E+03  0.00000000000E+00 0. -1.
         -6    2    1    2    0  503  0.47498640155E+01  0.83791622196E+02 -0.28006410671E+03  0.34011332992E+03  0.17377449804E+03 0.  0.
        -24    2    3    3    0    0  0.38636492824E+02  0.32680358224E+02 -0.58542989024E+02  0.11021256765E+03  0.78477666325E+02 0.  0.
          6    2    1    2  501    0 -0.47498640155E+01 -0.83791622196E+02  0.18921132524E+03  0.27148968742E+03  0.17567620106E+03 0.  0.
         24    2    5    5    0    0  0.41612944109E+01 -0.23132156935E+02  0.10416167233E+02  0.82416214937E+02  0.78304041333E+02 0.  0.
          5    1    5    5  501    0 -0.89111584265E+01 -0.60659465261E+02  0.17879515800E+03  0.18907347248E+03  0.47000000000E+01 0. -1.
        -11    1    6    6    0    0  0.12292233579E+01 -0.43732122277E+02  0.30630473451E+02  0.53406323715E+02  0.00000000000E+00 0.  1.
         12    1    6    6    0    0  0.29320710531E+01  0.20599965342E+02 -0.20214306219E+02  0.29009891221E+02  0.00000000000E+00 0. -1.
         -5    1    3    3    0  503 -0.33886628808E+02  0.51111263972E+02 -0.22152111768E+03  0.22990076228E+03  0.47000000000E+01 0.  1.
         13    1    4    4    0    0  0.27003248305E+01 -0.24419927216E+02 -0.24286508538E+02  0.34546477337E+02  0.00000000000E+00 0. -1.
        -14    1    4    4    0    0  0.35936167993E+02  0.57100285440E+02 -0.34256480486E+02  0.75666090309E+02  0.00000000000E+00 0.  1.
</event>
<event>
12    1  0.8724767E-002  0.2003700E+03  0.7818608E-02  0.1150086E+00
         21   -1    0    0  501  502  0.00000000000E+00  0.00000000000E+00  0.89606312854E+03  0.89606312854E+03  0.00000000000E+00 0.  1.
         21   -1    0    0  502  503 -0.00000000000E+00 -0.00000000000E+00 -0.62895654056E+02  0.62895654056E+02  0.00000000000E+00 0.  1.
         -6    2    1    2    0  503 -0.52601565135E+02  0.86276241807E+02  0.15229396505E+03  0.24921454726E+03  0.16942232504E+03 0.  0.
        -24    2    3    3    0    0  0.16336165752E+02  0.88595166926E+02  0.61532235692E+02  0.13511998267E+03  0.79719632291E+02 0.  0.
          6    2    1    2  501    0  0.52601565135E+02 -0.86276241807E+02  0.68087350944E+03  0.70974423534E+03  0.17302493805E+03 0.  0.
         24    2    5    5    0    0  0.16641030002E+02  0.90058253956E+01  0.17132276710E+03  0.19009446729E+03  0.80164750338E+02 0.  0.
          5    1    5    5  501    0  0.35960535133E+02 -0.95282067202E+02  0.50955074234E+03  0.51964976805E+03  0.47000000000E+01 0. -1.
        -13    1    6    6    0    0  0.37312013456E+02  0.23345503773E+01  0.16234068233E+03  0.16658971641E+03  0.00000000000E+00 0.  1.
         14    1    6    6    0    0 -0.20670983454E+02  0.66712750183E+01  0.89820847758E+01  0.23504750887E+02  0.00000000000E+00 0. -1.
         -5    1    3    3    0  503 -0.68937730887E+02 -0.23189251195E+01  0.90761729355E+02  0.11409456459E+03  0.47000000000E+01 0.  1.
         13    1    4    4    0    0 -0.70313320681E+01  0.72264235442E+02  0.74298322987E+02  0.10388358943E+03  0.00000000000E+00 0. -1.
        -14    1    4    4    0    0  0.23367497820E+02  0.16330931484E+02 -0.12766087295E+02  0.31236393235E+02  0.00000000000E+00 0.  1.
</event>
<event>
12    1  0.8724767E-002  0.1772124E+03  0.7818608E-02  0.1171632E+00
         21   -1    0    0  501  502  0.00000000000E+00  0.00000000000E+00  0.26927916660E+03  0.26927916660E+03  0.00000000000E+00 0.  1.
         21   -1    0    0  502  503 -0.00000000000E+00 -0.00000000000E+00 -0.22814706892E+03  0.22814706892E+03  0.00000000000E+00 0.  1.
         -6    2    1    2    0  503 -0.44634248228E+02  0.10483042542E+02 -0.15542180078E+03  0.23571204400E+03  0.17117862377E+03 0.  0.
        -24    2    3    3    0    0  0.24382752363E+01  0.39852054425E+02 -0.23033589497E+02  0.92090702237E+02  0.79724649672E+02 0.  0.
          6    2    1    2  501    0  0.44634248228E+02 -0.10483042542E+02  0.19655389846E+03  0.26171419152E+03  0.16660964182E+03 0.  0.
         24    2    5    5    0    0  0.83752294894E+02 -0.47446933088E+02  0.14899706868E+03  0.18973994030E+03  0.67345824759E+02 0.  0.
          5    1    5    5  501    0 -0.39118046666E+02  0.36963890546E+02  0.47556829779E+02  0.71974251215E+02  0.47000000000E+01 0. -1.
        -11    1    6    6    0    0  0.42007997187E+02  0.11325837781E+02  0.73065636566E+02  0.85038424702E+02  0.00000000000E+00 0.  1.
         12    1    6    6    0    0  0.41744297707E+02 -0.58772770869E+02  0.75931432111E+02  0.10470151560E+03  0.00000000000E+00 0. -1.
         -5    1    3    3    0  503 -0.47072523464E+02 -0.29369011883E+02 -0.13238821128E+03  0.14362134176E+03  0.47000000000E+01 0.  1.
         11    1    4    4    0    0  0.30788651792E+02 -0.21575865824E+01  0.89818820685E+01  0.32144524643E+02  0.00000000000E+00 0. -1.
        -12    1    4    4    0    0 -0.28350376556E+02  0.42009641008E+02 -0.32015471566E+02  0.59946177593E+02  0.00000000000E+00 0.  1.
</event>
<event>
12    1  0.8724767E-002  0.1786088E+03  0.7818608E-02  0.1169435E+00
         21   -1    0    0  503  502  0.00000000000E+00  0.00000000000E+00  0.13905394622E+02  0.13905394622E+02  0.00000000000E+00 0.  1.
         21   -1    0    0  501  503 -0.00000000000E+00 -0.00000000000E+00 -0.23165171384E+04  0.23165171384E+04  0.00000000000E+00 0. -1.
          6    2    1    2  501    0 -0.43654597114E+02 -0.22140551019E+02 -0.12948601617E+04  0.13069654724E+04  0.17058716203E+03 0.  0.
         24    2    3    3    0    0  0.14110764599E+02  0.17386434842E+01 -0.31835892934E+03  0.32845446084E+03  0.79547397182E+02 0.  0.
         -6    2    1    2    0  502  0.43654597114E+02  0.22140551019E+02 -0.10077515821E+04  0.10234570606E+04  0.17177070734E+03 0.  0.
        -24    2    5    5    0    0  0.81197501295E+02  0.81982976206E+01 -0.91834342116E+03  0.92537665828E+03  0.79417090114E+02 0.  0.
          5    1    3    3  501    0 -0.57765361713E+02 -0.23879194503E+02 -0.97650123237E+03  0.97851101157E+03  0.47000000000E+01 0. -1.
        -13    1    4    4    0    0 -0.19620953210E+02  0.86675552322E+01 -0.25856612565E+03  0.25945433058E+03  0.00000000000E+00 0.  1.
         14    1    4    4    0    0  0.33731717809E+02 -0.69289117480E+01 -0.59792803686E+02  0.69000130268E+02  0.00000000000E+00 0. -1.
         -5    1    5    5    0  502 -0.37542904181E+02  0.13942253399E+02 -0.89408160923E+02  0.98080402343E+02  0.47000000000E+01 0.  1.
         11    1    6    6    0    0  0.36160230933E+01  0.31349661699E+02 -0.19822250231E+03  0.20071880164E+03  0.00000000000E+00 0. -1.
        -12    1    6    6    0    0  0.77581478201E+02 -0.23151364078E+02 -0.72012091885E+03  0.72465785663E+03  0.00000000000E+00 0.  1.
</event>
<event>
12    1  0.8724767E-002  0.2294826E+03  0.7818608E-02  0.1127164E+00
         21   -1    0    0  501  502  0.00000000000E+00  0.00000000000E+00  0.32726685606E+03  0.32726685606E+03  0.00000000000E+00 0. -1.
         21   -1    0    0  502  503 -0.00000000000E+00 -0.00000000000E+00 -0.27782684035E+03  0.27782684035E+03  0.00000000000E+00 0. -1.
         -6    2    1    2    0  503  0.15165638133E+03  0.78670190668E+01 -0.17204153119E+03  0.28681100991E+03  0.17204859477E+03 0.  0.
        -24    2    3    3    0    0  0.11905597473E+03 -0.53995175309E+02 -0.87141741957E+02  0.17672112928E+03  0.80912732428E+02 0.  0.
          6    2    1    2  501    0 -0.15165638133E+03 -0.78670190668E+01  0.22148154690E+03  0.31828268650E+03  0.17084567575E+03 0.  0.
         24    2    5    5    0    0 -0.11136815420E+03 -0.58040276847E+02  0.95720635160E+02  0.17693773978E+03  0.79830973047E+02 0.  0.
          5    1    5    5  501    0 -0.40288227134E+02  0.50173257780E+02  0.12576091174E+03  0.14134494672E+03  0.47000000000E+01 0. -1.
        -11    1    6    6    0    0 -0.72191206041E+01  0.67536424098E+01 -0.10685398440E+02  0.14556961493E+02  0.00000000000E+00 0.  1.
         12    1    6    6    0    0 -0.10414903359E+03 -0.64793919257E+02  0.10640603360E+03  0.16238077829E+03  0.00000000000E+00 0. -1.
         -5    1    3    3    0  503  0.32600406601E+02  0.61862194376E+02 -0.84899789231E+02  0.11008988062E+03  0.47000000000E+01 0.  1.
         13    1    4    4    0    0  0.37692366085E+02 -0.47954128786E+02 -0.70911692829E+02  0.93534919193E+02  0.00000000000E+00 0. -1.
        -14    1    4    4    0    0  0.81363608644E+02 -0.60410465237E+01 -0.16230049129E+02  0.83186210091E+02  0.00000000000E+00 0.  1.
</event>
<event>
12    1  0.8724767E-002  0.2403183E+03  0.7818608E-02  0.1119863E+00
         21   -1    0    0  503  502  0.00000000000E+00  0.00000000000E+00  0.72204071856E+03  0.72204071856E+03  0.00000000000E+00 0. -1.
         21   -1    0    0  501  503 -0.00000000000E+00 -0.00000000000E+00 -0.79855147292E+02  0.79855147292E+02  0.00000000000E+00 0. -1.
          6    2    1    2  501    0  0.14356249669E+03  0.86931255825E+02  0.29278697480E+03  0.37878372998E+03  0.17200484816E+03 0.  0.
         24    2    3    3    0    0  0.87581589169E+02 -0.15526084871E+02  0.11269363800E+03  0.16410474026E+03  0.79491607459E+02 0.  0.
         -6    2    1    2    0  502 -0.14356249669E+03 -0.86931255825E+02  0.34939859647E+03  0.42311213587E+03  0.16963863537E+03 0.  0.
        -24    2    5    5    0    0 -0.15837826580E+03 -0.54279783782E+02  0.33678980849E+03  0.38481465325E+03  0.81393932484E+02 0.  0.
          5    1    3    3  501    0  0.55980907520E+02  0.10245734070E+03  0.18009333680E+03  0.21467898972E+03  0.47000000000E+01 0. -1.
        -11    1    4    4    0    0 -0.12122772318E+02 -0.13533174759E+02  0.91337016758E+01  0.20335509190E+02  0.00000000000E+00 0.  1.
         12    1    4    4    0    0  0.99704361487E+02 -0.19929101121E+01  0.10355993633E+03  0.14376923107E+03  0.00000000000E+00 0. -1.
         -5    1    5    5    0  502  0.14815769111E+02 -0.32651472043E+02  0.12608787975E+02  0.38297482621E+02  0.47000000000E+01 0.  1.
         13    1    6    6    0    0 -0.17594268740E+02 -0.34773232333E+02  0.11469928533E+03  0.12113901946E+03  0.00000000000E+00 0. -1.
        -14    1    6    6    0    0 -0.14078399706E+03 -0.19506551449E+02  0.22209052316E+03  0.26367563379E+03  0.00000000000E+00 0.  1.
</event>
<event>
12    1  0.8724767E-002  0.2068209E+03  0.7818608E-02  0.1144142E+00
         21   -1    0    0  501  502  0.00000000000E+00  0.00000000000E+00  0.26335906034E+03  0.26335906034E+03  0.00000000000E+00 0.  1.
         21   -1    0    0  502  503 -0.00000000000E+00 -0.00000000000E+00 -0.46935862160E+03  0.46935862160E+03  0.00000000000E+00 0.  1.
         -6    2    1    2    0  503  0.82100188352E+02  0.81925974195E+02 -0.39931272171E+03  0.44961899948E+03  0.17103885173E+03 0.  0.
        -24    2    3    3    0    0  0.50510350301E+02  0.67473686524E+02 -0.39756269495E+03  0.41452000975E+03  0.81650157376E+02 0.  0.
          6    2    1    2  501    0 -0.82100188352E+02 -0.81925974195E+02  0.19331316044E+03  0.28309868245E+03  0.17123837138E+03 0.  0.
         24    2    5    5    0    0 -0.80139143124E+02 -0.52645148856E+02  0.46906476063E+02  0.13370584574E+03  0.80518580026E+02 0.  0.
          5    1    5    5  501    0 -0.19610452282E+01 -0.29280825340E+02  0.14640668438E+03  0.14939283672E+03  0.47000000000E+01 0. -1.
        -13    1    6    6    0    0 -0.47558783470E+02 -0.69211343037E+02  0.48764711595E+02  0.97108418724E+02  0.00000000000E+00 0.  1.
         14    1    6    6    0    0 -0.32580359654E+02  0.16566194181E+02 -0.18582355314E+01  0.36597427015E+02  0.00000000000E+00 0. -1.
         -5    1    3    3    0  503  0.31589838051E+02  0.14452287671E+02 -0.17500267558E+01  0.35098989738E+02  0.47000000000E+01 0.  1.
         13    1    4    4    0    0  0.21550535394E+01 -0.17246909054E+02 -0.35209249450E+02  0.39265651331E+02  0.00000000000E+00 0. -1.
        -14    1    4    4    0    0  0.48355296762E+02  0.84720595578E+02 -0.36235344550E+03  0.37525435841E+03  0.00000000000E+00 0.  1.
</event>
<event>
12    1  0.8724767E-002  0.2193594E+03  0.7818608E-02  0.1134559E+00
         21   -1    0    0  503  502  0.00000000000E+00  0.00000000000E+00  0.11687729306E+03  0.11687729306E+03  0.00000000000E+00 0.  1.
         21   -1    0    0  501  503 -0.00000000000E+00 -0.00000000000E+00 -0.45177498413E+03  0.45177498413E+03  0.00000000000E+00 0.  1.
          6    2    1    2  501    0  0.48638617017E+02  0.12582428792E+03 -0.25455577755E+03  0.33603150346E+03  0.17297705322E+03 0.  0.
         24    2    3    3    0    0  0.79130990396E+01 -0.50918622691E+01 -0.11418436228E+03  0.13975661862E+03  0.80033116031E+02 0.  0.
         -6    2    1    2    0  502 -0.48638617017E+02 -0.12582428792E+03 -0.80341913526E+02  0.23262077373E+03  0.17163954906E+03 0.  0.
        -24    2    5    5    0    0 -0.86922892723E+02 -0.25659967382E+02 -0.17701136377E+02  0.10834473485E+03  0.56667699231E+02 0.  0.
          5    1    3    3  501    0  0.40725517977E+02  0.13091615019E+03 -0.14037141527E+03  0.19627488484E+03  0.47000000000E+01 0. -1.
        -13    1    4    4    0    0 -0.19105658505E+02  0.24816758576E+02 -0.19610722574E+02  0.36952376554E+02  0.00000000000E+00 0.  1.
         14    1    4    4    0    0  0.27018757544E+02 -0.29908620845E+02 -0.94573639705E+02  0.10280424207E+03  0.00000000000E+00 0. -1.
         -5    1    5    5    0  502  0.38284275706E+02 -0.10016432054E+03 -0.62640777149E+02  0.12427603887E+03  0.47000000000E+01 0.  1.
         11    1    6    6    0    0 -0.20457196405E+02  0.15531880288E+02 -0.15741367541E+02  0.30125186175E+02  0.00000000000E+00 0. -1.
        -12    1    6    6    0    0 -0.66465696318E+02 -0.41191847670E+02 -0.19597688360E+01  0.78219548678E+02  0.00000000000E+00 0.  1.
</event>
<event>
12    1  0.8724767E-002  0.2906570E+03  0.7818608E-02  0.1090099E+00
         21   -1    0    0  501  502  0.00000000000E+00  0.00000000000E+00  0.20663978590E+03  0.20663978590E+03  0.00000000000E+00 0.  1.
         21   -1    0    0  502  503 -0.00000000000E+00 -0.00000000000E+00 -0.41620560423E+03  0.41620560423E+03  0.00000000000E+00 0.  1.
         -6    2    1    2    0  503  0.20096693439E+03  0.11988321919E+03 -0.14906904323E+03  0.32665438295E+03  0.17240014875E+03 0.  0.
        -24    2    3    3    0    0  0.29999581932E+02  0.75803388648E+02 -0.58509825617E+02  0.12817030560E+03  0.79737688057E+02 0.  0.
          6    2    1    2  501    0 -0.20096693439E+03 -0.11988321919E+03 -0.60496775101E+02  0.29619100718E+03  0.17120034456E+03 0.  0.
         24    2    5    5    0    0 -0.31984386776E+02 -0.80304776166E+01 -0.29805397745E+01  0.85486606374E+02  0.78813619913E+02 0.  0.
          5    1    5    5  501    0 -0.16898254761E+03 -0.11185274157E+03 -0.57516235326E+02  0.21070440081E+03  0.47000000000E+01 0. -1.
        -13    1    6    6    0    0 -0.37150201325E+02  0.28076078782E+02 -0.11639259585E+02  0.47998708545E+02  0.00000000000E+00 0.  1.
         14    1    6    6    0    0  0.51658145491E+01 -0.36106556398E+02  0.86587198109E+01  0.37487897829E+02  0.00000000000E+00 0. -1.
         -5    1    3    3    0  503  0.17096735246E+03  0.44079830541E+02 -0.90559217615E+02  0.19848407735E+03  0.47000000000E+01 0.  1.
         13    1    4    4    0    0  0.21017360494E+02  0.88811358724E+02 -0.63964378073E+02  0.11144787366E+03  0.00000000000E+00 0. -1.
        -14    1    4    4    0    0  0.89822214388E+01 -0.13007970077E+02  0.54545524554E+01  0.16722431940E+02  0.00000000000E+00 0.  1.
</event>
<event>
12    1  0.8724767E-002  0.2022911E+03  0.7818608E-02  0.1148793E+00
         21   -1    0    0  503  502  0.00000000000E+00  0.00000000000E+00  0.36244818774E+03  0.36244818774E+03  0.00000000000E+00 0.  1.
         21   -1    0    0  501  503 -0.00000000000E+00 -0.00000000000E+00 -0.11266762146E+03  0.11266762146E+03  0.00000000000E+00 0.  1.
          6    2    1    2  501    0  0.95384656464E+02  0.42880519693E+02  0.16045373662E+03  0.25819969511E+03  0.17316093469E+03 0.  0.
         24    2    3    3    0    0  0.10983728746E+03  0.98772031154E+01  0.55317925621E+02  0.14696244325E+03  0.79850472593E+02 0.  0.
         -6    2    1    2    0  502 -0.95384656464E+02 -0.42880519693E+02  0.89326829672E+02  0.21691611409E+03  0.16773892332E+03 0.  0.
        -24    2    5    5    0    0 -0.29621523704E+02 -0.81880899167E+02  0.35828909582E+02  0.12348198391E+03  0.79888505259E+02 0.  0.
          5    1    3    3  501    0 -0.14452630992E+02  0.33003316578E+02  0.10513581099E+03  0.11123725186E+03  0.47000000000E+01 0. -1.
        -13    1    4    4    0    0  0.85671133363E+02 -0.96384065775E+01  0.71440676100E+02  0.11196522752E+03  0.00000000000E+00 0.  1.
         14    1    4    4    0    0  0.24166154093E+02  0.19515609693E+02 -0.16122750480E+02  0.34997215723E+02  0.00000000000E+00 0. -1.
         -5    1    5    5    0  502 -0.65763132761E+02  0.39000379474E+02  0.53497920090E+02  0.93434130186E+02  0.47000000000E+01 0.  1.
         11    1    6    6    0    0 -0.23043226453E+02 -0.47375926068E+02 -0.20966770993E+02  0.56701623805E+02  0.00000000000E+00 0. -1.
        -12    1    6    6    0    0 -0.65782972506E+01 -0.34504973099E+02  0.56795680575E+02  0.66780360101E+02  0.00000000000E+00 0.  1.
</event>
<event>
12    1  0.8724767E-002  0.1840354E+03  0.7818608E-02  0.1164584E+00
         21   -1    0    0  501  502  0.00000000000E+00  0.00000000000E+00  0.12139962400E+03  0.12139962400E+03  0.00000000000E+00 0. -1.
         21   -1    0    0  502  503 -0.00000000000E+00 -0.00000000000E+00 -0.64607757430E+03  0.64607757430E+03  0.00000000000E+00 0. -1.
         -6    2    1    2    0  503  0.39834170449E+02  0.49289602527E+02 -0.55235513063E+03  0.58137228357E+03  0.16994503733E+03 0.  0.
        -24    2    3    3    0    0  0.16395101422E+02  0.71031123702E+02 -0.20132918459E+03  0.22886215819E+03  0.80809819936E+02 0.  0.
          6    2    1    2  501    0 -0.39834170449E+02 -0.49289602527E+02  0.27677180327E+02  0.18610491474E+03  0.17277959059E+03 0.  0.
         24    2    5    5    0    0 -0.66583555979E+02  0.22214700047E+02  0.26814863508E+02  0.10961159148E+03  0.79804769633E+02 0.  0.
          5    1    5    5  501    0  0.26749385531E+02 -0.71504302574E+02  0.86231681846E+00  0.76493323259E+02  0.47000000000E+01 0. -1.
        -13    1    6    6    0    0 -0.63464248311E+01  0.40803543819E+02  0.20935312013E+02  0.46297878843E+02  0.00000000000E+00 0.  1.
         14    1    6    6    0    0 -0.60237131148E+02 -0.18588843772E+02  0.58795514958E+01  0.63313712634E+02  0.00000000000E+00 0. -1.
         -5    1    3    3    0  503  0.23439069026E+02 -0.21741521175E+02 -0.35102594604E+03  0.35251012537E+03  0.47000000000E+01 0.  1.
         11    1    4    4    0    0  0.46554869289E+02  0.60405369055E+02 -0.15228911465E+03  0.17031775863E+03  0.00000000000E+00 0. -1.
        -12    1    4    4    0    0 -0.30159767866E+02  0.10625754647E+02 -0.49040069948E+02  0.58544399562E+02  0.00000000000E+00 0.  1.
</event>
<event>
12    1  0.8724767E-002  0.2427445E+03  0.7818608E-02  0.1118213E+00
         21   -1    0    0  501  502  0.00000000000E+00  0.00000000000E+00  0.26219256541E+03  0.26219256541E+03  0.00000000000E+00 0.  1.
         21   -1    0    0  502  503 -0.00000000000E+00 -0.00000000000E+00 -0.22601013662E+03  0.22601013662E+03  0.00000000000E+00 0.  1.
         -6    2    1    2    0  503 -0.10151258184E+03  0.13762634051E+03  0.44183581175E+02  0.24532638623E+03  0.17025578715E+03 0.  0.
        -24    2    3    3    0    0 -0.10886227011E+03  0.53137045289E+02  0.62192006424E+02  0.15849982172E+03  0.81116018055E+02 0.  0.
          6    2    1    2  501    0  0.10151258184E+03 -0.13762634051E+03 -0.80011523803E+01  0.24287631581E+03  0.17227615176E+03 0.  0.
         24    2    5    5    0    0  0.63026010126E+02 -0.50390210597E+02 -0.66958817590E+02  0.13067357586E+03  0.77978515618E+02 0.  0.
          5    1    5    5  501    0  0.38486571718E+02 -0.87236129913E+02  0.58957665210E+02  0.11220273995E+03  0.47000000000E+01 0. -1.
        -11    1    6    6    0    0  0.71423946622E+02 -0.26287524566E+02 -0.22423114274E+02  0.79342360393E+02  0.00000000000E+00 0.  1.
         12    1    6    6    0    0 -0.83979364965E+01 -0.24102686031E+02 -0.44535703316E+02  0.51331215465E+02  0.00000000000E+00 0. -1.
         -5    1    3    3    0  503  0.73496882711E+01  0.84489295221E+02 -0.18008425249E+02  0.86826564510E+02  0.47000000000E+01 0.  1.
         13    1    4    4    0    0 -0.16036345400E+02 -0.20154767410E+02  0.21089957079E+02  0.33289117031E+02  0.00000000000E+00 0. -1.
        -14    1    4    4    0    0 -0.92825924715E+02  0.73291812699E+02  0.41102049345E+02  0.12521070469E+03  0.00000000000E+00 0.  1.
</event>
<event>
12    1  0.8724767E-002  0.2899809E+03  0.7818608E-02  0.1090402E+00
         21   -1    0    0  503  502  0.00000000000E+00  0.00000000000E+00  0.93854837992E+02  0.93854837992E+02  0.00000000000E+00 0.  1.
         21   -1    0    0  501  503 -0.00000000000E+00 -0.00000000000E+00 -0.13519015159E+04  0.13519015159E+04  0.00000000000E+00 0.  1.
          6    2    1    2  501    0 -0.37785991588E+02  0.22883364442E+03 -0.10495392490E+04  0.10888625187E+04  0.17405841377E+03 0.  0.
         24    2    3    3    0    0 -0.55061444829E+02  0.22276752456E+03 -0.69511323638E+03  0.73393276856E+03  0.53082621153E+02 0.  0.
         -6    2    1    2    0  502  0.37785991588E+02 -0.22883364442E+03 -0.20850742888E+03  0.35689383519E+03  0.17350862722E+03 0.  0.
        -24    2    5    5    0    0  0.82330091992E+02 -0.21084915569E+03 -0.18782832609E+03  0.30438351232E+03  0.78321338003E+02 0.  0.
          5    1    3    3  501    0  0.17275453241E+02  0.60661198553E+01 -0.35442601263E+03  0.35492975012E+03  0.47000000000E+01 0. -1.
        -13    1    4    4    0    0 -0.57641404709E+01  0.22383058941E+02 -0.32154874025E+02  0.39600032405E+02  0.00000000000E+00 0.  1.
         14    1    4    4    0    0 -0.49297304358E+02  0.20038446562E+03 -0.66295836235E+03  0.69433273615E+03  0.00000000000E+00 0. -1.
         -5    1    5    5    0  502 -0.44544100404E+02 -0.17984488727E+02 -0.20679102790E+02  0.52510322869E+02  0.47000000000E+01 0.  1.
         13    1    6    6    0    0  0.59387197005E+02 -0.14964849361E+03 -0.17496616840E+03  0.23777020607E+03  0.00000000000E+00 0. -1.
        -14    1    6    6    0    0  0.22942894987E+02 -0.61200662081E+02 -0.12862157690E+02  0.66613306253E+02  0.00000000000E+00 0.  1.
</event>
<event>
12    1  0.8724767E-002  0.2021307E+03  0.7818608E-02  0.1148178E+00
         21   -1    0    0  501  502  0.00000000000E+00  0.00000000000E+00  0.67897954863E+03  0.67897954863E+03  0.00000000000E+00 0. -1.
         21   -1    0    0  502  503 -0.00000000000E+00 -0.00000000000E+00 -0.62952604854E+02  0.62952604854E+02  0.00000000000E+00 0.  1.
         -6    2    1    2    0  503 -0.64928611259E+02 -0.81761941450E+02  0.22649030813E+03  0.30356991740E+03  0.17307829282E+03 0.  0.
        -24    2    3    3    0    0 -0.99900660909E+02 -0.17451868370E+02  0.13690678597E+03  0.18778508593E+03  0.78962400504E+02 0.  0.
          6    2    1    2  501    0  0.64928611259E+02  0.81761941450E+02  0.38953663564E+03  0.43836223608E+03  0.17181943977E+03 0.  0.
         24    2    5    5    0    0  0.59889150107E+02  0.95210655422E+02  0.17058129802E+03  0.21888605526E+03  0.78494246568E+02 0.  0.
          5    1    5    5  501    0  0.50394611520E+01 -0.13448713972E+02  0.21895533762E+03  0.21947618082E+03  0.47000000000E+01 0. -1.
        -11    1    6    6    0    0  0.23058513327E+02  0.34268609918E+01  0.19493812403E+01  0.23393129340E+02  0.00000000000E+00 0.  1.
         12    1    6    6    0    0  0.36830636780E+02  0.91783794430E+02  0.16863191678E+03  0.19549292592E+03  0.00000000000E+00 0. -1.
         -5    1    3    3    0  503  0.34972049651E+02 -0.64310073080E+02  0.89583522162E+02  0.11578483147E+03  0.47000000000E+01 0.  1.
         11    1    4    4    0    0 -0.63013798552E+02 -0.49126867514E+02  0.86110048522E+02  0.11746969131E+03  0.00000000000E+00 0. -1.
        -12    1    4    4    0    0 -0.36886862357E+02  0.31674999144E+02  0.50796737444E+02  0.70315394618E+02  0.00000000000E+00 0.  1.
</event>
<event>
12    1  0.8724767E-002  0.1748169E+03  0.7818608E-02  0.1173057E+00
         21   -1    0    0  503  502  0.00000000000E+00  0.00000000000E+00  0.13354957722E+03  0.13354957722E+03  0.00000000000E+00 0.  1.
         21   -1    0    0  501  503 -0.00000000000E+00 -0.00000000000E+00 -0.22880509080E+03  0.22880509080E+03  0.00000000000E+00 0.  1.
          6    2    1    2  501    0  0.26219203383E+02 -0.11617386605E+02 -0.37653216535E+02  0.17882592416E+03  0.17244864783E+03 0.  0.
         24    2    3    3    0    0  0.70443107439E+02 -0.33489511924E+02 -0.57652292980E+02  0.12538252780E+03  0.79455727273E+02 0.  0.
         -6    2    1    2    0  502 -0.26219203383E+02  0.11617386605E+02 -0.57602297042E+02  0.18352874386E+03  0.17187892512E+03 0.  0.
        -24    2    5    5    0    0 -0.20307838107E+02  0.38027512556E+02 -0.10048965407E+03  0.13259884709E+03  0.75005224312E+02 0.  0.
          5    1    3    3  501    0 -0.44223904056E+02  0.21872125318E+02  0.19999076445E+02  0.53443396361E+02  0.47000000000E+01 0. -1.
        -13    1    4    4    0    0  0.32135377215E+02 -0.40983119765E+02 -0.67374250551E+02  0.85156257619E+02  0.00000000000E+00 0.  1.
         14    1    4    4    0    0  0.38307730225E+02  0.74936078416E+01  0.97219575709E+01  0.40226270179E+02  0.00000000000E+00 0. -1.
         -5    1    5    5    0  502 -0.59113652763E+01 -0.26410125950E+02  0.42887357030E+02  0.50929896772E+02  0.47000000000E+01 0.  1.
         13    1    6    6    0    0  0.25335693748E+02  0.16621796449E+02 -0.62553090200E+02  0.69505903264E+02  0.00000000000E+00 0. -1.
        -14    1    6    6    0    0 -0.45643531854E+02  0.21405716107E+02 -0.37936563872E+02  0.63092943826E+02  0.00000000000E+00 0.  1.
</event>
<event>
12    1  0.8724767E-002  0.1870714E+03  0.7818608E-02  0.1164754E+00
         21   -1    0    0  503  502  0.00000000000E+00  0.00000000000E+00  0.61236220847E+02  0.61236220847E+02  0.00000000000E+00 0. -1.
         21   -1    0    0  501  503 -0.00000000000E+00 -0.00000000000E+00 -0.52721633016E+03  0.52721633016E+03  0.00000000000E+00 0. -1.
          6    2    1    2  501    0 -0.65296348975E+01 -0.36903324111E+02 -0.23479988120E+03  0.29106393238E+03  0.16787714870E+03 0.  0.
         24    2    3    3    0    0 -0.58319959501E+02 -0.45321783839E+02 -0.19970679260E+03  0.22776525108E+03  0.80863618658E+02 0.  0.
         -6    2    1    2    0  502  0.65296348975E+01  0.36903324111E+02 -0.23118022811E+03  0.29738861863E+03  0.18327902542E+03 0.  0.
        -24    2    5    5    0    0  0.15501958127E+02 -0.36123191116E+02 -0.19090229129E+03  0.21337804367E+03  0.86840710843E+02 0.  0.
          5    1    3    3  501    0  0.51790324603E+02  0.84184597284E+01 -0.35093088609E+02  0.63298681304E+02  0.47000000000E+01 0. -1.
        -11    1    4    4    0    0 -0.89177332538E+01  0.21511911954E+02 -0.24254213739E+02  0.33623729811E+02  0.00000000000E+00 0.  1.
         12    1    4    4    0    0 -0.49402226247E+02 -0.66833695793E+02 -0.17545257886E+03  0.19414152126E+03  0.00000000000E+00 0. -1.
         -5    1    5    5    0  502 -0.89723232295E+01  0.73026515227E+02 -0.40277936823E+02  0.84010574960E+02  0.47000000000E+01 0.  1.
         11    1    6    6    0    0 -0.72940274534E+01  0.96730156714E+01 -0.14230098122E+03  0.14281575307E+03  0.00000000000E+00 0. -1.
        -12    1    6    6    0    0  0.22795985580E+02 -0.45796206788E+02 -0.48601310070E+02  0.70562290604E+02  0.00000000000E+00 0.  1.
</event>
<event>
12    1  0.8724767E-002  0.2339808E+03  0.7818608E-02  0.1123970E+00
         21   -1    0    0  501  502  0.00000000000E+00  0.00000000000E+00  0.20278887531E+02  0.20278887531E+02  0.00000000000E+00 0. -1.
         21   -1    0    0  502  503 -0.00000000000E+00 -0.00000000000E+00 -0.29317276047E+04  0.29317276047E+04  0.00000000000E+00 0. -1.
         -6    2    1    2    0  503 -0.14371680324E+03 -0.62627894033E+02 -0.10328002229E+04  0.10588432190E+04  0.17290427853E+03 0.  0.
        -24    2    3    3    0    0 -0.63872704845E+02 -0.48875263683E+02 -0.86618555084E+03  0.87351444680E+03  0.79256333855E+02 0.  0.
          6    2    1    2  501    0  0.14371680324E+03  0.62627894033E+02 -0.18786484943E+04  0.18931632732E+04  0.17369582933E+03 0.  0.
         24    2    5    5    0    0  0.84792179429E+02  0.98838384041E+02 -0.15362761972E+04  0.15438436620E+04  0.79686629991E+02 0.  0.
          5    1    5    5  501    0  0.58924623814E+02 -0.36210490008E+02 -0.34237229716E+03  0.34931961116E+03  0.47000000000E+01 0. -1.
        -11    1    6    6    0    0  0.15602904577E+02 -0.13564001125E+02 -0.20301552173E+03  0.20406551600E+03  0.00000000000E+00 0.  1.
         12    1    6    6    0    0  0.69189274852E+02  0.11240238517E+03 -0.13332606754E+04  0.13397781460E+04  0.00000000000E+00 0. -1.
         -5    1    3    3    0  503 -0.79844098398E+02 -0.13752630350E+02 -0.16661467202E+03  0.18532877225E+03  0.47000000000E+01 0.  1.
         11    1    4    4    0    0 -0.36426801049E+02 -0.99609870040E+01 -0.11979576393E+03  0.12560715804E+03  0.00000000000E+00 0. -1.
        -12    1    4    4    0    0 -0.27445903796E+02 -0.38914276679E+02 -0.74638978691E+03  0.74790728875E+03  0.00000000000E+00 0.  1.
</event>
<event>
12    1  0.8724767E-002  0.1835827E+03  0.7818608E-02  0.1164625E+00
         21   -1    0    0  503  502  0.00000000000E+00  0.00000000000E+00  0.12275143777E+03  0.12275143777E+03  0.00000000000E+00 0.  1.
         21   -1    0    0  501  503 -0.00000000000E+00 -0.00000000000E+00 -0.32448541270E+03  0.32448541270E+03  0.00000000000E+00 0.  1.
          6    2    1    2  501    0  0.91224353532E+01 -0.61139330452E+02 -0.19016668041E+03  0.26432174510E+03  0.17286232104E+03 0.  0.
         24    2    3    3    0    0 -0.45828795878E+02 -0.60693724484E+02 -0.17462575476E+03  0.20702037732E+03  0.81112734376E+02 0.  0.
         -6    2    1    2    0  502 -0.91224353532E+01  0.61139330452E+02 -0.11567294516E+02  0.18291510537E+03  0.17176407341E+03 0.  0.
        -24    2    5    5    0    0 -0.41374037572E+02  0.77411476692E+02 -0.51149412928E+02  0.12912121457E+03  0.79697414645E+02 0.  0.
          5    1    3    3  501    0  0.54951231231E+02 -0.44560596793E+00 -0.15540925652E+02  0.57301367772E+02  0.47000000000E+01 0. -1.
        -11    1    4    4    0    0 -0.59004722663E+02 -0.54772612595E+02 -0.88292894838E+02  0.11948737032E+03  0.00000000000E+00 0.  1.
         12    1    4    4    0    0  0.13175926785E+02 -0.59211118893E+01 -0.86332859924E+02  0.87533007005E+02  0.00000000000E+00 0. -1.
         -5    1    5    5    0  502  0.32251602218E+02 -0.16272146240E+02  0.39582118413E+02  0.53793890796E+02  0.47000000000E+01 0.  1.
         13    1    6    6    0    0 -0.25491185377E+02  0.54480199029E+02  0.10864666690E+02  0.61122283993E+02  0.00000000000E+00 0. -1.
        -14    1    6    6    0    0 -0.15882852195E+02  0.22931277663E+02 -0.62014079618E+02  0.67998930579E+02  0.00000000000E+00 0.  1.
</event>
<event>
12    1  0.8724767E-002  0.1807680E+03  0.7818608E-02  0.1167373E+00
         21   -1    0    0  503  502  0.00000000000E+00  0.00000000000E+00  0.10340294495E+04  0.10340294495E+04  0.00000000000E+00 0.  1.
         21   -1    0    0  501  503 -0.00000000000E+00 -0.00000000000E+00 -0.34741654977E+02  0.34741654977E+02  0.00000000000E+00 0.  1.
          6    2    1    2  501    0  0.23246012973E+02 -0.29176181212E+02  0.33171596711E+03  0.37715762399E+03  0.17555843422E+03 0.  0.
         24    2    3    3    0    0 -0.48260375958E+02 -0.21617376488E+02  0.11824834648E+03  0.15185601671E+03  0.79254044124E+02 0.  0.
         -6    2    1    2    0  502 -0.23246012973E+02  0.29176181212E+02  0.66757182743E+03  0.69161348051E+03  0.17687689214E+03 0.  0.
        -24    2    5    5    0    0 -0.64762693501E+02  0.58825737347E+02  0.56088301405E+03  0.57326094001E+03  0.79897910192E+02 0.  0.
          5    1    3    3  501    0  0.71506388932E+02 -0.75588047237E+01  0.21346762063E+03  0.22530160728E+03  0.47000000000E+01 0. -1.
        -13    1    4    4    0    0 -0.21713236503E+02 -0.49220843617E+02  0.49223544797E+02  0.72918539811E+02  0.00000000000E+00 0.  1.
         14    1    4    4    0    0 -0.26547139455E+02  0.27603467128E+02  0.69024801685E+02  0.78937476895E+02  0.00000000000E+00 0. -1.
         -5    1    5    5    0  502  0.41516680527E+02 -0.29649556135E+02  0.10668881339E+03  0.11835254050E+03  0.47000000000E+01 0.  1.
         11    1    6    6    0    0 -0.33162073216E+02 -0.75587138964E+01  0.30902233037E+03  0.31088849758E+03  0.00000000000E+00 0. -1.
        -12    1    6    6    0    0 -0.31600620285E+02  0.66384451243E+02  0.25186068368E+03  0.26237244244E+03  0.00000000000E+00 0.  1.
</event>
<event>
12    1  0.8724767E-002  0.1935554E+03  0.7818608E-02  0.1156057E+00
         21   -1    0    0  503  502  0.00000000000E+00  0.00000000000E+00  0.66469664477E+02  0.66469664477E+02  0.00000000000E+00 0.  1.
         21   -1    0    0  501  503 -0.00000000000E+00 -0.00000000000E+00 -0.59913903751E+03  0.59913903751E+03  0.00000000000E+00 0. -1.
          6    2    1    2  501    0 -0.59766738037E+02  0.54097103923E+02 -0.36023214350E+03  0.40893871628E+03  0.17596907919E+03 0.  0.
         24    2    3    3    0    0 -0.51478507626E+02  0.89988035492E+02 -0.34433998177E+03  0.36854682926E+03  0.80677500170E+02 0.  0.
         -6    2    1    2    0  502  0.59766738037E+02 -0.54097103923E+02 -0.17243722953E+03  0.25666998571E+03  0.17218107854E+03 0.  0.
        -24    2    5    5    0    0  0.25495497724E+02 -0.60879119739E+02 -0.19485530996E+03  0.21489470617E+03  0.62087480987E+02 0.  0.
          5    1    3    3  501    0 -0.82882304111E+01 -0.35890931568E+02 -0.15892161729E+02  0.40391887015E+02  0.47000000000E+01 0. -1.
        -13    1    4    4    0    0 -0.49273431601E+00  0.29677047312E+02 -0.22736866034E+02  0.37388968979E+02  0.00000000000E+00 0.  1.
         14    1    4    4    0    0 -0.50985773310E+02  0.60310988180E+02 -0.32160311574E+03  0.33115786028E+03  0.00000000000E+00 0. -1.
         -5    1    5    5    0  502  0.34271240313E+02  0.67820158159E+01  0.22418080424E+02  0.41775279545E+02  0.47000000000E+01 0.  1.
         13    1    6    6    0    0  0.32634541072E+02 -0.60842269388E+02 -0.11089311728E+03  0.13062954671E+03  0.00000000000E+00 0. -1.
        -14    1    6    6    0    0 -0.71390433473E+01 -0.36850351237E-01 -0.83962192681E+02  0.84265159453E+02  0.00000000000E+00 0.  1.
</event>
<event>
12    1  0.8724767E-002  0.2609231E+03  0.7818608E-02  0.1106874E+00
         21   -1    0    0  501  502  0.00000000000E+00  0.00000000000E+00  0.10710141311E+03  0.10710141311E+03  0.00000000000E+00 0. -1.
         21   -1    0    0  502  503 -0.00000000000E+00 -0.00000000000E+00 -0.79762974203E+03  0.79762974203E+03  0.00000000000E+00 0. -1.
         -6    2    1    2    0  503 -0.16964659403E+03  0.97211793301E+02 -0.55098528601E+03  0.60883734356E+03  0.16990593250E+03 0.  0.
        -24    2    3    3    0    0 -0.98291822724E+02  0.77827331236E+02 -0.49240324430E+03  0.51438520559E+03  0.80080015165E+02 0.  0.
          6    2    1    2  501    0  0.16964659403E+03 -0.97211793301E+02 -0.13954304291E+03  0.29589381157E+03  0.17277380379E+03 0.  0.
         24    2    5    5    0    0  0.58335985824E+02 -0.10771110465E+03 -0.51058356573E+02  0.15323366733E+03  0.76608300590E+02 0.  0.
          5    1    5    5  501    0  0.11131060821E+03  0.10499311351E+02 -0.88484686340E+02  0.14266014424E+03  0.47000000000E+01 0. -1.
        -13    1    6    6    0    0 -0.11691819993E+02  0.25810680869E+01 -0.11815414063E+02  0.16821550960E+02  0.00000000000E+00 0.  1.
         14    1    6    6    0    0  0.70027805817E+02 -0.11029217274E+03 -0.39242942509E+02  0.13641211637E+03  0.00000000000E+00 0. -1.
         -5    1    3    3    0  503 -0.71354771306E+02  0.19384462065E+02 -0.58582041708E+02  0.94452137977E+02  0.47000000000E+01 0.  1.
         13    1    4    4    0    0 -0.72973842450E+02  0.11273405203E+02 -0.30758988921E+03  0.31632864444E+03  0.00000000000E+00 0. -1.
        -14    1    4    4    0    0 -0.25317980274E+02  0.66553926033E+02 -0.18481335509E+03  0.19805656115E+03  0.00000000000E+00 0.  1.
</event>
<event>
12    1  0.8724767E-002  0.1877923E+03  0.7818608E-02  0.1161088E+00
         21   -1    0    0  503  502  0.00000000000E+00  0.00000000000E+00  0.73401892523E+02  0.73401892523E+02  0.00000000000E+00 0.  1.
         21   -1    0    0  501  503 -0.00000000000E+00 -0.00000000000E+00 -0.11972166653E+04  0.11972166653E+04  0.00000000000E+00 0.  1.
          6    2    1    2  501    0 -0.63853979183E+02 -0.24652599899E+02 -0.10542173460E+04  0.10703443482E+04  0.17198177130E+03 0.  0.
         24    2    3    3    0    0 -0.13293661369E+02  0.34862953537E+01 -0.92748238009E+03  0.93094569411E+03  0.79040776251E+02 0.  0.
         -6    2    1    2    0  502  0.63853979183E+02  0.24652599899E+02 -0.69597426808E+02  0.20027420971E+03  0.17487388575E+03 0.  0.
        -24    2    5    5    0    0  0.26060087742E+02  0.45796704515E+02 -0.10757273949E+03  0.14248436836E+03  0.77158503267E+02 0.  0.
          5    1    3    3  501    0 -0.50560317814E+02 -0.28138895252E+02 -0.12673496591E+03  0.13939865404E+03  0.47000000000E+01 0. -1.
        -11    1    4    4    0    0 -0.44575980791E+02 -0.14677715849E+01 -0.39233832892E+03  0.39486521340E+03  0.00000000000E+00 0.  1.
         12    1    4    4    0    0  0.31282319422E+02  0.49540669386E+01 -0.53514405117E+03  0.53608048070E+03  0.00000000000E+00 0. -1.
         -5    1    5    5    0  502  0.37793891440E+02 -0.21144104616E+02  0.37975312684E+02  0.57789841354E+02  0.47000000000E+01 0.  1.
         13    1    6    6    0    0  0.31760658792E+02  0.64882007180E+02 -0.73768562693E+02  0.10324831788E+03  0.00000000000E+00 0. -1.
        -14    1    6    6    0    0 -0.57005710502E+01 -0.19085302665E+02 -0.33804176799E+02  0.39236050479E+02  0.00000000000E+00 0.  1.
</event>
<event>
12    1  0.8724767E-002  0.1897852E+03  0.7818608E-02  0.1158965E+00
         21   -1    0    0  501  502  0.00000000000E+00  0.00000000000E+00  0.12084764113E+04  0.12084764113E+04  0.00000000000E+00 0.  1.
         21   -1    0    0  502  503 -0.00000000000E+00 -0.00000000000E+00 -0.29782013792E+02  0.29782013792E+02  0.00000000000E+00 0.  1.
         -6    2    1    2    0  503  0.77995104742E+02  0.20004874792E+02  0.53758808473E+03  0.56965111006E+03  0.17034672574E+03 0.  0.
        -24    2    3    3    0    0  0.10308465427E+03  0.46805660524E+00  0.26236672916E+03  0.29255896416E+03  0.78280150200E+02 0.  0.
          6    2    1    2  501    0 -0.77995104742E+02 -0.20004874792E+02  0.64110631274E+03  0.66860731500E+03  0.17185751671E+03 0.  0.
         24    2    5    5    0    0  0.17759631186E+02 -0.39434039078E+02  0.35077825952E+03  0.36224326625E+03  0.79399928541E+02 0.  0.
          5    1    5    5  501    0 -0.95754735927E+02  0.19429164286E+02  0.29032805322E+03  0.30636404875E+03  0.47000000000E+01 0. -1.
        -11    1    6    6    0    0 -0.19684726733E+02 -0.47724659700E+02  0.18339010052E+03  0.19051787470E+03  0.00000000000E+00 0.  1.
         12    1    6    6    0    0  0.37444357919E+02  0.82906206219E+01  0.16738815900E+03  0.17172539155E+03  0.00000000000E+00 0. -1.
         -5    1    3    3    0  503 -0.25089549527E+02  0.19536818187E+02  0.27522135557E+03  0.27709214590E+03  0.47000000000E+01 0.  1.
         11    1    4    4    0    0  0.54368412189E+02 -0.28150176756E+02  0.19630751072E+03  0.20563315750E+03  0.00000000000E+00 0. -1.
        -12    1    4    4    0    0  0.48716242079E+02  0.28618233362E+02  0.66059218437E+02  0.86925806661E+02  0.00000000000E+00 0.  1.
</event>
<event>
12    1  0.8724767E-002  0.1876165E+03  0.7818608E-02  0.1161045E+00
         21   -1    0    0  501  502  0.00000000000E+00  0.00000000000E+00  0.81977891649E+02  0.81977891649E+02  0.00000000000E+00 0. -1.
         21   -1    0    0  502  503 -0.00000000000E+00 -0.00000000000E+00 -0.50159872800E+03  0.50159872800E+03  0.00000000000E+00 0.  1.
         -6    2    1    2    0  503 -0.63517880900E+02 -0.28510227485E+02 -0.32278193095E+03  0.37244223452E+03  0.17227213601E+03 0.  0.
        -24    2    3    3    0    0 -0.11106553425E+03 -0.22418367180E+02 -0.23457122769E+03  0.27193796461E+03  0.78028582276E+02 0.  0.
          6    2    1    2  501    0  0.63517880900E+02  0.28510227485E+02 -0.96838905408E+02  0.21113438513E+03  0.17421997795E+03 0.  0.
         24    2    5    5    0    0  0.63571510378E+02 -0.28378743195E+02 -0.11272708720E+03  0.15188168745E+03  0.74256048894E+02 0.  0.
          5    1    5    5  501    0 -0.53629478820E-01  0.56888970680E+02  0.15888181794E+02  0.59252697676E+02  0.47000000000E+01 0. -1.
        -11    1    6    6    0    0  0.42542503413E+02  0.17984963189E+02 -0.76629667190E+02  0.89473065171E+02  0.00000000000E+00 0.  1.
         12    1    6    6    0    0  0.21029006966E+02 -0.46363706384E+02 -0.36097420013E+02  0.62408622282E+02  0.00000000000E+00 0. -1.
         -5    1    3    3    0  503  0.47547653352E+02 -0.60918603047E+01 -0.88210703254E+02  0.10050426991E+03  0.47000000000E+01 0.  1.
         11    1    4    4    0    0 -0.53130032843E+02  0.51172915902E+01 -0.38972981949E+02  0.66089941633E+02  0.00000000000E+00 0. -1.
        -12    1    4    4    0    0 -0.57935501409E+02 -0.27535658771E+02 -0.19559824574E+03  0.20584802298E+03  0.00000000000E+00 0.  1.
</event>
<event>
12    1  0.8724767E-002  0.5726501E+03  0.7818608E-02  0.9964369E-01
         21   -1    0    0  501  502  0.00000000000E+00  0.00000000000E+00  0.47083275529E+03  0.47083275529E+03  0.00000000000E+00 0.  1.
         21   -1    0    0  502  503 -0.00000000000E+00 -0.00000000000E+00 -0.10045242564E+04  0.10045242564E+04  0.00000000000E+00 0. -1.
         -6    2    1    2    0  503  0.47874964946E+03  0.26280900810E+03 -0.67628759265E+03  0.88616762573E+03  0.17221600197E+03 0.  0.
        -24    2    3    3    0    0  0.36204617407E+03  0.13075060694E+03 -0.50493986923E+03  0.64031959380E+03  0.82896063187E+02 0.  0.
          6    2    1    2  501    0 -0.47874964946E+03 -0.26280900810E+03  0.14259609152E+03  0.58918938597E+03  0.16893988762E+03 0.  0.
         24    2    5    5    0    0 -0.47030096455E+03 -0.21714988168E+03  0.12217369752E+03  0.53824529624E+03  0.80277756454E+02 0.  0.
          5    1    5    5  501    0 -0.84486849039E+01 -0.45659126423E+02  0.20422393994E+02  0.50944089734E+02  0.47000000000E+01 0. -1.
        -11    1    6    6    0    0 -0.28684269974E+03 -0.10294389805E+03  0.10124054037E+03  0.32113210296E+03  0.00000000000E+00 0.  1.
         12    1    6    6    0    0 -0.18345826482E+03 -0.11420598362E+03  0.20933157151E+02  0.21711319327E+03  0.00000000000E+00 0. -1.
         -5    1    3    3    0  503  0.11670347538E+03  0.13205840116E+03 -0.17134772342E+03  0.24584803193E+03  0.47000000000E+01 0.  1.
         11    1    4    4    0    0  0.18216820238E+03  0.93500390544E+02 -0.21351522801E+03  0.29583158990E+03  0.00000000000E+00 0. -1.
        -12    1    4    4    0    0  0.17987797169E+03  0.37250216393E+02 -0.29142464121E+03  0.34448800390E+03  0.00000000000E+00 0.  1.
</event>
<event>
12    1  0.8724767E-002  0.1955399E+03  0.7818608E-02  0.1153769E+00
         21   -1    0    0  503  502  0.00000000000E+00  0.00000000000E+00  0.14858573502E+03  0.14858573502E+03  0.00000000000E+00 0.  1.
         21   -1    0    0  501  503 -0.00000000000E+00 -0.00000000000E+00 -0.43887612353E+03  0.43887612353E+03  0.00000000000E+00 0. -1.
          6    2    1    2  501    0 -0.66518673731E+02 -0.63251549948E+02 -0.33493468847E+03  0.38783641126E+03  0.17265672252E+03 0.  0.
         24    2    3    3    0    0 -0.35747817246E+02  0.29381301822E+02 -0.12042841693E+03  0.15211895037E+03  0.80597792304E+02 0.  0.
         -6    2    1    2    0  502  0.66518673731E+02  0.63251549948E+02  0.44644299953E+02  0.19962544729E+03  0.17155673453E+03 0.  0.
        -24    2    5    5    0    0  0.75213315239E+02  0.12290890995E+02 -0.24557686343E+02  0.11311769932E+03  0.79902597889E+02 0.  0.
          5    1    3    3  501    0 -0.30770856485E+02 -0.92632851770E+02 -0.21450627154E+03  0.23571746089E+03  0.47000000000E+01 0. -1.
        -13    1    4    4    0    0  0.57895766488E+00  0.47211004198E+01  0.11836770406E+02  0.12756689021E+02  0.00000000000E+00 0.  1.
         14    1    4    4    0    0 -0.36326774911E+02  0.24660201403E+02 -0.13226518733E+03  0.13936226135E+03  0.00000000000E+00 0. -1.
         -5    1    5    5    0  502 -0.86946415084E+01  0.50960658953E+02  0.69201986296E+02  0.86507747972E+02  0.47000000000E+01 0.  1.
         11    1    6    6    0    0  0.66583149763E+02 -0.66718243433E+01  0.14847330071E+02  0.68543944172E+02  0.00000000000E+00 0. -1.
        -12    1    6    6    0    0  0.86301654768E+01  0.18962715338E+02 -0.39405016414E+02  0.44573755145E+02  0.00000000000E+00 0.  1.
</event>
<event>
12    1  0.8724767E-002  0.2518002E+03  0.7818608E-02  0.1112350E+00
         21   -1    0    0  501  502  0.00000000000E+00  0.00000000000E+00  0.83205875085E+03  0.83205875085E+03  0.00000000000E+00 0.  1.
         21   -1    0    0  502  503 -0.00000000000E+00 -0.00000000000E+00 -0.83765463378E+02  0.83765463378E+02  0.00000000000E+00 0.  1.
         -6    2    1    2    0  503 -0.17668944587E+03  0.46580888977E+02  0.23268763958E+03  0.34201892739E+03  0.17159390893E+03 0.  0.
        -24    2    3    3    0    0 -0.68554428772E+02  0.80247202480E+02  0.13570243853E+03  0.19283842662E+03  0.87362370321E+02 0.  0.
          6    2    1    2  501    0  0.17668944587E+03 -0.46580888977E+02  0.51560564789E+03  0.57380528684E+03  0.17324659756E+03 0.  0.
         24    2    5    5    0    0  0.18376083217E+03 -0.74864900476E+02  0.38821209001E+03  0.44303373641E+03  0.78723998927E+02 0.  0.
          5    1    5    5  501    0 -0.70713863019E+01  0.28284011500E+02  0.12739355789E+03  0.13077155043E+03  0.47000000000E+01 0. -1.
        -13    1    6    6    0    0  0.15780065956E+03 -0.31847376076E+02  0.32113749067E+03  0.35922777097E+03  0.00000000000E+00 0.  1.
         14    1    6    6    0    0  0.25960172607E+02 -0.43017524400E+02  0.67074599333E+02  0.83805965438E+02  0.00000000000E+00 0. -1.
         -5    1    3    3    0  503 -0.10813501710E+03 -0.33666313504E+02  0.96985201050E+02  0.14918050077E+03  0.47000000000E+01 0.  1.
         13    1    4    4    0    0  0.69306143768E+01  0.21474694079E+02  0.77815267352E+02  0.81021057352E+02  0.00000000000E+00 0. -1.
        -14    1    4    4    0    0 -0.75485043149E+02  0.58772508402E+02  0.57887171180E+02  0.11181736927E+03  0.00000000000E+00 0.  1.
</event>
<event>
12    1  0.8724767E-002  0.2189324E+03  0.7818608E-02  0.1134915E+00
         21   -1    0    0  503  502  0.00000000000E+00  0.00000000000E+00  0.11291396082E+04  0.11291396082E+04  0.00000000000E+00 0.  1.
         21   -1    0    0  501  503 -0.00000000000E+00 -0.00000000000E+00 -0.28287161744E+03  0.28287161744E+03  0.00000000000E+00 0. -1.
          6    2    1    2  501    0  0.41002272295E+02 -0.12905548122E+03 -0.22825084171E+03  0.31541552181E+03  0.17044647575E+03 0.  0.
         24    2    3    3    0    0  0.70004969215E+02 -0.34886131571E+02 -0.15968965589E+03  0.19528330697E+03  0.80728222408E+02 0.  0.
         -6    2    1    2    0  502 -0.41002272295E+02  0.12905548122E+03  0.10745188325E+04  0.10965957038E+04  0.17203172016E+03 0.  0.
        -24    2    5    5    0    0 -0.40696358086E+02  0.90211161942E+02  0.10274128584E+04  0.10353581539E+04  0.81210085603E+02 0.  0.
          5    1    3    3  501    0 -0.29002696920E+02 -0.94169349652E+02 -0.68561185815E+02  0.12013221484E+03  0.47000000000E+01 0. -1.
        -11    1    4    4    0    0  0.23249582655E+02  0.55394147435E+01  0.15913136284E+00  0.23900910696E+02  0.00000000000E+00 0.  1.
         12    1    4    4    0    0  0.46755386560E+02 -0.40425546314E+02 -0.15984878725E+03  0.17138239628E+03  0.00000000000E+00 0. -1.
         -5    1    5    5    0  502 -0.30591420949E+00  0.38844319281E+02  0.47105974077E+02  0.61237549899E+02  0.47000000000E+01 0.  1.
         11    1    6    6    0    0 -0.50245093248E+02  0.20680207374E+02  0.33250748764E+03  0.33691760077E+03  0.00000000000E+00 0. -1.
        -12    1    6    6    0    0  0.95487351627E+01  0.69530954568E+02  0.69490537076E+03  0.69844055316E+03  0.00000000000E+00 0.  1.
</event>
<event>
12    1  0.8724767E-002  0.1873170E+03  0.7818608E-02  0.1161038E+00
         21   -1    0    0  501  502  0.00000000000E+00  0.00000000000E+00  0.10019087981E+03  0.10019087981E+03  0.00000000000E+00 0. -1.
         21   -1    0    0  502  503 -0.00000000000E+00 -0.00000000000E+00 -0.60951158206E+03  0.60951158206E+03  0.00000000000E+00 0.  1.
         -6    2    1    2    0  503  0.14303701706E+02 -0.71027689636E+02 -0.48636946795E+03  0.52098462519E+03  0.17210517644E+03 0.  0.
        -24    2    3    3    0    0 -0.39570599740E+02 -0.62722690077E+01 -0.32206053809E+03  0.33628156813E+03  0.88074565831E+02 0.  0.
          6    2    1    2  501    0 -0.14303701706E+02  0.71027689636E+02 -0.22951234294E+02  0.18871783668E+03  0.17273718230E+03 0.  0.
         24    2    5    5    0    0  0.59181778241E+02  0.43188625896E+02 -0.68181367398E+01  0.10835928972E+03  0.79545637195E+02 0.  0.
          5    1    5    5  501    0 -0.73485479948E+02  0.27839063740E+02 -0.16133097554E+02  0.80358546961E+02  0.47000000000E+01 0. -1.
        -13    1    6    6    0    0  0.43195098122E+02  0.60228550790E+02  0.15863772608E+02  0.75795475547E+02  0.00000000000E+00 0.  1.
         14    1    6    6    0    0  0.15986680119E+02 -0.17039924894E+02 -0.22681909348E+02  0.32563814170E+02  0.00000000000E+00 0. -1.
         -5    1    3    3    0  503  0.53874301447E+02 -0.64755420629E+02 -0.16430892986E+03  0.18470305706E+03  0.47000000000E+01 0.  1.
         13    1    4    4    0    0 -0.26945989173E+02 -0.23920396608E+02 -0.41816153401E+02  0.55198391205E+02  0.00000000000E+00 0. -1.
        -14    1    4    4    0    0 -0.12624610567E+02  0.17648127601E+02 -0.28024438469E+03  0.28108317693E+03  0.00000000000E+00 0.  1.
</event>
<event>
12    1  0.8724767E-002  0.2477383E+03  0.7818608E-02  0.1114837E+00
         21   -1    0    0  501  502  0.00000000000E+00  0.00000000000E+00  0.48670908992E+02  0.48670908992E+02  0.00000000000E+00 0.  1.
         21   -1    0    0  502  503 -0.00000000000E+00 -0.00000000000E+00 -0.15131611887E+04  0.15131611887E+04  0.00000000000E+00 0. -1.
         -6    2    1    2    0  503  0.16623352114E+03  0.63606185769E+02 -0.41229262996E+03  0.48099839963E+03  0.17232213240E+03 0.  0.
        -24    2    3    3    0    0  0.30059686089E+02 -0.12284569966E+02 -0.19414026636E+03  0.21282818521E+03  0.80937618034E+02 0.  0.
          6    2    1    2  501    0 -0.16623352114E+03 -0.63606185769E+02 -0.10521976497E+04  0.10808336980E+04  0.17147086720E+03 0.  0.
         24    2    5    5    0    0 -0.11484630297E+02 -0.27135362545E+02 -0.45122037441E+03  0.45916407870E+03  0.79772177149E+02 0.  0.
          5    1    5    5  501    0 -0.15474889084E+03 -0.36470823224E+02 -0.60097727531E+03  0.62166961933E+03  0.47000000000E+01 0. -1.
        -11    1    6    6    0    0 -0.33176747331E+02 -0.41147041432E+02 -0.20936589420E+03  0.21593483562E+03  0.00000000000E+00 0.  1.
         12    1    6    6    0    0  0.21692117033E+02  0.14011678887E+02 -0.24185448021E+03  0.24322924307E+03  0.00000000000E+00 0. -1.
         -5    1    3    3    0  503  0.13617383505E+03  0.75890755735E+02 -0.21815236360E+03  0.26817021442E+03  0.47000000000E+01 0.  1.
         11    1    4    4    0    0  0.43652606493E+02  0.21772393164E+02 -0.89223457079E+02  0.10168781860E+03  0.00000000000E+00 0. -1.
        -12    1    4    4    0    0 -0.13592920404E+02 -0.34056963130E+02 -0.10491680928E+03  0.11114036662E+03  0.00000000000E+00 0.  1.
</event>
<event>
12    1  0.8724767E-002  0.2064577E+03  0.7818608E-02  0.1145236E+00
         21   -1    0    0  501  502  0.00000000000E+00  0.00000000000E+00  0.54027776626E+02  0.54027776626E+02  0.00000000000E+00 0. -1.
         21   -1    0    0  502  503 -0.00000000000E+00 -0.00000000000E+00 -0.83491786705E+03  0.83491786705E+03  0.00000000000E+00 0.  1.
         -6    2    1    2    0  503 -0.27742236067E+02  0.10532334689E+03 -0.51464152668E+03  0.55450939134E+03  0.17539134823E+03 0.  0.
        -24    2    3    3    0    0  0.12318245641E+02 -0.74991053551E+01 -0.14782164770E+03  0.16861735781E+03  0.79828554222E+02 0.  0.
          6    2    1    2  501    0  0.27742236067E+02 -0.10532334689E+03 -0.26624856375E+03  0.33443625234E+03  0.17057746077E+03 0.  0.
         24    2    5    5    0    0  0.67548166201E+01 -0.22282647169E+02 -0.22032078774E+03  0.23713424726E+03  0.84553283786E+02 0.  0.
          5    1    5    5  501    0  0.20987419447E+02 -0.83040699719E+02 -0.45927776009E+02  0.97302005087E+02  0.47000000000E+01 0. -1.
        -11    1    6    6    0    0  0.27027673885E+02 -0.42262691934E+02 -0.18548100260E+03  0.19214534241E+03  0.00000000000E+00 0.  1.
         12    1    6    6    0    0 -0.20272857265E+02  0.19980044765E+02 -0.34839785139E+02  0.44988904844E+02  0.00000000000E+00 0. -1.
         -5    1    3    3    0  503 -0.40060481707E+02  0.11282245224E+03 -0.36681987898E+03  0.38589203353E+03  0.47000000000E+01 0.  1.
         11    1    4    4    0    0  0.28944871816E-02  0.18824704787E+02 -0.89708048187E+00  0.18846067815E+02  0.00000000000E+00 0. -1.
        -12    1    4    4    0    0  0.12315351153E+02 -0.26323810142E+02 -0.14692456722E+03  0.14977129000E+03  0.00000000000E+00 0.  1.
</event>
<event>
12    1  0.8724767E-002  0.2704147E+03  0.7818608E-02  0.1101129E+00
         21   -1    0    0  503  502  0.00000000000E+00  0.00000000000E+00  0.24460153912E+03  0.24460153912E+03  0.00000000000E+00 0.  1.
         21   -1    0    0  501  503 -0.00000000000E+00 -0.00000000000E+00 -0.55085075987E+03  0.55085075987E+03  0.00000000000E+00 0.  1.
          6    2    1    2  501    0 -0.80063700482E+02  0.19257840361E+03 -0.42234232335E+03  0.50117057171E+03  0.17117904713E+03 0.  0.
         24    2    3    3    0    0 -0.32902652298E+02  0.36792090856E+02 -0.85757063748E+02  0.12726514691E+03  0.80036873739E+02 0.  0.
         -6    2    1    2    0  502  0.80063700482E+02 -0.19257840361E+03  0.11609310261E+03  0.29428172729E+03  0.17212637471E+03 0.  0.
        -24    2    5    5    0    0  0.22183628373E+02 -0.85666619591E+02  0.12705917647E+03  0.17212372679E+03  0.75177522697E+02 0.  0.
          5    1    3    3  501    0 -0.47161048185E+02  0.15578631275E+03 -0.33658525961E+03  0.37390542480E+03  0.47000000000E+01 0. -1.
        -11    1    4    4    0    0 -0.45940642709E+02 -0.86563010164E+01 -0.42214339598E+02  0.62988289924E+02  0.00000000000E+00 0.  1.
         12    1    4    4    0    0  0.13037990412E+02  0.45448391872E+02 -0.43542724150E+02  0.64276856987E+02  0.00000000000E+00 0. -1.
         -5    1    5    5    0  502  0.57880072109E+02 -0.10691178402E+03 -0.10966073866E+02  0.12215800050E+03  0.47000000000E+01 0.  1.
         11    1    6    6    0    0  0.22989814690E+02 -0.58345345831E+01  0.20645778150E+01  0.23808314826E+02  0.00000000000E+00 0. -1.
        -12    1    6    6    0    0 -0.80618631701E+00 -0.79832085008E+02  0.12499459866E+03  0.14831541197E+03  0.00000000000E+00 0.  1.
</event>
<event>
12    1  0.8724767E-002  0.2408209E+03  0.7818608E-02  0.1119352E+00
         21   -1    0    0  501  502  0.00000000000E+00  0.00000000000E+00  0.60179789566E+03  0.60179789566E+03  0.00000000000E+00 0.  1.
         21   -1    0    0  502  503 -0.00000000000E+00 -0.00000000000E+00 -0.18003888290E+03  0.18003888290E+03  0.00000000000E+00 0. -1.
         -6    2    1    2    0  503 -0.82500976791E+02 -0.14680004995E+03 -0.55868159579E+02  0.24721639364E+03  0.17215698706E+03 0.  0.
        -24    2    3    3    0    0 -0.92326939318E+02 -0.12112908729E+03  0.13563106726E+02  0.17239434739E+03  0.79619932417E+02 0.  0.
          6    2    1    2  501    0  0.82500976791E+02  0.14680004995E+03  0.47762717234E+03  0.53462038492E+03  0.17127339074E+03 0.  0.
         24    2    5    5    0    0  0.11556661218E+03  0.12791423168E+03  0.44687869310E+03  0.48545160060E+03  0.79025297602E+02 0.  0.
          5    1    5    5  501    0 -0.33065635394E+02  0.18885818267E+02  0.30748479239E+02  0.49168784316E+02  0.47000000000E+01 0. -1.
        -11    1    6    6    0    0  0.31174713030E+02 -0.49164838184E+01  0.60095942439E+02  0.67878986758E+02  0.00000000000E+00 0.  1.
         12    1    6    6    0    0  0.84391899155E+02  0.13283071550E+03  0.38678275066E+03  0.41757261384E+03  0.00000000000E+00 0. -1.
         -5    1    3    3    0  503  0.98259625270E+01 -0.25670962658E+02 -0.69431266305E+02  0.74822046244E+02  0.47000000000E+01 0.  1.
         13    1    4    4    0    0 -0.75213034184E+02 -0.56021736202E+02 -0.21898046951E+02  0.96306593225E+02  0.00000000000E+00 0. -1.
        -14    1    4    4    0    0 -0.17113905134E+02 -0.65107351088E+02  0.35461153677E+02  0.76087754170E+02  0.00000000000E+00 0.  1.
</event>
<event>
12    1  0.8724767E-002  0.2156010E+03  0.7818608E-02  0.1137642E+00
         21   -1    0    0  501  502  0.00000000000E+00  0.00000000000E+00  0.62974206719E+03  0.62974206719E+03  0.00000000000E+00 0. -1.
         21   -1    0    0  502  503 -0.00000000000E+00 -0.00000000000E+00 -0.75612119117E+02  0.75612119117E+02  0.00000000000E+00 0. -1.
         -6    2    1    2    0  503  0.84438411144E+02 -0.97965326366E+02  0.21061461538E+03  0.29978472293E+03  0.16966235129E+03 0.  0.
        -24    2    3    3    0    0 -0.19869371051E+02 -0.45988347404E+02  0.66596147437E+02  0.11446033469E+03  0.78462738681E+02 0.  0.
          6    2    1    2  501    0 -0.84438411144E+02  0.97965326366E+02  0.34351533269E+03  0.40556946337E+03  0.17250146486E+03 0.  0.
         24    2    5    5    0    0 -0.45556142639E+02  0.92673721951E+02  0.34213878470E+03  0.36602434021E+03  0.79063827127E+02 0.  0.
          5    1    5    5  501    0 -0.38882268505E+02  0.52916044158E+01  0.13765479926E+01  0.39545123161E+02  0.47000000000E+01 0. -1.
        -11    1    6    6    0    0 -0.27500695271E+02 -0.16964754702E+01  0.13365658242E+03  0.13646702274E+03  0.00000000000E+00 0.  1.
         12    1    6    6    0    0 -0.18055447368E+02  0.94370197421E+02  0.20848220227E+03  0.22955731747E+03  0.00000000000E+00 0. -1.
         -5    1    3    3    0  503  0.10430778220E+03 -0.51976978962E+02  0.14401846794E+03  0.18532438824E+03  0.47000000000E+01 0.  1.
         13    1    4    4    0    0  0.24057812321E+02  0.33369251934E+01  0.31151461906E+02  0.39500974447E+02  0.00000000000E+00 0. -1.
        -14    1    4    4    0    0 -0.43927183372E+02 -0.49325272598E+02  0.35444685531E+02  0.74959360244E+02  0.00000000000E+00 0.  1.
</event>
<event>
12    1  0.8724767E-002  0.1826700E+03  0.7818608E-02  0.1166469E+00
         21   -1    0    0  503  502  0.00000000000E+00  0.00000000000E+00  0.31978508333E+02  0.31978508333E+02  0.00000000000E+00 0. -1.
         21   -1    0    0  501  503 -0.00000000000E+00 -0.00000000000E+00 -0.12830494317E+04  0.12830494317E+04  0.00000000000E+00 0. -1.
          6    2    1    2  501    0  0.42649916814E+02 -0.15908509446E+02 -0.91927299400E+03  0.93626919104E+03  0.17165390912E+03 0.  0.
         24    2    3    3    0    0 -0.24347400347E+02  0.30795729775E+02 -0.34476441959E+03  0.35596571997E+03  0.79422389164E+02 0.  0.
         -6    2    1    2    0  502 -0.42649916814E+02  0.15908509446E+02 -0.33179792935E+03  0.37875874898E+03  0.17690739931E+03 0.  0.
        -24    2    5    5    0    0  0.33867734756E+02  0.39946743304E+02 -0.23091105266E+03  0.24978960702E+03  0.79574919275E+02 0.  0.
          5    1    3    3  501    0  0.66997317160E+02 -0.46704239220E+02 -0.57450857440E+03  0.58030347107E+03  0.47000000000E+01 0. -1.
        -13    1    4    4    0    0  0.24911078821E+02  0.89682024534E+01 -0.52740018337E+02  0.59012710812E+02  0.00000000000E+00 0.  1.
         14    1    4    4    0    0 -0.49258479167E+02  0.21827527322E+02 -0.29202440126E+03  0.29695300916E+03  0.00000000000E+00 0. -1.
         -5    1    5    5    0  502 -0.76517651569E+02 -0.24038233858E+02 -0.10088687670E+03  0.12896914196E+03  0.47000000000E+01 0.  1.
         13    1    6    6    0    0  0.38343764758E+02 -0.13938590134E+02 -0.88215215940E+02  0.97192864523E+02  0.00000000000E+00 0. -1.
        -14    1    6    6    0    0 -0.44760300028E+01  0.53885333438E+02 -0.14269583672E+03  0.15259674250E+03  0.00000000000E+00 0.  1.
</event>
<event>
12    1  0.8724767E-002  0.2059925E+03  0.7818608E-02  0.1145005E+00
         21   -1    0    0  503  502  0.00000000000E+00  0.00000000000E+00  0.19579522839E+03  0.19579522839E+03  0.00000000000E+00 0.  1.
         21   -1    0    0  501  503 -0.00000000000E+00 -0.00000000000E+00 -0.17834224048E+04  0.17834224048E+04  0.00000000000E+00 0. -1.
          6    2    1    2  501    0  0.91935066114E+01  0.10984662241E+03 -0.17214324171E+04  0.17335822346E+04  0.17270494061E+03 0.  0.
         24    2    3    3    0    0  0.28412539213E+00  0.91326196212E+02 -0.61924995756E+03  0.63119816026E+03  0.81240708660E+02 0.  0.
         -6    2    1    2    0  502 -0.91935066114E+01 -0.10984662241E+03  0.13380524069E+03  0.24563539859E+03  0.17401754390E+03 0.  0.
        -24    2    5    5    0    0  0.62823004020E+02 -0.77073700790E+02  0.86007384042E+02  0.15307640499E+03  0.78409377422E+02 0.  0.
          5    1    3    3  501    0  0.89093812193E+01  0.18520426197E+02 -0.11021824595E+04  0.11023840743E+04  0.47000000000E+01 0. -1.
        -13    1    4    4    0    0  0.35323476593E+02  0.17754017655E+02 -0.16283275475E+03  0.16756329897E+03  0.00000000000E+00 0.  1.
         14    1    4    4    0    0 -0.35039351201E+02  0.73572178557E+02 -0.45641720281E+03  0.46363486130E+03  0.00000000000E+00 0. -1.
         -5    1    5    5    0  502 -0.72016510632E+02 -0.32772921619E+02  0.47797856648E+02  0.92558993594E+02  0.47000000000E+01 0.  1.
         11    1    6    6    0    0  0.60520883241E+02 -0.86997507370E+02  0.52919934736E+02  0.11845616526E+03  0.00000000000E+00 0. -1.
        -12    1    6    6    0    0  0.23021207788E+01  0.99238065799E+01  0.33087449306E+02  0.34620239726E+02  0.00000000000E+00 0.  1.
</event>
<event>
12    1  0.8724767E-002  0.2387822E+03  0.7818608E-02  0.1120846E+00
         21   -1    0    0  501  502  0.00000000000E+00  0.00000000000E+00  0.22006871047E+03  0.22006871047E+03  0.00000000000E+00 0. -1.
         21   -1    0    0  502  503 -0.00000000000E+00 -0.00000000000E+00 -0.60645218157E+03  0.60645218157E+03  0.00000000000E+00 0. -1.
         -6    2    1    2    0  503  0.16040238062E+03 -0.38062348069E+02 -0.50640500916E+03  0.55927178482E+03  0.17076659495E+03 0.  0.
        -24    2    3    3    0    0  0.15569297174E+03 -0.81452079266E+02 -0.39639318388E+03  0.44082542985E+03  0.79528364183E+02 0.  0.
          6    2    1    2  501    0 -0.16040238062E+03  0.38062348069E+02  0.12002153805E+03  0.26724910722E+03  0.17274041120E+03 0.  0.
         24    2    5    5    0    0 -0.15590816703E+03  0.63320717309E+02  0.14111692549E+03  0.23370378647E+03  0.79916227164E+02 0.  0.
          5    1    5    5  501    0 -0.44942135899E+01 -0.25258369240E+02 -0.21095387440E+02  0.33545320743E+02  0.47000000000E+01 0. -1.
        -13    1    6    6    0    0 -0.10031138160E+03  0.61183973409E+02  0.51653793219E+02  0.12835094949E+03  0.00000000000E+00 0.  1.
         14    1    6    6    0    0 -0.55596785434E+02  0.21367438993E+01  0.89463132274E+02  0.10535283699E+03  0.00000000000E+00 0. -1.
         -5    1    3    3    0  503  0.47094088792E+01  0.43389731197E+02 -0.11001182528E+03  0.11844635497E+03  0.47000000000E+01 0.  1.
         11    1    4    4    0    0  0.32784997183E+02 -0.24688435506E+01 -0.15673575023E+03  0.16014695323E+03  0.00000000000E+00 0. -1.
        -12    1    4    4    0    0  0.12290797456E+03 -0.78983235715E+02 -0.23965743365E+03  0.28067847662E+03  0.00000000000E+00 0.  1.
</event>
<event>
12    1  0.8724767E-002  0.2206211E+03  0.7818608E-02  0.1133617E+00
         21   -1    0    0  503  502  0.00000000000E+00  0.00000000000E+00  0.68734815656E+03  0.68734815656E+03  0.00000000000E+00 0. -1.
         21   -1    0    0  501  503 -0.00000000000E+00 -0.00000000000E+00 -0.73169347516E+02  0.73169347516E+02  0.00000000000E+00 0.  1.
          6    2    1    2  501    0 -0.10710309234E+03  0.84255864125E+02  0.38074934517E+03  0.44004967610E+03  0.17350369032E+03 0.  0.
         24    2    3    3    0    0 -0.40841026413E+02  0.32612807515E+02  0.65786670406E+02  0.11404163452E+03  0.77110464580E+02 0.  0.
         -6    2    1    2    0  502  0.10710309234E+03 -0.84255864125E+02  0.23342946387E+03  0.32046782798E+03  0.17216326884E+03 0.  0.
        -24    2    5    5    0    0  0.25979526650E+02  0.23336721287E+02  0.87473431814E+02  0.12176591395E+03  0.77173817846E+02 0.  0.
          5    1    3    3  501    0 -0.66262065927E+02  0.51643056611E+02  0.31496267477E+03  0.32600804158E+03  0.47000000000E+01 0. -1.
        -11    1    4    4    0    0  0.17715291963E+02 -0.55830875987E+01  0.30544588232E+02  0.35748766507E+02  0.00000000000E+00 0.  1.
         12    1    4    4    0    0 -0.58556318377E+02  0.38195895114E+02  0.35242082173E+02  0.78292868010E+02  0.00000000000E+00 0. -1.
         -5    1    5    5    0  502  0.81123565691E+02 -0.10759258541E+03  0.14595603206E+03  0.19870191403E+03  0.47000000000E+01 0.  1.
         11    1    6    6    0    0  0.35545222824E+02  0.47146675387E+02  0.61450174009E+02  0.85219691101E+02  0.00000000000E+00 0. -1.
        -12    1    6    6    0    0 -0.95656961746E+01 -0.23809954100E+02  0.26023257805E+02  0.36546222847E+02  0.00000000000E+00 0.  1.
</event>
<event>
12    1  0.8724767E-002  0.1821498E+03  0.7818608E-02  0.1166414E+00
         21   -1    0    0  501  502  0.00000000000E+00  0.00000000000E+00  0.11028779095E+03  0.11028779095E+03  0.00000000000E+00 0.  1.
         21   -1    0    0  502  503 -0.00000000000E+00 -0.00000000000E+00 -0.30175459009E+03  0.30175459009E+03  0.00000000000E+00 0.  1.
         -6    2    1    2    0  503 -0.20305602087E+02  0.50624625782E+02 -0.67069132256E+02  0.19146741898E+03  0.17084008259E+03 0.  0.
        -24    2    3    3    0    0 -0.37510774239E+02 -0.12595813516E+02  0.10209178213E+02  0.90043214954E+02  0.80236154801E+02 0.  0.
          6    2    1    2  501    0  0.20305602087E+02 -0.50624625782E+02 -0.12439766688E+03  0.22057496205E+03  0.17379115095E+03 0.  0.
         24    2    5    5    0    0  0.74016629248E+02 -0.26896842056E+02 -0.48987254241E+02  0.12488430163E+03  0.83632745959E+02 0.  0.
          5    1    5    5  501    0 -0.53711027160E+02 -0.23727783726E+02 -0.75410412638E+02  0.95690660429E+02  0.47000000000E+01 0. -1.
        -13    1    6    6    0    0  0.72429077868E+01 -0.45082543596E+02 -0.18716873640E+02  0.49347915956E+02  0.00000000000E+00 0.  1.
         14    1    6    6    0    0  0.66773721461E+02  0.18185701541E+02 -0.30270380601E+02  0.75536385669E+02  0.00000000000E+00 0. -1.
         -5    1    3    3    0  503  0.17205172152E+02  0.63220439298E+02 -0.77278310470E+02  0.10142420403E+03  0.47000000000E+01 0.  1.
         11    1    4    4    0    0  0.24326594677E+02  0.50580491856E+01 -0.48756596300E+00  0.24851655694E+02  0.00000000000E+00 0. -1.
        -12    1    4    4    0    0 -0.61837368916E+02 -0.17653862701E+02  0.10696744176E+02  0.65191559260E+02  0.00000000000E+00 0.  1.
</event>
<event>
12    1  0.8724767E-002  0.1923364E+03  0.7818608E-02  0.1156706E+00
         21   -1    0    0  501  502  0.00000000000E+00  0.00000000000E+00  0.46145349298E+02  0.46145349298E+02  0.00000000000E+00 0.  1.
         21   -1    0    0  502  503 -0.00000000000E+00 -0.00000000000E+00 -0.89046370432E+03  0.89046370432E+03  0.00000000000E+00 0.  1.
         -6    2    1    2    0  503 -0.83016342055E+02 -0.19596435713E+02 -0.27063999729E+03  0.33202305590E+03  0.17238784231E+03 0.  0.
        -24    2    3    3    0    0 -0.27546309028E+02 -0.53116049267E+02 -0.24180455728E+03  0.26093113190E+03  0.77688466624E+02 0.  0.
          6    2    1    2  501    0  0.83016342055E+02  0.19596435713E+02 -0.57367835773E+03  0.60458599772E+03  0.17070921815E+03 0.  0.
         24    2    5    5    0    0  0.12475335240E+03  0.67566309795E+01 -0.48215477519E+03  0.50307001484E+03  0.70690604705E+02 0.  0.
          5    1    5    5  501    0 -0.41737010344E+02  0.12839804734E+02 -0.91523582545E+02  0.10151598288E+03  0.47000000000E+01 0. -1.
        -11    1    6    6    0    0  0.82388869909E+02  0.35831305182E+02 -0.26119785165E+03  0.27621753388E+03  0.00000000000E+00 0.  1.
         12    1    6    6    0    0  0.42364482490E+02 -0.29074674203E+02 -0.22095692354E+03  0.22685248096E+03  0.00000000000E+00 0. -1.
         -5    1    3    3    0  503 -0.55470033027E+02  0.33519613554E+02 -0.28835440009E+02  0.71091923995E+02  0.47000000000E+01 0.  1.
         11    1    4    4    0    0 -0.41874465173E+02 -0.14779676996E+02 -0.18887203642E+03  0.19402204985E+03  0.00000000000E+00 0. -1.
        -12    1    4    4    0    0  0.14328156144E+02 -0.38336372271E+02 -0.52932520853E+02  0.66909082053E+02  0.00000000000E+00 0.  1.
</event>
<event>
12    1  0.8724767E-002  0.1746695E+03  0.7818608E-02  0.1173532E+00
         21   -1    0    0  501  502  0.00000000000E+00  0.00000000000E+00  0.16766976717E+03  0.16766976717E+03  0.00000000000E+00 0.  1.
         21   -1    0    0  502  503 -0.00000000000E+00 -0.00000000000E+00 -0.21563824236E+03  0.21563824236E+03  0.00000000000E+00 0.  1.
         -6    2    1    2    0  503  0.39757378892E+01 -0.11989492194E+02 -0.10196015195E+03  0.20225059684E+03  0.17421216066E+03 0.  0.
        -24    2    3    3    0    0 -0.16336294169E+01 -0.72078128491E+02 -0.31549690453E+02  0.10939677461E+03  0.75989117486E+02 0.  0.
          6    2    1    2  501    0 -0.39757378892E+01  0.11989492194E+02  0.53991676765E+02  0.18105741269E+03  0.17235756762E+03 0.  0.
         24    2    5    5    0    0 -0.29984934335E+02  0.38838225801E+02 -0.21885850846E+02  0.96341286758E+02  0.79969675481E+02 0.  0.
          5    1    5    5  501    0  0.26009196446E+02 -0.26848733608E+02  0.75877527611E+02  0.84716125929E+02  0.47000000000E+01 0. -1.
        -13    1    6    6    0    0 -0.53658142123E+02  0.17142172606E+02 -0.29140009312E+02  0.63420741406E+02  0.00000000000E+00 0.  1.
         14    1    6    6    0    0  0.23673207788E+02  0.21696053196E+02  0.72541584665E+01  0.32920545352E+02  0.00000000000E+00 0. -1.
         -5    1    3    3    0  503  0.56093673060E+01  0.60088636297E+02 -0.70410461499E+02  0.92853822227E+02  0.47000000000E+01 0.  1.
         13    1    4    4    0    0 -0.23611127447E+02 -0.26894512832E+01  0.97773270104E+01  0.25696587536E+02  0.00000000000E+00 0. -1.
        -14    1    4    4    0    0  0.21977498030E+02 -0.69388677208E+02 -0.41327017464E+02  0.83700187077E+02  0.00000000000E+00 0.  1.
</event>
<event>
12    1  0.8724767E-002  0.2304917E+03  0.7818608E-02  0.1126446E+00
         21   -1    0    0  501  502  0.00000000000E+00  0.00000000000E+00  0.74407139401E+03  0.74407139401E+03  0.00000000000E+00 0. -1.
         21   -1    0    0  502  503 -0.00000000000E+00 -0.00000000000E+00 -0.71197717275E+02  0.71197717275E+02  0.00000000000E+00 0. -1.
         -6    2    1    2    0  503 -0.31510138804E+02  0.14981453471E+03  0.34816182390E+03  0.41706790253E+03  0.17114816986E+03 0.  0.
        -24    2    3    3    0    0  0.25439405463E+02  0.13136587050E+03  0.30681737265E+03  0.34416346198E+03  0.80046443523E+02 0.  0.
          6    2    1    2  501    0  0.31510138804E+02 -0.14981453471E+03  0.32471185284E+03  0.39820120875E+03  0.17230534415E+03 0.  0.
         24    2    5    5    0    0  0.21471045517E+02 -0.13346811351E+03  0.33909895786E+03  0.37376624055E+03  0.80239368346E+02 0.  0.
          5    1    5    5  501    0  0.10039093287E+02 -0.16346421198E+02 -0.14387105025E+02  0.24434968201E+02  0.47000000000E+01 0. -1.
        -11    1    6    6    0    0  0.26680201258E+01  0.81722377290E+00 -0.39815555521E+01  0.48619924621E+01  0.00000000000E+00 0.  1.
         12    1    6    6    0    0  0.18803025391E+02 -0.13428533729E+03  0.34308051342E+03  0.36890424809E+03  0.00000000000E+00 0. -1.
         -5    1    3    3    0  503 -0.56949544267E+02  0.18448664216E+02  0.41344451252E+02  0.72904440557E+02  0.47000000000E+01 0.  1.
         11    1    4    4    0    0  0.64314246090E+01  0.10877065844E+03  0.15478482803E+03  0.18929015386E+03  0.00000000000E+00 0. -1.
        -12    1    4    4    0    0  0.19007980854E+02  0.22595212051E+02  0.15203254462E+03  0.15487330811E+03  0.00000000000E+00 0.  1.
</event>
<event>
12    1  0.8724767E-002  0.3227869E+03  0.7818608E-02  0.1074494E+00
         21   -1    0    0  501  502  0.00000000000E+00  0.00000000000E+00  0.21203706274E+04  0.21203706274E+04  0.00000000000E+00 0.  1.
         21   -1    0    0  502  503 -0.00000000000E+00 -0.00000000000E+00 -0.64146342072E+02  0.64146342072E+02  0.00000000000E+00 0. -1.
         -6    2    1    2    0  503 -0.24408397380E+03  0.12199687650E+03  0.15605316808E+04  0.15935653374E+04  0.17242718353E+03 0.  0.
        -24    2    3    3    0    0 -0.14413256906E+03  0.75901597377E+02  0.59958085981E+03  0.62631995569E+03  0.79020437201E+02 0.  0.
          6    2    1    2  501    0  0.24408397380E+03 -0.12199687650E+03  0.49569260447E+03  0.59095163202E+03  0.17044779001E+03 0.  0.
         24    2    5    5    0    0  0.25939311259E+03 -0.92878103009E+02  0.45987633008E+03  0.54209297658E+03  0.80420317182E+02 0.  0.
          5    1    5    5  501    0 -0.15309138788E+02 -0.29118773492E+02  0.35816274391E+02  0.48858655439E+02  0.47000000000E+01 0. -1.
        -13    1    6    6    0    0  0.14339293746E+03 -0.93020185196E+02  0.26709665425E+03  0.31710394523E+03  0.00000000000E+00 0.  1.
         14    1    6    6    0    0  0.11600017512E+03  0.14208218691E+00  0.19277967583E+03  0.22498903135E+03  0.00000000000E+00 0. -1.
         -5    1    3    3    0  503 -0.99951404744E+02  0.46095279124E+02  0.96095082103E+03  0.96724538174E+03  0.47000000000E+01 0.  1.
         11    1    4    4    0    0 -0.95210561920E+01 -0.28302102312E+01  0.40789242010E+01  0.10737701039E+02  0.00000000000E+00 0. -1.
        -12    1    4    4    0    0 -0.13461151287E+03  0.78731807608E+02  0.59550193561E+03  0.61558225465E+03  0.00000000000E+00 0.  1.
</event>
<event>
12    1  0.8724767E-002  0.3577228E+03  0.7818608E-02  0.1059524E+00
         21   -1    0    0  501  502  0.00000000000E+00  0.00000000000E+00  0.18735625042E+04  0.18735625042E+04  0.00000000000E+00 0.  1.
         21   -1    0    0  502  503 -0.00000000000E+00 -0.00000000000E+00 -0.13250507165E+03  0.13250507165E+03  0.00000000000E+00 0. -1.
         -6    2    1    2    0  503 -0.24135579166E+03  0.20031150514E+03  0.17174127734E+03  0.39649657017E+03  0.17128089956E+03 0.  0.
        -24    2    3    3    0    0 -0.19499649987E+03  0.16332532621E+03  0.19694872173E+03  0.33188491008E+03  0.81608807141E+02 0.  0.
          6    2    1    2  501    0  0.24135579166E+03 -0.20031150514E+03  0.15693161552E+04  0.16095710057E+04  0.17201252890E+03 0.  0.
         24    2    5    5    0    0  0.22295166361E+03 -0.20957394908E+03  0.15463919665E+04  0.15783922753E+04  0.79783309402E+02 0.  0.
          5    1    5    5  501    0  0.18404128045E+02  0.92624439321E+01  0.22924188734E+02  0.31178730343E+02  0.47000000000E+01 0. -1.
        -11    1    6    6    0    0  0.63919520940E+02 -0.65048392303E+02  0.29808316648E+03  0.31172194764E+03  0.00000000000E+00 0.  1.
         12    1    6    6    0    0  0.15903214267E+03 -0.14452555677E+03  0.12483088000E+04  0.12666703277E+04  0.00000000000E+00 0. -1.
         -5    1    3    3    0  503 -0.46359291788E+02  0.36986178931E+02 -0.25207444388E+02  0.64611660090E+02  0.47000000000E+01 0.  1.
         13    1    4    4    0    0 -0.10339746720E+03  0.13670443691E+03  0.13446389044E+03  0.21785242052E+03  0.00000000000E+00 0. -1.
        -14    1    4    4    0    0 -0.91599032669E+02  0.26620889300E+02  0.62484831289E+02  0.11403248956E+03  0.00000000000E+00 0.  1.
</event>
<event>
12    1  0.8724767E-002  0.2006785E+03  0.7818608E-02  0.1149482E+00
         21   -1    0    0  501  502  0.00000000000E+00  0.00000000000E+00  0.21950558916E+04  0.21950558916E+04  0.00000000000E+00 0. -1.
         21   -1    0    0  502  503 -0.00000000000E+00 -0.00000000000E+00 -0.22271349923E+02  0.22271349923E+02  0.00000000000E+00 0. -1.
         -6    2    1    2    0  503  0.95367632511E+02 -0.37334225152E+02  0.61630502505E+03  0.64815409274E+03  0.17257756035E+03 0.  0.
        -24    2    3    3    0    0  0.64201304797E+02  0.35145020019E+02  0.24396341804E+03  0.26751654432E+03  0.81792250054E+02 0.  0.
          6    2    1    2  501    0 -0.95367632511E+02  0.37334225152E+02  0.15564795167E+04  0.15691731488E+04  0.17084219467E+03 0.  0.
         24    2    5    5    0    0 -0.11914044423E+03  0.17207151370E+02  0.14714274840E+04  0.14784748361E+04  0.79362892483E+02 0.  0.
          5    1    5    5  501    0  0.23772811714E+02  0.20127073782E+02  0.85052032672E+02  0.90698312760E+02  0.47000000000E+01 0. -1.
        -13    1    6    6    0    0 -0.38366829740E+02  0.28359369307E+02  0.26249291088E+03  0.26679354512E+03  0.00000000000E+00 0.  1.
         14    1    6    6    0    0 -0.80773614485E+02 -0.11152217937E+02  0.12089345731E+04  0.12116812909E+04  0.00000000000E+00 0. -1.
         -5    1    3    3    0  503  0.31166327714E+02 -0.72479245171E+02  0.37234160701E+03  0.38063754843E+03  0.47000000000E+01 0.  1.
         11    1    4    4    0    0  0.83923155755E+02  0.29398625932E+02  0.20541797236E+03  0.22383904629E+03  0.00000000000E+00 0. -1.
        -12    1    4    4    0    0 -0.19721850958E+02  0.57463940865E+01  0.38545445688E+02  0.43677498022E+02  0.00000000000E+00 0.  1.
</event>
<event>
12    1  0.8724767E-002  0.3951797E+03  0.7818608E-02  0.1045543E+00
         21   -1    0    0  503  502  0.00000000000E+00  0.00000000000E+00  0.16258911701E+04  0.16258911701E+04  0.00000000000E+00 0. -1.
         21   -1    0    0  501  503 -0.00000000000E+00 -0.00000000000E+00 -0.11223622029E+03  0.11223622029E+03  0.00000000000E+00 0.  1.
          6    2    1    2  501    0 -0.24745139734E+03  0.25545462837E+03  0.42526232211E+03  0.58052994037E+03  0.17227219117E+03 0.  0.
         24    2    3    3    0    0 -0.15687895174E+03  0.18444681385E+03  0.37783936823E+03  0.45596467964E+03  0.80681895464E+02 0.  0.
         -6    2    1    2    0  502  0.24745139734E+03 -0.25545462837E+03  0.10883926277E+04  0.11575974500E+04  0.17012960674E+03 0.  0.
        -24    2    5    5    0    0  0.10580058206E+03 -0.10566801115E+03  0.66983479984E+03  0.69099941164E+03  0.80262295439E+02 0.  0.
          5    1    3    3  501    0 -0.90572445605E+02  0.71007814518E+02  0.47422953887E+02  0.12456526073E+03  0.47000000000E+01 0. -1.
        -11    1    4    4    0    0 -0.14064079822E+03  0.17861820842E+03  0.30097156234E+03  0.37718454348E+03  0.00000000000E+00 0.  1.
         12    1    4    4    0    0 -0.16238153519E+02  0.58286054319E+01  0.76867805889E+02  0.78780136159E+02  0.00000000000E+00 0. -1.
         -5    1    5    5    0  502  0.14165081528E+03 -0.14978661722E+03  0.41855782787E+03  0.46659803840E+03  0.47000000000E+01 0.  1.
         11    1    6    6    0    0  0.62320610342E+02 -0.10484777989E+03  0.41778347477E+03  0.43522401957E+03  0.00000000000E+00 0. -1.
        -12    1    6    6    0    0  0.43479971718E+02 -0.82023126331E+00  0.25205132507E+03  0.25577539207E+03  0.00000000000E+00 0.  1.
</event>
<event>
12    1  0.8724767E-002  0.1829689E+03  0.7818608E-02  0.1164972E+00
         21   -1    0    0  503  502  0.00000000000E+00  0.00000000000E+00  0.21252923833E+03  0.21252923833E+03  0.00000000000E+00 0. -1.
         21   -1    0    0  501  503 -0.00000000000E+00 -0.00000000000E+00 -0.19383367947E+03  0.19383367947E+03  0.00000000000E+00 0. -1.
          6    2    1    2  501    0 -0.59651364960E+02 -0.17171043685E+02 -0.78647490121E+02  0.19915584564E+03  0.17211767215E+03 0.  0.
         24    2    3    3    0    0  0.18538261955E+02 -0.77790240227E+01  0.81019918140E+01  0.81898050989E+02  0.78977643124E+02 0.  0.
         -6    2    1    2    0  502  0.59651364960E+02  0.17171043685E+02  0.97343048986E+02  0.20720707216E+03  0.17206385873E+03 0.  0.
        -24    2    5    5    0    0  0.29657335495E+02 -0.81915865537E+01 -0.15859289850E+02  0.87291417072E+02  0.80134978511E+02 0.  0.
          5    1    3    3  501    0 -0.78189626915E+02 -0.93920196625E+01 -0.86749481935E+02  0.11725779465E+03  0.47000000000E+01 0. -1.
        -13    1    4    4    0    0  0.13812535743E+02 -0.88237137878E+01 -0.34935495712E+02  0.38589285162E+02  0.00000000000E+00 0.  1.
         14    1    4    4    0    0  0.47257262122E+01  0.10446897651E+01  0.43037487526E+02  0.43308765827E+02  0.00000000000E+00 0. -1.
         -5    1    5    5    0  502  0.29994029465E+02  0.25362630239E+02  0.11320233884E+03  0.11991565508E+03  0.47000000000E+01 0.  1.
         11    1    6    6    0    0 -0.30714133754E+01 -0.19635820532E+02  0.26135031020E+02  0.32833502319E+02  0.00000000000E+00 0. -1.
        -12    1    6    6    0    0  0.32728748870E+02  0.11444233979E+02 -0.41994320870E+02  0.54457914753E+02  0.00000000000E+00 0.  1.
</event>
<event>
12    1  0.8724767E-002  0.1904423E+03  0.7818608E-02  0.1158308E+00
         21   -1    0    0  501  502  0.00000000000E+00  0.00000000000E+00  0.22028364471E+03  0.22028364471E+03  0.00000000000E+00 0. -1.
         21   -1    0    0  502  503 -0.00000000000E+00 -0.00000000000E+00 -0.18674846139E+03  0.18674846139E+03  0.00000000000E+00 0. -1.
         -6    2    1    2    0  503 -0.49254303696E+02  0.63829576535E+02 -0.54681306763E+02  0.19813708104E+03  0.17253421777E+03 0.  0.
        -24    2    3    3    0    0 -0.88798666705E+01  0.68513856319E+02  0.25237123416E+02  0.10835354622E+03  0.79564929720E+02 0.  0.
          6    2    1    2  501    0  0.49254303696E+02 -0.63829576535E+02  0.88216490083E+02  0.20889502506E+03  0.17133237027E+03 0.  0.
         24    2    5    5    0    0  0.49845763804E+02 -0.49052033316E+02 -0.13100337548E+02  0.10639665839E+03  0.79107066259E+02 0.  0.
          5    1    5    5  501    0 -0.59146010784E+00 -0.14777543219E+02  0.10131682763E+03  0.10249836667E+03  0.47000000000E+01 0. -1.
        -11    1    6    6    0    0  0.51887250521E+02 -0.68116328378E+02 -0.15676791749E+02  0.87051035364E+02  0.00000000000E+00 0.  1.
         12    1    6    6    0    0 -0.20414867176E+01  0.19064295062E+02  0.25764542008E+01  0.19345623031E+02  0.00000000000E+00 0. -1.
         -5    1    3    3    0  503 -0.40374437025E+02 -0.46842797832E+01 -0.79918430179E+02  0.89783534818E+02  0.47000000000E+01 0.  1.
         13    1    4    4    0    0 -0.23270198633E+02  0.36775250620E+02 -0.22703478363E+02  0.49085325020E+02  0.00000000000E+00 0. -1.
        -14    1    4    4    0    0  0.14390331962E+02  0.31738605699E+02  0.47940601779E+02  0.59268221203E+02  0.00000000000E+00 0.  1.
</event>
<event>
12    1  0.8724767E-002  0.2100389E+03  0.7818608E-02  0.1141907E+00
         21   -1    0    0  503  502  0.00000000000E+00  0.00000000000E+00  0.17531294031E+03  0.17531294031E+03  0.00000000000E+00 0.  1.
         21   -1    0    0  501  503 -0.00000000000E+00 -0.00000000000E+00 -0.12845708762E+04  0.12845708762E+04  0.00000000000E+00 0.  1.
          6    2    1    2  501    0 -0.32135775518E+02  0.11646023870E+03 -0.12094063228E+04  0.12271908252E+04  0.16952277871E+03 0.  0.
         24    2    3    3    0    0  0.12042878181E+01  0.12239293487E+02 -0.28127028466E+03  0.29261489967E+03  0.79744942541E+02 0.  0.
         -6    2    1    2    0  502  0.32135775518E+02 -0.11646023870E+03  0.10014838692E+03  0.23269299133E+03  0.17181569644E+03 0.  0.
        -24    2    5    5    0    0 -0.28586084327E+02 -0.12588428724E+02  0.83991415493E+01  0.81310987121E+02  0.74600926891E+02 0.  0.
          5    1    3    3  501    0 -0.33340063337E+02  0.10422094521E+03 -0.92813603813E+03  0.93457592550E+03  0.47000000000E+01 0. -1.
        -11    1    4    4    0    0  0.63779862695E+01  0.11450776093E+02 -0.28555226606E+03  0.28585292658E+03  0.00000000000E+00 0.  1.
         12    1    4    4    0    0 -0.51736984514E+01  0.78851739450E+00  0.42819813998E+01  0.67619730890E+01  0.00000000000E+00 0. -1.
         -5    1    5    5    0  502  0.60721859845E+02 -0.10387180997E+03  0.91749245373E+02  0.15138200420E+03  0.47000000000E+01 0.  1.
         11    1    6    6    0    0  0.22130316527E+01 -0.96178948399E+01 -0.30239891735E+02  0.31809628455E+02  0.00000000000E+00 0. -1.
        -12    1    6    6    0    0 -0.30799115980E+02 -0.29705338836E+01  0.38639033285E+02  0.49501358667E+02  0.00000000000E+00 0.  1.
</event>
<event>
12    1  0.8724767E-002  0.1988773E+03  0.7818608E-02  0.1151257E+00
         21   -1    0    0  503  502  0.00000000000E+00  0.00000000000E+00  0.14068851871E+04  0.14068851871E+04  0.00000000000E+00 0.  1.
         21   -1    0    0  501  503 -0.00000000000E+00 -0.00000000000E+00 -0.32376038065E+02  0.32376038065E+02  0.00000000000E+00 0. -1.
          6    2    1    2  501    0  0.99782853192E+02 -0.76616065710E+00  0.41098337206E+03  0.45542479685E+03  0.16895919237E+03 0.  0.
         24    2    3    3    0    0 -0.25954303181E+02  0.35509487356E+01  0.14850279912E+03  0.16431208484E+03  0.65262123679E+02 0.  0.
         -6    2    1    2    0  502 -0.99782853192E+02  0.76616065710E+00  0.96352577696E+03  0.98383642829E+03  0.17203194466E+03 0.  0.
        -24    2    5    5    0    0 -0.45656324867E+02 -0.48043391742E+02  0.77285539354E+03  0.77965675598E+03  0.78527258509E+02 0.  0.
          5    1    3    3  501    0  0.12573715637E+03 -0.43171093927E+01  0.26248057293E+03  0.29111271201E+03  0.47000000000E+01 0. -1.
        -11    1    4    4    0    0 -0.28038965877E+02 -0.64169768894E+00  0.17146685690E+02  0.32872544981E+02  0.00000000000E+00 0.  1.
         12    1    4    4    0    0  0.20846626952E+01  0.41926464245E+01  0.13135611343E+03  0.13143953986E+03  0.00000000000E+00 0. -1.
         -5    1    5    5    0  502 -0.54126528324E+02  0.48809552399E+02  0.19067038341E+03  0.20417967231E+03  0.47000000000E+01 0.  1.
         11    1    6    6    0    0  0.45888023661E+01 -0.14905986147E+02  0.25568136552E+02  0.29949543184E+02  0.00000000000E+00 0. -1.
        -12    1    6    6    0    0 -0.50245127234E+02 -0.33137405595E+02  0.74728725699E+03  0.74970721280E+03  0.00000000000E+00 0.  1.
</event>
<event>
12    1  0.8724767E-002  0.2403714E+03  0.7818608E-02  0.1119759E+00
         21   -1    0    0  503  502  0.00000000000E+00  0.00000000000E+00  0.37011892793E+02  0.37011892793E+02  0.00000000000E+00 0.  1.
         21   -1    0    0  501  503 -0.00000000000E+00 -0.00000000000E+00 -0.25395556006E+04  0.25395556006E+04  0.00000000000E+00 0. -1.
          6    2    1    2  501    0  0.12954912481E+03 -0.10665515571E+03 -0.20563710783E+04  0.20703720448E+04  0.17210489318E+03 0.  0.
         24    2    3    3    0    0  0.15708612715E+02 -0.20605572340E+02 -0.10940693273E+04  0.10975355000E+04  0.83217369719E+02 0.  0.
         -6    2    1    2    0  502 -0.12954912481E+03  0.10665515571E+03 -0.44617262954E+03  0.50619544863E+03  0.17031006687E+03 0.  0.
        -24    2    5    5    0    0  0.43330502209E+01  0.28853209071E+02 -0.13619188379E+03  0.15965867939E+03  0.78047304231E+02 0.  0.
          5    1    3    3  501    0  0.11384051209E+03 -0.86049583374E+02 -0.96230175093E+03  0.97283654477E+03  0.47000000000E+01 0. -1.
        -13    1    4    4    0    0  0.11640451058E+02 -0.42447893165E+02 -0.30562397661E+03  0.30877716692E+03  0.00000000000E+00 0.  1.
         14    1    4    4    0    0  0.40681616577E+01  0.21842320825E+02 -0.78844535074E+03  0.78875833309E+03  0.00000000000E+00 0. -1.
         -5    1    5    5    0  502 -0.13388217503E+03  0.77801946643E+02 -0.30998074576E+03  0.34653676924E+03  0.47000000000E+01 0.  1.
         11    1    6    6    0    0 -0.22815749162E+02  0.45771745408E+02 -0.78461432795E+02  0.93657928248E+02  0.00000000000E+00 0. -1.
        -12    1    6    6    0    0  0.27148799383E+02 -0.16918536337E+02 -0.57730450991E+02  0.66000751142E+02  0.00000000000E+00 0.  1.
</event>
<event>
12    1  0.8724767E-002  0.1788482E+03  0.7818608E-02  0.1169084E+00
         21   -1    0    0  503  502  0.00000000000E+00  0.00000000000E+00  0.59260223673E+02  0.59260223673E+02  0.00000000000E+00 0. -1.
         21   -1    0    0  501  503 -0.00000000000E+00 -0.00000000000E+00 -0.77721535948E+03  0.77721535948E+03  0.00000000000E+00 0. -1.
          6    2    1    2  501    0  0.11582420590E+02  0.34780947599E+02 -0.59157883593E+03  0.61802282082E+03  0.17505091014E+03 0.  0.
         24    2    3    3    0    0 -0.57848003513E+02  0.35741497818E+02 -0.28945621982E+03  0.30798786857E+03  0.80298056113E+02 0.  0.
         -6    2    1    2    0  502 -0.11582420590E+02 -0.34780947599E+02 -0.12637629988E+03  0.21845276234E+03  0.17437538078E+03 0.  0.
        -24    2    5    5    0    0  0.10822124294E+02 -0.28648734535E+02  0.41119558638E+01  0.85829828597E+02  0.80074858297E+02 0.  0.
          5    1    3    3  501    0  0.69430424104E+02 -0.96055021917E+00 -0.30212261612E+03  0.31003495225E+03  0.47000000000E+01 0. -1.
        -11    1    4    4    0    0 -0.84669393033E+01  0.40943969725E+02 -0.59432434784E+02  0.72665755500E+02  0.00000000000E+00 0.  1.
         12    1    4    4    0    0 -0.49381064210E+02 -0.52024719066E+01 -0.23002378503E+03  0.23532211307E+03  0.00000000000E+00 0. -1.
         -5    1    5    5    0  502 -0.22404544884E+02 -0.61322130646E+01 -0.13048825574E+03  0.13262293374E+03  0.47000000000E+01 0.  1.
         13    1    6    6    0    0  0.42143062924E+02 -0.30274329907E+01 -0.91796393561E+01  0.43237355167E+02  0.00000000000E+00 0. -1.
        -14    1    6    6    0    0 -0.31320938629E+02 -0.25621301544E+02  0.13291595220E+02  0.42592473430E+02  0.00000000000E+00 0.  1.
</event>
<event>
12    1  0.8724767E-002  0.2044672E+03  0.7818608E-02  0.1147200E+00
         21   -1    0    0  503  502  0.00000000000E+00  0.00000000000E+00  0.17043875456E+03  0.17043875456E+03  0.00000000000E+00 0. -1.
         21   -1    0    0  501  503 -0.00000000000E+00 -0.00000000000E+00 -0.24195502722E+03  0.24195502722E+03  0.00000000000E+00 0. -1.
          6    2    1    2  501    0 -0.29750601421E+02  0.95227580785E+02 -0.11816564614E+02  0.20480840562E+03  0.17847538033E+03 0.  0.
         24    2    3    3    0    0 -0.69310252661E+02  0.31258926545E+02 -0.50756859773E+02  0.11998275314E+03  0.77708240387E+02 0.  0.
         -6    2    1    2    0  502  0.29750601421E+02 -0.95227580785E+02 -0.59699708048E+02  0.20758537617E+03  0.17197163379E+03 0.  0.
        -24    2    5    5    0    0 -0.35387901475E+02 -0.87525120379E+02 -0.67870865700E+02  0.14131916854E+03  0.80322491977E+02 0.  0.
          5    1    3    3  501    0  0.39559651240E+02  0.63968654239E+02  0.38940295160E+02  0.84825652479E+02  0.47000000000E+01 0. -1.
        -11    1    4    4    0    0 -0.16847608471E+02 -0.25997055452E+02 -0.16599072167E+02  0.35145668299E+02  0.00000000000E+00 0.  1.
         12    1    4    4    0    0 -0.52462644191E+02  0.57255981998E+02 -0.34157787606E+02  0.84837084840E+02  0.00000000000E+00 0. -1.
         -5    1    5    5    0  502  0.65138502896E+02 -0.77024604054E+01  0.81711576526E+01  0.66266207627E+02  0.47000000000E+01 0.  1.
         11    1    6    6    0    0  0.76790488244E+01 -0.33598881058E+02 -0.63398826573E+02  0.72161373394E+02  0.00000000000E+00 0. -1.
        -12    1    6    6    0    0 -0.43066950299E+02 -0.53926239321E+02 -0.44720391270E+01  0.69157795145E+02  0.00000000000E+00 0.  1.
</event>
<event>
12    1  0.8724767E-002  0.1802259E+03  0.7818608E-02  0.1167704E+00
         21   -1    0    0  501  502  0.00000000000E+00  0.00000000000E+00  0.22844335651E+03  0.22844335651E+03  0.00000000000E+00 0. -1.
         21   -1    0    0  502  503 -0.00000000000E+00 -0.00000000000E+00 -0.29238949839E+03  0.29238949839E+03  0.00000000000E+00 0. -1.
         -6    2    1    2    0  503  0.50733961540E+02  0.19652464399E+02 -0.21884272279E+03  0.28318955892E+03  0.17130100627E+03 0.  0.
        -24    2    3    3    0    0  0.22401108011E+02 -0.35879820363E+02 -0.48957355181E+02  0.10216549044E+03  0.79068284799E+02 0.  0.
          6    2    1    2  501    0 -0.50733961540E+02 -0.19652464399E+02  0.15489658091E+03  0.23764329599E+03  0.17181743549E+03 0.  0.
         24    2    5    5    0    0  0.28941719566E+02 -0.45357667371E+02  0.99088440907E+02  0.13691787660E+03  0.77672676602E+02 0.  0.
          5    1    5    5  501    0 -0.79675681106E+02  0.25705202971E+02  0.55808140007E+02  0.10072541939E+03  0.47000000000E+01 0. -1.
        -13    1    6    6    0    0  0.30110576530E+02  0.38175953685E+01  0.50186340035E+01  0.30763737430E+02  0.00000000000E+00 0.  1.
         14    1    6    6    0    0 -0.11688569641E+01 -0.49175262739E+02  0.94069806904E+02  0.10615413917E+03  0.00000000000E+00 0. -1.
         -5    1    3    3    0  503  0.28332853529E+02  0.55532284762E+02 -0.16988536761E+03  0.18102406848E+03  0.47000000000E+01 0.  1.
         11    1    4    4    0    0  0.81803706739E+01 -0.45795363237E+02 -0.64062612240E+02  0.79171661883E+02  0.00000000000E+00 0. -1.
        -12    1    4    4    0    0  0.14220737337E+02  0.99155428744E+01  0.15105257058E+02  0.22993828557E+02  0.00000000000E+00 0.  1.
</event>
<event>
12    1  0.8724767E-002  0.1754306E+03  0.7818608E-02  0.1172470E+00
         21   -1    0    0  501  502  0.00000000000E+00  0.00000000000E+00  0.49525372271E+02  0.49525372271E+02  0.00000000000E+00 0. -1.
         21   -1    0    0  502  503 -0.00000000000E+00 -0.00000000000E+00 -0.62420262096E+03  0.62420262096E+03  0.00000000000E+00 0. -1.
         -6    2    1    2    0  503  0.81793085501E+00  0.29362801083E+02 -0.31859924574E+03  0.36370508743E+03  0.17295394803E+03 0.  0.
        -24    2    3    3    0    0  0.38386096745E+02  0.64165887356E+02 -0.24673706414E+03  0.27533719142E+03  0.96646969072E+02 0.  0.
          6    2    1    2  501    0 -0.81793085501E+00 -0.29362801083E+02 -0.25607800295E+03  0.31002290580E+03  0.17226553755E+03 0.  0.
         24    2    5    5    0    0  0.34296586616E+02 -0.62967831517E+02 -0.95313428846E+02  0.14200604446E+03  0.77070508530E+02 0.  0.
          5    1    5    5  501    0 -0.35114517471E+02  0.33605030434E+02 -0.16076457411E+03  0.16801686134E+03  0.47000000000E+01 0. -1.
        -13    1    6    6    0    0 -0.20111006961E+02  0.96185411596E+00 -0.27541580397E+02  0.34116219238E+02  0.00000000000E+00 0.  1.
         14    1    6    6    0    0  0.54407593578E+02 -0.63929685633E+02 -0.67771848449E+02  0.10788982522E+03  0.00000000000E+00 0. -1.
         -5    1    3    3    0  503 -0.37568165890E+02 -0.34803086273E+02 -0.71862181593E+02  0.88367896013E+02  0.47000000000E+01 0.  1.
         11    1    4    4    0    0 -0.98773674762E+01  0.71976055832E+02 -0.16116099085E+03  0.17677946706E+03  0.00000000000E+00 0. -1.
        -12    1    4    4    0    0  0.48263464222E+02 -0.78101684760E+01 -0.85576073293E+02  0.98557724357E+02  0.00000000000E+00 0.  1.
</event>
<event>
12    1  0.8724767E-002  0.2065832E+03  0.7818608E-02  0.1148164E+00
         21   -1    0    0  503  502  0.00000000000E+00  0.00000000000E+00  0.23975622724E+03  0.23975622724E+03  0.00000000000E+00 0. -1.
         21   -1    0    0  501  503 -0.00000000000E+00 -0.00000000000E+00 -0.37308041575E+03  0.37308041575E+03  0.00000000000E+00 0. -1.
          6    2    1    2  501    0 -0.45950203428E+02  0.96265514059E+02 -0.29533028014E+03  0.35030550493E+03  0.15529166759E+03 0.  0.
         24    2    3    3    0    0 -0.84638700916E+02  0.93211040222E+02 -0.22280078433E+03  0.26791164951E+03  0.79274552868E+02 0.  0.
         -6    2    1    2    0  502  0.45950203428E+02 -0.96265514059E+02  0.16200609163E+03  0.26253113807E+03  0.17691284390E+03 0.  0.
        -24    2    5    5    0    0 -0.11931092374E+02 -0.96934445007E+02  0.52089427104E+02  0.13821518972E+03  0.82773743779E+02 0.  0.
          5    1    3    3  501    0  0.38688497488E+02  0.30544738365E+01 -0.72529495811E+02  0.82393855420E+02  0.47000000000E+01 0. -1.
        -13    1    4    4    0    0 -0.40525880232E+02  0.67802067037E+02 -0.65615244786E+02  0.10268801104E+03  0.00000000000E+00 0.  1.
         14    1    4    4    0    0 -0.44112820684E+02  0.25408973185E+02 -0.15718553954E+03  0.16522363847E+03  0.00000000000E+00 0. -1.
         -5    1    5    5    0  502  0.57881295802E+02  0.66893094818E+00  0.10991666453E+03  0.12431594835E+03  0.47000000000E+01 0.  1.
         13    1    6    6    0    0 -0.45910735009E+02 -0.42605675902E+02  0.15893733722E+02  0.64619269415E+02  0.00000000000E+00 0. -1.
        -14    1    6    6    0    0  0.33979642635E+02 -0.54328769105E+02  0.36195693382E+02  0.73595920304E+02  0.00000000000E+00 0.  1.
</event>
<event>
12    1  0.8724767E-002  0.2573919E+03  0.7818608E-02  0.1109937E+00
         21   -1    0    0  503  502  0.00000000000E+00  0.00000000000E+00  0.78685443925E+02  0.78685443925E+02  0.00000000000E+00 0.  1.
         21   -1    0    0  501  503 -0.00000000000E+00 -0.00000000000E+00 -0.22771360378E+04  0.22771360378E+04  0.00000000000E+00 0.  1.
          6    2    1    2  501    0  0.50274239680E+02  0.17918223596E+03 -0.20364747762E+04  0.20517051336E+04  0.16622475210E+03 0.  0.
         24    2    3    3    0    0  0.88258372475E+02  0.13242065827E+03 -0.10845107539E+04  0.10978251468E+04  0.61087695193E+02 0.  0.
         -6    2    1    2    0  502 -0.50274239680E+02 -0.17918223596E+03 -0.16197581764E+03  0.30411634810E+03  0.17781117744E+03 0.  0.
        -24    2    5    5    0    0 -0.23237391761E+02 -0.12006963836E+03 -0.18428253355E+03  0.23523260607E+03  0.80110126430E+02 0.  0.
          5    1    3    3  501    0 -0.37984132795E+02  0.46761577699E+02 -0.95196402229E+03  0.95387998681E+03  0.47000000000E+01 0. -1.
        -13    1    4    4    0    0  0.43342586401E+02  0.20693850703E+02 -0.23854936243E+03  0.24333642056E+03  0.00000000000E+00 0.  1.
         14    1    4    4    0    0  0.44915786073E+02  0.11172680756E+03 -0.84596139149E+03  0.85448872623E+03  0.00000000000E+00 0. -1.
         -5    1    5    5    0  502 -0.27036847919E+02 -0.59112597607E+02  0.22306715914E+02  0.68883742031E+02  0.47000000000E+01 0.  1.
         13    1    6    6    0    0  0.17446443954E+02 -0.97599982717E+02 -0.11547481039E+03  0.15219910272E+03  0.00000000000E+00 0. -1.
        -14    1    6    6    0    0 -0.40683835715E+02 -0.22469655640E+02 -0.68807723159E+02  0.83033503355E+02  0.00000000000E+00 0.  1.
</event>
<event>
12    1  0.8724767E-002  0.1859679E+03  0.7818608E-02  0.1162395E+00
         21   -1    0    0  501  502  0.00000000000E+00  0.00000000000E+00  0.12439027713E+03  0.12439027713E+03  0.00000000000E+00 0.  1.
         21   -1    0    0  502  503 -0.00000000000E+00 -0.00000000000E+00 -0.44180366519E+03  0.44180366519E+03  0.00000000000E+00 0.  1.
         -6    2    1    2    0  503 -0.48142302282E+02  0.53129289017E+02 -0.33218317697E+03  0.38069638673E+03  0.17159158833E+03 0.  0.
        -24    2    3    3    0    0 -0.24814908600E+02  0.86405660301E+02 -0.31462675639E+03  0.33617895098E+03  0.77101059818E+02 0.  0.
          6    2    1    2  501    0  0.48142302282E+02 -0.53129289017E+02  0.14769788911E+02  0.18549755560E+03  0.17044293428E+03 0.  0.
         24    2    5    5    0    0  0.71489747910E+02 -0.11227524053E+02 -0.37724863536E+02  0.11423298053E+03  0.79932266065E+02 0.  0.
          5    1    5    5  501    0 -0.23347445628E+02 -0.41901764964E+02  0.52494652447E+02  0.71264575070E+02  0.47000000000E+01 0. -1.
        -11    1    6    6    0    0  0.22922522709E+02  0.21631721764E+02  0.15426177419E+02  0.35090460008E+02  0.00000000000E+00 0.  1.
         12    1    6    6    0    0  0.48567225201E+02 -0.32859245817E+02 -0.53151040955E+02  0.79142520518E+02  0.00000000000E+00 0. -1.
         -5    1    3    3    0  503 -0.23327393682E+02 -0.33276371284E+02 -0.17556420573E+02  0.44517435743E+02  0.47000000000E+01 0.  1.
         13    1    4    4    0    0  0.13283198787E+02  0.73056885889E+02 -0.16035683385E+03  0.17671464599E+03  0.00000000000E+00 0. -1.
        -14    1    4    4    0    0 -0.38098107387E+02  0.13348774412E+02 -0.15426992254E+03  0.15946430499E+03  0.00000000000E+00 0.  1.
</event>
<event>
12    1  0.8724767E-002  0.1927419E+03  0.7818608E-02  0.1156168E+00
         21   -1    0    0  501  502  0.00000000000E+00  0.00000000000E+00  0.37908981098E+03  0.37908981098E+03  0.00000000000E+00 0.  1.
         21   -1    0    0  502  503 -0.00000000000E+00 -0.00000000000E+00 -0.13692215895E+03  0.13692215895E+03  0.00000000000E+00 0.  1.
         -6    2    1    2    0  503  0.56555843917E+01 -0.82788574677E+02 -0.16954921012E+02  0.19348623614E+03  0.17396413567E+03 0.  0.
        -24    2    3    3    0    0 -0.52032989000E+02 -0.33135517893E+02  0.28790156691E+02  0.10455873937E+03  0.79361592512E+02 0.  0.
          6    2    1    2  501    0 -0.56555843917E+01  0.82788574677E+02  0.25912257304E+03  0.32252573379E+03  0.17318316132E+03 0.  0.
         24    2    5    5    0    0 -0.60347489337E+02  0.59896503981E+02  0.10103985638E+03  0.15362491475E+03  0.78499370661E+02 0.  0.
          5    1    5    5  501    0  0.54691904945E+02  0.22892070696E+02  0.15808271666E+03  0.16890081904E+03  0.47000000000E+01 0. -1.
        -11    1    6    6    0    0 -0.30016800139E+02 -0.15787062325E+02  0.24984742502E+02  0.42124541367E+02  0.00000000000E+00 0.  1.
         12    1    6    6    0    0 -0.30330689198E+02  0.75683566306E+02  0.76055113882E+02  0.11150037338E+03  0.00000000000E+00 0. -1.
         -5    1    3    3    0  503  0.57688573392E+02 -0.49653056784E+02 -0.45745077703E+02  0.88927496771E+02  0.47000000000E+01 0.  1.
         13    1    4    4    0    0 -0.26850093260E+02  0.62669959464E+01 -0.22181069330E+02  0.35386474576E+02  0.00000000000E+00 0. -1.
        -14    1    4    4    0    0 -0.25182895740E+02 -0.39402513840E+02  0.50971226021E+02  0.69172264794E+02  0.00000000000E+00 0.  1.
</event>
<event>
12    1  0.8724767E-002  0.1907447E+03  0.7818608E-02  0.1157869E+00
         21   -1    0    0  501  502  0.00000000000E+00  0.00000000000E+00  0.28812776885E+03  0.28812776885E+03  0.00000000000E+00 0. -1.
         21   -1    0    0  502  503 -0.00000000000E+00 -0.00000000000E+00 -0.16440985902E+03  0.16440985902E+03  0.00000000000E+00 0.  1.
         -6    2    1    2    0  503 -0.65480206216E+02  0.49180181609E+02 -0.47396066202E+02  0.19654497482E+03  0.17227069503E+03 0.  0.
        -24    2    3    3    0    0 -0.21141789985E+02  0.75819667553E+02  0.17408518684E+02  0.11349510072E+03  0.79890450582E+02 0.  0.
          6    2    1    2  501    0  0.65480206216E+02 -0.49180181609E+02  0.17111397604E+03  0.25599265304E+03  0.17188920253E+03 0.  0.
         24    2    5    5    0    0  0.85213373660E+02 -0.33081715637E+01  0.16970331311E+03  0.20581577418E+03  0.79301042678E+02 0.  0.
          5    1    5    5  501    0 -0.19733167444E+02 -0.45872010046E+02  0.14106629271E+01  0.50176878868E+02  0.47000000000E+01 0. -1.
        -13    1    6    6    0    0  0.15665420314E+02  0.14547957189E+02 -0.18192106517E+00  0.21379465552E+02  0.00000000000E+00 0.  1.
         14    1    6    6    0    0  0.69547953345E+02 -0.17856128753E+02  0.16988523417E+03  0.18443630862E+03  0.00000000000E+00 0. -1.
         -5    1    3    3    0  503 -0.44338416230E+02 -0.26639485944E+02 -0.64804584886E+02  0.83049874096E+02  0.47000000000E+01 0.  1.
         13    1    4    4    0    0  0.67659416208E+01  0.54708931071E+02  0.43190122856E+02  0.70030220742E+02  0.00000000000E+00 0. -1.
        -14    1    4    4    0    0 -0.27907731606E+02  0.21110736483E+02 -0.25781604172E+02  0.43464879983E+02  0.00000000000E+00 0.  1.
</event>
<event>
12    1  0.8724767E-002  0.2143870E+03  0.7818608E-02  0.1138996E+00
         21   -1    0    0  503  502  0.00000000000E+00  0.00000000000E+00  0.78121750103E+02  0.78121750103E+02  0.00000000000E+00 0. -1.
         21   -1    0    0  501  503 -0.00000000000E+00 -0.00000000000E+00 -0.86797697670E+03  0.86797697670E+03  0.00000000000E+00 0. -1.
          6    2    1    2  501    0 -0.98578335508E+02 -0.70596460797E+02 -0.66641307340E+03  0.69871288087E+03  0.17144024317E+03 0.  0.
         24    2    3    3    0    0 -0.11967205280E+02  0.10932903005E+01 -0.15192069431E+03  0.17205795928E+03  0.79872615487E+02 0.  0.
         -6    2    1    2    0  502  0.98578335508E+02  0.70596460797E+02 -0.12344215320E+03  0.24738584594E+03  0.17680566472E+03 0.  0.
        -24    2    5    5    0    0  0.29140052477E+02  0.33973457984E+02  0.79988048064E+01  0.94213606527E+02  0.82515963733E+02 0.  0.
          5    1    3    3  501    0 -0.86611130229E+02 -0.71689751098E+02 -0.51449237909E+03  0.52665492159E+03  0.47000000000E+01 0. -1.
        -13    1    4    4    0    0 -0.13293682716E+02 -0.35046196516E+02 -0.41767390512E+02  0.56120163939E+02  0.00000000000E+00 0.  1.
         14    1    4    4    0    0  0.13264774368E+01  0.36139486817E+02 -0.11015330380E+03  0.11593779534E+03  0.00000000000E+00 0. -1.
         -5    1    5    5    0  502  0.69438283031E+02  0.36623002814E+02 -0.13144095801E+03  0.15317223941E+03  0.47000000000E+01 0.  1.
         11    1    6    6    0    0  0.10016605807E+01  0.41296837571E+02 -0.26513799428E+02  0.49085778769E+02  0.00000000000E+00 0. -1.
        -12    1    6    6    0    0  0.28138391897E+02 -0.73233795875E+01  0.34512604234E+02  0.45127827758E+02  0.00000000000E+00 0.  1.
</event>
<event>
12    1  0.8724767E-002  0.1875682E+03  0.7818608E-02  0.1161667E+00
         21   -1    0    0  501  502  0.00000000000E+00  0.00000000000E+00  0.27695589136E+02  0.27695589136E+02  0.00000000000E+00 0. -1.
         21   -1    0    0  502  503 -0.00000000000E+00 -0.00000000000E+00 -0.12641830673E+04  0.12641830673E+04  0.00000000000E+00 0. -1.
         -6    2    1    2    0  503 -0.39233648019E+02 -0.46806216278E+02 -0.71181861685E+03  0.73611653903E+03  0.17734631300E+03 0.  0.
        -24    2    3    3    0    0 -0.73877441128E+02 -0.13823426003E+01 -0.60607515582E+03  0.61583648977E+03  0.80422014739E+02 0.  0.
          6    2    1    2  501    0  0.39233648019E+02  0.46806216278E+02 -0.52466886135E+03  0.55576211743E+03  0.17281208315E+03 0.  0.
         24    2    5    5    0    0  0.24199405115E+02  0.30574019793E+00 -0.10997988795E+03  0.13817696755E+03  0.80072429245E+02 0.  0.
          5    1    5    5  501    0  0.15034242904E+02  0.46500476080E+02 -0.41468897340E+03  0.41758514988E+03  0.47000000000E+01 0. -1.
        -13    1    6    6    0    0  0.43383006082E+02  0.14391609475E+02 -0.10405426269E+03  0.11365075109E+03  0.00000000000E+00 0.  1.
         14    1    6    6    0    0 -0.19183600967E+02 -0.14085869277E+02 -0.59256252576E+01  0.24526216464E+02  0.00000000000E+00 0. -1.
         -5    1    3    3    0  503  0.34643793108E+02 -0.45423873678E+02 -0.10574346103E+03  0.12028004926E+03  0.47000000000E+01 0.  1.
         11    1    4    4    0    0  0.19991526965E+01 -0.27265400111E+02 -0.11130383298E+03  0.11461213675E+03  0.00000000000E+00 0. -1.
        -12    1    4    4    0    0 -0.75876593824E+02  0.25883057511E+02 -0.49477132284E+03  0.50122435302E+03  0.00000000000E+00 0.  1.
</event>
<event>
12    1  0.8724767E-002  0.1777307E+03  0.7818608E-02  0.1170237E+00
         21   -1    0    0  503  502  0.00000000000E+00  0.00000000000E+00  0.39546122912E+03  0.39546122912E+03  0.00000000000E+00 0.  1.
         21   -1    0    0  501  503 -0.00000000000E+00 -0.00000000000E+00 -0.11951912596E+03  0.11951912596E+03  0.00000000000E+00 0.  1.
          6    2    1    2  501    0  0.25385787065E+02  0.29999214783E+02 -0.10837700473E+02  0.17806079041E+03  0.17333146932E+03 0.  0.
         24    2    3    3    0    0 -0.43999878748E+02  0.52313874916E+02 -0.20216243995E+02  0.10442410284E+03  0.76308360583E+02 0.  0.
         -6    2    1    2    0  502 -0.25385787065E+02 -0.29999214783E+02  0.28677980364E+03  0.33691956467E+03  0.17241736052E+03 0.  0.
        -24    2    5    5    0    0 -0.39104902375E+02 -0.79445416939E+02  0.17209147341E+03  0.21118713399E+03  0.84520782542E+02 0.  0.
          5    1    3    3  501    0  0.69385665813E+02 -0.22314660133E+02  0.93785435217E+01  0.73636687567E+02  0.47000000000E+01 0. -1.
        -13    1    4    4    0    0  0.69599469600E+01  0.41370349956E+02  0.11387164961E+02  0.43469693385E+02  0.00000000000E+00 0.  1.
         14    1    4    4    0    0 -0.50959825708E+02  0.10943524960E+02 -0.31603408956E+02  0.60954409458E+02  0.00000000000E+00 0. -1.
         -5    1    5    5    0  502  0.13719115310E+02  0.49446202156E+02  0.11468833023E+03  0.12573243067E+03  0.47000000000E+01 0.  1.
         11    1    6    6    0    0 -0.38771428466E+02  0.18342463376E+01  0.37586225463E+02  0.54030662308E+02  0.00000000000E+00 0. -1.
        -12    1    6    6    0    0 -0.33347390891E+00 -0.81279663277E+02  0.13450524794E+03  0.15715647168E+03  0.00000000000E+00 0.  1.
</event>
<event>
12    1  0.8724767E-002  0.3436017E+03  0.7818608E-02  0.1065304E+00
         21   -1    0    0  501  502  0.00000000000E+00  0.00000000000E+00  0.60374740003E+03  0.60374740003E+03  0.00000000000E+00 0.  1.
         21   -1    0    0  502  503 -0.00000000000E+00 -0.00000000000E+00 -0.28567182968E+03  0.28567182968E+03  0.00000000000E+00 0. -1.
         -6    2    1    2    0  503  0.24545287118E+03  0.16772056765E+03 -0.91029671064E+02  0.35516345036E+03  0.17168976286E+03 0.  0.
        -24    2    3    3    0    0  0.75502963993E+02  0.90325787402E+02 -0.89137785312E+02  0.16835180137E+03  0.80853811376E+02 0.  0.
          6    2    1    2  501    0 -0.24545287118E+03 -0.16772056765E+03  0.40910524142E+03  0.53425577936E+03  0.17229288562E+03 0.  0.
         24    2    5    5    0    0 -0.20486568635E+03 -0.17697572026E+03  0.40298070925E+03  0.49191694002E+03  0.79362893336E+02 0.  0.
          5    1    5    5  501    0 -0.40587184834E+02  0.92551526057E+01  0.61245321611E+01  0.42338839341E+02  0.47000000000E+01 0. -1.
        -13    1    6    6    0    0 -0.12505754891E+03 -0.67879197520E+02  0.25095667732E+03  0.28848956634E+03  0.00000000000E+00 0.  1.
         14    1    6    6    0    0 -0.79808137441E+02 -0.10909652274E+03  0.15202403194E+03  0.20342737368E+03  0.00000000000E+00 0. -1.
         -5    1    3    3    0  503  0.16994990719E+03  0.77394780252E+02 -0.18918857520E+01  0.18681164898E+03  0.47000000000E+01 0.  1.
         13    1    4    4    0    0  0.18754721780E+02  0.83485568363E+02 -0.56389992885E+02  0.10247639246E+03  0.00000000000E+00 0. -1.
        -14    1    4    4    0    0  0.56748242213E+02  0.68402190391E+01 -0.32747792428E+02  0.65875408915E+02  0.00000000000E+00 0.  1.
</event>
<event>
12    1  0.8724767E-002  0.2190520E+03  0.7818608E-02  0.1134637E+00
         21   -1    0    0  501  502  0.00000000000E+00  0.00000000000E+00  0.15297367623E+03  0.15297367623E+03  0.00000000000E+00 0.  1.
         21   -1    0    0  502  503 -0.00000000000E+00 -0.00000000000E+00 -0.38456944993E+03  0.38456944993E+03  0.00000000000E+00 0. -1.
         -6    2    1    2    0  503 -0.11365785280E+03  0.73012655766E+02 -0.23142791135E+03  0.31849105996E+03  0.17212995590E+03 0.  0.
        -24    2    3    3    0    0 -0.95364798156E+02  0.18126832336E+02 -0.22749551917E+03  0.26031337377E+03  0.81153031639E+02 0.  0.
          6    2    1    2  501    0  0.11365785280E+03 -0.73012655766E+02 -0.16786235361E+00  0.21905206621E+03  0.17243788484E+03 0.  0.
         24    2    5    5    0    0  0.82567864874E+02 -0.10133144037E+03 -0.43730437067E+02  0.15832045314E+03  0.77894169476E+02 0.  0.
          5    1    5    5  501    0  0.31089987922E+02  0.28318784606E+02  0.43562574714E+02  0.60731613071E+02  0.47000000000E+01 0. -1.
        -13    1    6    6    0    0  0.17034446845E+02 -0.83159799202E+01  0.20287039620E+02  0.27764939724E+02  0.00000000000E+00 0.  1.
         14    1    6    6    0    0  0.65533418029E+02 -0.93015460452E+02 -0.64017476687E+02  0.13055551342E+03  0.00000000000E+00 0. -1.
         -5    1    3    3    0  503 -0.18293054641E+02  0.54885823431E+02 -0.39323921793E+01  0.58177686187E+02  0.47000000000E+01 0.  1.
         11    1    4    4    0    0  0.35457679199E+01 -0.71904012646E+00 -0.89055461784E+02  0.89128922144E+02  0.00000000000E+00 0. -1.
        -12    1    4    4    0    0 -0.98910566075E+02  0.18845872462E+02 -0.13844005738E+03  0.17118445163E+03  0.00000000000E+00 0.  1.
</event>
<event>
12    1  0.8724767E-002  0.1978604E+03  0.7818608E-02  0.1152087E+00
         21   -1    0    0  503  502  0.00000000000E+00  0.00000000000E+00  0.57120209733E+02  0.57120209733E+02  0.00000000000E+00 0. -1.
         21   -1    0    0  501  503 -0.00000000000E+00 -0.00000000000E+00 -0.74962980020E+03  0.74962980020E+03  0.00000000000E+00 0.  1.
          6    2    1    2  501    0 -0.17932550253E+02 -0.97065911568E+02 -0.47388061893E+03  0.51352855353E+03  0.17147993101E+03 0.  0.
         24    2    3    3    0    0  0.14036581753E+02 -0.10417909229E+03 -0.45878419080E+03  0.47716078093E+03  0.78416632370E+02 0.  0.
         -6    2    1    2    0  502  0.17932550253E+02  0.97065911568E+02 -0.21862897153E+03  0.29322145640E+03  0.16863222633E+03 0.  0.
        -24    2    5    5    0    0  0.30690726096E+02  0.12514205500E+03 -0.12968165902E+03  0.19896247655E+03  0.78525663268E+02 0.  0.
          5    1    3    3  501    0 -0.31969132006E+02  0.71131807197E+01 -0.15096428131E+02  0.36367772594E+02  0.47000000000E+01 0. -1.
        -11    1    4    4    0    0  0.15071696145E+02 -0.98501659517E+02 -0.26227889094E+03  0.28057075682E+03  0.00000000000E+00 0.  1.
         12    1    4    4    0    0 -0.10351143927E+01 -0.56774327708E+01 -0.19650529986E+03  0.19659002411E+03  0.00000000000E+00 0. -1.
         -5    1    5    5    0  502 -0.12758175843E+02 -0.28076143428E+02 -0.88947312508E+02  0.94258979853E+02  0.47000000000E+01 0.  1.
         11    1    6    6    0    0  0.29936162953E+02  0.68174876184E+01 -0.40341485553E+02  0.50696029888E+02  0.00000000000E+00 0. -1.
        -12    1    6    6    0    0  0.75456314311E+00  0.11832456738E+03 -0.89340173471E+02  0.14826644666E+03  0.00000000000E+00 0.  1.
</event>
<event>
12    1  0.8724767E-002  0.2432942E+03  0.7818608E-02  0.1118032E+00
         21   -1    0    0  501  502  0.00000000000E+00  0.00000000000E+00  0.53311307373E+03  0.53311307373E+03  0.00000000000E+00 0.  1.
         21   -1    0    0  502  503 -0.00000000000E+00 -0.00000000000E+00 -0.27548627788E+03  0.27548627788E+03  0.00000000000E+00 0. -1.
         -6    2    1    2    0  503 -0.45138552167E+02 -0.16364335740E+03 -0.18491481791E+03  0.30358932299E+03  0.17075230550E+03 0.  0.
        -24    2    3    3    0    0 -0.43583284047E+02 -0.14083002819E+03 -0.21045063232E+03  0.26899113422E+03  0.79587449742E+02 0.  0.
          6    2    1    2  501    0  0.45138552167E+02  0.16364335740E+03  0.44254161377E+03  0.50501002863E+03  0.17428543193E+03 0.  0.
         24    2    5    5    0    0  0.94048654485E+02  0.83220058701E+02  0.27532978374E+03  0.31306735181E+03  0.80211902945E+02 0.  0.
          5    1    5    5  501    0 -0.48910102318E+02  0.80423298697E+02  0.16721183003E+03  0.19194267682E+03  0.47000000000E+01 0. -1.
        -13    1    6    6    0    0  0.38571870198E+02  0.81779113629E+02  0.20012557892E+03  0.21960387049E+03  0.00000000000E+00 0.  1.
         14    1    6    6    0    0  0.55476784288E+02  0.14409450723E+01  0.75204204820E+02  0.93463481319E+02  0.00000000000E+00 0. -1.
         -5    1    3    3    0  503 -0.15552681199E+01 -0.22813329209E+02  0.25535814407E+02  0.34598188767E+02  0.47000000000E+01 0.  1.
         13    1    4    4    0    0 -0.63090074142E+02 -0.72483375739E+02 -0.12962852016E+03  0.16136217169E+03  0.00000000000E+00 0. -1.
        -14    1    4    4    0    0  0.19506790095E+02 -0.68346652451E+02 -0.80822112160E+02  0.10762896253E+03  0.00000000000E+00 0.  1.
</event>
<event>
12    1  0.8724767E-002  0.1881997E+03  0.7818608E-02  0.1160273E+00
         21   -1    0    0  501  502  0.00000000000E+00  0.00000000000E+00  0.98037038954E+02  0.98037038954E+02  0.00000000000E+00 0.  1.
         21   -1    0    0  502  503 -0.00000000000E+00 -0.00000000000E+00 -0.37959214018E+03  0.37959214018E+03  0.00000000000E+00 0.  1.
         -6    2    1    2    0  503 -0.74319700206E+02 -0.12926111662E+02 -0.86516726021E+02  0.20713347171E+03  0.17241992060E+03 0.  0.
        -24    2    3    3    0    0 -0.10430410476E+03 -0.25468574422E+02 -0.10484563370E+03  0.16952473941E+03  0.78854523090E+02 0.  0.
          6    2    1    2  501    0  0.74319700206E+02  0.12926111662E+02 -0.19503837521E+03  0.27049570743E+03  0.17157347619E+03 0.  0.
         24    2    5    5    0    0  0.23080016299E+02  0.62979254573E+02 -0.68522740242E+02  0.12503396602E+03  0.80243710469E+02 0.  0.
          5    1    5    5  501    0  0.51239683907E+02 -0.50053142912E+02 -0.12651563497E+03  0.14546174141E+03  0.47000000000E+01 0. -1.
        -13    1    6    6    0    0 -0.13081074136E+02  0.16498154273E+02  0.12790207171E+02  0.24635198282E+02  0.00000000000E+00 0.  1.
         14    1    6    6    0    0  0.36161090435E+02  0.46481100301E+02 -0.81312947412E+02  0.10039876774E+03  0.00000000000E+00 0. -1.
         -5    1    3    3    0  503  0.29984404559E+02  0.12542462760E+02  0.18328907676E+02  0.37608732303E+02  0.47000000000E+01 0.  1.
         13    1    4    4    0    0 -0.67149044295E+02  0.17728026493E+02 -0.30488245531E+02  0.75847282012E+02  0.00000000000E+00 0. -1.
        -14    1    4    4    0    0 -0.37155060470E+02 -0.43196600915E+02 -0.74357388166E+02  0.93677457395E+02  0.00000000000E+00 0.  1.
</event>
<event>
12    1  0.8724767E-002  0.2863997E+03  0.7818608E-02  0.1092283E+00
         21   -1    0    0  503  502  0.00000000000E+00  0.00000000000E+00  0.70727321811E+03  0.70727321811E+03  0.00000000000E+00 0. -1.
         21   -1    0    0  501  503 -0.00000000000E+00 -0.00000000000E+00 -0.20934595462E+03  0.20934595462E+03  0.00000000000E+00 0.  1.
          6    2    1    2  501    0  0.21172478253E+03  0.86477913353E+02  0.55517024424E+03  0.62455486538E+03  0.17189812897E+03 0.  0.
         24    2    3    3    0    0  0.17130047764E+03  0.25095326377E+02  0.26554512737E+03  0.32571252445E+03  0.74838525296E+02 0.  0.
         -6    2    1    2    0  502 -0.21172478253E+03 -0.86477913353E+02 -0.57242980755E+02  0.29206430735E+03  0.17239195965E+03 0.  0.
        -24    2    5    5    0    0 -0.41505027841E+02  0.55909647276E+01 -0.98259214883E+00  0.90473720962E+02  0.80191037371E+02 0.  0.
          5    1    3    3  501    0  0.40424304888E+02  0.61382586976E+02  0.28962511687E+03  0.29884234093E+03  0.47000000000E+01 0. -1.
        -13    1    4    4    0    0  0.24220866168E+02 -0.18654098397E+02  0.21283064778E+02  0.37250430753E+02  0.00000000000E+00 0.  1.
         14    1    4    4    0    0  0.14707961147E+03  0.43749424774E+02  0.24426206259E+03  0.28846209370E+03  0.00000000000E+00 0. -1.
         -5    1    5    5    0  502 -0.17021975468E+03 -0.92068878080E+02 -0.56260388606E+02  0.20159058639E+03  0.47000000000E+01 0.  1.
         11    1    6    6    0    0  0.69973915512E+01  0.50221618125E+01  0.31131159814E+02  0.32300692085E+02  0.00000000000E+00 0. -1.
        -12    1    6    6    0    0 -0.48502419392E+02  0.56880291512E+00 -0.32113751963E+02  0.58173028877E+02  0.00000000000E+00 0.  1.
</event>
<event>
12    1  0.8724767E-002  0.1834623E+03  0.7818608E-02  0.1165663E+00
         21   -1    0    0  503  502  0.00000000000E+00  0.00000000000E+00  0.68210392951E+03  0.68210392951E+03  0.00000000000E+00 0.  1.
         21   -1    0    0  501  503 -0.00000000000E+00 -0.00000000000E+00 -0.10929485175E+03  0.10929485175E+03  0.00000000000E+00 0.  1.
          6    2    1    2  501    0  0.38737860697E+02 -0.24573848206E+02 -0.81194235998E+01  0.18364191926E+03  0.17763426923E+03 0.  0.
         24    2    3    3    0    0  0.23054796591E+01 -0.78596646074E+02 -0.27513007999E+02  0.11549514976E+03  0.79996349909E+02 0.  0.
         -6    2    1    2    0  502 -0.38737860697E+02  0.24573848206E+02  0.58092850136E+03  0.60775686200E+03  0.17258616325E+03 0.  0.
        -24    2    5    5    0    0 -0.70214938158E+02  0.49097935776E+02  0.53114182056E+03  0.54377998444E+03  0.79020839622E+02 0.  0.
          5    1    3    3  501    0  0.36432381038E+02  0.54022797868E+02  0.19393584399E+02  0.68146769501E+02  0.47000000000E+01 0. -1.
        -11    1    4    4    0    0  0.38505656594E+02 -0.53151554780E+02 -0.49334653845E+01  0.65818784902E+02  0.00000000000E+00 0.  1.
         12    1    4    4    0    0 -0.36200176934E+02 -0.25445091294E+02 -0.22579542615E+02  0.49676364860E+02  0.00000000000E+00 0. -1.
         -5    1    5    5    0  502  0.31477077462E+02 -0.24524087570E+02  0.49786680805E+02  0.63976877559E+02  0.47000000000E+01 0.  1.
         11    1    6    6    0    0 -0.29499359776E+02 -0.75444682805E+01  0.57839357894E+02  0.65364535877E+02  0.00000000000E+00 0. -1.
        -12    1    6    6    0    0 -0.40715578382E+02  0.56642404056E+02  0.47330246266E+03  0.47841544856E+03  0.00000000000E+00 0.  1.
</event>
<event>
12    1  0.8724767E-002  0.2670484E+03  0.7818608E-02  0.1103121E+00
         21   -1    0    0  503  502  0.00000000000E+00  0.00000000000E+00  0.92282973993E+03  0.92282973993E+03  0.00000000000E+00 0.  1.
         21   -1    0    0  501  503 -0.00000000000E+00 -0.00000000000E+00 -0.96584268079E+02  0.96584268079E+02  0.00000000000E+00 0. -1.
          6    2    1    2  501    0  0.20373722240E+03  0.73460031014E+01  0.18419531937E+03  0.32441138599E+03  0.17248771589E+03 0.  0.
         24    2    3    3    0    0  0.10522895209E+03 -0.16113235554E+02  0.17701076769E+03  0.22278499680E+03  0.83471996539E+02 0.  0.
         -6    2    1    2    0  502 -0.20373722240E+03 -0.73460031014E+01  0.64205015248E+03  0.69500262202E+03  0.17098955162E+03 0.  0.
        -24    2    5    5    0    0 -0.15724507547E+03 -0.19035168084E+02  0.31177458358E+03  0.36123294438E+03  0.90540033966E+02 0.  0.
          5    1    3    3  501    0  0.98508270304E+02  0.23459238655E+02  0.71845516883E+01  0.10162638919E+03  0.47000000000E+01 0. -1.
        -13    1    4    4    0    0  0.52983114366E+02  0.10239786279E+02  0.14788122078E+03  0.15741956387E+03  0.00000000000E+00 0.  1.
         14    1    4    4    0    0  0.52245837726E+02 -0.26353021833E+02  0.29129546908E+02  0.65365432933E+02  0.00000000000E+00 0. -1.
         -5    1    5    5    0  502 -0.46492146924E+02  0.11689164982E+02  0.33027556889E+03  0.33376967764E+03  0.47000000000E+01 0.  1.
         11    1    6    6    0    0 -0.68626561678E+02  0.11613315082E+01  0.52275595714E+02  0.86276830991E+02  0.00000000000E+00 0. -1.
        -12    1    6    6    0    0 -0.88618513794E+02 -0.20196499592E+02  0.25949898787E+03  0.27495611339E+03  0.00000000000E+00 0.  1.
</event>
<event>
12    1  0.8724767E-002  0.1817843E+03  0.7818608E-02  0.1166293E+00
         21   -1    0    0  503  502  0.00000000000E+00  0.00000000000E+00  0.26629857495E+03  0.26629857495E+03  0.00000000000E+00 0. -1.
         21   -1    0    0  501  503 -0.00000000000E+00 -0.00000000000E+00 -0.21566122024E+03  0.21566122024E+03  0.00000000000E+00 0. -1.
          6    2    1    2  501    0  0.51882717983E+02 -0.17922691639E+02 -0.13224312304E+03  0.22410167531E+03  0.17239570176E+03 0.  0.
         24    2    3    3    0    0  0.79875378658E+02 -0.37916397814E+02 -0.40601912312E+02  0.12610402819E+03  0.80224567951E+02 0.  0.
         -6    2    1    2    0  502 -0.51882717983E+02  0.17922691639E+02  0.18288047775E+03  0.25785811988E+03  0.17329887924E+03 0.  0.
        -24    2    5    5    0    0 -0.21972219861E+02  0.78389531336E+02  0.11273244410E+03  0.16042243224E+03  0.79994098191E+02 0.  0.
          5    1    3    3  501    0 -0.27992660675E+02  0.19993706175E+02 -0.91641210729E+02  0.97997647125E+02  0.47000000000E+01 0. -1.
        -11    1    4    4    0    0 -0.96939832648E+01  0.13050021510E+02 -0.39892695217E+01  0.16738896148E+02  0.00000000000E+00 0.  1.
         12    1    4    4    0    0  0.89569361923E+02 -0.50966419324E+02 -0.36612642790E+02  0.10936513204E+03  0.00000000000E+00 0. -1.
         -5    1    5    5    0  502 -0.29910498122E+02 -0.60466839697E+02  0.70148033648E+02  0.97435687638E+02  0.47000000000E+01 0.  1.
         11    1    6    6    0    0 -0.24451422231E+02  0.43069355841E+02  0.11472568757E+03  0.12495929277E+03  0.00000000000E+00 0. -1.
        -12    1    6    6    0    0  0.24792023705E+01  0.35320175495E+02 -0.19932434733E+01  0.35463139468E+02  0.00000000000E+00 0.  1.
</event>
<event>
12    1  0.8724767E-002  0.2436412E+03  0.7818608E-02  0.1117399E+00
         21   -1    0    0  501  502  0.00000000000E+00  0.00000000000E+00  0.34822557772E+03  0.34822557772E+03  0.00000000000E+00 0. -1.
         21   -1    0    0  502  503 -0.00000000000E+00 -0.00000000000E+00 -0.49666620247E+03  0.49666620247E+03  0.00000000000E+00 0. -1.
         -6    2    1    2    0  503  0.15529460355E+03 -0.75760396823E+02 -0.41659425977E+03  0.48258335492E+03  0.17169701674E+03 0.  0.
        -24    2    3    3    0    0  0.57420599146E+02 -0.81737643839E+02 -0.14323637496E+03  0.19213254772E+03  0.80125458836E+02 0.  0.
          6    2    1    2  501    0 -0.15529460355E+03  0.75760396823E+02  0.26815363501E+03  0.36230842527E+03  0.17177011217E+03 0.  0.
         24    2    5    5    0    0 -0.42097312034E+02 -0.25939297246E+02  0.69753818010E+02  0.11222637480E+03  0.72692043940E+02 0.  0.
          5    1    5    5  501    0 -0.11319729152E+03  0.10169969407E+03  0.19839981700E+03  0.25008205047E+03  0.47000000000E+01 0. -1.
        -11    1    6    6    0    0 -0.57552727884E+01 -0.11687117321E+02 -0.14424828656E+02  0.19436757906E+02  0.00000000000E+00 0.  1.
         12    1    6    6    0    0 -0.36342039246E+02 -0.14252179925E+02  0.84178646666E+02  0.92789616896E+02  0.00000000000E+00 0. -1.
         -5    1    3    3    0  503  0.97874004408E+02  0.59772470161E+01 -0.27335788481E+03  0.29045080721E+03  0.47000000000E+01 0.  1.
         13    1    4    4    0    0  0.24858102729E+02 -0.99262701327E+01 -0.97221246364E+02  0.10083861787E+03  0.00000000000E+00 0. -1.
        -14    1    4    4    0    0  0.32562496417E+02 -0.71811373706E+02 -0.46015128596E+02  0.91293929843E+02  0.00000000000E+00 0.  1.
</event>
<event>
12    1  0.8724767E-002  0.2563515E+03  0.7818608E-02  0.1109359E+00
         21   -1    0    0  501  502  0.00000000000E+00  0.00000000000E+00  0.38991193341E+02  0.38991193341E+02  0.00000000000E+00 0.  1.
         21   -1    0    0  502  503 -0.00000000000E+00 -0.00000000000E+00 -0.19801322643E+04  0.19801322643E+04  0.00000000000E+00 0.  1.
         -6    2    1    2    0  503  0.89275676541E+02 -0.16780601265E+03 -0.13602030999E+04  0.13841490326E+04  0.17200891616E+03 0.  0.
        -24    2    3    3    0    0  0.69935969047E+01 -0.91203988276E+02 -0.98638074040E+03  0.99376017875E+03  0.79026893938E+02 0.  0.
          6    2    1    2  501    0 -0.89275676541E+02  0.16780601265E+03 -0.58093797107E+03  0.63497442502E+03  0.17197264289E+03 0.  0.
         24    2    5    5    0    0 -0.77722377055E+02  0.71280722674E+02 -0.47168275947E+03  0.48865490618E+03  0.71953335097E+02 0.  0.
          5    1    5    5  501    0 -0.11553299486E+02  0.96525289973E+02 -0.10925521159E+03  0.14631951884E+03  0.47000000000E+01 0. -1.
        -13    1    6    6    0    0 -0.79566848937E+02  0.59076276329E+02 -0.28829531571E+03  0.30485255278E+03  0.00000000000E+00 0.  1.
         14    1    6    6    0    0  0.18444718817E+01  0.12204446345E+02 -0.18338744376E+03  0.18380235340E+03  0.00000000000E+00 0. -1.
         -5    1    3    3    0  503  0.82282079636E+02 -0.76602024370E+02 -0.37382235949E+03  0.39038885386E+03  0.47000000000E+01 0.  1.
         11    1    4    4    0    0 -0.28933944520E+02 -0.80433549138E+01 -0.21841947486E+03  0.22047434251E+03  0.00000000000E+00 0. -1.
        -12    1    4    4    0    0  0.35927541425E+02 -0.83160633363E+02 -0.76796126553E+03  0.77328583624E+03  0.00000000000E+00 0.  1.
</event>
<event>
12    1  0.8724767E-002  0.3390830E+03  0.7818608E-02  0.1067354E+00
         21   -1    0    0  501  502  0.00000000000E+00  0.00000000000E+00  0.14077435799E+03  0.14077435799E+03  0.00000000000E+00 0.  1.
         21   -1    0    0  502  503 -0.00000000000E+00 -0.00000000000E+00 -0.89738958769E+03  0.89738958769E+03  0.00000000000E+00 0.  1.
         -6    2    1    2    0  503  0.19337773508E+03 -0.21593802262E+03 -0.53828418077E+03  0.63618169988E+03  0.17593498219E+03 0.  0.
        -24    2    3    3    0    0  0.26648414579E+02 -0.33810926860E+02 -0.11195173698E+03  0.14348464493E+03  0.78748556458E+02 0.  0.
          6    2    1    2  501    0 -0.19337773508E+03  0.21593802262E+03 -0.21833104893E+03  0.40198224580E+03  0.17290778170E+03 0.  0.
         24    2    5    5    0    0 -0.57475609827E+02  0.11725368503E+03 -0.42581985598E+02  0.15884070390E+03  0.79782650624E+02 0.  0.
          5    1    5    5  501    0 -0.13590212526E+03  0.98684337596E+02 -0.17574906333E+03  0.24314154190E+03  0.47000000000E+01 0. -1.
        -13    1    6    6    0    0 -0.44096168118E+02  0.11761381405E+02 -0.21435716727E+02  0.50421147218E+02  0.00000000000E+00 0.  1.
         14    1    6    6    0    0 -0.13379441710E+02  0.10549230362E+03 -0.21146268872E+02  0.10841955668E+03  0.00000000000E+00 0. -1.
         -5    1    3    3    0  503  0.16672932050E+03 -0.18212709576E+03 -0.42633244380E+03  0.49269705495E+03  0.47000000000E+01 0.  1.
         13    1    4    4    0    0  0.54482535604E+02 -0.16870223015E+02 -0.67505056825E+02  0.88373546989E+02  0.00000000000E+00 0. -1.
        -14    1    4    4    0    0 -0.27834121024E+02 -0.16940703845E+02 -0.44446680152E+02  0.55111097943E+02  0.00000000000E+00 0.  1.
</event>
<event>
12    1  0.8724767E-002  0.2110976E+03  0.7818608E-02  0.1143632E+00
         21   -1    0    0  501  502  0.00000000000E+00  0.00000000000E+00  0.61823001410E+02  0.61823001410E+02  0.00000000000E+00 0.  1.
         21   -1    0    0  502  503 -0.00000000000E+00 -0.00000000000E+00 -0.69700307941E+03  0.69700307941E+03  0.00000000000E+00 0.  1.
         -6    2    1    2    0  503 -0.97125399292E+02  0.15229772909E+02 -0.25743014116E+03  0.33291510413E+03  0.18680711928E+03 0.  0.
        -24    2    3    3    0    0  0.19867255955E+02 -0.80478063636E+01 -0.15394971494E+03  0.17492961211E+03  0.80251974543E+02 0.  0.
          6    2    1    2  501    0  0.97125399292E+02 -0.15229772909E+02 -0.37774993685E+03  0.42591097669E+03  0.17041084504E+03 0.  0.
         24    2    5    5    0    0  0.13377208651E+03  0.47032869321E+01 -0.28949235458E+03  0.32817767946E+03  0.77315418265E+02 0.  0.
          5    1    5    5  501    0 -0.36646687220E+02 -0.19933059841E+02 -0.88257582266E+02  0.97733297224E+02  0.47000000000E+01 0. -1.
        -13    1    6    6    0    0  0.81002631319E+02  0.10567757011E+02 -0.89138588414E+02  0.12090819539E+03  0.00000000000E+00 0.  1.
         14    1    6    6    0    0  0.52769455192E+02 -0.58644700788E+01 -0.20035376617E+03  0.20726948407E+03  0.00000000000E+00 0. -1.
         -5    1    3    3    0  503 -0.11699265525E+03  0.23277579273E+02 -0.10348042622E+03  0.15798549202E+03  0.47000000000E+01 0.  1.
         13    1    4    4    0    0  0.32136845720E+02  0.11984741172E+02 -0.21649448762E+02  0.40559949525E+02  0.00000000000E+00 0. -1.
        -14    1    4    4    0    0 -0.12269589765E+02 -0.20032547535E+02 -0.13230026618E+03  0.13436966259E+03  0.00000000000E+00 0.  1.
</event>
<event>
12    1  0.8724767E-002  0.2430419E+03  0.7818608E-02  0.1118977E+00
         21   -1    0    0  501  502  0.00000000000E+00  0.00000000000E+00  0.50771515996E+02  0.50771515996E+02  0.00000000000E+00 0. -1.
         21   -1    0    0  502  503 -0.00000000000E+00 -0.00000000000E+00 -0.17877517221E+04  0.17877517221E+04  0.00000000000E+00 0. -1.
         -6    2    1    2    0  503  0.46267451831E+02 -0.15413195733E+03 -0.14181009521E+04  0.14375826488E+04  0.17244194517E+03 0.  0.
        -24    2    3    3    0    0 -0.38374236313E+01 -0.15513649896E+03 -0.12374068381E+04  0.12500087688E+04  0.85230158019E+02 0.  0.
          6    2    1    2  501    0 -0.46267451831E+02  0.15413195733E+03 -0.31887925401E+03  0.40094058928E+03  0.18213193056E+03 0.  0.
         24    2    5    5    0    0 -0.10205892582E+03  0.94480430389E+02 -0.22847730659E+03  0.27901604158E+03  0.79407151852E+02 0.  0.
          5    1    5    5  501    0  0.55791473992E+02  0.59651526937E+02 -0.90401947412E+02  0.12192454770E+03  0.47000000000E+01 0. -1.
        -11    1    6    6    0    0 -0.48423569700E+02  0.22821350745E+02 -0.30179897554E+02  0.61453090798E+02  0.00000000000E+00 0.  1.
         12    1    6    6    0    0 -0.53635356123E+02  0.71659079644E+02 -0.19829740904E+03  0.21756295078E+03  0.00000000000E+00 0. -1.
         -5    1    3    3    0  503  0.50104875463E+02  0.10045416325E+01 -0.18069411396E+03  0.18757388002E+03  0.47000000000E+01 0.  1.
         11    1    4    4    0    0  0.32412328277E+02 -0.65118746801E+02 -0.36171429371E+03  0.36895560774E+03  0.00000000000E+00 0. -1.
        -12    1    4    4    0    0 -0.36249751908E+02 -0.90017752158E+02 -0.87569254440E+03  0.88105316102E+03  0.00000000000E+00 0.  1.
</event>
<event>
12    1  0.8724767E-002  0.1732524E+03  0.7818608E-02  0.1175350E+00
         21   -1    0    0  503  502  0.00000000000E+00  0.00000000000E+00  0.49448452942E+02  0.49448452942E+02  0.00000000000E+00 0. -1.
         21   -1    0    0  501  503 -0.00000000000E+00 -0.00000000000E+00 -0.59995497350E+03  0.59995497350E+03  0.00000000000E+00 0. -1.
          6    2    1    2  501    0  0.17182747909E+02 -0.12871558371E+02 -0.30072349572E+03  0.34541664042E+03  0.16857375466E+03 0.  0.
         24    2    3    3    0    0  0.70025347571E+01  0.19742681432E+02 -0.30416184624E+03  0.31075776519E+03  0.60142754777E+02 0.  0.
         -6    2    1    2    0  502 -0.17182747909E+02  0.12871558371E+02 -0.24978302484E+03  0.30398678602E+03  0.17191708100E+03 0.  0.
        -24    2    5    5    0    0 -0.32045269805E+02  0.68391873713E+02 -0.11844766576E+03  0.16054876276E+03  0.77728424616E+02 0.  0.
          5    1    3    3  501    0  0.10180213152E+02 -0.32614239803E+02  0.34383505258E+01  0.34658875228E+02  0.47000000000E+01 0. -1.
        -13    1    4    4    0    0  0.23187135967E+02  0.25135272237E+02 -0.96198874072E+02  0.10209627103E+03  0.00000000000E+00 0.  1.
         14    1    4    4    0    0 -0.16184601210E+02 -0.53925908053E+01 -0.20796297217E+03  0.20866149416E+03  0.00000000000E+00 0. -1.
         -5    1    5    5    0  502  0.14862521896E+02 -0.55520315342E+02 -0.13133535908E+03  0.14343802326E+03  0.47000000000E+01 0.  1.
         13    1    6    6    0    0  0.21449565652E+02  0.44973601203E+02 -0.58843490459E+02  0.77105544815E+02  0.00000000000E+00 0. -1.
        -14    1    6    6    0    0 -0.53494835457E+02  0.23418272510E+02 -0.59604175302E+02  0.83443217947E+02  0.00000000000E+00 0.  1.
</event>
<event>
12    1  0.8724767E-002  0.2437491E+03  0.7818608E-02  0.1117451E+00
         21   -1    0    0  503  502  0.00000000000E+00  0.00000000000E+00  0.19565235334E+03  0.19565235334E+03  0.00000000000E+00 0.  1.
         21   -1    0    0  501  503 -0.00000000000E+00 -0.00000000000E+00 -0.30301231833E+03  0.30301231833E+03  0.00000000000E+00 0. -1.
          6    2    1    2  501    0  0.37880004221E+02  0.16731485226E+03 -0.45397721682E+02  0.24794067239E+03  0.17316024193E+03 0.  0.
         24    2    3    3    0    0 -0.30302889927E+02  0.40007904073E+02  0.74000624998E+01  0.94104193866E+02  0.79258695750E+02 0.  0.
         -6    2    1    2    0  502 -0.37880004221E+02 -0.16731485226E+03 -0.61962243309E+02  0.25072399928E+03  0.17202921180E+03 0.  0.
        -24    2    5    5    0    0  0.37724743562E+01 -0.32133292436E+02 -0.65118948243E+02  0.10915762660E+03  0.81413328017E+02 0.  0.
          5    1    3    3  501    0  0.68182894148E+02  0.12730694818E+03 -0.52797784182E+02  0.15383647853E+03  0.47000000000E+01 0. -1.
        -13    1    4    4    0    0 -0.16979394938E+02  0.63751307992E+02  0.32800118440E+00  0.65974515595E+02  0.00000000000E+00 0.  1.
         14    1    4    4    0    0 -0.13323494989E+02 -0.23743403919E+02  0.70720613154E+01  0.28129678271E+02  0.00000000000E+00 0. -1.
         -5    1    5    5    0  502 -0.41652478578E+02 -0.13518155982E+03  0.31567049340E+01  0.14156637268E+03  0.47000000000E+01 0.  1.
         11    1    6    6    0    0  0.40481010587E+02 -0.14815357006E+02 -0.49572737385E+02  0.65693708323E+02  0.00000000000E+00 0. -1.
        -12    1    6    6    0    0 -0.36708536231E+02 -0.17317935430E+02 -0.15546210858E+02  0.43463918275E+02  0.00000000000E+00 0.  1.
</event>
<event>
12    1  0.8724767E-002  0.1910830E+03  0.7818608E-02  0.1158600E+00
         21   -1    0    0  501  502  0.00000000000E+00  0.00000000000E+00  0.39894844740E+02  0.39894844740E+02  0.00000000000E+00 0.  1.
         21   -1    0    0  502  503 -0.00000000000E+00 -0.00000000000E+00 -0.10112162197E+04  0.10112162197E+04  0.00000000000E+00 0. -1.
         -6    2    1    2    0  503  0.29745725988E+02 -0.66968718426E+02 -0.66060985180E+03  0.68634487390E+03  0.17115575413E+03 0.  0.
        -24    2    3    3    0    0  0.74847153239E+02 -0.45427804175E+02 -0.57114797420E+03  0.58375994679E+03  0.83065548218E+02 0.  0.
          6    2    1    2  501    0 -0.29745725988E+02  0.66968718426E+02 -0.31071152314E+03  0.36476619052E+03  0.17647409349E+03 0.  0.
         24    2    5    5    0    0 -0.63090711175E+02 -0.16354095211E+02 -0.16587022006E+03  0.19430894547E+03  0.77428303116E+02 0.  0.
          5    1    5    5  501    0  0.33344985187E+02  0.83322813637E+02 -0.14484130309E+03  0.17045724505E+03  0.47000000000E+01 0. -1.
        -11    1    6    6    0    0  0.12917869071E+02  0.97860271542E+01 -0.55200663168E+02  0.57530434407E+02  0.00000000000E+00 0.  1.
         12    1    6    6    0    0 -0.76008580246E+02 -0.26140122365E+02 -0.11066955689E+03  0.13677851107E+03  0.00000000000E+00 0. -1.
         -5    1    3    3    0  503 -0.45101427251E+02 -0.21540914251E+02 -0.89461877601E+02  0.10258492711E+03  0.47000000000E+01 0.  1.
         13    1    4    4    0    0  0.69001838489E+02  0.35483692236E+01 -0.27587023895E+03  0.28439098681E+03  0.00000000000E+00 0. -1.
        -14    1    4    4    0    0  0.58453147501E+01 -0.48976173398E+02 -0.29527773525E+03  0.29936895998E+03  0.00000000000E+00 0.  1.
</event>
<event>
12    1  0.8724767E-002  0.2252096E+03  0.7818608E-02  0.1130211E+00
         21   -1    0    0  503  502  0.00000000000E+00  0.00000000000E+00  0.12254768289E+04  0.12254768289E+04  0.00000000000E+00 0.  1.
         21   -1    0    0  501  503 -0.00000000000E+00 -0.00000000000E+00 -0.63200700295E+02  0.63200700295E+02  0.00000000000E+00 0.  1.
          6    2    1    2  501    0  0.14333172877E+03 -0.15606909752E+02  0.20054339783E+03  0.30092797233E+03  0.17190820228E+03 0.  0.
         24    2    3    3    0    0  0.13505012893E+03 -0.24295764912E+02  0.22378026246E+03  0.27435499775E+03  0.79776170660E+02 0.  0.
         -6    2    1    2    0  502 -0.14333172877E+03  0.15606909752E+02  0.96173273080E+03  0.98774955690E+03  0.17300803895E+03 0.  0.
        -24    2    5    5    0    0 -0.53977875449E+02  0.67317896925E+02  0.42094609818E+03  0.43717675578E+03  0.80514520064E+02 0.  0.
          5    1    3    3  501    0  0.82815998380E+01  0.86888551597E+01 -0.23236864635E+02  0.26572974578E+02  0.47000000000E+01 0. -1.
        -13    1    4    4    0    0  0.93733219584E+02  0.10283539437E+02  0.90932759257E+02  0.13099784099E+03  0.00000000000E+00 0.  1.
         14    1    4    4    0    0  0.41316909345E+02 -0.34579304349E+02  0.13284750320E+03  0.14335715676E+03  0.00000000000E+00 0. -1.
         -5    1    5    5    0  502 -0.89353853319E+02 -0.51710987172E+02  0.54078663263E+03  0.55057280111E+03  0.47000000000E+01 0.  1.
         11    1    6    6    0    0  0.44296701587E+01  0.16232198221E+02  0.11351734497E+02  0.20296997633E+02  0.00000000000E+00 0. -1.
        -12    1    6    6    0    0 -0.58407545607E+02  0.51085698703E+02  0.40959436368E+03  0.41687975815E+03  0.00000000000E+00 0.  1.
</event>
<event>
12    1  0.8724767E-002  0.3478557E+03  0.7818608E-02  0.1063506E+00
         21   -1    0    0  501  502  0.00000000000E+00  0.00000000000E+00  0.75436040155E+03  0.75436040155E+03  0.00000000000E+00 0. -1.
         21   -1    0    0  502  503 -0.00000000000E+00 -0.00000000000E+00 -0.21460610780E+03  0.21460610780E+03  0.00000000000E+00 0.  1.
         -6    2    1    2    0  503  0.28169413060E+03 -0.10998426189E+03  0.26299741547E+02  0.34877366869E+03  0.17176517250E+03 0.  0.
        -24    2    3    3    0    0  0.17188015410E+03 -0.17536537850E+01  0.40491081521E+02  0.19386576670E+03  0.79990906627E+02 0.  0.
          6    2    1    2  501    0 -0.28169413060E+03  0.10998426189E+03  0.51345455220E+03  0.62019284065E+03  0.17191701876E+03 0.  0.
         24    2    5    5    0    0 -0.29509505818E+03  0.12066622252E+03  0.49777513553E+03  0.59649424892E+03  0.79899141597E+02 0.  0.
          5    1    5    5  501    0  0.13400927576E+02 -0.10681960629E+02  0.15679416673E+02  0.23698591730E+02  0.47000000000E+01 0. -1.
        -11    1    6    6    0    0 -0.21244877893E+02 -0.77466649096E+01  0.16215958349E+02  0.27826479459E+02  0.00000000000E+00 0.  1.
         12    1    6    6    0    0 -0.27385018029E+03  0.12841288743E+03  0.48155917718E+03  0.56866776946E+03  0.00000000000E+00 0. -1.
         -5    1    3    3    0  503  0.10981397651E+03 -0.10823060810E+03 -0.14191339974E+02  0.15490790199E+03  0.47000000000E+01 0.  1.
         11    1    4    4    0    0  0.32823295802E+02  0.32655883805E+02  0.11568193824E+02  0.47724193054E+02  0.00000000000E+00 0. -1.
        -12    1    4    4    0    0  0.13905685829E+03 -0.34409537590E+02  0.28922887697E+02  0.14614157365E+03  0.00000000000E+00 0.  1.
</event>
<event>
12    1  0.8724767E-002  0.1757568E+03  0.7818608E-02  0.1176129E+00
         21   -1    0    0  503  502  0.00000000000E+00  0.00000000000E+00  0.38100109757E+03  0.38100109757E+03  0.00000000000E+00 0. -1.
         21   -1    0    0  501  503 -0.00000000000E+00 -0.00000000000E+00 -0.25205726216E+03  0.25205726216E+03  0.00000000000E+00 0. -1.
          6    2    1    2  501    0  0.34601795669E+02 -0.92269962230E+01 -0.20241643699E+03  0.25797159727E+03  0.15586696029E+03 0.  0.
         24    2    3    3    0    0  0.67631137564E+02  0.29571128997E+02 -0.13397668406E+03  0.17251797401E+03  0.79776419115E+02 0.  0.
         -6    2    1    2    0  502 -0.34601795669E+02  0.92269962230E+01  0.33136027241E+03  0.37508676246E+03  0.17206983327E+03 0.  0.
        -24    2    5    5    0    0  0.44740127759E+02  0.12480210659E+02  0.21951881557E+03  0.23784126823E+03  0.78882975333E+02 0.  0.
          5    1    3    3  501    0 -0.33029341896E+02 -0.38798125220E+02 -0.68439752931E+02  0.85453623258E+02  0.47000000000E+01 0. -1.
        -13    1    4    4    0    0  0.59188333303E+02 -0.12673065226E+02 -0.51524217123E+02  0.79489686951E+02  0.00000000000E+00 0.  1.
         14    1    4    4    0    0  0.84428042617E+01  0.42244194223E+02 -0.82452466941E+02  0.93028287063E+02  0.00000000000E+00 0. -1.
         -5    1    5    5    0  502 -0.79341923428E+02 -0.32532144358E+01  0.11184145684E+03  0.13724549423E+03  0.47000000000E+01 0.  1.
         11    1    6    6    0    0 -0.37590211955E+01 -0.20173665723E+02  0.12520029612E+03  0.12687088389E+03  0.00000000000E+00 0. -1.
        -12    1    6    6    0    0  0.48499148954E+02  0.32653876382E+02  0.94318519444E+02  0.11097038435E+03  0.00000000000E+00 0.  1.
</event>
<event>
12    1  0.8724767E-002  0.2658693E+03  0.7818608E-02  0.1104190E+00
         21   -1    0    0  503  502  0.00000000000E+00  0.00000000000E+00  0.10835107515E+03  0.10835107515E+03  0.00000000000E+00 0. -1.
         21   -1    0    0  501  503 -0.00000000000E+00 -0.00000000000E+00 -0.68640119137E+03  0.68640119137E+03  0.00000000000E+00 0. -1.
          6    2    1    2  501    0 -0.75790216034E+02  0.18368137728E+03 -0.19172235871E+03  0.32778647255E+03  0.17664513453E+03 0.  0.
         24    2    3    3    0    0  0.28224130486E+02  0.11942593842E+03 -0.52764587231E+02  0.14264031958E+03  0.50030018937E+02 0.  0.
         -6    2    1    2    0  502  0.75790216034E+02 -0.18368137728E+03 -0.38632775750E+03  0.46696579397E+03  0.17124517895E+03 0.  0.
        -24    2    5    5    0    0  0.19148164656E+02 -0.18872509444E+03 -0.30540596438E+03  0.36794969594E+03  0.78296629449E+02 0.  0.
          5    1    3    3  501    0 -0.10401434652E+03  0.64255438861E+02 -0.13895777148E+03  0.18514615297E+03  0.47000000000E+01 0. -1.
        -13    1    4    4    0    0 -0.12237001564E+02  0.13374302221E+02 -0.18033562470E+01  0.18217251739E+02  0.00000000000E+00 0.  1.
         14    1    4    4    0    0  0.40461132051E+02  0.10605163620E+03 -0.50961230984E+02  0.12442306784E+03  0.00000000000E+00 0. -1.
         -5    1    5    5    0  502  0.56642051378E+02  0.50437171513E+01 -0.80921793115E+02  0.99016098024E+02  0.47000000000E+01 0.  1.
         13    1    6    6    0    0  0.48904724249E+02 -0.12120957278E+03 -0.17999479362E+03  0.22244450615E+03  0.00000000000E+00 0. -1.
        -14    1    6    6    0    0 -0.29756559592E+02 -0.67515521657E+02 -0.12541117076E+03  0.14550518979E+03  0.00000000000E+00 0.  1.
</event>
<event>
12    1  0.8724767E-002  0.1953737E+03  0.7818608E-02  0.1154197E+00
         21   -1    0    0  503  502  0.00000000000E+00  0.00000000000E+00  0.42640455328E+03  0.42640455328E+03  0.00000000000E+00 0.  1.
         21   -1    0    0  501  503 -0.00000000000E+00 -0.00000000000E+00 -0.93351213844E+02  0.93351213844E+02  0.00000000000E+00 0. -1.
          6    2    1    2  501    0  0.94366515377E+02  0.11318809661E+02  0.22494407346E+03  0.29646560218E+03  0.16810372516E+03 0.  0.
         24    2    3    3    0    0  0.75580811908E+00  0.42370818813E+02  0.13982490989E+03  0.16610244100E+03  0.79013656717E+02 0.  0.
         -6    2    1    2    0  502 -0.94366515377E+02 -0.11318809661E+02  0.10810926597E+03  0.22329016495E+03  0.17069777297E+03 0.  0.
        -24    2    5    5    0    0 -0.51662060784E+02  0.33607266897E+02  0.12200311983E+03  0.15959438822E+03  0.82384407450E+02 0.  0.
          5    1    3    3  501    0  0.93610707258E+02 -0.31052009153E+02  0.85119163578E+02  0.13036316118E+03  0.47000000000E+01 0. -1.
        -13    1    4    4    0    0  0.19546898993E+02 -0.17846578815E+02  0.37630747099E+02  0.46007116437E+02  0.00000000000E+00 0.  1.
         14    1    4    4    0    0 -0.18791090874E+02  0.60217397629E+02  0.10219416279E+03  0.12009532456E+03  0.00000000000E+00 0. -1.
         -5    1    5    5    0  502 -0.42704454594E+02 -0.44926076558E+02 -0.13893853860E+02  0.63695776721E+02  0.47000000000E+01 0.  1.
         11    1    6    6    0    0 -0.46458556141E+02  0.13083089854E+02  0.15038316588E+02  0.50554086330E+02  0.00000000000E+00 0. -1.
        -12    1    6    6    0    0 -0.52035046427E+01  0.20524177043E+02  0.10696480325E+03  0.10904030190E+03  0.00000000000E+00 0.  1.
</event>
<event>
12    1  0.8724767E-002  0.2146662E+03  0.7818608E-02  0.1139830E+00
         21   -1    0    0  501  502  0.00000000000E+00  0.00000000000E+00  0.11267444074E+04  0.11267444074E+04  0.00000000000E+00 0. -1.
         21   -1    0    0  502  503 -0.00000000000E+00 -0.00000000000E+00 -0.39091829140E+02  0.39091829140E+02  0.00000000000E+00 0. -1.
         -6    2    1    2    0  503 -0.11037280031E+03  0.15436795050E+02  0.54485652670E+03  0.58561949436E+03  0.18346963727E+03 0.  0.
        -24    2    3    3    0    0 -0.17940754233E+02 -0.18924845493E+02  0.40766610296E+03  0.41659964982E+03  0.81753264710E+02 0.  0.
          6    2    1    2  501    0  0.11037280031E+03 -0.15436795050E+02  0.54279605159E+03  0.58021674221E+03  0.17205657392E+03 0.  0.
         24    2    5    5    0    0  0.54797233764E+02  0.50166558270E+02  0.38531162799E+03  0.40072892301E+03  0.81235452092E+02 0.  0.
          5    1    5    5  501    0  0.55575566542E+02 -0.65603353320E+02  0.15748442360E+03  0.17948781920E+03  0.47000000000E+01 0. -1.
        -11    1    6    6    0    0  0.57657015847E+02  0.43633158550E+02  0.16317257633E+03  0.17847541475E+03  0.00000000000E+00 0.  1.
         12    1    6    6    0    0 -0.28597820827E+01  0.65333997200E+01  0.22213905166E+03  0.22225350826E+03  0.00000000000E+00 0. -1.
         -5    1    3    3    0  503 -0.92432046073E+02  0.34361640543E+02  0.13719042374E+03  0.16901984454E+03  0.47000000000E+01 0.  1.
         13    1    4    4    0    0 -0.46626681434E+02 -0.27783050807E+02  0.22308135401E+03  0.22958927641E+03  0.00000000000E+00 0. -1.
        -14    1    4    4    0    0  0.28685927200E+02  0.88582053135E+01  0.18458474895E+03  0.18701037341E+03  0.00000000000E+00 0.  1.
</event>
<event>
12    1  0.8724767E-002  0.2232280E+03  0.7818608E-02  0.1132159E+00
         21   -1    0    0  503  502  0.00000000000E+00  0.00000000000E+00  0.39754459022E+03  0.39754459022E+03  0.00000000000E+00 0. -1.
         21   -1    0    0  501  503 -0.00000000000E+00 -0.00000000000E+00 -0.13298799323E+03  0.13298799323E+03  0.00000000000E+00 0. -1.
          6    2    1    2  501    0  0.12246706964E+03  0.63076313648E+02  0.61845110210E+02  0.23163668807E+03  0.17565287676E+03 0.  0.
         24    2    3    3    0    0  0.43653570688E+02  0.71844847307E+02 -0.21083769316E+02  0.11679878554E+03  0.78295048733E+02 0.  0.
         -6    2    1    2    0  502 -0.12246706964E+03 -0.63076313648E+02  0.20271148678E+03  0.29889589537E+03  0.17108478866E+03 0.  0.
        -24    2    5    5    0    0 -0.13850679650E+03 -0.64840933190E+02  0.21734025080E+03  0.27661412128E+03  0.76747040225E+02 0.  0.
          5    1    3    3  501    0  0.78813498950E+02 -0.87685336596E+01  0.82928879526E+02  0.11483790254E+03  0.47000000000E+01 0. -1.
        -13    1    4    4    0    0 -0.16478088182E+02 -0.13080413118E+01  0.71122324325E+01  0.17995060778E+02  0.00000000000E+00 0.  1.
         14    1    4    4    0    0  0.60131658870E+02  0.73152888619E+02 -0.28196001748E+02  0.98803724760E+02  0.00000000000E+00 0. -1.
         -5    1    5    5    0  502  0.16039726864E+02  0.17646195426E+01 -0.14628764015E+02  0.22281774090E+02  0.47000000000E+01 0.  1.
         13    1    6    6    0    0 -0.65073589510E+02 -0.36130964616E+01  0.43942562896E+02  0.78603914353E+02  0.00000000000E+00 0. -1.
        -14    1    6    6    0    0 -0.73433206992E+02 -0.61227836729E+02  0.17339768790E+03  0.19801020693E+03  0.00000000000E+00 0.  1.
</event>
<event>
12    1  0.8724767E-002  0.2054453E+03  0.7818608E-02  0.1145232E+00
         21   -1    0    0  503  502  0.00000000000E+00  0.00000000000E+00  0.10008239454E+03  0.10008239454E+03  0.00000000000E+00 0. -1.
         21   -1    0    0  501  503 -0.00000000000E+00 -0.00000000000E+00 -0.42247427836E+03  0.42247427836E+03  0.00000000000E+00 0. -1.
          6    2    1    2  501    0 -0.77884474079E+02  0.79984200566E+02 -0.14969558059E+03  0.25419784506E+03  0.17246539927E+03 0.  0.
         24    2    3    3    0    0 -0.36342932406E+02  0.39261421519E+02 -0.16863878454E+03  0.19283841715E+03  0.76716018674E+02 0.  0.
         -6    2    1    2    0  502  0.77884474079E+02 -0.79984200566E+02 -0.17269630323E+03  0.26835882784E+03  0.17242094910E+03 0.  0.
        -24    2    5    5    0    0  0.81370388713E+02 -0.12099586801E+03 -0.12445891162E+03  0.20477388925E+03  0.71980447348E+02 0.  0.
          5    1    3    3  501    0 -0.41541541673E+02  0.40722779048E+02  0.18943203954E+02  0.61359427914E+02  0.47000000000E+01 0. -1.
        -13    1    4    4    0    0  0.18716716699E+02 -0.24796849656E+00 -0.12176494298E+02  0.22330337788E+02  0.00000000000E+00 0.  1.
         14    1    4    4    0    0 -0.55059649104E+02  0.39509390015E+02 -0.15646229025E+03  0.17050807936E+03  0.00000000000E+00 0. -1.
         -5    1    5    5    0  502 -0.34859146343E+01  0.41011667442E+02 -0.48237391604E+02  0.63584938593E+02  0.47000000000E+01 0.  1.
         11    1    6    6    0    0  0.38261617286E+02 -0.20762383164E+02 -0.70971133384E+02  0.83258210921E+02  0.00000000000E+00 0. -1.
        -12    1    6    6    0    0  0.43108771427E+02 -0.10023348484E+03 -0.53487778238E+02  0.12151567832E+03  0.00000000000E+00 0.  1.
</event>
<event>
12    1  0.8724767E-002  0.1778366E+03  0.7818608E-02  0.1170805E+00
         21   -1    0    0  501  502  0.00000000000E+00  0.00000000000E+00  0.29948041624E+03  0.29948041624E+03  0.00000000000E+00 0.  1.
         21   -1    0    0  502  503 -0.00000000000E+00 -0.00000000000E+00 -0.11881030006E+03  0.11881030006E+03  0.00000000000E+00 0. -1.
         -6    2    1    2    0  503  0.26000306467E+02 -0.42092626855E+02  0.14416321881E+02  0.17484428610E+03  0.16707749362E+03 0.  0.
        -24    2    3    3    0    0 -0.27984170548E+02 -0.72438105430E+02 -0.34371998024E+00  0.11100761432E+03  0.79323258717E+02 0.  0.
          6    2    1    2  501    0 -0.26000306467E+02  0.42092626855E+02  0.16625379430E+03  0.24344643020E+03  0.17081579286E+03 0.  0.
         24    2    5    5    0    0 -0.13545673527E+02  0.41853904174E+02  0.19294603389E+03  0.21361791156E+03  0.80431371864E+02 0.  0.
          5    1    5    5  501    0 -0.12454632939E+02  0.23872268055E+00 -0.26692239591E+02  0.29828518645E+02  0.47000000000E+01 0. -1.
        -13    1    6    6    0    0 -0.32325638101E+02 -0.11149309937E+02  0.56539556046E+02  0.66075527910E+02  0.00000000000E+00 0.  1.
         14    1    6    6    0    0  0.18779964574E+02  0.53003214112E+02  0.13640647784E+03  0.14754238365E+03  0.00000000000E+00 0. -1.
         -5    1    3    3    0  503  0.53984477015E+02  0.30345478575E+02  0.14760041861E+02  0.63836671782E+02  0.47000000000E+01 0.  1.
         11    1    4    4    0    0  0.33813120589E+01  0.16308153791E+02  0.24839411458E+01  0.16839213607E+02  0.00000000000E+00 0. -1.
        -12    1    4    4    0    0 -0.31365482607E+02 -0.88746259220E+02 -0.28276611260E+01  0.94168400710E+02  0.00000000000E+00 0.  1.
</event>
<event>
12    1  0.8724767E-002  0.2584558E+03  0.7818608E-02  0.1108467E+00
         21   -1    0    0  501  502  0.00000000000E+00  0.00000000000E+00  0.55082820859E+02  0.55082820859E+02  0.00000000000E+00 0. -1.
         21   -1    0    0  502  503 -0.00000000000E+00 -0.00000000000E+00 -0.12633450739E+04  0.12633450739E+04  0.00000000000E+00 0.  1.
         -6    2    1    2    0  503  0.28602949767E+02  0.19026277317E+03 -0.74811977069E+03  0.79066800144E+03  0.16868504856E+03 0.  0.
        -24    2    3    3    0    0 -0.32332390098E+02  0.16824955347E+03 -0.50454993293E+03  0.53858457606E+03  0.78418206124E+02 0.  0.
          6    2    1    2  501    0 -0.28602949767E+02 -0.19026277317E+03 -0.46014248233E+03  0.52775989330E+03  0.17257273638E+03 0.  0.
         24    2    5    5    0    0 -0.59228222118E+02 -0.17900228550E+03 -0.29048360842E+03  0.35492780894E+03  0.77738164922E+02 0.  0.
          5    1    5    5  501    0  0.30625272351E+02 -0.11260487666E+02 -0.16965887391E+03  0.17283208436E+03  0.47000000000E+01 0. -1.
        -13    1    6    6    0    0 -0.18547861991E+02 -0.11012623133E+03 -0.22634780700E+03  0.25239877128E+03  0.00000000000E+00 0.  1.
         14    1    6    6    0    0 -0.40680360127E+02 -0.68876054174E+02 -0.64135801422E+02  0.10252903766E+03  0.00000000000E+00 0. -1.
         -5    1    3    3    0  503  0.60935339865E+02  0.22013219703E+02 -0.24356983776E+03  0.25208342538E+03  0.47000000000E+01 0.  1.
         11    1    4    4    0    0  0.11959355713E+02  0.35617381269E+01 -0.11865398964E+02  0.17219171296E+02  0.00000000000E+00 0. -1.
        -12    1    4    4    0    0 -0.44291745811E+02  0.16468781534E+03 -0.49268453397E+03  0.52136540476E+03  0.00000000000E+00 0.  1.
</event>
<event>
12    1  0.8724767E-002  0.1857961E+03  0.7818608E-02  0.1162441E+00
         21   -1    0    0  503  502  0.00000000000E+00  0.00000000000E+00  0.77510469634E+03  0.77510469634E+03  0.00000000000E+00 0. -1.
         21   -1    0    0  501  503 -0.00000000000E+00 -0.00000000000E+00 -0.46065607256E+02  0.46065607256E+02  0.00000000000E+00 0. -1.
          6    2    1    2  501    0 -0.67106933871E+02  0.14973327935E+02  0.28698198617E+03  0.34187548055E+03  0.17260545383E+03 0.  0.
         24    2    3    3    0    0 -0.39078958298E+01 -0.46442632024E+02  0.18585787107E+03  0.20765843542E+03  0.80041788120E+02 0.  0.
         -6    2    1    2    0  502  0.67106933871E+02 -0.14973327935E+02  0.44205710292E+03  0.47929482305E+03  0.17199274415E+03 0.  0.
        -24    2    5    5    0    0  0.85287706113E+02  0.36749979222E+02  0.35774631429E+03  0.37861592724E+03  0.82116022704E+02 0.  0.
          5    1    3    3  501    0 -0.63199038041E+02  0.61415959960E+02  0.10112411510E+03  0.13421704513E+03  0.47000000000E+01 0. -1.
        -13    1    4    4    0    0 -0.19165090882E+02 -0.59519336153E+02  0.89196821866E+02  0.10893082720E+03  0.00000000000E+00 0.  1.
         14    1    4    4    0    0  0.15257195052E+02  0.13076704129E+02  0.96661049200E+02  0.98727608216E+02  0.00000000000E+00 0. -1.
         -5    1    5    5    0  502 -0.18180772242E+02 -0.51723307157E+02  0.84310788625E+02  0.10067889581E+03  0.47000000000E+01 0.  1.
         13    1    6    6    0    0  0.77035705287E+02 -0.27825573477E+01  0.28681922411E+03  0.29699749129E+03  0.00000000000E+00 0. -1.
        -14    1    6    6    0    0  0.82520008265E+01  0.39532536569E+02  0.70927090182E+02  0.81618435950E+02  0.00000000000E+00 0.  1.
</event>
<event>
12    1  0.8724767E-002  0.1841883E+03  0.7818608E-02  0.1164698E+00
         21   -1    0    0  503  502  0.00000000000E+00  0.00000000000E+00  0.20104359444E+03  0.20104359444E+03  0.00000000000E+00 0. -1.
         21   -1    0    0  501  503 -0.00000000000E+00 -0.00000000000E+00 -0.18455665137E+03  0.18455665137E+03  0.00000000000E+00 0. -1.
          6    2    1    2  501    0  0.51103810490E+02 -0.11848548357E+02 -0.53894848494E+02  0.19191141048E+03  0.17655975542E+03 0.  0.
         24    2    3    3    0    0 -0.37837246984E+02  0.18759369145E+02 -0.30521327094E+02  0.94876531078E+02  0.79287032684E+02 0.  0.
         -6    2    1    2    0  502 -0.51103810490E+02  0.11848548357E+02  0.70381791559E+02  0.19368883533E+03  0.17265509203E+03 0.  0.
        -24    2    5    5    0    0  0.30604149573E+01 -0.52650028028E+02  0.27574962538E+02  0.99093146818E+02  0.79231821866E+02 0.  0.
          5    1    3    3  501    0  0.88941057474E+02 -0.30607917502E+02 -0.23373521400E+02  0.97034879404E+02  0.47000000000E+01 0. -1.
        -11    1    4    4    0    0 -0.18029439875E+02  0.22223608885E+01 -0.55843321139E+02  0.58723726942E+02  0.00000000000E+00 0.  1.
         12    1    4    4    0    0 -0.19807807108E+02  0.16537008256E+02  0.25321994045E+02  0.36152804136E+02  0.00000000000E+00 0. -1.
         -5    1    5    5    0  502 -0.54164225447E+02  0.64498576385E+02  0.42806829021E+02  0.94595688511E+02  0.47000000000E+01 0.  1.
         11    1    6    6    0    0 -0.19872479372E+02  0.79576347855E+01  0.26783597274E+02  0.34287030648E+02  0.00000000000E+00 0. -1.
        -12    1    6    6    0    0  0.22932894329E+02 -0.60607662813E+02  0.79136526455E+00  0.64806116170E+02  0.00000000000E+00 0.  1.
</event>
<event>
12    1  0.8724767E-002  0.1992476E+03  0.7818608E-02  0.1150427E+00
         21   -1    0    0  501  502  0.00000000000E+00  0.00000000000E+00  0.38693664617E+02  0.38693664617E+02  0.00000000000E+00 0. -1.
         21   -1    0    0  502  503 -0.00000000000E+00 -0.00000000000E+00 -0.12005275368E+04  0.12005275368E+04  0.00000000000E+00 0. -1.
         -6    2    1    2    0  503  0.81898871043E+02 -0.59900833764E+02 -0.81831617931E+03  0.84222382419E+03  0.17147613753E+03 0.  0.
        -24    2    3    3    0    0  0.11377414704E+03 -0.76945213360E+01 -0.59084820759E+03  0.60662819512E+03  0.76761973050E+02 0.  0.
          6    2    1    2  501    0 -0.81898871043E+02  0.59900833764E+02 -0.34351769290E+03  0.39699737726E+03  0.17119280724E+03 0.  0.
         24    2    5    5    0    0 -0.48457952623E+02 -0.31855518202E+02 -0.15292619384E+03  0.18279015828E+03  0.81626429465E+02 0.  0.
          5    1    5    5  501    0 -0.33440918420E+02  0.91756351966E+02 -0.19059149906E+03  0.21420721898E+03  0.47000000000E+01 0. -1.
        -11    1    6    6    0    0 -0.56137773929E+02  0.10345005451E+02 -0.92271842053E+02  0.10850143610E+03  0.00000000000E+00 0.  1.
         12    1    6    6    0    0  0.76798213057E+01 -0.42200523653E+02 -0.60654351791E+02  0.74288722180E+02  0.00000000000E+00 0. -1.
         -5    1    3    3    0  503 -0.31875276001E+02 -0.52206312428E+02 -0.22746797172E+03  0.23559562907E+03  0.47000000000E+01 0.  1.
         13    1    4    4    0    0  0.81872471497E+02 -0.24351086761E+02 -0.52199020639E+03  0.52893274864E+03  0.00000000000E+00 0. -1.
        -14    1    4    4    0    0  0.31901675547E+02  0.16656565425E+02 -0.68858001201E+02  0.77695446481E+02  0.00000000000E+00 0.  1.
</event>
<event>
12    1  0.8724767E-002  0.2104089E+03  0.7818608E-02  0.1141430E+00
         21   -1    0    0  503  502  0.00000000000E+00  0.00000000000E+00  0.78973431757E+02  0.78973431757E+02  0.00000000000E+00 0. -1.
         21   -1    0    0  501  503 -0.00000000000E+00 -0.00000000000E+00 -0.78712865676E+03  0.78712865676E+03  0.00000000000E+00 0. -1.
          6    2    1    2  501    0 -0.15408599564E+02 -0.12247813038E+03 -0.58711922953E+03  0.62336436266E+03  0.16922122084E+03 0.  0.
         24    2    3    3    0    0  0.47850895308E+01  0.34086551650E+01 -0.18609614031E+03  0.20253556618E+03  0.79714278006E+02 0.  0.
         -6    2    1    2    0  502  0.15408599564E+02  0.12247813038E+03 -0.12103599547E+03  0.24273772586E+03  0.17039241178E+03 0.  0.
        -24    2    5    5    0    0  0.53816925398E+02  0.11219858979E+03 -0.13466276287E+03  0.20044532421E+03  0.80990636992E+02 0.  0.
          5    1    3    3  501    0 -0.20193689094E+02 -0.12588678555E+03 -0.40102308922E+03  0.42082879648E+03  0.47000000000E+01 0. -1.
        -13    1    4    4    0    0 -0.91140138629E+01  0.33180922645E+01  0.50154224302E+01  0.10919223742E+02  0.00000000000E+00 0.  1.
         14    1    4    4    0    0  0.13899103394E+02  0.90562900528E-01 -0.19111156274E+03  0.19161634244E+03  0.00000000000E+00 0. -1.
         -5    1    5    5    0  502 -0.38408325834E+02  0.10279540591E+02  0.13626767400E+02  0.42292401657E+02  0.47000000000E+01 0.  1.
         13    1    6    6    0    0  0.60136121197E+02  0.94657332464E+02 -0.67833452946E+02  0.13106388137E+03  0.00000000000E+00 0. -1.
        -14    1    6    6    0    0 -0.63191957987E+01  0.17541257329E+02 -0.66829309928E+02  0.69381442833E+02  0.00000000000E+00 0.  1.
</event>
<event>
12    1  0.8724767E-002  0.2397786E+03  0.7818608E-02  0.1119995E+00
         21   -1    0    0  503  502  0.00000000000E+00  0.00000000000E+00  0.30292381862E+03  0.30292381862E+03  0.00000000000E+00 0. -1.
         21   -1    0    0  501  503 -0.00000000000E+00 -0.00000000000E+00 -0.34105965592E+03  0.34105965592E+03  0.00000000000E+00 0. -1.
          6    2    1    2  501    0  0.70029487497E+02  0.15178247937E+03 -0.23367916745E+03  0.33457924824E+03  0.17145048816E+03 0.  0.
         24    2    3    3    0    0  0.91519736721E+02  0.16583575020E+03 -0.17333359416E+03  0.26882969731E+03  0.79671281117E+02 0.  0.
         -6    2    1    2    0  502 -0.70029487497E+02 -0.15178247937E+03  0.19554333016E+03  0.30940422630E+03  0.17190616951E+03 0.  0.
        -24    2    5    5    0    0 -0.63263242982E+02 -0.14978722876E+03  0.21910381060E+03  0.28436527008E+03  0.80116634975E+02 0.  0.
          5    1    3    3  501    0 -0.21490249224E+02 -0.14053270826E+02 -0.60345573291E+02  0.65749550937E+02  0.47000000000E+01 0. -1.
        -13    1    4    4    0    0  0.20671066273E+02 -0.40289863687E+01 -0.13081157739E+02  0.24791982571E+02  0.00000000000E+00 0.  1.
         14    1    4    4    0    0  0.70848670448E+02  0.16986473657E+03 -0.16025243642E+03  0.24403771474E+03  0.00000000000E+00 0. -1.
         -5    1    5    5    0  502 -0.67662445146E+01 -0.19952506137E+01 -0.23560480437E+02  0.25038956214E+02  0.47000000000E+01 0.  1.
         11    1    6    6    0    0  0.15636944495E+02 -0.32623251962E+02  0.71093329511E+02  0.79768741388E+02  0.00000000000E+00 0. -1.
        -12    1    6    6    0    0 -0.78900187477E+02 -0.11716397680E+03  0.14801048109E+03  0.20459652869E+03  0.00000000000E+00 0.  1.
</event>
<event>
12    1  0.8724767E-002  0.2249026E+03  0.7818608E-02  0.1130545E+00
         21   -1    0    0  503  502  0.00000000000E+00  0.00000000000E+00  0.64308985206E+03  0.64308985206E+03  0.00000000000E+00 0.  1.
         21   -1    0    0  501  503 -0.00000000000E+00 -0.00000000000E+00 -0.79801977147E+02  0.79801977147E+02  0.00000000000E+00 0. -1.
          6    2    1    2  501    0 -0.12292207519E+03  0.75763143285E+02  0.33283330243E+03  0.40088175405E+03  0.17052355579E+03 0.  0.
         24    2    3    3    0    0 -0.11354438737E+03  0.12862931321E+02  0.13844752850E+03  0.19630341502E+03  0.79432548102E+02 0.  0.
         -6    2    1    2    0  502  0.12292207519E+03 -0.75763143285E+02  0.23045457249E+03  0.32201007516E+03  0.17242763140E+03 0.  0.
        -24    2    5    5    0    0  0.10433597596E+03 -0.21672385243E+02  0.22918017496E+03  0.26460826961E+03  0.78347275602E+02 0.  0.
          5    1    3    3  501    0 -0.93776878285E+01  0.62900211964E+02  0.19438577393E+03  0.20457833903E+03  0.47000000000E+01 0. -1.
        -11    1    4    4    0    0 -0.57505631055E+02  0.46363443445E+02  0.72328258673E+02  0.10338202694E+03  0.00000000000E+00 0.  1.
         12    1    4    4    0    0 -0.56038756311E+02 -0.33500512124E+02  0.66119269822E+02  0.92921388083E+02  0.00000000000E+00 0. -1.
         -5    1    5    5    0  502  0.18586099236E+02 -0.54090758043E+02  0.12743975328E+01  0.57401805542E+02  0.47000000000E+01 0.  1.
         11    1    6    6    0    0  0.95351161444E+02 -0.46285785599E+02  0.18021820839E+03  0.20907611191E+03  0.00000000000E+00 0. -1.
        -12    1    6    6    0    0  0.89848145141E+01  0.24613400357E+02  0.48961966570E+02  0.55532157705E+02  0.00000000000E+00 0.  1.
</event>
<event>
12    1  0.8724767E-002  0.2712234E+03  0.7818608E-02  0.1100970E+00
         21   -1    0    0  501  502  0.00000000000E+00  0.00000000000E+00  0.11758257588E+04  0.11758257588E+04  0.00000000000E+00 0. -1.
         21   -1    0    0  502  503 -0.00000000000E+00 -0.00000000000E+00 -0.63165163034E+02  0.63165163034E+02  0.00000000000E+00 0.  1.
         -6    2    1    2    0  503 -0.11695391057E+02 -0.20946135447E+03  0.46717854496E+03  0.53884150110E+03  0.16758141081E+03 0.  0.
        -24    2    3    3    0    0 -0.25768415237E+02 -0.22889332550E+03  0.43321354450E+03  0.49699221479E+03  0.79190408196E+02 0.  0.
          6    2    1    2  501    0  0.11695391057E+02  0.20946135447E+03  0.64548205079E+03  0.70014942072E+03  0.17190489306E+03 0.  0.
         24    2    5    5    0    0 -0.27875084708E+02  0.57416518356E+02  0.37520899358E+03  0.38749454679E+03  0.72777455299E+02 0.  0.
          5    1    5    5  501    0  0.39570475765E+02  0.15204483611E+03  0.27027305722E+03  0.31265487394E+03  0.47000000000E+01 0. -1.
        -13    1    6    6    0    0  0.59336927746E+01 -0.11230666481E+02  0.17100368747E+02  0.21301624136E+02  0.00000000000E+00 0.  1.
         14    1    6    6    0    0 -0.33808777483E+02  0.68647184837E+02  0.35810862483E+03  0.36619292265E+03  0.00000000000E+00 0. -1.
         -5    1    3    3    0  503  0.14073024180E+02  0.19431971030E+02  0.33965000468E+02  0.41849286308E+02  0.47000000000E+01 0.  1.
         13    1    4    4    0    0 -0.67713414352E+01 -0.69962429573E+02  0.21617521086E+03  0.22731545132E+03  0.00000000000E+00 0. -1.
        -14    1    4    4    0    0 -0.18997073801E+02 -0.15893089592E+03  0.21703833363E+03  0.26967676347E+03  0.00000000000E+00 0.  1.
</event>
<event>
12    1  0.8724767E-002  0.2631074E+03  0.7818608E-02  0.1105381E+00
         21   -1    0    0  501  502  0.00000000000E+00  0.00000000000E+00  0.77265896667E+02  0.77265896667E+02  0.00000000000E+00 0. -1.
         21   -1    0    0  502  503 -0.00000000000E+00 -0.00000000000E+00 -0.15286248660E+04  0.15286248660E+04  0.00000000000E+00 0.  1.
         -6    2    1    2    0  503  0.20872390996E+02  0.19740088741E+03 -0.12435879481E+04  0.12711162362E+04  0.17269260030E+03 0.  0.
        -24    2    3    3    0    0 -0.27497273973E+02  0.50262800813E+02 -0.66389155391E+03  0.67106687118E+03  0.79349234522E+02 0.  0.
          6    2    1    2  501    0 -0.20872390996E+02 -0.19740088741E+03 -0.20777102126E+03  0.33477452650E+03  0.17176268298E+03 0.  0.
         24    2    5    5    0    0 -0.31929304454E+02 -0.19521551614E+03 -0.11732485151E+03  0.24350771542E+03  0.80014426584E+02 0.  0.
          5    1    5    5  501    0  0.11056913458E+02 -0.21853712650E+01 -0.90446169748E+02  0.91266811081E+02  0.47000000000E+01 0. -1.
        -13    1    6    6    0    0  0.16677017654E+02 -0.10130413328E+02 -0.94428446872E+00  0.19535605063E+02  0.00000000000E+00 0.  1.
         14    1    6    6    0    0 -0.48606322108E+02 -0.18508510281E+03 -0.11638056704E+03  0.22397211036E+03  0.00000000000E+00 0. -1.
         -5    1    3    3    0  503  0.48369664969E+02  0.14713808659E+03 -0.57969639416E+03  0.60004936498E+03  0.47000000000E+01 0.  1.
         11    1    4    4    0    0 -0.49615499415E+02  0.22602549258E+02 -0.26170223706E+03  0.26732121857E+03  0.00000000000E+00 0. -1.
        -12    1    4    4    0    0  0.22118225442E+02  0.27660251556E+02 -0.40218931686E+03  0.40374565262E+03  0.00000000000E+00 0.  1.
</event>
<event>
12    1  0.8724767E-002  0.2162664E+03  0.7818608E-02  0.1136940E+00
         21   -1    0    0  503  502  0.00000000000E+00  0.00000000000E+00  0.57199169526E+03  0.57199169526E+03  0.00000000000E+00 0.  1.
         21   -1    0    0  501  503 -0.00000000000E+00 -0.00000000000E+00 -0.10006908512E+03  0.10006908512E+03  0.00000000000E+00 0. -1.
          6    2    1    2  501    0  0.12997930551E+03 -0.12373533295E+02  0.90956206748E+02  0.23461494656E+03  0.17240480682E+03 0.  0.
         24    2    3    3    0    0  0.10717290866E+03  0.38463683910E+02  0.10829753655E+03  0.17607123545E+03  0.79418110032E+02 0.  0.
         -6    2    1    2    0  502 -0.12997930551E+03  0.12373533295E+02  0.38096640340E+03  0.43744583383E+03  0.17080905370E+03 0.  0.
        -24    2    5    5    0    0  0.10346760986E+01 -0.41666530690E+01  0.10765709660E+03  0.13386996469E+03  0.79452409931E+02 0.  0.
          5    1    3    3  501    0  0.22806396849E+02 -0.50837217205E+02 -0.17341329800E+02  0.58543711102E+02  0.47000000000E+01 0. -1.
        -13    1    4    4    0    0  0.89214401819E+02  0.16015186165E+01  0.10038809376E+03  0.13431136856E+03  0.00000000000E+00 0.  1.
         14    1    4    4    0    0  0.17958506843E+02  0.36862165294E+02  0.79094427829E+01  0.41759866898E+02  0.00000000000E+00 0. -1.
         -5    1    5    5    0  502 -0.13101398161E+03  0.16540186364E+02  0.27330930680E+03  0.30357586914E+03  0.47000000000E+01 0.  1.
         13    1    6    6    0    0 -0.19481833123E+02  0.25406119811E+02  0.16827077755E+02  0.36168540079E+02  0.00000000000E+00 0. -1.
        -14    1    6    6    0    0  0.20516509222E+02 -0.29572772880E+02  0.90830018848E+02  0.97701424607E+02  0.00000000000E+00 0.  1.
</event>
<event>
12    1  0.8724767E-002  0.3108096E+03  0.7818608E-02  0.1080257E+00
         21   -1    0    0  501  502  0.00000000000E+00  0.00000000000E+00  0.42223143810E+03  0.42223143810E+03  0.00000000000E+00 0. -1.
         21   -1    0    0  502  503 -0.00000000000E+00 -0.00000000000E+00 -0.98388782812E+03  0.98388782812E+03  0.00000000000E+00 0. -1.
         -6    2    1    2    0  503 -0.25765918491E+03 -0.26669695027E+02 -0.89722669040E+03  0.94872446496E+03  0.16722095634E+03 0.  0.
        -24    2    3    3    0    0 -0.20489885731E+03 -0.69680051056E+02 -0.58052076155E+03  0.62475181447E+03  0.80446403590E+02 0.  0.
          6    2    1    2  501    0  0.25765918491E+03  0.26669695027E+02  0.33557030038E+03  0.45739480126E+03  0.17176451765E+03 0.  0.
         24    2    5    5    0    0  0.27472293146E+03  0.10235771840E+02  0.30793437237E+03  0.42069221560E+03  0.81122761786E+02 0.  0.
          5    1    5    5  501    0 -0.17063746553E+02  0.16433923187E+02  0.27635928006E+02  0.36702585665E+02  0.47000000000E+01 0. -1.
        -11    1    6    6    0    0  0.71822181642E+02 -0.32143098778E+02  0.72237857547E+02  0.10681719261E+03  0.00000000000E+00 0.  1.
         12    1    6    6    0    0  0.20290074982E+03  0.42378870618E+02  0.23569651483E+03  0.31387502298E+03  0.00000000000E+00 0. -1.
         -5    1    3    3    0  503 -0.52760327599E+02  0.43010356029E+02 -0.31670592885E+03  0.32397265049E+03  0.47000000000E+01 0.  1.
         13    1    4    4    0    0 -0.15964734312E+03 -0.65797803583E+02 -0.35580026062E+03  0.39548761115E+03  0.00000000000E+00 0. -1.
        -14    1    4    4    0    0 -0.45251514187E+02 -0.38822474729E+01 -0.22472050093E+03  0.22926420331E+03  0.00000000000E+00 0.  1.
</event>
<event>
12    1  0.8724767E-002  0.2054340E+03  0.7818608E-02  0.1145735E+00
         21   -1    0    0  501  502  0.00000000000E+00  0.00000000000E+00  0.10222058885E+03  0.10222058885E+03  0.00000000000E+00 0.  1.
         21   -1    0    0  502  503 -0.00000000000E+00 -0.00000000000E+00 -0.59543166954E+03  0.59543166954E+03  0.00000000000E+00 0. -1.
         -6    2    1    2    0  503  0.47737776911E+02  0.94002638938E+02 -0.49866475459E+02  0.20902398926E+03  0.17346172846E+03 0.  0.
        -24    2    3    3    0    0  0.24447460481E+02  0.25841136101E+02 -0.91221274726E+02  0.12583301180E+03  0.79039124854E+02 0.  0.
          6    2    1    2  501    0 -0.47737776911E+02 -0.94002638938E+02 -0.44334460523E+03  0.48862826914E+03  0.17631719979E+03 0.  0.
         24    2    5    5    0    0 -0.70600685788E+02 -0.44843201737E+01 -0.28263896828E+03  0.30319732850E+03  0.83900343619E+02 0.  0.
          5    1    5    5  501    0  0.22862908878E+02 -0.89518318764E+02 -0.16070563695E+03  0.18543094064E+03  0.47000000000E+01 0. -1.
        -13    1    6    6    0    0 -0.54640026740E+02  0.16666514308E+02 -0.77096771541E+02  0.95954246407E+02  0.00000000000E+00 0.  1.
         14    1    6    6    0    0 -0.15960659048E+02 -0.21150834482E+02 -0.20554219673E+03  0.20724308209E+03  0.00000000000E+00 0. -1.
         -5    1    3    3    0  503  0.23290316429E+02  0.68161502838E+02  0.41354799267E+02  0.83190977461E+02  0.47000000000E+01 0.  1.
         13    1    4    4    0    0  0.45454997923E+02  0.40529951199E+02 -0.67423230233E+02  0.90855521326E+02  0.00000000000E+00 0. -1.
        -14    1    4    4    0    0 -0.21007537442E+02 -0.14688815098E+02 -0.23798044493E+02  0.34977490477E+02  0.00000000000E+00 0.  1.
</event>
<event>
12    1  0.8724767E-002  0.1768872E+03  0.7818608E-02  0.1172304E+00
         21   -1    0    0  503  502  0.00000000000E+00  0.00000000000E+00  0.26569082796E+03  0.26569082796E+03  0.00000000000E+00 0. -1.
         21   -1    0    0  501  503 -0.00000000000E+00 -0.00000000000E+00 -0.51324857886E+03  0.51324857886E+03  0.00000000000E+00 0. -1.
          6    2    1    2  501    0  0.25713674061E+02  0.20500378904E+02 -0.46683607189E+03  0.49720892107E+03  0.16792657505E+03 0.  0.
         24    2    3    3    0    0 -0.27519105289E+02  0.45570049517E+02 -0.16821642994E+03  0.19281115869E+03  0.77752460068E+02 0.  0.
         -6    2    1    2    0  502 -0.25713674061E+02 -0.20500378904E+02  0.21927832099E+03  0.28173048575E+03  0.17380341185E+03 0.  0.
        -24    2    5    5    0    0  0.46899181919E+02  0.14222242383E+02  0.12810551772E+03  0.16002240327E+03  0.82427789222E+02 0.  0.
          5    1    3    3  501    0  0.53232779350E+02 -0.25069670613E+02 -0.29861964195E+03  0.30439776238E+03  0.47000000000E+01 0. -1.
        -11    1    4    4    0    0 -0.49573188849E+01  0.90458472802E+01  0.69647299260E+01  0.12446277616E+02  0.00000000000E+00 0.  1.
         12    1    4    4    0    0 -0.22561786404E+02  0.36524202237E+02 -0.17518115987E+03  0.18036488108E+03  0.00000000000E+00 0. -1.
         -5    1    5    5    0  502 -0.72612855980E+02 -0.34722621287E+02  0.91172803276E+02  0.12170808248E+03  0.47000000000E+01 0.  1.
         11    1    6    6    0    0  0.19233448918E+01  0.35950575329E+02  0.90807498726E+02  0.97683903213E+02  0.00000000000E+00 0. -1.
        -12    1    6    6    0    0  0.44975837027E+02 -0.21728332946E+02  0.37298018991E+02  0.62338500059E+02  0.00000000000E+00 0.  1.
</event>
<event>
12    1  0.8724767E-002  0.1923472E+03  0.7818608E-02  0.1156450E+00
         21   -1    0    0  503  502  0.00000000000E+00  0.00000000000E+00  0.18800259076E+04  0.18800259076E+04  0.00000000000E+00 0. -1.
         21   -1    0    0  501  503 -0.00000000000E+00 -0.00000000000E+00 -0.74735820952E+02  0.74735820952E+02  0.00000000000E+00 0. -1.
          6    2    1    2  501    0  0.48205568201E+02 -0.71022852145E+02  0.63692505628E+02  0.20261828092E+03  0.17213195565E+03 0.  0.
         24    2    3    3    0    0  0.11022720675E+02 -0.23054912146E+01  0.83163164258E+02  0.12195951580E+03  0.88494044677E+02 0.  0.
         -6    2    1    2    0  502 -0.48205568201E+02  0.71022852145E+02  0.17415975811E+04  0.17521434477E+04  0.17168722881E+03 0.  0.
        -24    2    5    5    0    0 -0.72320304902E+02 -0.58280103605E+01  0.84428778736E+03  0.85121363272E+03  0.80489679117E+02 0.  0.
          5    1    3    3  501    0  0.37182847527E+02 -0.68717360931E+02 -0.19470658630E+02  0.80658765122E+02  0.47000000000E+01 0. -1.
        -13    1    4    4    0    0  0.39871138653E+02  0.23790679125E+02  0.62658543935E+02  0.77985878457E+02  0.00000000000E+00 0.  1.
         14    1    4    4    0    0 -0.28848417979E+02 -0.26096170340E+02  0.20504620323E+02  0.43973637339E+02  0.00000000000E+00 0. -1.
         -5    1    5    5    0  502  0.24114736701E+02  0.76850862506E+02  0.89730979370E+03  0.90092981495E+03  0.47000000000E+01 0.  1.
         13    1    6    6    0    0 -0.17105008017E+02 -0.37017474060E+01  0.61903930984E+03  0.61928664717E+03  0.00000000000E+00 0. -1.
        -14    1    6    6    0    0 -0.55215296885E+02 -0.21262629544E+01  0.22524847752E+03  0.23192698556E+03  0.00000000000E+00 0.  1.
</event>
<event>
12    1  0.8724767E-002  0.1794501E+03  0.7818608E-02  0.1168674E+00
         21   -1    0    0  503  502  0.00000000000E+00  0.00000000000E+00  0.24011380117E+03  0.24011380117E+03  0.00000000000E+00 0.  1.
         21   -1    0    0  501  503 -0.00000000000E+00 -0.00000000000E+00 -0.17084723965E+03  0.17084723965E+03  0.00000000000E+00 0.  1.
          6    2    1    2  501    0 -0.45232368360E+02  0.22104306932E+02 -0.61872168615E+02  0.18981700172E+03  0.17224332022E+03 0.  0.
         24    2    3    3    0    0 -0.29988031138E+02  0.13631777763E+02  0.33879230432E+02  0.92376794474E+02  0.79376082835E+02 0.  0.
         -6    2    1    2    0  502  0.45232368360E+02 -0.22104306932E+02  0.13113873014E+03  0.22114403910E+03  0.17080032773E+03 0.  0.
        -24    2    5    5    0    0  0.31336914947E+02  0.50688251913E+02  0.44387885036E+02  0.10695279874E+03  0.76924090504E+02 0.  0.
          5    1    3    3  501    0 -0.15244337222E+02  0.84725291698E+01 -0.95751399047E+02  0.97440207242E+02  0.47000000000E+01 0. -1.
        -11    1    4    4    0    0 -0.52237160056E+02 -0.81182841319E+01  0.11636343849E+02  0.54129769315E+02  0.00000000000E+00 0.  1.
         12    1    4    4    0    0  0.22249128918E+02  0.21750061894E+02  0.22242886582E+02  0.38247025159E+02  0.00000000000E+00 0. -1.
         -5    1    5    5    0  502  0.13895453413E+02 -0.72792558846E+02  0.86750845100E+02  0.11419124036E+03  0.47000000000E+01 0.  1.
         13    1    6    6    0    0 -0.57296106289E+01 -0.16431507296E+02 -0.17133846665E+01  0.17485953133E+02  0.00000000000E+00 0. -1.
        -14    1    6    6    0    0  0.37066525576E+02  0.67119759209E+02  0.46101269702E+02  0.89466845606E+02  0.00000000000E+00 0.  1.
</event>
<event>
12    1  0.8724767E-002  0.2888987E+03  0.7818608E-02  0.1091585E+00
         21   -1    0    0  503  502  0.00000000000E+00  0.00000000000E+00  0.92761321778E+03  0.92761321778E+03  0.00000000000E+00 0.  1.
         21   -1    0    0  501  503 -0.00000000000E+00 -0.00000000000E+00 -0.11252589543E+03  0.11252589543E+03  0.00000000000E+00 0.  1.
          6    2    1    2  501    0  0.10522289758E+03 -0.19933341546E+03  0.16968161804E+03  0.33504371224E+03  0.18071183944E+03 0.  0.
         24    2    3    3    0    0  0.14549968562E+03 -0.16623568451E+03  0.15067554441E+03  0.27935708653E+03  0.80825743348E+02 0.  0.
         -6    2    1    2    0  502 -0.10522289758E+03  0.19933341546E+03  0.64540570430E+03  0.70509540097E+03  0.17264220988E+03 0.  0.
        -24    2    5    5    0    0 -0.62810558668E+02  0.44076499679E+02  0.16918971775E+03  0.20239541864E+03  0.80317126380E+02 0.  0.
          5    1    3    3  501    0 -0.40276788037E+02 -0.33097730947E+02  0.19006073630E+02  0.55686625712E+02  0.47000000000E+01 0. -1.
        -13    1    4    4    0    0  0.68316557416E+02 -0.74018229200E+02  0.11718482233E+03  0.15452550875E+03  0.00000000000E+00 0.  1.
         14    1    4    4    0    0  0.77183128203E+02 -0.92217455313E+02  0.33490722084E+02  0.12483157777E+03  0.00000000000E+00 0. -1.
         -5    1    5    5    0  502 -0.42412338914E+02  0.15525691578E+03  0.47621598655E+03  0.50269998234E+03  0.47000000000E+01 0.  1.
         13    1    6    6    0    0 -0.76704609526E+02  0.51508999030E+02  0.12471223403E+03  0.15520926332E+03  0.00000000000E+00 0. -1.
        -14    1    6    6    0    0  0.13894050858E+02 -0.74324993517E+01  0.44477483716E+02  0.47186155316E+02  0.00000000000E+00 0.  1.
</event>
<event>
12    1  0.8724767E-002  0.1808280E+03  0.7818608E-02  0.1167279E+00
         21   -1    0    0  503  502  0.00000000000E+00  0.00000000000E+00  0.90770679921E+02  0.90770679921E+02  0.00000000000E+00 0. -1.
         21   -1    0    0  501  503 -0.00000000000E+00 -0.00000000000E+00 -0.35797852107E+03  0.35797852107E+03  0.00000000000E+00 0. -1.
          6    2    1    2  501    0 -0.39680515066E+01 -0.58094330564E+02 -0.13206251985E+03  0.22299927848E+03  0.16999256565E+03 0.  0.
         24    2    3    3    0    0  0.46681447615E+02 -0.64330329554E+01 -0.11669605072E+03  0.14888801209E+03  0.79555832127E+02 0.  0.
         -6    2    1    2    0  502  0.39680515066E+01  0.58094330564E+02 -0.13514532130E+03  0.22574992251E+03  0.17119600746E+03 0.  0.
        -24    2    5    5    0    0  0.15245768229E+02  0.13403973328E+02  0.97599201989E+00  0.81960086766E+02  0.79400272748E+02 0.  0.
          5    1    3    3  501    0 -0.50649499122E+02 -0.51661297608E+02 -0.15366469123E+02  0.74111266385E+02  0.47000000000E+01 0. -1.
        -13    1    4    4    0    0  0.15425771410E+02  0.27758163720E+02 -0.89962809777E+02  0.95403234849E+02  0.00000000000E+00 0.  1.
         14    1    4    4    0    0  0.31255676205E+02 -0.34191196675E+02 -0.26733240948E+02  0.53484777243E+02  0.00000000000E+00 0. -1.
         -5    1    5    5    0  502 -0.11277716723E+02  0.44690357236E+02 -0.13612131332E+03  0.14378983575E+03  0.47000000000E+01 0.  1.
         11    1    6    6    0    0 -0.55105758195E+01  0.57019403676E+01 -0.37087794325E+02  0.37926020852E+02  0.00000000000E+00 0. -1.
        -12    1    6    6    0    0  0.20756344049E+02  0.77020329603E+01  0.38063786345E+02  0.44034065914E+02  0.00000000000E+00 0.  1.
</event>
<event>
12    1  0.8724767E-002  0.1910468E+03  0.7818608E-02  0.1158360E+00
         21   -1    0    0  503  502  0.00000000000E+00  0.00000000000E+00  0.40356873531E+03  0.40356873531E+03  0.00000000000E+00 0. -1.
         21   -1    0    0  501  503 -0.00000000000E+00 -0.00000000000E+00 -0.57099610006E+03  0.57099610006E+03  0.00000000000E+00 0. -1.
          6    2    1    2  501    0  0.47816033794E+02 -0.57801228241E+02 -0.53167992144E+03  0.56496230569E+03  0.17570291096E+03 0.  0.
         24    2    3    3    0    0  0.30294554759E+02 -0.56272851714E+01 -0.11829755690E+03  0.14790572455E+03  0.83260825119E+02 0.  0.
         -6    2    1    2    0  502 -0.47816033794E+02  0.57801228241E+02  0.36425255668E+03  0.40960252969E+03  0.17165940755E+03 0.  0.
        -24    2    5    5    0    0 -0.63918141906E+02  0.78596416685E+02  0.36024512921E+03  0.38258647477E+03  0.79579720921E+02 0.  0.
          5    1    3    3  501    0  0.17521479035E+02 -0.52173943070E+02 -0.41338236454E+03  0.41705658114E+03  0.47000000000E+01 0. -1.
        -11    1    4    4    0    0  0.53745909234E+02 -0.18113790663E+02 -0.10208266639E+03  0.11678014792E+03  0.00000000000E+00 0.  1.
         12    1    4    4    0    0 -0.23451354475E+02  0.12486505491E+02 -0.16214890510E+02  0.31125576626E+02  0.00000000000E+00 0. -1.
         -5    1    5    5    0  502  0.16102108112E+02 -0.20795188444E+02  0.40074274783E+01  0.27016054913E+02  0.47000000000E+01 0.  1.
         11    1    6    6    0    0  0.18471980682E+02  0.81702630868E+01  0.65527656209E+02  0.68569971544E+02  0.00000000000E+00 0. -1.
        -12    1    6    6    0    0 -0.82390122587E+02  0.70426153598E+02  0.29471747300E+03  0.31401650323E+03  0.00000000000E+00 0.  1.
</event>
<event>
12    1  0.8724767E-002  0.2590163E+03  0.7818608E-02  0.1107746E+00
         21   -1    0    0  501  502  0.00000000000E+00  0.00000000000E+00  0.62268805882E+02  0.62268805882E+02  0.00000000000E+00 0.  1.
         21   -1    0    0  502  503 -0.00000000000E+00 -0.00000000000E+00 -0.11783300681E+04  0.11783300681E+04  0.00000000000E+00 0.  1.
         -6    2    1    2    0  503  0.17685030124E+03  0.82336201034E+02 -0.37631586610E+03  0.45684033454E+03  0.17039419337E+03 0.  0.
        -24    2    3    3    0    0  0.39174283325E+02 -0.41779114066E+01 -0.83028426304E+02  0.12146145938E+03  0.79417171461E+02 0.  0.
          6    2    1    2  501    0 -0.17685030124E+03 -0.82336201034E+02 -0.73974539615E+03  0.78375853948E+03  0.17029068684E+03 0.  0.
         24    2    5    5    0    0 -0.18388031088E+03 -0.10775333037E+03 -0.69717550291E+03  0.73346204547E+03  0.80561413494E+02 0.  0.
          5    1    5    5  501    0  0.70300096379E+01  0.25417129337E+02 -0.42569893243E+02  0.50296494012E+02  0.47000000000E+01 0. -1.
        -11    1    6    6    0    0 -0.11797395674E+03 -0.86568973220E+02 -0.57198625279E+03  0.59040690627E+03  0.00000000000E+00 0.  1.
         12    1    6    6    0    0 -0.65906354139E+02 -0.21184357151E+02 -0.12518925013E+03  0.14305513920E+03  0.00000000000E+00 0. -1.
         -5    1    3    3    0  503  0.13767601792E+03  0.86514112441E+02 -0.29328743980E+03  0.33537887516E+03  0.47000000000E+01 0.  1.
         11    1    4    4    0    0 -0.18364764202E+01  0.53831511456E+01  0.14313048600E+02  0.15401763604E+02  0.00000000000E+00 0. -1.
        -12    1    4    4    0    0  0.41010759745E+02 -0.95610625522E+01 -0.97341474904E+02  0.10605969578E+03  0.00000000000E+00 0.  1.
</event>
<event>
12    1  0.8724767E-002  0.1901565E+03  0.7818608E-02  0.1158996E+00
         21   -1    0    0  503  502  0.00000000000E+00  0.00000000000E+00  0.41722161313E+02  0.41722161313E+02  0.00000000000E+00 0. -1.
         21   -1    0    0  501  503 -0.00000000000E+00 -0.00000000000E+00 -0.86605091759E+03  0.86605091759E+03  0.00000000000E+00 0. -1.
          6    2    1    2  501    0  0.13164587424E+02  0.72710062588E+02 -0.47070929281E+03  0.50766793357E+03  0.17521253629E+03 0.  0.
         24    2    3    3    0    0  0.26595361849E+02  0.89277031462E+02 -0.47008993695E+03  0.48582019316E+03  0.79743398745E+02 0.  0.
         -6    2    1    2    0  502 -0.13164587424E+02 -0.72710062588E+02 -0.35361946347E+03  0.40010514533E+03  0.17198064663E+03 0.  0.
        -24    2    5    5    0    0  0.46294216885E+02 -0.59125320995E+02 -0.13441569005E+03  0.17252597473E+03  0.77837498187E+02 0.  0.
          5    1    3    3  501    0 -0.13430774424E+02 -0.16566968874E+02 -0.61935586076E+00  0.21847740409E+02  0.47000000000E+01 0. -1.
        -11    1    4    4    0    0  0.73181418788E+00  0.38970820757E+02 -0.58088243044E+02  0.69953587488E+02  0.00000000000E+00 0.  1.
         12    1    4    4    0    0  0.25863547661E+02  0.50306210705E+02 -0.41200169391E+03  0.41586660567E+03  0.00000000000E+00 0. -1.
         -5    1    5    5    0  502 -0.59458804309E+02 -0.13584741593E+02 -0.21920377341E+03  0.22757917060E+03  0.47000000000E+01 0.  1.
         13    1    6    6    0    0  0.52302215330E+01  0.19101595564E+02 -0.24903541740E+02  0.31818431162E+02  0.00000000000E+00 0. -1.
        -14    1    6    6    0    0  0.41063995351E+02 -0.78226916560E+02 -0.10951214831E+03  0.14070754357E+03  0.00000000000E+00 0.  1.
</event>
<event>
12    1  0.8724767E-002  0.1903642E+03  0.7818608E-02  0.1158328E+00
         21   -1    0    0  501  502  0.00000000000E+00  0.00000000000E+00  0.13960539007E+04  0.13960539007E+04  0.00000000000E+00 0.  1.
         21   -1    0    0  502  503 -0.00000000000E+00 -0.00000000000E+00 -0.26007974570E+02  0.26007974570E+02  0.00000000000E+00 0. -1.
         -6    2    1    2    0  503 -0.75108349020E+02 -0.28647150205E+02  0.62635383600E+03  0.65439238202E+03  0.17160518192E+03 0.  0.
        -24    2    3    3    0    0 -0.52652198726E+02  0.41802535031E+02  0.25540621688E+03  0.27611779528E+03  0.80554300238E+02 0.  0.
          6    2    1    2  501    0  0.75108349020E+02  0.28647150205E+02  0.74369209008E+03  0.76766949320E+03  0.17255898307E+03 0.  0.
         24    2    5    5    0    0  0.94310521260E+02  0.12056940513E+02  0.72584903162E+03  0.73629397390E+03  0.78943999515E+02 0.  0.
          5    1    5    5  501    0 -0.19202172241E+02  0.16590209692E+02  0.17843058457E+02  0.31375519303E+02  0.47000000000E+01 0. -1.
        -11    1    6    6    0    0  0.10613249005E+03  0.21124787802E+02  0.65688336439E+03  0.66573727289E+03  0.00000000000E+00 0.  1.
         12    1    6    6    0    0 -0.11821968789E+02 -0.90678472892E+01  0.68965667235E+02  0.70556701011E+02  0.00000000000E+00 0. -1.
         -5    1    3    3    0  503 -0.22456150293E+02 -0.70449685236E+02  0.37094761913E+03  0.37827458674E+03  0.47000000000E+01 0.  1.
         11    1    4    4    0    0 -0.23406792527E+02  0.21403558857E+02  0.18863889455E+02  0.36903070245E+02  0.00000000000E+00 0. -1.
        -12    1    4    4    0    0 -0.29245406199E+02  0.20398976174E+02  0.23654232742E+03  0.23921472504E+03  0.00000000000E+00 0.  1.
</event>
<event>
12    1  0.8724767E-002  0.2270589E+03  0.7818608E-02  0.1128801E+00
         21   -1    0    0  501  502  0.00000000000E+00  0.00000000000E+00  0.39254005129E+02  0.39254005129E+02  0.00000000000E+00 0.  1.
         21   -1    0    0  502  503 -0.00000000000E+00 -0.00000000000E+00 -0.14722011771E+04  0.14722011771E+04  0.00000000000E+00 0.  1.
         -6    2    1    2    0  503 -0.48109213904E+02  0.14036896401E+03 -0.96596077662E+03  0.99219413001E+03  0.17132141471E+03 0.  0.
        -24    2    3    3    0    0  0.87729932778E+01  0.14807725947E+03 -0.75158013015E+03  0.77021179987E+03  0.79684907236E+02 0.  0.
          6    2    1    2  501    0  0.48109213904E+02 -0.14036896401E+03 -0.46698639534E+03  0.51926105221E+03  0.17186565796E+03 0.  0.
         24    2    5    5    0    0  0.99105404771E+01 -0.16189374292E+03 -0.39845015421E+03  0.43776405161E+03  0.81037254904E+02 0.  0.
          5    1    5    5  501    0  0.38198673427E+02  0.21524778905E+02 -0.68536241126E+02  0.81497000596E+02  0.47000000000E+01 0. -1.
        -11    1    6    6    0    0 -0.21866643259E+02 -0.11296757256E+03 -0.31956826004E+03  0.33965231541E+03  0.00000000000E+00 0.  1.
         12    1    6    6    0    0  0.31777183736E+02 -0.48926170363E+02 -0.78881894167E+02  0.98111736199E+02  0.00000000000E+00 0. -1.
         -5    1    3    3    0  503 -0.56882207182E+02 -0.77082954576E+01 -0.21438064648E+03  0.22198233014E+03  0.47000000000E+01 0.  1.
         13    1    4    4    0    0  0.40043666470E+02  0.10225766076E+03 -0.56438898328E+03  0.57497395494E+03  0.00000000000E+00 0. -1.
        -14    1    4    4    0    0 -0.31270673192E+02  0.45819598711E+02 -0.18719114687E+03  0.19523784493E+03  0.00000000000E+00 0.  1.
</event>
<event>
12    1  0.8724767E-002  0.2231058E+03  0.7818608E-02  0.1131848E+00
         21   -1    0    0  501  502  0.00000000000E+00  0.00000000000E+00  0.89219632001E+03  0.89219632001E+03  0.00000000000E+00 0.  1.
         21   -1    0    0  502  503 -0.00000000000E+00 -0.00000000000E+00 -0.57954681196E+02  0.57954681196E+02  0.00000000000E+00 0. -1.
         -6    2    1    2    0  503  0.46560798456E+01  0.13919288021E+03  0.31938736058E+03  0.38959528358E+03  0.17429819824E+03 0.  0.
        -24    2    3    3    0    0 -0.41466268917E+02  0.25738786182E+02  0.88121605467E+02  0.12786060496E+03  0.78746303897E+02 0.  0.
          6    2    1    2  501    0 -0.46560798456E+01 -0.13919288021E+03  0.51485427824E+03  0.56055571763E+03  0.17248607991E+03 0.  0.
         24    2    5    5    0    0 -0.24743882019E+01 -0.10618059047E+03  0.17755063664E+03  0.22160084204E+03  0.79386801365E+02 0.  0.
          5    1    5    5  501    0 -0.21816916437E+01 -0.33012289748E+02  0.33730364159E+03  0.33895487559E+03  0.47000000000E+01 0. -1.
        -13    1    6    6    0    0 -0.91811213014E+01 -0.27965516171E+02  0.12182612526E+03  0.12533143213E+03  0.00000000000E+00 0.  1.
         14    1    6    6    0    0  0.67067330995E+01 -0.78215074294E+02  0.55724511383E+02  0.96269409911E+02  0.00000000000E+00 0. -1.
         -5    1    3    3    0  503  0.46122348763E+02  0.11345409403E+03  0.23126575511E+03  0.26173467862E+03  0.47000000000E+01 0.  1.
         13    1    4    4    0    0  0.23389947370E+02  0.12235748924E+02  0.25058088276E+02  0.36396579203E+02  0.00000000000E+00 0. -1.
        -14    1    4    4    0    0 -0.64856216287E+02  0.13503037258E+02  0.63063517192E+02  0.91464025752E+02  0.00000000000E+00 0.  1.
</event>
<event>
12    1  0.8724767E-002  0.1727874E+03  0.7818608E-02  0.1175004E+00
         21   -1    0    0  501  502  0.00000000000E+00  0.00000000000E+00  0.22448969068E+02  0.22448969068E+02  0.00000000000E+00 0. -1.
         21   -1    0    0  502  503 -0.00000000000E+00 -0.00000000000E+00 -0.13432535709E+04  0.13432535709E+04  0.00000000000E+00 0. -1.
         -6    2    1    2    0  503  0.13075124968E+02 -0.19467753182E+01 -0.73111475747E+03  0.75125513485E+03  0.17228099205E+03 0.  0.
        -24    2    3    3    0    0 -0.91047460606E+01  0.57931533198E+02 -0.30210806187E+03  0.31749691489E+03  0.78077211661E+02 0.  0.
          6    2    1    2  501    0 -0.13075124968E+02  0.19467753182E+01 -0.58968984435E+03  0.61444740511E+03  0.17215328137E+03 0.  0.
         24    2    5    5    0    0 -0.18935211337E+01  0.46127786678E+02 -0.18238589436E+03  0.20457475695E+03  0.80342134611E+02 0.  0.
          5    1    5    5  501    0 -0.11181603835E+02 -0.44181011360E+02 -0.40730394999E+03  0.40987264816E+03  0.47000000000E+01 0. -1.
        -11    1    6    6    0    0  0.11169675082E+01  0.17333144468E+02 -0.17338994961E+03  0.17425774054E+03  0.00000000000E+00 0.  1.
         12    1    6    6    0    0 -0.30104886418E+01  0.28794642210E+02 -0.89959447497E+01  0.30317016407E+02  0.00000000000E+00 0. -1.
         -5    1    3    3    0  503  0.22179871029E+02 -0.59878308517E+02 -0.42900669560E+03  0.43375821996E+03  0.47000000000E+01 0.  1.
         11    1    4    4    0    0  0.62796674080E+01  0.32529289255E+02 -0.27592003142E+03  0.27790187588E+03  0.00000000000E+00 0. -1.
        -12    1    4    4    0    0 -0.15384413469E+02  0.25402243943E+02 -0.26188030447E+02  0.39595039005E+02  0.00000000000E+00 0.  1.
</event>
<event>
12    1  0.8724767E-002  0.2019560E+03  0.7818608E-02  0.1148627E+00
         21   -1    0    0  503  502  0.00000000000E+00  0.00000000000E+00  0.34208557555E+03  0.34208557555E+03  0.00000000000E+00 0. -1.
         21   -1    0    0  501  503 -0.00000000000E+00 -0.00000000000E+00 -0.27416256391E+03  0.27416256391E+03  0.00000000000E+00 0. -1.
          6    2    1    2  501    0  0.33148863463E+02  0.10109756310E+03  0.26660242694E+03  0.33294667731E+03  0.16869223892E+03 0.  0.
         24    2    3    3    0    0  0.42906800947E+02  0.51151224242E+02  0.58887923743E+02  0.11903721294E+03  0.79022966243E+02 0.  0.
         -6    2    1    2    0  502 -0.33148863463E+02 -0.10109756310E+03 -0.19867941529E+03  0.28330146215E+03  0.17165850979E+03 0.  0.
        -24    2    5    5    0    0 -0.50345112672E+02 -0.17287326858E+02 -0.41670209434E+02  0.10443322179E+03  0.79601566688E+02 0.  0.
          5    1    3    3  501    0 -0.97579374840E+01  0.49946338857E+02  0.20771450319E+03  0.21390946437E+03  0.47000000000E+01 0. -1.
        -11    1    4    4    0    0  0.10755794180E+02  0.60804434157E+02  0.59091950018E+02  0.85467683241E+02  0.00000000000E+00 0.  1.
         12    1    4    4    0    0  0.32151006767E+02 -0.96532099151E+01 -0.20402627498E+00  0.33569529704E+02  0.00000000000E+00 0. -1.
         -5    1    5    5    0  502  0.17196249209E+02 -0.83810236241E+02 -0.15700920586E+03  0.17886824036E+03  0.47000000000E+01 0.  1.
         11    1    6    6    0    0 -0.24838945297E+02  0.38660102964E+01 -0.61065931232E+02  0.66037619554E+02  0.00000000000E+00 0. -1.
        -12    1    6    6    0    0 -0.25506167375E+02 -0.21153337154E+02  0.19395721798E+02  0.38395602235E+02  0.00000000000E+00 0.  1.
</event>
<event>
12    1  0.8724767E-002  0.2246131E+03  0.7818608E-02  0.1130638E+00
         21   -1    0    0  503  502  0.00000000000E+00  0.00000000000E+00  0.12960494549E+04  0.12960494549E+04  0.00000000000E+00 0.  1.
         21   -1    0    0  501  503 -0.00000000000E+00 -0.00000000000E+00 -0.56329342606E+02  0.56329342606E+02  0.00000000000E+00 0.  1.
          6    2    1    2  501    0  0.13284346953E+03 -0.59274094115E+02  0.24172714578E+03  0.32942181648E+03  0.17007620215E+03 0.  0.
         24    2    3    3    0    0  0.10631346590E+03 -0.76438549443E+02  0.98037005847E+02  0.18222329090E+03  0.80303601158E+02 0.  0.
         -6    2    1    2    0  502 -0.13284346953E+03  0.59274094115E+02  0.99799296652E+03  0.10229569810E+04  0.17114385230E+03 0.  0.
        -24    2    5    5    0    0 -0.11940365780E+03 -0.13827283490E+02  0.72914253007E+03  0.74398191560E+03  0.86092010830E+02 0.  0.
          5    1    3    3  501    0  0.26530003627E+02  0.17164455328E+02  0.14369013993E+03  0.14719852558E+03  0.47000000000E+01 0. -1.
        -11    1    4    4    0    0  0.37996246823E+02 -0.74480391332E+02  0.40602135778E+02  0.92949324340E+02  0.00000000000E+00 0.  1.
         12    1    4    4    0    0  0.68317219081E+02 -0.19581581113E+01  0.57434870069E+02  0.89273966563E+02  0.00000000000E+00 0. -1.
         -5    1    5    5    0  502 -0.13439811726E+02  0.73101377605E+02  0.26885043645E+03  0.27897506543E+03  0.47000000000E+01 0.  1.
         11    1    6    6    0    0 -0.77807163150E+02 -0.28322114447E+02  0.26213500031E+03  0.27490153727E+03  0.00000000000E+00 0. -1.
        -12    1    6    6    0    0 -0.41596494654E+02  0.14494830957E+02  0.46700752975E+03  0.46908037833E+03  0.00000000000E+00 0.  1.
</event>
<event>
12    1  0.8724767E-002  0.1938351E+03  0.7818608E-02  0.1155554E+00
         21   -1    0    0  501  502  0.00000000000E+00  0.00000000000E+00  0.21262089817E+03  0.21262089817E+03  0.00000000000E+00 0.  1.
         21   -1    0    0  502  503 -0.00000000000E+00 -0.00000000000E+00 -0.17979498168E+03  0.17979498168E+03  0.00000000000E+00 0. -1.
         -6    2    1    2    0  503  0.72799324382E+01  0.82716050021E+02 -0.16957588936E+02  0.19228978086E+03  0.17260607652E+03 0.  0.
        -24    2    3    3    0    0  0.46241635064E+02  0.16198140456E+02  0.33985790099E+02  0.99769705024E+02  0.79989321440E+02 0.  0.
          6    2    1    2  501    0 -0.72799324382E+01 -0.82716050021E+02  0.49783505428E+02  0.20012609900E+03  0.17514883882E+03 0.  0.
         24    2    5    5    0    0 -0.24259672644E+02 -0.62873733971E+02  0.98779961036E+02  0.14440562031E+03  0.80955940691E+02 0.  0.
          5    1    5    5  501    0  0.16979740206E+02 -0.19842316050E+02 -0.48996455608E+02  0.55720478693E+02  0.47000000000E+01 0. -1.
        -13    1    6    6    0    0  0.18963029367E+02 -0.38930458929E+02  0.12657423257E+02  0.45115268798E+02  0.00000000000E+00 0.  1.
         14    1    6    6    0    0 -0.43222702011E+02 -0.23943275043E+02  0.86122537780E+02  0.99290351508E+02  0.00000000000E+00 0. -1.
         -5    1    3    3    0  503 -0.38961702626E+02  0.66517909565E+02 -0.50943379034E+02  0.92520075832E+02  0.47000000000E+01 0.  1.
         11    1    4    4    0    0 -0.25812089718E+01 -0.13146103710E+02 -0.18143912061E+02  0.22554029073E+02  0.00000000000E+00 0. -1.
        -12    1    4    4    0    0  0.48822844036E+02  0.29344244166E+02  0.52129702160E+02  0.77215675952E+02  0.00000000000E+00 0.  1.
</event>
<event>
12    1  0.8724767E-002  0.1750403E+03  0.7818608E-02  0.1172720E+00
         21   -1    0    0  503  502  0.00000000000E+00  0.00000000000E+00  0.12405600373E+04  0.12405600373E+04  0.00000000000E+00 0. -1.
         21   -1    0    0  501  503 -0.00000000000E+00 -0.00000000000E+00 -0.32452179419E+02  0.32452179419E+02  0.00000000000E+00 0. -1.
          6    2    1    2  501    0  0.13735417286E+02 -0.30819167883E+02  0.29244553703E+03  0.34076944367E+03  0.17164189119E+03 0.  0.
         24    2    3    3    0    0  0.49291945404E+02 -0.52222540704E+02  0.27419014655E+03  0.29518742592E+03  0.82452958223E+02 0.  0.
         -6    2    1    2    0  502 -0.13735417286E+02  0.30819167883E+02  0.91566232082E+03  0.93224277303E+03  0.17175744318E+03 0.  0.
        -24    2    5    5    0    0 -0.57233334274E+02  0.26052041824E+01  0.32206691066E+03  0.33636887908E+03  0.78322961035E+02 0.  0.
          5    1    3    3  501    0 -0.35556528118E+02  0.21403372821E+02  0.18255390485E+02  0.45582017745E+02  0.47000000000E+01 0. -1.
        -13    1    4    4    0    0 -0.90973206674E+00 -0.50135271636E+02  0.19546765172E+03  0.20179686802E+03  0.00000000000E+00 0.  1.
         14    1    4    4    0    0  0.50201677471E+02 -0.20872690678E+01  0.78722494824E+02  0.93390557897E+02  0.00000000000E+00 0. -1.
         -5    1    5    5    0  502  0.43497916988E+02  0.28213963701E+02  0.59359541016E+03  0.59587389395E+03  0.47000000000E+01 0.  1.
         11    1    6    6    0    0 -0.60168595062E+02  0.19562551962E+02  0.30713675889E+03  0.31358562137E+03  0.00000000000E+00 0. -1.
        -12    1    6    6    0    0  0.29352607884E+01 -0.16957347779E+02  0.14930151779E+02  0.22783257707E+02  0.00000000000E+00 0.  1.
</event>
<event>
12    1  0.8724767E-002  0.1959764E+03  0.7818608E-02  0.1153665E+00
         21   -1    0    0  501  502  0.00000000000E+00  0.00000000000E+00  0.99865908178E+03  0.99865908178E+03  0.00000000000E+00 0. -1.
         21   -1    0    0  502  503 -0.00000000000E+00 -0.00000000000E+00 -0.61219269430E+02  0.61219269430E+02  0.00000000000E+00 0. -1.
         -6    2    1    2    0  503 -0.13156685478E+02 -0.87746371028E+02  0.14084533392E+03  0.23953115358E+03  0.17223600508E+03 0.  0.
        -24    2    3    3    0    0 -0.34492167770E+02 -0.12443095055E+03  0.10942456967E+03  0.18651874366E+03  0.78375596954E+02 0.  0.
          6    2    1    2  501    0  0.13156685478E+02  0.87746371028E+02  0.79659447843E+03  0.82034719763E+03  0.17474048643E+03 0.  0.
         24    2    5    5    0    0  0.85219751776E+01 -0.10620583166E+02  0.53328467853E+03  0.53918589350E+03  0.78380217842E+02 0.  0.
          5    1    5    5  501    0  0.46347103006E+01  0.98366954194E+02  0.26330979990E+03  0.28116130413E+03  0.47000000000E+01 0. -1.
        -11    1    6    6    0    0 -0.31649089133E+02  0.10814703591E+02  0.19441345702E+03  0.19726939683E+03  0.00000000000E+00 0.  1.
         12    1    6    6    0    0  0.40171064310E+02 -0.21435286757E+02  0.33887122151E+03  0.34191649667E+03  0.00000000000E+00 0. -1.
         -5    1    3    3    0  503  0.21335482292E+02  0.36684579518E+02  0.31420764247E+02  0.53012409915E+02  0.47000000000E+01 0.  1.
         11    1    4    4    0    0 -0.35072735690E+02 -0.41000649279E+02  0.83011412048E+02  0.99005275417E+02  0.00000000000E+00 0. -1.
        -12    1    4    4    0    0  0.58056791973E+00 -0.83430301267E+02  0.26413157624E+02  0.87513468246E+02  0.00000000000E+00 0.  1.
</event>
<event>
12    1  0.8724767E-002  0.2223700E+03  0.7818608E-02  0.1133074E+00
         21   -1    0    0  503  502  0.00000000000E+00  0.00000000000E+00  0.83335603351E+02  0.83335603351E+02  0.00000000000E+00 0.  1.
         21   -1    0    0  501  503 -0.00000000000E+00 -0.00000000000E+00 -0.69712668489E+03  0.69712668489E+03  0.00000000000E+00 0. -1.
          6    2    1    2  501    0 -0.12077560662E+03  0.57246875225E+02 -0.46396976799E+03  0.51233017888E+03  0.17131933546E+03 0.  0.
         24    2    3    3    0    0 -0.48974977046E+02  0.77910150425E+01 -0.93749015540E+02  0.13195311850E+03  0.78507956769E+02 0.  0.
         -6    2    1    2    0  502  0.12077560662E+03 -0.57246875225E+02 -0.14982131355E+03  0.26813210937E+03  0.17772014574E+03 0.  0.
        -24    2    5    5    0    0  0.66559958311E+02 -0.64960070129E+02 -0.15500017159E+02  0.12300068423E+03  0.78986574990E+02 0.  0.
          5    1    3    3  501    0 -0.71800629572E+02  0.49455860182E+02 -0.37022075245E+03  0.38037706037E+03  0.47000000000E+01 0. -1.
        -13    1    4    4    0    0 -0.63053782197E+02 -0.24812623007E+01 -0.38268786721E+02  0.73799973910E+02  0.00000000000E+00 0.  1.
         14    1    4    4    0    0  0.14078805151E+02  0.10272277343E+02 -0.55480228819E+02  0.58153144593E+02  0.00000000000E+00 0. -1.
         -5    1    5    5    0  502  0.54215648307E+02  0.77131949040E+01 -0.13432129639E+03  0.14513142513E+03  0.47000000000E+01 0.  1.
         13    1    6    6    0    0  0.51952237835E+02 -0.67417690832E+02 -0.40254971999E+02  0.94152232177E+02  0.00000000000E+00 0. -1.
        -14    1    6    6    0    0  0.14607720476E+02  0.24576207030E+01  0.24754954839E+02  0.28848452058E+02  0.00000000000E+00 0.  1.
</event>
<event>
12    1  0.8724767E-002  0.1740960E+03  0.7818608E-02  0.1173787E+00
         21   -1    0    0  503  502  0.00000000000E+00  0.00000000000E+00  0.14721121336E+03  0.14721121336E+03  0.00000000000E+00 0. -1.
         21   -1    0    0  501  503 -0.00000000000E+00 -0.00000000000E+00 -0.20521888117E+03  0.20521888117E+03  0.00000000000E+00 0. -1.
          6    2    1    2  501    0 -0.21259237681E+02 -0.14191510256E+02 -0.29330215039E+02  0.17598798658E+03  0.17163378385E+03 0.  0.
         24    2    3    3    0    0 -0.59843661560E+02 -0.23114946326E+02 -0.66060823470E+02  0.12176978786E+03  0.79676121044E+02 0.  0.
         -6    2    1    2    0  502  0.21259237681E+02  0.14191510256E+02 -0.28677452777E+02  0.17644210795E+03  0.17220936969E+03 0.  0.
        -24    2    5    5    0    0  0.28378943064E+02 -0.41468375919E+02 -0.60404822955E+02  0.11180907342E+03  0.79545808514E+02 0.  0.
          5    1    3    3  501    0  0.38584423879E+02  0.89234360702E+01  0.36730608431E+02  0.54218198726E+02  0.47000000000E+01 0. -1.
        -13    1    4    4    0    0 -0.13090558067E+02 -0.20393279462E+02  0.14750084832E+02  0.28369236160E+02  0.00000000000E+00 0.  1.
         14    1    4    4    0    0 -0.46753103493E+02 -0.27216668636E+01 -0.80810908302E+02  0.93400551697E+02  0.00000000000E+00 0. -1.
         -5    1    5    5    0  502 -0.71197053837E+01  0.55659886175E+02  0.31727370179E+02  0.64633034527E+02  0.47000000000E+01 0.  1.
         13    1    6    6    0    0  0.20713790225E+02 -0.60838080182E+02 -0.21660433753E+02  0.67819668947E+02  0.00000000000E+00 0. -1.
        -14    1    6    6    0    0  0.76651528397E+01  0.19369704263E+02 -0.38744389202E+02  0.43989404474E+02  0.00000000000E+00 0.  1.
</event>
<event>
12    1  0.8724767E-002  0.2040053E+03  0.7818608E-02  0.1146577E+00
         21   -1    0    0  503  502  0.00000000000E+00  0.00000000000E+00  0.56881758642E+03  0.56881758642E+03  0.00000000000E+00 0.  1.
         21   -1    0    0  501  503 -0.00000000000E+00 -0.00000000000E+00 -0.13155842159E+03  0.13155842159E+03  0.00000000000E+00 0.  1.
          6    2    1    2  501    0  0.10917259952E+03 -0.18398669815E+02 -0.15025809509E+02  0.20455788086E+03  0.17135047165E+03 0.  0.
         24    2    3    3    0    0  0.76495878574E+02 -0.24357775682E+02 -0.75418735633E+02  0.13547333439E+03  0.78867724529E+02 0.  0.
         -6    2    1    2    0  502 -0.10917259952E+03  0.18398669815E+02  0.45228497434E+03  0.49581812715E+03  0.17034303525E+03 0.  0.
        -24    2    5    5    0    0 -0.12090630820E+03 -0.32303177618E+02  0.36818181442E+03  0.39680404350E+03  0.78954226116E+02 0.  0.
          5    1    3    3  501    0  0.32676720949E+02  0.59591058675E+01  0.60392926124E+02  0.69084546467E+02  0.47000000000E+01 0. -1.
        -13    1    4    4    0    0  0.17151368739E+02 -0.43527046006E+02 -0.16302514311E+02  0.49543366422E+02  0.00000000000E+00 0.  1.
         14    1    4    4    0    0  0.59344509834E+02  0.19169270323E+02 -0.59116221322E+02  0.85929967972E+02  0.00000000000E+00 0. -1.
         -5    1    5    5    0  502  0.11733708676E+02  0.50701847432E+02  0.84103159917E+02  0.99014083647E+02  0.47000000000E+01 0.  1.
         11    1    6    6    0    0  0.65656397259E+01 -0.15917586762E+02  0.25085650931E+02  0.30426420689E+02  0.00000000000E+00 0. -1.
        -12    1    6    6    0    0 -0.12747194793E+03 -0.16385590856E+02  0.34309616349E+03  0.36637762281E+03  0.00000000000E+00 0.  1.
</event>
<event>
12    1  0.8724767E-002  0.2541751E+03  0.7818608E-02  0.1110746E+00
         21   -1    0    0  501  502  0.00000000000E+00  0.00000000000E+00  0.32308434847E+03  0.32308434847E+03  0.00000000000E+00 0. -1.
         21   -1    0    0  502  503 -0.00000000000E+00 -0.00000000000E+00 -0.27762028972E+03  0.27762028972E+03  0.00000000000E+00 0.  1.
         -6    2    1    2    0  503  0.89040948280E+02 -0.16480924875E+03 -0.13640046941E+03  0.28816713594E+03  0.17130333108E+03 0.  0.
        -24    2    3    3    0    0  0.63407684580E+01 -0.83785540568E+02 -0.90310813014E+01  0.11597767036E+03  0.79429449452E+02 0.  0.
          6    2    1    2  501    0 -0.89040948280E+02  0.16480924875E+03  0.18186452815E+03  0.31253750225E+03  0.17179815124E+03 0.  0.
         24    2    5    5    0    0 -0.10167709506E+03  0.18733730211E+03  0.16995882613E+03  0.28371006507E+03  0.78561453782E+02 0.  0.
          5    1    5    5  501    0  0.12636146780E+02 -0.22528053362E+02  0.11905702022E+02  0.28827437180E+02  0.47000000000E+01 0. -1.
        -11    1    6    6    0    0 -0.33342371533E+02  0.35060942389E+02  0.43407499045E+01  0.48578035473E+02  0.00000000000E+00 0.  1.
         12    1    6    6    0    0 -0.68334723526E+02  0.15227635972E+03  0.16561807623E+03  0.23513202960E+03  0.00000000000E+00 0. -1.
         -5    1    3    3    0  503  0.82700179822E+02 -0.81023708181E+02 -0.12736938811E+03  0.17218946558E+03  0.47000000000E+01 0.  1.
         11    1    4    4    0    0 -0.35416119039E+02 -0.34495054124E+02  0.55584833641E+01  0.49750447075E+02  0.00000000000E+00 0. -1.
        -12    1    4    4    0    0  0.41756887497E+02 -0.49290486443E+02 -0.14589564665E+02  0.66227223287E+02  0.00000000000E+00 0.  1.
</event>
<event>
12    1  0.8724767E-002  0.3627172E+03  0.7818608E-02  0.1057527E+00
         21   -1    0    0  501  502  0.00000000000E+00  0.00000000000E+00  0.73679778777E+03  0.73679778777E+03  0.00000000000E+00 0. -1.
         21   -1    0    0  502  503 -0.00000000000E+00 -0.00000000000E+00 -0.18986972456E+03  0.18986972456E+03  0.00000000000E+00 0. -1.
         -6    2    1    2    0  503  0.24133067499E+03 -0.20942934527E+03  0.16010033559E+03  0.39647938366E+03  0.17164684343E+03 0.  0.
        -24    2    3    3    0    0  0.52911976004E+02 -0.51950626828E+02  0.86236920261E+02  0.14000512176E+03  0.81646083016E+02 0.  0.
          6    2    1    2  501    0 -0.24133067499E+03  0.20942934527E+03  0.38682772762E+03  0.53018812867E+03  0.17135523211E+03 0.  0.
         24    2    5    5    0    0 -0.20128841308E+03  0.22792019645E+03  0.30988523808E+03  0.44137635573E+03  0.79495820170E+02 0.  0.
          5    1    5    5  501    0 -0.40042261909E+02 -0.18490851178E+02  0.76942489546E+02  0.88811772945E+02  0.47000000000E+01 0. -1.
        -11    1    6    6    0    0 -0.46246132741E+02  0.57348972408E+02  0.31972204348E+02  0.80310841613E+02  0.00000000000E+00 0.  1.
         12    1    6    6    0    0 -0.15504228034E+03  0.17057122404E+03  0.27791303373E+03  0.36106551411E+03  0.00000000000E+00 0. -1.
         -5    1    3    3    0  503  0.18841869898E+03 -0.15747871845E+03  0.73863415331E+02  0.25647426189E+03  0.47000000000E+01 0.  1.
         13    1    4    4    0    0  0.53914419338E+02 -0.72041804691E+02  0.73603817637E+02  0.11625105680E+03  0.00000000000E+00 0. -1.
        -14    1    4    4    0    0 -0.10024433340E+01  0.20091177863E+02  0.12633102624E+02  0.23754064968E+02  0.00000000000E+00 0.  1.
</event>
<event>
12    1  0.8724767E-002  0.2263396E+03  0.7818608E-02  0.1129296E+00
         21   -1    0    0  503  502  0.00000000000E+00  0.00000000000E+00  0.13450439129E+04  0.13450439129E+04  0.00000000000E+00 0. -1.
         21   -1    0    0  501  503 -0.00000000000E+00 -0.00000000000E+00 -0.67035841000E+02  0.67035841000E+02  0.00000000000E+00 0.  1.
          6    2    1    2  501    0 -0.11655092865E+03  0.89694466230E+02  0.17440767608E+03  0.28550821353E+03  0.17166154571E+03 0.  0.
         24    2    3    3    0    0 -0.10476692031E+03  0.11456624478E+03  0.18584289425E+03  0.25533666343E+03  0.80979616650E+02 0.  0.
         -6    2    1    2    0  502  0.11655092865E+03 -0.89694466230E+02  0.11036003958E+04  0.11265715404E+04  0.17204762617E+03 0.  0.
        -24    2    5    5    0    0  0.12870497316E+03 -0.11099840249E+03  0.10582187765E+04  0.10747723138E+04  0.80143197838E+02 0.  0.
          5    1    3    3  501    0 -0.11784008335E+02 -0.24871778549E+02 -0.11435218176E+02  0.30171550099E+02  0.47000000000E+01 0. -1.
        -13    1    4    4    0    0 -0.74800908717E+02  0.24075904353E+02  0.98917451404E+02  0.12633086443E+03  0.00000000000E+00 0.  1.
         14    1    4    4    0    0 -0.29966011597E+02  0.90490340425E+02  0.86925442851E+02  0.12900579900E+03  0.00000000000E+00 0. -1.
         -5    1    5    5    0  502 -0.12154044514E+02  0.21303936257E+02  0.45381619317E+02  0.51799226538E+02  0.47000000000E+01 0.  1.
         11    1    6    6    0    0  0.83180710460E+02 -0.11530535647E+03  0.80215573735E+03  0.81465832273E+03  0.00000000000E+00 0. -1.
        -12    1    6    6    0    0  0.45524262704E+02  0.43069539866E+01  0.25606303917E+03  0.26011399112E+03  0.00000000000E+00 0.  1.
</event>
<event>
12    1  0.8724767E-002  0.1792999E+03  0.7818608E-02  0.1168538E+00
         21   -1    0    0  503  502  0.00000000000E+00  0.00000000000E+00  0.47661261759E+02  0.47661261759E+02  0.00000000000E+00 0.  1.
         21   -1    0    0  501  503 -0.00000000000E+00 -0.00000000000E+00 -0.10446003857E+04  0.10446003857E+04  0.00000000000E+00 0.  1.
          6    2    1    2  501    0  0.33117801826E+02 -0.30487136344E+02 -0.82411905150E+03  0.84339827483E+03  0.17355743910E+03 0.  0.
         24    2    3    3    0    0 -0.16476325330E+02  0.38410013185E+02 -0.30914038160E+03  0.32144855014E+03  0.77553829296E+02 0.  0.
         -6    2    1    2    0  502 -0.33117801826E+02  0.30487136344E+02 -0.17282007247E+03  0.24886337266E+03  0.17332035807E+03 0.  0.
        -24    2    5    5    0    0  0.30854918049E+02  0.63578647189E+02 -0.93269674501E+02  0.14144869584E+03  0.79462135806E+02 0.  0.
          5    1    3    3  501    0  0.49594127157E+02 -0.68897149529E+02 -0.51497866989E+03  0.52194972469E+03  0.47000000000E+01 0. -1.
        -13    1    4    4    0    0  0.17709905492E+02  0.41246258475E+02 -0.24117684214E+03  0.24531849457E+03  0.00000000000E+00 0.  1.
         14    1    4    4    0    0 -0.34186230822E+02 -0.28362452893E+01 -0.67963539460E+02  0.76130055570E+02  0.00000000000E+00 0. -1.
         -5    1    5    5    0  502 -0.63972719875E+02 -0.33091510846E+02 -0.79550397971E+02  0.10741467682E+03  0.47000000000E+01 0.  1.
         11    1    6    6    0    0 -0.24381430765E+02  0.37665342611E+02 -0.46085749581E+02  0.64319736587E+02  0.00000000000E+00 0. -1.
        -12    1    6    6    0    0  0.55236348814E+02  0.25913304578E+02 -0.47183924920E+02  0.77128959252E+02  0.00000000000E+00 0.  1.
</event>
<event>
12    1  0.8724767E-002  0.1967700E+03  0.7818608E-02  0.1153397E+00
         21   -1    0    0  503  502  0.00000000000E+00  0.00000000000E+00  0.34272100736E+02  0.34272100736E+02  0.00000000000E+00 0.  1.
         21   -1    0    0  501  503 -0.00000000000E+00 -0.00000000000E+00 -0.15074045910E+04  0.15074045910E+04  0.00000000000E+00 0.  1.
          6    2    1    2  501    0  0.53616985007E+02 -0.72189466640E+02 -0.11285435877E+04  0.11448644424E+04  0.17034630027E+03 0.  0.
         24    2    3    3    0    0 -0.38020009837E+02 -0.34468260716E+02 -0.58501344903E+03  0.59235441551E+03  0.77520551351E+02 0.  0.
         -6    2    1    2    0  502 -0.53616985007E+02  0.72189466640E+02 -0.34458890259E+03  0.39681224934E+03  0.17502099663E+03 0.  0.
        -24    2    5    5    0    0 -0.28736081333E+02  0.99004901110E+02 -0.33435808797E+03  0.35853841413E+03  0.78273434871E+02 0.  0.
          5    1    3    3  501    0  0.91636994844E+02 -0.37721205924E+02 -0.54353013865E+03  0.55251002690E+03  0.47000000000E+01 0. -1.
        -11    1    4    4    0    0  0.24074554971E+01 -0.23493390343E+02 -0.45805584050E+03  0.45866424348E+03  0.00000000000E+00 0.  1.
         12    1    4    4    0    0 -0.40427465334E+02 -0.10974870373E+02 -0.12695760852E+03  0.13369017202E+03  0.00000000000E+00 0. -1.
         -5    1    5    5    0  502 -0.24880903674E+02 -0.26815434470E+02 -0.10230814627E+02  0.38273835206E+02  0.47000000000E+01 0.  1.
         13    1    6    6    0    0 -0.28541052714E+02  0.10722103035E+03 -0.24678392748E+03  0.27057946689E+03  0.00000000000E+00 0. -1.
        -14    1    6    6    0    0 -0.19502861910E+00 -0.82161292360E+01 -0.87574160484E+02  0.87958947244E+02  0.00000000000E+00 0.  1.
</event>
<event>
12    1  0.8724767E-002  0.2272831E+03  0.7818608E-02  0.1128719E+00
         21   -1    0    0  501  502  0.00000000000E+00  0.00000000000E+00  0.23360976470E+03  0.23360976470E+03  0.00000000000E+00 0. -1.
         21   -1    0    0  502  503 -0.00000000000E+00 -0.00000000000E+00 -0.30142109921E+03  0.30142109921E+03  0.00000000000E+00 0. -1.
         -6    2    1    2    0  503  0.10800513589E+03 -0.10078795409E+03  0.10482926563E+03  0.25029339675E+03  0.17272605031E+03 0.  0.
        -24    2    3    3    0    0  0.74517327134E+02 -0.13432629250E+03  0.97620654083E+02  0.20212382586E+03  0.87908270243E+02 0.  0.
          6    2    1    2  501    0 -0.10800513589E+03  0.10078795409E+03 -0.17264060014E+03  0.28473746717E+03  0.17160223577E+03 0.  0.
         24    2    5    5    0    0 -0.41802484707E+02  0.82372481620E+02 -0.30231952462E+02  0.12654696940E+03  0.81040058351E+02 0.  0.
          5    1    5    5  501    0 -0.66202651184E+02  0.18415472473E+02 -0.14240864768E+03  0.15819049777E+03  0.47000000000E+01 0. -1.
        -13    1    6    6    0    0  0.87901300841E+01  0.22976985011E+02  0.21714877660E+02  0.32813779711E+02  0.00000000000E+00 0.  1.
         14    1    6    6    0    0 -0.50592614791E+02  0.59395496609E+02 -0.51946830122E+02  0.93733189685E+02  0.00000000000E+00 0. -1.
         -5    1    3    3    0  503  0.33487808757E+02  0.33538338411E+02  0.72086115459E+01  0.48169570884E+02  0.47000000000E+01 0.  1.
         11    1    4    4    0    0  0.92790188157E+02 -0.11863314299E+03  0.94579612940E+02  0.17784584566E+03  0.00000000000E+00 0. -1.
        -12    1    4    4    0    0 -0.18272861023E+02 -0.15693149511E+02  0.30410411433E+01  0.24277980204E+02  0.00000000000E+00 0.  1.
</event>
<event>
12    1  0.8724767E-002  0.1974661E+03  0.7818608E-02  0.1152151E+00
         21   -1    0    0  503  502  0.00000000000E+00  0.00000000000E+00  0.15456515082E+03  0.15456515082E+03  0.00000000000E+00 0.  1.
         21   -1    0    0  501  503 -0.00000000000E+00 -0.00000000000E+00 -0.55729575359E+03  0.55729575359E+03  0.00000000000E+00 0.  1.
          6    2    1    2  501    0 -0.17809770406E+02  0.94840260099E+02 -0.46561523956E+03  0.50575724801E+03  0.17228168722E+03 0.  0.
         24    2    3    3    0    0 -0.13414763666E+02  0.82067794165E+01 -0.36021328197E+03  0.36916903943E+03  0.79277134505E+02 0.  0.
         -6    2    1    2    0  502  0.17809770406E+02 -0.94840260099E+02  0.62884636783E+02  0.20610365640E+03  0.17091628588E+03 0.  0.
        -24    2    5    5    0    0  0.67719637155E+01 -0.11950013241E+03  0.71363462376E+01  0.14397552768E+03  0.79698707607E+02 0.  0.
          5    1    3    3  501    0 -0.43950067396E+01  0.86633480683E+02 -0.10540195758E+03  0.13658820858E+03  0.47000000000E+01 0. -1.
        -11    1    4    4    0    0 -0.41944716960E+02 -0.14069725460E+02 -0.18007610383E+03  0.18543117221E+03  0.00000000000E+00 0.  1.
         12    1    4    4    0    0  0.28529953294E+02  0.22276504876E+02 -0.18013717814E+03  0.18373786723E+03  0.00000000000E+00 0. -1.
         -5    1    5    5    0  502  0.11037806690E+02  0.24659872313E+02  0.55748290545E+02  0.62128128716E+02  0.47000000000E+01 0.  1.
         11    1    6    6    0    0 -0.21091060779E+02 -0.43585439951E+02 -0.27857720077E+02  0.55862115860E+02  0.00000000000E+00 0. -1.
        -12    1    6    6    0    0  0.27863024494E+02 -0.75914692462E+02  0.34994066314E+02  0.88113411821E+02  0.00000000000E+00 0.  1.
</event>
<event>
12    1  0.8724767E-002  0.2091055E+03  0.7818608E-02  0.1142567E+00
         21   -1    0    0  501  502  0.00000000000E+00  0.00000000000E+00  0.15130057522E+03  0.15130057522E+03  0.00000000000E+00 0.  1.
         21   -1    0    0  502  503 -0.00000000000E+00 -0.00000000000E+00 -0.30817931112E+03  0.30817931112E+03  0.00000000000E+00 0.  1.
         -6    2    1    2    0  503 -0.11393247967E+03 -0.34265469274E+02 -0.18453645353E+02  0.20991821050E+03  0.17196041917E+03 0.  0.
        -24    2    3    3    0    0 -0.73255380962E+02 -0.20010837530E+02  0.55581577775E+02  0.12412121084E+03  0.80931938906E+02 0.  0.
          6    2    1    2  501    0  0.11393247967E+03  0.34265469274E+02 -0.13842509055E+03  0.24956167585E+03  0.17019045816E+03 0.  0.
         24    2    5    5    0    0  0.36877851421E+02 -0.35013712817E+02 -0.28690365773E+02  0.98562269798E+02  0.79406850641E+02 0.  0.
          5    1    5    5  501    0  0.77054628251E+02  0.69279182091E+02 -0.10973472478E+03  0.15099940605E+03  0.47000000000E+01 0. -1.
        -11    1    6    6    0    0  0.13706958125E+02 -0.12959748302E+01 -0.50400341473E+02  0.52247054199E+02  0.00000000000E+00 0.  1.
         12    1    6    6    0    0  0.23170893296E+02 -0.33717737987E+02  0.21709975700E+02  0.46315215599E+02  0.00000000000E+00 0. -1.
         -5    1    3    3    0  503 -0.40677098710E+02 -0.14254631743E+02 -0.74035223128E+02  0.85796999652E+02  0.47000000000E+01 0.  1.
         13    1    4    4    0    0 -0.69420180089E+01 -0.27970191024E+02  0.49211378324E+02  0.57028790593E+02  0.00000000000E+00 0. -1.
        -14    1    4    4    0    0 -0.66313362953E+02  0.79593534933E+01  0.63701994504E+01  0.67092420252E+02  0.00000000000E+00 0.  1.
</event>
<event>
12    1  0.8724767E-002  0.1825027E+03  0.7818608E-02  0.1165770E+00
         21   -1    0    0  501  502  0.00000000000E+00  0.00000000000E+00  0.72940883857E+02  0.72940883857E+02  0.00000000000E+00 0.  1.
         21   -1    0    0  502  503 -0.00000000000E+00 -0.00000000000E+00 -0.63583723400E+03  0.63583723400E+03  0.00000000000E+00 0. -1.
         -6    2    1    2    0  503 -0.15303266866E+02  0.58870706936E+02 -0.47074506904E+03  0.50432983443E+03  0.17043389262E+03 0.  0.
        -24    2    3    3    0    0 -0.60592438610E+02  0.81405795264E+02 -0.33267760167E+03  0.35721200807E+03  0.81410594783E+02 0.  0.
          6    2    1    2  501    0  0.15303266866E+02 -0.58870706936E+02 -0.92151281103E+02  0.20444828343E+03  0.17206769562E+03 0.  0.
         24    2    5    5    0    0  0.70348311668E+02 -0.24664929767E+02 -0.17040015960E+02  0.10513169720E+03  0.72146156501E+02 0.  0.
          5    1    5    5  501    0 -0.55045044802E+02 -0.34205777170E+02 -0.75111265143E+02  0.99316586230E+02  0.47000000000E+01 0. -1.
        -11    1    6    6    0    0 -0.14039084095E+02 -0.52220126121E+01 -0.10488633259E+02  0.18285970731E+02  0.00000000000E+00 0.  1.
         12    1    6    6    0    0  0.84387395763E+02 -0.19442917154E+02 -0.65513827010E+01  0.86845726471E+02  0.00000000000E+00 0. -1.
         -5    1    3    3    0  503  0.45289171743E+02 -0.22535088327E+02 -0.13806746738E+03  0.14711782635E+03  0.47000000000E+01 0.  1.
         13    1    4    4    0    0 -0.69409874579E+01 -0.16540298388E+02 -0.57615501862E+02  0.60343225241E+02  0.00000000000E+00 0. -1.
        -14    1    4    4    0    0 -0.53651451152E+02  0.97946093652E+02 -0.27506209980E+03  0.29686878283E+03  0.00000000000E+00 0.  1.
</event>
<event>
12    1  0.8724767E-002  0.2314234E+03  0.7818608E-02  0.1126567E+00
         21   -1    0    0  503  502  0.00000000000E+00  0.00000000000E+00  0.35943588567E+03  0.35943588567E+03  0.00000000000E+00 0.  1.
         21   -1    0    0  501  503 -0.00000000000E+00 -0.00000000000E+00 -0.18812955792E+03  0.18812955792E+03  0.00000000000E+00 0.  1.
          6    2    1    2  501    0  0.13090574590E+03  0.78796250600E+02 -0.45191713284E+02  0.23066137169E+03  0.16678493344E+03 0.  0.
         24    2    3    3    0    0  0.13458276904E+02  0.77165055318E+01 -0.39520007622E+02  0.93182295549E+02  0.82948414852E+02 0.  0.
         -6    2    1    2    0  502 -0.13090574590E+03 -0.78796250600E+02  0.21649804103E+03  0.31690407190E+03  0.17381491765E+03 0.  0.
        -24    2    5    5    0    0 -0.15139248649E+03 -0.85560434824E+02  0.13794909713E+03  0.23531064498E+03  0.78108087084E+02 0.  0.
          5    1    3    3  501    0  0.11744746899E+03  0.71079745069E+02 -0.56717056626E+01  0.13747907614E+03  0.47000000000E+01 0. -1.
        -13    1    4    4    0    0  0.22845803953E+02  0.35681356888E+02 -0.46460656672E+02  0.62878315865E+02  0.00000000000E+00 0.  1.
         14    1    4    4    0    0 -0.93875270482E+01 -0.27964851356E+02  0.69406490507E+01  0.30303979684E+02  0.00000000000E+00 0. -1.
         -5    1    5    5    0  502  0.20486740594E+02  0.67641842237E+01  0.78548943897E+02  0.81593426915E+02  0.47000000000E+01 0.  1.
         11    1    6    6    0    0 -0.47720801473E+02  0.96973552406E+01  0.24569072119E+02  0.54543128776E+02  0.00000000000E+00 0. -1.
        -12    1    6    6    0    0 -0.10367168502E+03 -0.95257790065E+02  0.11338002502E+03  0.18076751621E+03  0.00000000000E+00 0.  1.
</event>
<event>
12    1  0.8724767E-002  0.1961454E+03  0.7818608E-02  0.1153200E+00
         21   -1    0    0  503  502  0.00000000000E+00  0.00000000000E+00  0.11535039009E+03  0.11535039009E+03  0.00000000000E+00 0. -1.
         21   -1    0    0  501  503 -0.00000000000E+00 -0.00000000000E+00 -0.39999230221E+03  0.39999230221E+03  0.00000000000E+00 0.  1.
          6    2    1    2  501    0  0.15774481726E+02  0.93465850761E+02 -0.24862117686E+03  0.31667886002E+03  0.17172160979E+03 0.  0.
         24    2    3    3    0    0 -0.53732417894E+02  0.38989155712E+02 -0.10605485929E+03  0.14891067381E+03  0.80742978648E+02 0.  0.
         -6    2    1    2    0  502 -0.15774481726E+02 -0.93465850761E+02 -0.36020735255E+02  0.19866383228E+03  0.17083654573E+03 0.  0.
        -24    2    5    5    0    0  0.54351650458E+02 -0.32449195120E+02 -0.15282956954E+02  0.10330738452E+03  0.80198471005E+02 0.  0.
          5    1    3    3  501    0  0.69506899621E+02  0.54476695048E+02 -0.14256631757E+03  0.16776818621E+03  0.47000000000E+01 0. -1.
        -11    1    4    4    0    0  0.32385440294E+01  0.38886976279E+02 -0.73700809386E+02  0.83393611240E+02  0.00000000000E+00 0.  1.
         12    1    4    4    0    0 -0.56970961924E+02  0.10217943347E+00 -0.32354049904E+02  0.65517062574E+02  0.00000000000E+00 0. -1.
         -5    1    5    5    0  502 -0.70126132185E+02 -0.61016655641E+02 -0.20737778301E+02  0.95356447761E+02  0.47000000000E+01 0.  1.
         11    1    6    6    0    0  0.50119886347E+02 -0.44941462768E+02  0.16142218081E+02  0.69226507118E+02  0.00000000000E+00 0. -1.
        -12    1    6    6    0    0  0.42317641116E+01  0.12492267649E+02 -0.31425175034E+02  0.34080877401E+02  0.00000000000E+00 0.  1.
</event>
<event>
12    1  0.8724767E-002  0.2052480E+03  0.7818608E-02  0.1145434E+00
         21   -1    0    0  501  502  0.00000000000E+00  0.00000000000E+00  0.85985257013E+02  0.85985257013E+02  0.00000000000E+00 0.  1.
         21   -1    0    0  502  503 -0.00000000000E+00 -0.00000000000E+00 -0.50017858410E+03  0.50017858410E+03  0.00000000000E+00 0. -1.
         -6    2    1    2    0  503  0.95975860525E+02 -0.53238539930E+02 -0.25008514228E+03  0.32337451628E+03  0.17315539683E+03 0.  0.
        -24    2    3    3    0    0  0.39912778702E+02 -0.72636461020E+02 -0.23554927281E+03  0.26211498651E+03  0.79697684139E+02 0.  0.
          6    2    1    2  501    0 -0.95975860525E+02  0.53238539930E+02 -0.16410818481E+03  0.26278932484E+03  0.17343882204E+03 0.  0.
         24    2    5    5    0    0  0.16154178993E+02  0.29094332001E+02 -0.41320966812E+02  0.94697446860E+02  0.78439444732E+02 0.  0.
          5    1    5    5  501    0 -0.11213003952E+03  0.24144207929E+02 -0.12278721800E+03  0.16809187798E+03  0.47000000000E+01 0. -1.
        -11    1    6    6    0    0  0.26255086453E+02 -0.10572994708E+02  0.91202615128E+01  0.29737130861E+02  0.00000000000E+00 0.  1.
         12    1    6    6    0    0 -0.10100907460E+02  0.39667326709E+02 -0.50441228325E+02  0.64960315999E+02  0.00000000000E+00 0. -1.
         -5    1    3    3    0  503  0.56063081823E+02  0.19397921090E+02 -0.14535869467E+02  0.61259529767E+02  0.47000000000E+01 0.  1.
         13    1    4    4    0    0  0.59752582510E+01 -0.65039039189E+02 -0.20718953187E+03  0.21724014925E+03  0.00000000000E+00 0. -1.
        -14    1    4    4    0    0  0.33937520451E+02 -0.75974218313E+01 -0.28359740946E+02  0.44874837263E+02  0.00000000000E+00 0.  1.
</event>
<event>
12    1  0.8724767E-002  0.1784691E+03  0.7818608E-02  0.1169416E+00
         21   -1    0    0  501  502  0.00000000000E+00  0.00000000000E+00  0.84402740160E+03  0.84402740160E+03  0.00000000000E+00 0. -1.
         21   -1    0    0  502  503 -0.00000000000E+00 -0.00000000000E+00 -0.38148568503E+02  0.38148568503E+02  0.00000000000E+00 0. -1.
         -6    2    1    2    0  503 -0.34979191973E+02  0.18051915153E+02  0.35212548553E+03  0.39477029923E+03  0.17407416834E+03 0.  0.
        -24    2    3    3    0    0  0.28861325084E+02  0.84761692150E+01  0.83697059944E+02  0.11864855762E+03  0.78533183123E+02 0.  0.
          6    2    1    2  501    0  0.34979191973E+02 -0.18051915153E+02  0.45375334757E+03  0.48740567087E+03  0.17355913131E+03 0.  0.
         24    2    5    5    0    0  0.75097072672E+02 -0.53499981341E+02  0.30173489287E+03  0.32616761607E+03  0.82701571147E+02 0.  0.
          5    1    5    5  501    0 -0.40117880699E+02  0.35448066189E+02  0.15201845470E+03  0.16123805480E+03  0.47000000000E+01 0. -1.
        -13    1    6    6    0    0  0.62121134800E+02 -0.28618513944E+02  0.28585620694E+03  0.29392486417E+03  0.00000000000E+00 0.  1.
         14    1    6    6    0    0  0.12975937871E+02 -0.24881467397E+02  0.15878685931E+02  0.32242751905E+02  0.00000000000E+00 0. -1.
         -5    1    3    3    0  503 -0.63840517056E+02  0.95757459379E+01  0.26842842559E+03  0.27612174161E+03  0.47000000000E+01 0.  1.
         11    1    4    4    0    0 -0.37545243952E+01 -0.24898287216E+02  0.62525500858E+02  0.67405188355E+02  0.00000000000E+00 0. -1.
        -12    1    4    4    0    0  0.32615849479E+02  0.33374456431E+02  0.21171559086E+02  0.51243369263E+02  0.00000000000E+00 0.  1.
</event>
<event>
12    1  0.8724767E-002  0.1901455E+03  0.7818608E-02  0.1158569E+00
         21   -1    0    0  501  502  0.00000000000E+00  0.00000000000E+00  0.98579919767E+02  0.98579919767E+02  0.00000000000E+00 0. -1.
         21   -1    0    0  502  503 -0.00000000000E+00 -0.00000000000E+00 -0.40310923516E+03  0.40310923516E+03  0.00000000000E+00 0. -1.
         -6    2    1    2    0  503 -0.80745123175E+02 -0.10172091134E+02 -0.75241770461E+02  0.20449117502E+03  0.17184897522E+03 0.  0.
        -24    2    3    3    0    0 -0.92174329461E+02 -0.57776365386E+02 -0.29492525191E+02  0.13732066716E+03  0.78440685730E+02 0.  0.
          6    2    1    2  501    0  0.80745123175E+02  0.10172091134E+02 -0.22928754493E+03  0.29719797991E+03  0.17067693062E+03 0.  0.
         24    2    5    5    0    0  0.49535332306E+02 -0.57088353792E+02 -0.16261372505E+03  0.19737059511E+03  0.82456648945E+02 0.  0.
          5    1    5    5  501    0  0.31209790869E+02  0.67260444926E+02 -0.66673819884E+02  0.99827384798E+02  0.47000000000E+01 0. -1.
        -13    1    6    6    0    0  0.59080377866E+01 -0.42396440765E+02 -0.19505997713E+02  0.47040908227E+02  0.00000000000E+00 0.  1.
         14    1    6    6    0    0  0.43627294520E+02 -0.14691913026E+02 -0.14310772734E+03  0.15032968689E+03  0.00000000000E+00 0. -1.
         -5    1    3    3    0  503  0.11429206286E+02  0.47604274252E+02 -0.45749245270E+02  0.67170507860E+02  0.47000000000E+01 0.  1.
         13    1    4    4    0    0 -0.22413622432E+02 -0.25182426140E+02  0.25861479418E+02  0.42489306591E+02  0.00000000000E+00 0. -1.
        -14    1    4    4    0    0 -0.69760707030E+02 -0.32593939246E+02 -0.55354004610E+02  0.94831360568E+02  0.00000000000E+00 0.  1.
</event>
<event>
12    1  0.8724767E-002  0.2394777E+03  0.7818608E-02  0.1120212E+00
         21   -1    0    0  501  502  0.00000000000E+00  0.00000000000E+00  0.11140948756E+03  0.11140948756E+03  0.00000000000E+00 0. -1.
         21   -1    0    0  502  503 -0.00000000000E+00 -0.00000000000E+00 -0.63285472637E+03  0.63285472637E+03  0.00000000000E+00 0. -1.
         -6    2    1    2    0  503 -0.10134618468E+03 -0.13095998062E+03 -0.42227856607E+03  0.48545725466E+03  0.17299708975E+03 0.  0.
        -24    2    3    3    0    0 -0.10684572644E+03 -0.16082308631E+03 -0.37208194781E+03  0.42660285358E+03  0.79151402087E+02 0.  0.
          6    2    1    2  501    0  0.10134618468E+03  0.13095998062E+03 -0.99166672742E+02  0.25880695927E+03  0.17241069431E+03 0.  0.
         24    2    5    5    0    0  0.11467279868E+03  0.10248740135E+03 -0.12392665722E+03  0.21851510845E+03  0.93474692066E+02 0.  0.
          5    1    5    5  501    0 -0.13326614006E+02  0.28472579270E+02  0.24759984480E+02  0.40291850821E+02  0.47000000000E+01 0. -1.
        -13    1    6    6    0    0 -0.67646542791E+01  0.42920088434E+02 -0.19454135722E+02  0.47606280420E+02  0.00000000000E+00 0.  1.
         14    1    6    6    0    0  0.12143745296E+03  0.59567312920E+02 -0.10447252150E+03  0.17090882803E+03  0.00000000000E+00 0. -1.
         -5    1    3    3    0  503  0.54995417647E+01  0.29863105684E+02 -0.50196618263E+02  0.58854401073E+02  0.47000000000E+01 0.  1.
         13    1    4    4    0    0 -0.53907082138E+02 -0.11690177703E+03 -0.30253543966E+03  0.32878517489E+03  0.00000000000E+00 0. -1.
        -14    1    4    4    0    0 -0.52938644303E+02 -0.43921309276E+02 -0.69546508149E+02  0.97817678693E+02  0.00000000000E+00 0.  1.
</event>
<event>
12    1  0.8724767E-002  0.2780647E+03  0.7818608E-02  0.1096861E+00
         21   -1    0    0  501  502  0.00000000000E+00  0.00000000000E+00  0.55837906393E+02  0.55837906393E+02  0.00000000000E+00 0.  1.
         21   -1    0    0  502  503 -0.00000000000E+00 -0.00000000000E+00 -0.14053261692E+04  0.14053261692E+04  0.00000000000E+00 0. -1.
         -6    2    1    2    0  503  0.16398677760E+03 -0.14441614683E+03 -0.77233741102E+03  0.82086847002E+03  0.17196593244E+03 0.  0.
        -24    2    3    3    0    0  0.74736686494E+02 -0.10324196450E+03 -0.27872910490E+03  0.31754735788E+03  0.83077885371E+02 0.  0.
          6    2    1    2  501    0 -0.16398677760E+03  0.14441614683E+03 -0.57715085181E+03  0.64029560560E+03  0.17066830434E+03 0.  0.
         24    2    5    5    0    0 -0.13714906633E+03  0.33666009682E+02 -0.31937421291E+03  0.35841488404E+03  0.80734593725E+02 0.  0.
          5    1    5    5  501    0 -0.26837711270E+02  0.11075013715E+03 -0.25777663890E+03  0.28188072156E+03  0.47000000000E+01 0. -1.
        -13    1    6    6    0    0 -0.66508754763E+02  0.47718901975E+02 -0.11081752088E+03  0.13777166254E+03  0.00000000000E+00 0.  1.
         14    1    6    6    0    0 -0.70640311564E+02 -0.14052892293E+02 -0.20855669204E+03  0.22064322150E+03  0.00000000000E+00 0. -1.
         -5    1    3    3    0  503  0.89250091103E+02 -0.41174182324E+02 -0.49360830612E+03  0.50332111214E+03  0.47000000000E+01 0.  1.
         11    1    4    4    0    0  0.41246646160E+02 -0.27805891478E+02 -0.18983699740E+03  0.19624611844E+03  0.00000000000E+00 0. -1.
        -12    1    4    4    0    0  0.33490040334E+02 -0.75436073026E+02 -0.88892107500E+02  0.12130123945E+03  0.00000000000E+00 0.  1.
</event>
<event>
12    1  0.8724767E-002  0.2419290E+03  0.7818608E-02  0.1119252E+00
         21   -1    0    0  501  502  0.00000000000E+00  0.00000000000E+00  0.48014037886E+02  0.48014037886E+02  0.00000000000E+00 0. -1.
         21   -1    0    0  502  503 -0.00000000000E+00 -0.00000000000E+00 -0.12010707718E+04  0.12010707718E+04  0.00000000000E+00 0. -1.
         -6    2    1    2    0  503  0.15506344660E+03 -0.51774379918E+02 -0.61912906018E+03  0.66471829757E+03  0.17833777808E+03 0.  0.
        -24    2    3    3    0    0  0.55688789866E+02  0.50927335742E+02 -0.25547700765E+03  0.27396534480E+03  0.63981824514E+02 0.  0.
          6    2    1    2  501    0 -0.15506344660E+03  0.51774379918E+02 -0.53392767372E+03  0.58436651209E+03  0.17227942653E+03 0.  0.
         24    2    5    5    0    0 -0.79125324099E+01  0.47854344660E+01 -0.22770212050E+03  0.24135407502E+03  0.79486006931E+02 0.  0.
          5    1    5    5  501    0 -0.14715091419E+03  0.46988945452E+02 -0.30622555322E+03  0.34301243707E+03  0.47000000000E+01 0. -1.
        -13    1    6    6    0    0 -0.23201280041E+01  0.34742601261E+02 -0.49233736823E+02  0.60302505569E+02  0.00000000000E+00 0.  1.
         14    1    6    6    0    0 -0.55924044059E+01 -0.29957166795E+02 -0.17846838367E+03  0.18105156945E+03  0.00000000000E+00 0. -1.
         -5    1    3    3    0  503  0.99374656729E+02 -0.10270171566E+03 -0.36365205252E+03  0.39075295278E+03  0.47000000000E+01 0.  1.
         11    1    4    4    0    0  0.61014299476E+02  0.16133511621E+02 -0.17831505258E+03  0.18915415120E+03  0.00000000000E+00 0. -1.
        -12    1    4    4    0    0 -0.53255096097E+01  0.34793824121E+02 -0.77161955071E+02  0.84811193600E+02  0.00000000000E+00 0.  1.
</event>
<event>
12    1  0.8724767E-002  0.1804294E+03  0.7818608E-02  0.1167610E+00
         21   -1    0    0  501  502  0.00000000000E+00  0.00000000000E+00  0.70773471622E+03  0.70773471622E+03  0.00000000000E+00 0. -1.
         21   -1    0    0  502  503 -0.00000000000E+00 -0.00000000000E+00 -0.50355603603E+02  0.50355603603E+02  0.00000000000E+00 0. -1.
         -6    2    1    2    0  503  0.10254260082E+02  0.53475896206E+02  0.21347681081E+03  0.27892019779E+03  0.17105351986E+03 0.  0.
        -24    2    3    3    0    0 -0.12458631186E+02  0.71208152058E+02  0.59290905912E+02  0.12199444593E+03  0.78367180017E+02 0.  0.
          6    2    1    2  501    0 -0.10254260082E+02 -0.53475896206E+02  0.44390230182E+03  0.47917012204E+03  0.17201724034E+03 0.  0.
         24    2    5    5    0    0  0.26987445914E+02 -0.19441220612E+02  0.10077901732E+03  0.13232580225E+03  0.79040649753E+02 0.  0.
          5    1    5    5  501    0 -0.37241705996E+02 -0.34034675594E+02  0.34312328449E+03  0.34684431979E+03  0.47000000000E+01 0. -1.
        -13    1    6    6    0    0  0.22225022592E+02  0.22163544728E+02  0.79250083536E+02  0.85239369335E+02  0.00000000000E+00 0.  1.
         14    1    6    6    0    0  0.47624233222E+01 -0.41604765340E+02  0.21528933787E+02  0.47086432918E+02  0.00000000000E+00 0. -1.
         -5    1    3    3    0  503  0.22712891268E+02 -0.17732255852E+02  0.15418590489E+03  0.15692575185E+03  0.47000000000E+01 0.  1.
         11    1    4    4    0    0  0.90851266829E+01  0.49925194364E+02 -0.49374491168E+01  0.50984732645E+02  0.00000000000E+00 0. -1.
        -12    1    4    4    0    0 -0.21543757869E+02  0.21282957694E+02  0.64228355029E+02  0.71009713287E+02  0.00000000000E+00 0.  1.
</event>
<event>
12    1  0.8724767E-002  0.1831255E+03  0.7818608E-02  0.1164969E+00
         21   -1    0    0  501  502  0.00000000000E+00  0.00000000000E+00  0.11205227066E+03  0.11205227066E+03  0.00000000000E+00 0.  1.
         21   -1    0    0  502  503 -0.00000000000E+00 -0.00000000000E+00 -0.32159429354E+03  0.32159429354E+03  0.00000000000E+00 0.  1.
         -6    2    1    2    0  503  0.37353030922E+02  0.44945629029E+02 -0.16342754747E+03  0.24544557104E+03  0.17355001177E+03 0.  0.
        -24    2    3    3    0    0 -0.17482836159E+02  0.18524541398E+02 -0.14439379507E+03  0.18149699858E+03  0.10697095046E+03 0.  0.
          6    2    1    2  501    0 -0.37353030922E+02 -0.44945629029E+02 -0.46114475406E+02  0.18820099316E+03  0.17285170088E+03 0.  0.
         24    2    5    5    0    0 -0.66470000994E+02 -0.29797273388E+02  0.24929291645E+02  0.10980088180E+03  0.78285538439E+02 0.  0.
          5    1    5    5  501    0  0.29116970072E+02 -0.15148355642E+02 -0.71043767051E+02  0.78400111362E+02  0.47000000000E+01 0. -1.
        -13    1    6    6    0    0 -0.36077238020E+02 -0.47291060018E+02 -0.99878531600E+01  0.60313917727E+02  0.00000000000E+00 0.  1.
         14    1    6    6    0    0 -0.30392762975E+02  0.17493786631E+02  0.34917144805E+02  0.49486964074E+02  0.00000000000E+00 0. -1.
         -5    1    3    3    0  503  0.54835867081E+02  0.26421087631E+02 -0.19033752395E+02  0.63948572465E+02  0.47000000000E+01 0.  1.
         11    1    4    4    0    0  0.31361495716E+02 -0.10624018195E+01 -0.40855477131E+01  0.31644333005E+02  0.00000000000E+00 0. -1.
        -12    1    4    4    0    0 -0.48844331876E+02  0.19586943218E+02 -0.14030824736E+03  0.14985266557E+03  0.00000000000E+00 0.  1.
</event>
<event>
12    1  0.8724767E-002  0.1999540E+03  0.7818608E-02  0.1150093E+00
         21   -1    0    0  503  502  0.00000000000E+00  0.00000000000E+00  0.14979079084E+03  0.14979079084E+03  0.00000000000E+00 0. -1.
         21   -1    0    0  501  503 -0.00000000000E+00 -0.00000000000E+00 -0.26493521665E+03  0.26493521665E+03  0.00000000000E+00 0. -1.
          6    2    1    2  501    0  0.99013493052E+01  0.99184173379E+02 -0.57089183490E+02  0.20651456152E+03  0.17162037257E+03 0.  0.
         24    2    3    3    0    0 -0.16896095130E+02  0.39338542818E+02  0.33218059987E+02  0.94813662912E+02  0.77802263359E+02 0.  0.
         -6    2    1    2    0  502 -0.99013493052E+01 -0.99184173379E+02 -0.58055242317E+02  0.20821144598E+03  0.17333798807E+03 0.  0.
        -24    2    5    5    0    0  0.97322313080E+01 -0.12108005815E+03 -0.85011658537E+02  0.16804123770E+03  0.79093480603E+02 0.  0.
          5    1    3    3  501    0  0.26797444436E+02  0.59845630561E+02 -0.90307243477E+02  0.11170089861E+03  0.47000000000E+01 0. -1.
        -11    1    4    4    0    0 -0.37602719725E+02  0.10523813450E+01 -0.36190741663E+01  0.37791133021E+02  0.00000000000E+00 0.  1.
         12    1    4    4    0    0  0.20706624595E+02  0.38286161473E+02  0.36837134153E+02  0.57022529890E+02  0.00000000000E+00 0. -1.
         -5    1    5    5    0  502 -0.19633580613E+02  0.21895884767E+02  0.26956416220E+02  0.40170208275E+02  0.47000000000E+01 0.  1.
         11    1    6    6    0    0  0.30701170536E+02 -0.86213406871E+02 -0.23833718079E+02  0.94569337071E+02  0.00000000000E+00 0. -1.
        -12    1    6    6    0    0 -0.20968939228E+02 -0.34866651275E+02 -0.61177940458E+02  0.73471900630E+02  0.00000000000E+00 0.  1.
</event>
<event>
12    1  0.8724767E-002  0.1852690E+03  0.7818608E-02  0.1163154E+00
         21   -1    0    0  503  502  0.00000000000E+00  0.00000000000E+00  0.66302971978E+02  0.66302971978E+02  0.00000000000E+00 0.  1.
         21   -1    0    0  501  503 -0.00000000000E+00 -0.00000000000E+00 -0.77041512992E+03  0.77041512992E+03  0.00000000000E+00 0.  1.
          6    2    1    2  501    0  0.64704017438E+02  0.15117497060E+02 -0.59462531162E+03  0.62281929304E+03  0.17294352252E+03 0.  0.
         24    2    3    3    0    0  0.56623409787E+02  0.47078409592E+02 -0.57260931234E+03  0.58289949377E+03  0.80422683835E+02 0.  0.
         -6    2    1    2    0  502 -0.64704017438E+02 -0.15117497060E+02 -0.10948684633E+03  0.21389880886E+03  0.17131894910E+03 0.  0.
        -24    2    5    5    0    0 -0.27843685577E+02 -0.50237955469E+02 -0.64264228405E+01  0.98852420155E+02  0.80195879344E+02 0.  0.
          5    1    3    3  501    0  0.80806076511E+01 -0.31960912532E+02 -0.22015999278E+02  0.39919799274E+02  0.47000000000E+01 0. -1.
        -13    1    4    4    0    0 -0.10056835824E+02  0.15089637408E+02 -0.29659503924E+03  0.29714887582E+03  0.00000000000E+00 0.  1.
         14    1    4    4    0    0  0.66680245611E+02  0.31988772184E+02 -0.27601427310E+03  0.28575061795E+03  0.00000000000E+00 0. -1.
         -5    1    5    5    0  502 -0.36860331861E+02  0.35120458409E+02 -0.10306042349E+03  0.11504638870E+03  0.47000000000E+01 0.  1.
         11    1    6    6    0    0  0.18069086817E+02  0.30648594839E+01 -0.20083366995E+02  0.27188727294E+02  0.00000000000E+00 0. -1.
        -12    1    6    6    0    0 -0.45912772394E+02 -0.53302814953E+02  0.13656944154E+02  0.71663692860E+02  0.00000000000E+00 0.  1.
</event>
<event>
12    1  0.8724767E-002  0.2010109E+03  0.7818608E-02  0.1149118E+00
         21   -1    0    0  501  502  0.00000000000E+00  0.00000000000E+00  0.45097777675E+03  0.45097777675E+03  0.00000000000E+00 0. -1.
         21   -1    0    0  502  503 -0.00000000000E+00 -0.00000000000E+00 -0.89237606040E+02  0.89237606040E+02  0.00000000000E+00 0. -1.
         -6    2    1    2    0  503  0.94672926943E+02 -0.38858121439E+02  0.19160716546E+03  0.27770254270E+03  0.17301005655E+03 0.  0.
        -24    2    3    3    0    0  0.82909207140E+02 -0.83100558666E+02  0.67377701816E+02  0.14522300468E+03  0.52633895054E+02 0.  0.
          6    2    1    2  501    0 -0.94672926943E+02  0.38858121439E+02  0.17013300525E+03  0.26251284009E+03  0.17174060393E+03 0.  0.
         24    2    5    5    0    0 -0.12314479499E+03  0.10636589878E+02  0.86308659169E+02  0.16947675510E+03  0.77430021934E+02 0.  0.
          5    1    5    5  501    0  0.28471868044E+02  0.28221531560E+02  0.83824346079E+02  0.93036084984E+02  0.47000000000E+01 0. -1.
        -13    1    6    6    0    0 -0.49248934196E+02 -0.19833827601E+02  0.17542202677E+01  0.53121704844E+02  0.00000000000E+00 0.  1.
         14    1    6    6    0    0 -0.73895860790E+02  0.30470417479E+02  0.84554438901E+02  0.11635505026E+03  0.00000000000E+00 0. -1.
         -5    1    3    3    0  503  0.11763719803E+02  0.44242437227E+02  0.12422946364E+03  0.13247953802E+03  0.47000000000E+01 0.  1.
         11    1    4    4    0    0  0.62817161811E+02 -0.73055692862E+02  0.74352290373E+02  0.12170206720E+03  0.00000000000E+00 0. -1.
        -12    1    4    4    0    0  0.20092045329E+02 -0.10044865803E+02 -0.69745885573E+01  0.23520937483E+02  0.00000000000E+00 0.  1.
</event>
<event>
12    1  0.8724767E-002  0.1857806E+03  0.7818608E-02  0.1162496E+00
         21   -1    0    0  503  502  0.00000000000E+00  0.00000000000E+00  0.73510057680E+02  0.73510057680E+02  0.00000000000E+00 0. -1.
         21   -1    0    0  501  503 -0.00000000000E+00 -0.00000000000E+00 -0.51792352198E+03  0.51792352198E+03  0.00000000000E+00 0. -1.
          6    2    1    2  501    0  0.53206603012E+02 -0.41932845335E+02 -0.31474835648E+03  0.36548727300E+03  0.17298876465E+03 0.  0.
         24    2    3    3    0    0  0.43714199137E+02  0.42548679223E+02 -0.15847245672E+03  0.18752244341E+03  0.79560203210E+02 0.  0.
         -6    2    1    2    0  502 -0.53206603012E+02  0.41932845335E+02 -0.12966510781E+03  0.22594630666E+03  0.17218997412E+03 0.  0.
        -24    2    5    5    0    0  0.20364714258E+02  0.57906112905E+02 -0.39278740388E+02  0.10821920945E+03  0.80004614542E+02 0.  0.
          5    1    3    3  501    0  0.94924038750E+01 -0.84481524558E+02 -0.15627589976E+03  0.17796482959E+03  0.47000000000E+01 0. -1.
        -13    1    4    4    0    0  0.55364081326E+02  0.11442629912E+02 -0.55097307542E+02  0.78941931689E+02  0.00000000000E+00 0.  1.
         14    1    4    4    0    0 -0.11649882189E+02  0.31106049311E+02 -0.10337514917E+03  0.10858051172E+03  0.00000000000E+00 0. -1.
         -5    1    5    5    0  502 -0.73571317270E+02 -0.15973267569E+02 -0.90386367426E+02  0.11772709721E+03  0.47000000000E+01 0.  1.
         13    1    6    6    0    0 -0.17298674274E+02  0.57035051056E+02 -0.98393079649E+01  0.60407393271E+02  0.00000000000E+00 0. -1.
        -14    1    6    6    0    0  0.37663388532E+02  0.87106184885E+00 -0.29439432423E+02  0.47811816174E+02  0.00000000000E+00 0.  1.
</event>
<event>
12    1  0.8724767E-002  0.3444665E+03  0.7818608E-02  0.1065102E+00
         21   -1    0    0  501  502  0.00000000000E+00  0.00000000000E+00  0.81575433928E+03  0.81575433928E+03  0.00000000000E+00 0. -1.
         21   -1    0    0  502  503 -0.00000000000E+00 -0.00000000000E+00 -0.19541915608E+03  0.19541915608E+03  0.00000000000E+00 0. -1.
         -6    2    1    2    0  503  0.18435143116E+03 -0.23469976207E+03  0.53164945098E+02  0.34854508361E+03  0.17201085848E+03 0.  0.
        -24    2    3    3    0    0  0.78117548527E+02 -0.15052657203E+03 -0.29408051885E+02  0.18976487838E+03  0.79907917491E+02 0.  0.
          6    2    1    2  501    0 -0.18435143116E+03  0.23469976207E+03  0.56717023810E+03  0.66262841176E+03  0.16830004337E+03 0.  0.
         24    2    5    5    0    0 -0.35986390404E+02  0.11827509258E+03  0.28763057696E+03  0.32538754659E+03  0.88666165253E+02 0.  0.
          5    1    5    5  501    0 -0.14836504075E+03  0.11642466949E+03  0.27953966115E+03  0.33724086517E+03  0.47000000000E+01 0. -1.
        -13    1    6    6    0    0 -0.28750304173E+02 -0.63344142973E+00  0.30050484329E+02  0.41593423116E+02  0.00000000000E+00 0.  1.
         14    1    6    6    0    0 -0.72360862303E+01  0.11890853401E+03  0.25758009263E+03  0.28379412348E+03  0.00000000000E+00 0. -1.
         -5    1    3    3    0  503  0.10623388263E+03 -0.84173190040E+02  0.82572996983E+02  0.15878020522E+03  0.47000000000E+01 0.  1.
         11    1    4    4    0    0  0.81891150928E+02 -0.11989393691E+03  0.27148572852E+01  0.14521737898E+03  0.00000000000E+00 0. -1.
        -12    1    4    4    0    0 -0.37736024006E+01 -0.30632635114E+02 -0.32122909170E+02  0.44547499399E+02  0.00000000000E+00 0.  1.
</event>
<event>
12    1  0.8724767E-002  0.3026307E+03  0.7818608E-02  0.1084084E+00
         21   -1    0    0  503  502  0.00000000000E+00  0.00000000000E+00  0.11673625803E+03  0.11673625803E+03  0.00000000000E+00 0.  1.
         21   -1    0    0  501  503 -0.00000000000E+00 -0.00000000000E+00 -0.12285940560E+04  0.12285940560E+04  0.00000000000E+00 0. -1.
          6    2    1    2  501    0  0.20546654509E+03  0.14066689725E+03 -0.96104565266E+03  0.10072036850E+04  0.16984357351E+03 0.  0.
         24    2    3    3    0    0  0.56443521468E+02  0.54741694211E+02 -0.20155364636E+03  0.22846033851E+03  0.73401156044E+02 0.  0.
         -6    2    1    2    0  502 -0.20546654509E+03 -0.14066689725E+03 -0.15081214534E+03  0.33812662905E+03  0.17199313054E+03 0.  0.
        -24    2    5    5    0    0 -0.12181523151E+03 -0.10169273224E+02 -0.95072630489E+02  0.17333538032E+03  0.77871588253E+02 0.  0.
          5    1    3    3  501    0  0.14902302362E+03  0.85925203040E+02 -0.75949200630E+03  0.77874334650E+03  0.47000000000E+01 0. -1.
        -11    1    4    4    0    0  0.73249786105E+02  0.53453071566E+02 -0.17188683516E+03  0.19433951252E+03  0.00000000000E+00 0.  1.
         12    1    4    4    0    0 -0.16806264637E+02  0.12886226447E+01 -0.29666811200E+02  0.34120825988E+02  0.00000000000E+00 0. -1.
         -5    1    5    5    0  502 -0.83651313580E+02 -0.13049762403E+03 -0.55739514848E+02  0.16479124872E+03  0.47000000000E+01 0.  1.
         13    1    6    6    0    0 -0.61529531842E+02 -0.38229502782E+02 -0.74063823498E+02  0.10359936352E+03  0.00000000000E+00 0. -1.
        -14    1    6    6    0    0 -0.60285699670E+02  0.28060229558E+02 -0.21008806991E+02  0.69736016797E+02  0.00000000000E+00 0.  1.
</event>
<event>
12    1  0.8724767E-002  0.2058900E+03  0.7818608E-02  0.1147563E+00
         21   -1    0    0  503  502  0.00000000000E+00  0.00000000000E+00  0.19660574489E+03  0.19660574489E+03  0.00000000000E+00 0. -1.
         21   -1    0    0  501  503 -0.00000000000E+00 -0.00000000000E+00 -0.31306145004E+03  0.31306145004E+03  0.00000000000E+00 0. -1.
          6    2    1    2  501    0  0.46000787807E+02  0.93390755452E+02 -0.20849392048E+03  0.28414178632E+03  0.16256978248E+03 0.  0.
         24    2    3    3    0    0  0.65260833586E+02 -0.41039720658E+01 -0.11305951861E+03  0.14627958585E+03  0.65874452579E+02 0.  0.
         -6    2    1    2    0  502 -0.46000787807E+02 -0.93390755452E+02  0.92038215337E+02  0.22552540860E+03  0.17763099718E+03 0.  0.
        -24    2    5    5    0    0  0.12643738359E+02  0.90278787150E+01  0.64571669788E+02  0.10426016956E+03  0.80369868138E+02 0.  0.
          5    1    3    3  501    0 -0.19260045779E+02  0.97494727518E+02 -0.95434401877E+02  0.13786220047E+03  0.47000000000E+01 0. -1.
        -11    1    4    4    0    0 -0.84819911476E+01  0.65710002220E+01 -0.41883504716E+02  0.43235982527E+02  0.00000000000E+00 0.  1.
         12    1    4    4    0    0  0.73742824734E+02 -0.10674972288E+02 -0.71176013891E+02  0.10304360333E+03  0.00000000000E+00 0. -1.
         -5    1    5    5    0  502 -0.58644526166E+02 -0.10241863417E+03  0.27466545549E+02  0.12126523904E+03  0.47000000000E+01 0.  1.
         13    1    6    6    0    0 -0.32489186308E+02 -0.82548787602E+01  0.27135019772E+02  0.43127712069E+02  0.00000000000E+00 0. -1.
        -14    1    6    6    0    0  0.45132924667E+02  0.17282757475E+02  0.37436650016E+02  0.61132457495E+02  0.00000000000E+00 0.  1.
</event>
<event>
12    1  0.8724767E-002  0.1857582E+03  0.7818608E-02  0.1162981E+00
         21   -1    0    0  501  502  0.00000000000E+00  0.00000000000E+00  0.19013074831E+03  0.19013074831E+03  0.00000000000E+00 0. -1.
         21   -1    0    0  502  503 -0.00000000000E+00 -0.00000000000E+00 -0.20248694915E+03  0.20248694915E+03  0.00000000000E+00 0. -1.
         -6    2    1    2    0  503 -0.65792461639E+02 -0.25445270576E+02 -0.73305279526E+02  0.19969921995E+03  0.17184296506E+03 0.  0.
        -24    2    3    3    0    0 -0.53293826915E+02 -0.67206535178E+02 -0.30271542003E+01  0.11686611069E+03  0.79319441547E+02 0.  0.
          6    2    1    2  501    0  0.65792461639E+02  0.25445270576E+02  0.60949078688E+02  0.19291847750E+03  0.16889830954E+03 0.  0.
         24    2    5    5    0    0  0.87378681156E+02 -0.21724839054E+02  0.10098197102E+02  0.12012502812E+03  0.78873609292E+02 0.  0.
          5    1    5    5  501    0 -0.21586219517E+02  0.47170109631E+02  0.50850881586E+02  0.72793449387E+02  0.47000000000E+01 0. -1.
        -13    1    6    6    0    0 -0.11354988305E+02  0.91222023629E+01  0.80986598023E+01  0.16665492070E+02  0.00000000000E+00 0.  1.
         14    1    6    6    0    0  0.98733669461E+02 -0.30847041417E+02  0.19995372993E+01  0.10345953605E+03  0.00000000000E+00 0. -1.
         -5    1    3    3    0  503 -0.12498634724E+02  0.41761264602E+02 -0.70278125326E+02  0.82833109265E+02  0.47000000000E+01 0.  1.
         11    1    4    4    0    0 -0.48035845079E+02 -0.29668435481E+02 -0.35720304155E+02  0.66810168427E+02  0.00000000000E+00 0. -1.
        -12    1    4    4    0    0 -0.52579818359E+01 -0.37538099697E+02  0.32693149955E+02  0.50055942263E+02  0.00000000000E+00 0.  1.
</event>
<event>
12    1  0.8724767E-002  0.2257807E+03  0.7818608E-02  0.1129646E+00
         21   -1    0    0  503  502  0.00000000000E+00  0.00000000000E+00  0.24493942975E+03  0.24493942975E+03  0.00000000000E+00 0. -1.
         21   -1    0    0  501  503 -0.00000000000E+00 -0.00000000000E+00 -0.22167165398E+03  0.22167165398E+03  0.00000000000E+00 0. -1.
          6    2    1    2  501    0  0.57377935959E+02  0.13472715315E+03  0.69326741076E+02  0.23618455143E+03  0.17185258792E+03 0.  0.
         24    2    3    3    0    0  0.27996369184E+02  0.10172673051E+02 -0.92445821586E+01  0.85942620487E+02  0.80083654714E+02 0.  0.
         -6    2    1    2    0  502 -0.57377935959E+02 -0.13472715315E+03 -0.46058965307E+02  0.23042653229E+03  0.17184680727E+03 0.  0.
        -24    2    5    5    0    0 -0.91317899704E+02 -0.10408500148E+03  0.70714516222E+01  0.16017132750E+03  0.80201012369E+02 0.  0.
          5    1    3    3  501    0  0.29381566775E+02  0.12455448010E+03  0.78571323235E+02  0.15024193094E+03  0.47000000000E+01 0. -1.
        -13    1    4    4    0    0 -0.18918693048E+02 -0.12004111007E+02  0.16681893162E+02  0.27933871682E+02  0.00000000000E+00 0.  1.
         14    1    4    4    0    0  0.46915062232E+02  0.22176784058E+02 -0.25926475320E+02  0.58008748805E+02  0.00000000000E+00 0. -1.
         -5    1    5    5    0  502  0.33939963745E+02 -0.30642151670E+02 -0.53130416929E+02  0.70255204797E+02  0.47000000000E+01 0.  1.
         11    1    6    6    0    0 -0.30269601220E+02  0.65310536599E+01  0.13237580550E+02  0.33676949962E+02  0.00000000000E+00 0. -1.
        -12    1    6    6    0    0 -0.61048298484E+02 -0.11061605514E+03 -0.61661289282E+01  0.12649437753E+03  0.00000000000E+00 0.  1.
</event>
<event>
12    1  0.8724767E-002  0.2376272E+03  0.7818608E-02  0.1121415E+00
         21   -1    0    0  503  502  0.00000000000E+00  0.00000000000E+00  0.23166600198E+03  0.23166600198E+03  0.00000000000E+00 0. -1.
         21   -1    0    0  501  503 -0.00000000000E+00 -0.00000000000E+00 -0.25690708705E+03  0.25690708705E+03  0.00000000000E+00 0.  1.
          6    2    1    2  501    0 -0.16344067314E+03  0.37995881616E+01 -0.68311399395E+02  0.24707413125E+03  0.17219723731E+03 0.  0.
         24    2    3    3    0    0 -0.38756797299E+02  0.46955769423E+02 -0.55370257626E+02  0.11441634585E+03  0.79487742131E+02 0.  0.
         -6    2    1    2    0  502  0.16344067314E+03 -0.37995881616E+01  0.43070314329E+02  0.24149895778E+03  0.17245116447E+03 0.  0.
        -24    2    5    5    0    0  0.28414058196E+02 -0.32362147616E+02  0.13975439406E+01  0.97253623930E+02  0.87187424191E+02 0.  0.
          5    1    3    3  501    0 -0.12468387584E+03 -0.43156181261E+02 -0.12941141769E+02  0.13265778540E+03  0.47000000000E+01 0. -1.
        -11    1    4    4    0    0  0.17886646993E+02 -0.92979687525E+01 -0.88121680819E+01  0.22000878844E+02  0.00000000000E+00 0.  1.
         12    1    4    4    0    0 -0.56643444292E+02  0.56253738175E+02 -0.46558089544E+02  0.92415467006E+02  0.00000000000E+00 0. -1.
         -5    1    5    5    0  502  0.13502661495E+03  0.28562559454E+02  0.41672770388E+02  0.14424533385E+03  0.47000000000E+01 0.  1.
         13    1    6    6    0    0  0.38165329287E+02  0.18599738108E+02  0.12365895014E+02  0.44220560566E+02  0.00000000000E+00 0. -1.
        -14    1    6    6    0    0 -0.97512710919E+01 -0.50961885724E+02 -0.10968351073E+02  0.53033063364E+02  0.00000000000E+00 0.  1.
</event>
<event>
12    1  0.8724767E-002  0.1991853E+03  0.7818608E-02  0.1150515E+00
         21   -1    0    0  503  502  0.00000000000E+00  0.00000000000E+00  0.50496934588E+03  0.50496934588E+03  0.00000000000E+00 0. -1.
         21   -1    0    0  501  503 -0.00000000000E+00 -0.00000000000E+00 -0.18795790297E+03  0.18795790297E+03  0.00000000000E+00 0. -1.
          6    2    1    2  501    0 -0.98859763874E+02 -0.12526261564E+02 -0.10606730080E+03  0.22530515346E+03  0.17199412704E+03 0.  0.
         24    2    3    3    0    0  0.14364364239E+02 -0.74597185031E+01 -0.22312848429E+02  0.84300645245E+02  0.79666512560E+02 0.  0.
         -6    2    1    2    0  502  0.98859763874E+02  0.12526261564E+02  0.42307874371E+03  0.46762209538E+03  0.17246634620E+03 0.  0.
        -24    2    5    5    0    0  0.10643858427E+03  0.36511706029E+02  0.41972111044E+03  0.44181310924E+03  0.79816890722E+02 0.  0.
          5    1    3    3  501    0 -0.11322412811E+03 -0.50665430614E+01 -0.83754452368E+02  0.14100450822E+03  0.47000000000E+01 0. -1.
        -13    1    4    4    0    0  0.18757713321E+01  0.31029214882E+02 -0.29899404292E+02  0.43131253996E+02  0.00000000000E+00 0.  1.
         14    1    4    4    0    0  0.12488592907E+02 -0.38488933385E+02  0.75865558626E+01  0.41169391248E+02  0.00000000000E+00 0. -1.
         -5    1    5    5    0  502 -0.75788203996E+01 -0.23985444464E+02  0.33576332657E+01  0.25808986147E+02  0.47000000000E+01 0.  1.
         11    1    6    6    0    0  0.10636448110E+03  0.12834159803E+02  0.27435838568E+03  0.29453461985E+03  0.00000000000E+00 0. -1.
        -12    1    6    6    0    0  0.74103178642E-01  0.23677546226E+02  0.14536272476E+03  0.14727848939E+03  0.00000000000E+00 0.  1.
</event>
<event>
12    1  0.8724767E-002  0.1847894E+03  0.7818608E-02  0.1163402E+00
         21   -1    0    0  501  502  0.00000000000E+00  0.00000000000E+00  0.91135535117E+03  0.91135535117E+03  0.00000000000E+00 0. -1.
         21   -1    0    0  502  503 -0.00000000000E+00 -0.00000000000E+00 -0.59620029998E+02  0.59620029998E+02  0.00000000000E+00 0. -1.
         -6    2    1    2    0  503 -0.51548224281E+02  0.40159293796E+02  0.12952576946E+03  0.22566356659E+03  0.17285002756E+03 0.  0.
        -24    2    3    3    0    0 -0.69538867943E+02 -0.32619388342E+02  0.26085438356E+02  0.97826201424E+02  0.54679401425E+02 0.  0.
          6    2    1    2  501    0  0.51548224281E+02 -0.40159293796E+02  0.72220955171E+03  0.74531181458E+03  0.17214260386E+03 0.  0.
         24    2    5    5    0    0  0.60715922814E+02  0.17309038264E+02  0.25675031295E+03  0.27620516484E+03  0.79890824211E+02 0.  0.
          5    1    5    5  501    0 -0.91676985332E+01 -0.57468332060E+02  0.46545923876E+03  0.46910664975E+03  0.47000000000E+01 0. -1.
        -11    1    6    6    0    0  0.60871239770E+01  0.40942312630E+02  0.12387199892E+03  0.13060474018E+03  0.00000000000E+00 0.  1.
         12    1    6    6    0    0  0.54628798837E+02 -0.23633274365E+02  0.13287831403E+03  0.14560042465E+03  0.00000000000E+00 0. -1.
         -5    1    3    3    0  503  0.17990643662E+02  0.72778682137E+02  0.10344033110E+03  0.12783736516E+03  0.47000000000E+01 0.  1.
         13    1    4    4    0    0 -0.40986691234E+02 -0.36845281330E+02  0.37635652746E+02  0.66737740240E+02  0.00000000000E+00 0. -1.
        -14    1    4    4    0    0 -0.28552176709E+02  0.42258929886E+01 -0.11550214390E+02  0.31088461184E+02  0.00000000000E+00 0.  1.
</event>
<event>
12    1  0.8724767E-002  0.2010153E+03  0.7818608E-02  0.1149342E+00
         21   -1    0    0  501  502  0.00000000000E+00  0.00000000000E+00  0.62072822226E+03  0.62072822226E+03  0.00000000000E+00 0.  1.
         21   -1    0    0  502  503 -0.00000000000E+00 -0.00000000000E+00 -0.14270134246E+03  0.14270134246E+03  0.00000000000E+00 0.  1.
         -6    2    1    2    0  503 -0.97188820291E+02  0.24921262951E+02 -0.44329036795E+02  0.20373066140E+03  0.17168104949E+03 0.  0.
        -24    2    3    3    0    0 -0.77603128208E+02  0.71834218292E+02  0.56440991429E+01  0.13228957358E+03  0.79286032802E+02 0.  0.
          6    2    1    2  501    0  0.97188820291E+02 -0.24921262951E+02  0.52235591659E+03  0.55969890332E+03  0.17418502418E+03 0.  0.
         24    2    5    5    0    0 -0.61916144787E+01  0.85434030065E+01  0.31876411464E+03  0.32887622250E+03  0.80235173829E+02 0.  0.
          5    1    5    5  501    0  0.10338043477E+03 -0.33464665957E+02  0.20359180195E+03  0.23082268082E+03  0.47000000000E+01 0. -1.
        -11    1    6    6    0    0  0.14013646255E+02 -0.31344782103E+02  0.17433858151E+03  0.17768741837E+03  0.00000000000E+00 0.  1.
         12    1    6    6    0    0 -0.20205260734E+02  0.39888185109E+02  0.14442553313E+03  0.15118880413E+03  0.00000000000E+00 0. -1.
         -5    1    3    3    0  503 -0.19585692083E+02 -0.46912955342E+02 -0.49973135938E+02  0.71441087819E+02  0.47000000000E+01 0.  1.
         11    1    4    4    0    0  0.13774464568E+02  0.27157209888E+02  0.89259361493E+00  0.30463858035E+02  0.00000000000E+00 0. -1.
        -12    1    4    4    0    0 -0.91377592776E+02  0.44677008405E+02  0.47515055279E+01  0.10182571555E+03  0.00000000000E+00 0.  1.
</event>
<event>
12    1  0.8724767E-002  0.2588508E+03  0.7818608E-02  0.1108348E+00
         21   -1    0    0  501  502  0.00000000000E+00  0.00000000000E+00  0.33422207495E+03  0.33422207495E+03  0.00000000000E+00 0. -1.
         21   -1    0    0  502  503 -0.00000000000E+00 -0.00000000000E+00 -0.23952906524E+03  0.23952906524E+03  0.00000000000E+00 0. -1.
         -6    2    1    2    0  503 -0.18498574877E+03 -0.38355224350E+02 -0.72538821648E+02  0.26557875804E+03  0.17198646921E+03 0.  0.
        -24    2    3    3    0    0 -0.11844700446E+03 -0.87575493590E+02 -0.71650057395E+02  0.18267568632E+03  0.80854905264E+02 0.  0.
          6    2    1    2  501    0  0.18498574877E+03  0.38355224350E+02  0.16723183136E+03  0.30817238216E+03  0.17695446088E+03 0.  0.
         24    2    5    5    0    0  0.15812650872E+03 -0.32628821367E+02  0.13611210974E+03  0.22600985667E+03  0.80531460603E+02 0.  0.
          5    1    5    5  501    0  0.26859240043E+02  0.70984045717E+02  0.31119721615E+02  0.82162525493E+02  0.47000000000E+01 0. -1.
        -11    1    6    6    0    0  0.30126901877E+02 -0.41080214750E+02  0.27297746143E+02  0.57796031050E+02  0.00000000000E+00 0.  1.
         12    1    6    6    0    0  0.12799960685E+03  0.84513933830E+01  0.10881436360E+03  0.16821382562E+03  0.00000000000E+00 0. -1.
         -5    1    3    3    0  503 -0.66538744306E+02  0.49220269240E+02 -0.88876425314E+00  0.82903071715E+02  0.47000000000E+01 0.  1.
         11    1    4    4    0    0 -0.61365002522E+02  0.23595801498E+01 -0.23080107718E+02  0.65604287400E+02  0.00000000000E+00 0. -1.
        -12    1    4    4    0    0 -0.57082001938E+02 -0.89935073740E+02 -0.48569949678E+02  0.11707139892E+03  0.00000000000E+00 0.  1.
</event>
<event>
12    1  0.8724767E-002  0.3689280E+03  0.7818608E-02  0.1055155E+00
         21   -1    0    0  501  502  0.00000000000E+00  0.00000000000E+00  0.31777968749E+03  0.31777968749E+03  0.00000000000E+00 0. -1.
         21   -1    0    0  502  503 -0.00000000000E+00 -0.00000000000E+00 -0.56755737070E+03  0.56755737070E+03  0.00000000000E+00 0.  1.
         -6    2    1    2    0  503 -0.26569558437E+03 -0.18856299231E+03 -0.34457399237E+03  0.50442467594E+03  0.17193857000E+03 0.  0.
        -24    2    3    3    0    0 -0.16864930852E+03 -0.16223437444E+03 -0.31370923910E+03  0.39913508116E+03  0.78311843282E+02 0.  0.
          6    2    1    2  501    0  0.26569558437E+03  0.18856299231E+03  0.94796309165E+02  0.38091238225E+03  0.17308309305E+03 0.  0.
         24    2    5    5    0    0  0.86665379791E+02  0.15738567759E+02  0.28069262504E+02  0.12324072174E+03  0.81497247985E+02 0.  0.
          5    1    5    5  501    0  0.17903020458E+03  0.17282442455E+03  0.66727046660E+02  0.25767166051E+03  0.47000000000E+01 0. -1.
        -13    1    6    6    0    0  0.52327839949E+02  0.16183395554E+01  0.56089930682E+02  0.76726150565E+02  0.00000000000E+00 0.  1.
         14    1    6    6    0    0  0.34337539842E+02  0.14120228203E+02 -0.28020668177E+02  0.46514571180E+02  0.00000000000E+00 0. -1.
         -5    1    3    3    0  503 -0.97046275847E+02 -0.26328617868E+02 -0.30864753274E+02  0.10528959478E+03  0.47000000000E+01 0.  1.
         11    1    4    4    0    0 -0.25913912740E+02 -0.58064344647E+02 -0.12721777391E+03  0.14222292709E+03  0.00000000000E+00 0. -1.
        -12    1    4    4    0    0 -0.14273539578E+03 -0.10417002979E+03 -0.18649146519E+03  0.25691215406E+03  0.00000000000E+00 0.  1.
</event>
<event>
12    1  0.8724767E-002  0.1897418E+03  0.7818608E-02  0.1158701E+00
         21   -1    0    0  503  502  0.00000000000E+00  0.00000000000E+00  0.21832975323E+03  0.21832975323E+03  0.00000000000E+00 0.  1.
         21   -1    0    0  501  503 -0.00000000000E+00 -0.00000000000E+00 -0.17429244068E+03  0.17429244068E+03  0.00000000000E+00 0.  1.
          6    2    1    2  501    0  0.71183717074E+02 -0.35370136080E+02 -0.23620845699E+02  0.19120643878E+03  0.17228984235E+03 0.  0.
         24    2    3    3    0    0 -0.23300371013E+02 -0.43242590798E+02 -0.49885358545E+01  0.94467246024E+02  0.80537855280E+02 0.  0.
         -6    2    1    2    0  502 -0.71183717074E+02  0.35370136080E+02  0.67658158249E+02  0.20141575514E+03  0.17225710997E+03 0.  0.
        -24    2    5    5    0    0  0.33577438569E+00  0.46775603941E+01  0.90815518684E+02  0.12008049093E+03  0.78421129504E+02 0.  0.
          5    1    3    3  501    0  0.94484088087E+02  0.78724547179E+01 -0.18632309844E+02  0.96739192756E+02  0.47000000000E+01 0. -1.
        -13    1    4    4    0    0  0.24702721709E+02 -0.13058961105E+02 -0.21670123493E+02  0.35360361666E+02  0.00000000000E+00 0.  1.
         14    1    4    4    0    0 -0.48003092722E+02 -0.30183629693E+02  0.16681587638E+02  0.59106884358E+02  0.00000000000E+00 0. -1.
         -5    1    5    5    0  502 -0.71519491460E+02  0.30692575686E+02 -0.23157360436E+02  0.81335264204E+02  0.47000000000E+01 0.  1.
         11    1    6    6    0    0  0.24497471523E+02 -0.14112140435E+02  0.46643994479E+01  0.28653712515E+02  0.00000000000E+00 0. -1.
        -12    1    6    6    0    0 -0.24161697138E+02  0.18789700829E+02  0.86151119237E+02  0.91426778416E+02  0.00000000000E+00 0.  1.
</event>
<event>
12    1  0.8724767E-002  0.1832256E+03  0.7818608E-02  0.1164994E+00
         21   -1    0    0  503  502  0.00000000000E+00  0.00000000000E+00  0.37110849975E+03  0.37110849975E+03  0.00000000000E+00 0.  1.
         21   -1    0    0  501  503 -0.00000000000E+00 -0.00000000000E+00 -0.11735880771E+03  0.11735880771E+03  0.00000000000E+00 0.  1.
          6    2    1    2  501    0 -0.62177076300E+02 -0.11462648519E+02  0.84020721093E+01  0.18225320629E+03  0.17072860117E+03 0.  0.
         24    2    3    3    0    0 -0.73092940590E+02  0.51186165952E+02  0.34630148465E+02  0.11330371726E+03  0.60629065752E+02 0.  0.
         -6    2    1    2    0  502  0.62177076300E+02  0.11462648519E+02  0.24534761993E+03  0.30621410117E+03  0.17197162562E+03 0.  0.
        -24    2    5    5    0    0 -0.14163424265E+02 -0.15620333703E+02  0.55140427088E+02  0.99423806028E+02  0.80000181836E+02 0.  0.
          5    1    3    3  501    0  0.10915864289E+02 -0.62648814471E+02 -0.26228076356E+02  0.68949489027E+02  0.47000000000E+01 0. -1.
        -13    1    4    4    0    0 -0.35964116008E+02  0.52811519280E+02  0.21245072036E+01  0.63929552945E+02  0.00000000000E+00 0.  1.
         14    1    4    4    0    0 -0.37128824582E+02 -0.16253533282E+01  0.32505641262E+02  0.49374164318E+02  0.00000000000E+00 0. -1.
         -5    1    5    5    0  502  0.76340500565E+02  0.27082982222E+02  0.19020719285E+03  0.20679029514E+03  0.47000000000E+01 0.  1.
         11    1    6    6    0    0 -0.34427623064E+02 -0.33024897245E+02  0.54871070613E+02  0.72709968079E+02  0.00000000000E+00 0. -1.
        -12    1    6    6    0    0  0.20264198799E+02  0.17404563542E+02  0.26935647528E+00  0.26713837949E+02  0.00000000000E+00 0.  1.
</event>
<event>
12    1  0.8724767E-002  0.1848299E+03  0.7818608E-02  0.1163412E+00
         21   -1    0    0  503  502  0.00000000000E+00  0.00000000000E+00  0.65592257190E+02  0.65592257190E+02  0.00000000000E+00 0. -1.
         21   -1    0    0  501  503 -0.00000000000E+00 -0.00000000000E+00 -0.54780589653E+03  0.54780589653E+03  0.00000000000E+00 0.  1.
          6    2    1    2  501    0 -0.50208772526E+01  0.68808381503E+02 -0.31164249357E+03  0.36188948704E+03  0.17053783878E+03 0.  0.
         24    2    3    3    0    0 -0.52684167040E+02  0.41351626353E+02 -0.10399658156E+03  0.14703005072E+03  0.79479358214E+02 0.  0.
         -6    2    1    2    0  502  0.50208772526E+01 -0.68808381503E+02 -0.17057114577E+03  0.25150866669E+03  0.17147096277E+03 0.  0.
        -24    2    5    5    0    0 -0.50000369032E+02 -0.81537672785E+02 -0.96257390940E+02  0.15805281317E+03  0.81035655445E+02 0.  0.
          5    1    3    3  501    0  0.47663289787E+02  0.27456755150E+02 -0.20764591201E+03  0.21485943631E+03  0.47000000000E+01 0. -1.
        -13    1    4    4    0    0 -0.30823101079E+02 -0.21064777987E+02 -0.44348365713E+02  0.57970388762E+02  0.00000000000E+00 0.  1.
         14    1    4    4    0    0 -0.21861065960E+02  0.62416404340E+02 -0.59648215843E+02  0.89059661963E+02  0.00000000000E+00 0. -1.
         -5    1    5    5    0  502  0.55021246284E+02  0.12729291282E+02 -0.74313754834E+02  0.93455853518E+02  0.47000000000E+01 0.  1.
         11    1    6    6    0    0 -0.62141690788E+01 -0.17530726067E+01  0.13802632109E+02  0.15238169642E+02  0.00000000000E+00 0. -1.
        -12    1    6    6    0    0 -0.43786199953E+02 -0.79784600179E+02 -0.11006002305E+03  0.14281464353E+03  0.00000000000E+00 0.  1.
</event>
<event>
12    1  0.8724767E-002  0.2421846E+03  0.7818608E-02  0.1118659E+00
         21   -1    0    0  501  502  0.00000000000E+00  0.00000000000E+00  0.60535645114E+02  0.60535645114E+02  0.00000000000E+00 0.  1.
         21   -1    0    0  502  503 -0.00000000000E+00 -0.00000000000E+00 -0.98800757959E+03  0.98800757959E+03  0.00000000000E+00 0.  1.
         -6    2    1    2    0  503 -0.85454476517E+01  0.16843302176E+03 -0.37583111029E+03  0.44608080857E+03  0.17116178553E+03 0.  0.
        -24    2    3    3    0    0 -0.52578976023E+02  0.36074471386E+02 -0.17733627815E+03  0.20342874107E+03  0.76610579829E+02 0.  0.
          6    2    1    2  501    0  0.85454476517E+01 -0.16843302176E+03 -0.55164082418E+03  0.60246241613E+03  0.17381212973E+03 0.  0.
         24    2    5    5    0    0 -0.49707980166E+02 -0.55803242998E+02 -0.32537667630E+03  0.34304675828E+03  0.78906347448E+02 0.  0.
          5    1    5    5  501    0  0.58253427817E+02 -0.11262977876E+03 -0.22626414789E+03  0.25941565785E+03  0.47000000000E+01 0. -1.
        -11    1    6    6    0    0 -0.18872804672E+02 -0.36919111104E+02 -0.28826864589E+03  0.29123532705E+03  0.00000000000E+00 0.  1.
         12    1    6    6    0    0 -0.30835175494E+02 -0.18884131894E+02 -0.37108030408E+02  0.51811431228E+02  0.00000000000E+00 0. -1.
         -5    1    3    3    0  503  0.44033528371E+02  0.13235855037E+03 -0.19849483214E+03  0.24265206750E+03  0.47000000000E+01 0.  1.
         13    1    4    4    0    0 -0.58043568521E+02  0.30554932912E+02 -0.18261452730E+03  0.19403794823E+03  0.00000000000E+00 0. -1.
        -14    1    4    4    0    0  0.54645924982E+01  0.55195384741E+01  0.52782491515E+01  0.93907928442E+01  0.00000000000E+00 0.  1.
</event>
<event>
12    1  0.8724767E-002  0.1743077E+03  0.7818608E-02  0.1173977E+00
         21   -1    0    0  501  502  0.00000000000E+00  0.00000000000E+00  0.55347207451E+02  0.55347207451E+02  0.00000000000E+00 0.  1.
         21   -1    0    0  502  503 -0.00000000000E+00 -0.00000000000E+00 -0.97314879555E+03  0.97314879555E+03  0.00000000000E+00 0.  1.
         -6    2    1    2    0  503  0.75872186368E+01  0.22748088488E+01 -0.80271064303E+03  0.82141802191E+03  0.17412768203E+03 0.  0.
        -24    2    3    3    0    0 -0.32056080830E+01 -0.25495436857E+02 -0.77706568533E+03  0.78182729686E+03  0.82234722392E+02 0.  0.
          6    2    1    2  501    0 -0.75872186368E+01 -0.22748088488E+01 -0.11509094507E+03  0.20707798109E+03  0.17196692698E+03 0.  0.
         24    2    5    5    0    0  0.99964846685E+01 -0.63080185361E+02 -0.41294120427E+02  0.10974072326E+03  0.79112467212E+02 0.  0.
          5    1    5    5  501    0 -0.17583703305E+02  0.60805376513E+02 -0.73796824647E+02  0.97337257834E+02  0.47000000000E+01 0. -1.
        -13    1    6    6    0    0 -0.21695869062E+02 -0.28264941587E+02  0.12952751973E+02  0.37912945559E+02  0.00000000000E+00 0.  1.
         14    1    6    6    0    0  0.31692353730E+02 -0.34815243775E+02 -0.54246872400E+02  0.71827777699E+02  0.00000000000E+00 0. -1.
         -5    1    3    3    0  503  0.10792826720E+02  0.27770245705E+02 -0.25644957698E+02  0.39590725056E+02  0.47000000000E+01 0.  1.
         11    1    4    4    0    0 -0.30637383170E+02  0.17279166095E+02 -0.29422851053E+03  0.29632353136E+03  0.00000000000E+00 0. -1.
        -12    1    4    4    0    0  0.27431775087E+02 -0.42774602951E+02 -0.48283717480E+03  0.48550376550E+03  0.00000000000E+00 0.  1.
</event>
<event>
12    1  0.8724767E-002  0.1899973E+03  0.7818608E-02  0.1158847E+00
         21   -1    0    0  503  502  0.00000000000E+00  0.00000000000E+00  0.68043031676E+03  0.68043031676E+03  0.00000000000E+00 0.  1.
         21   -1    0    0  501  503 -0.00000000000E+00 -0.00000000000E+00 -0.55867707646E+02  0.55867707646E+02  0.00000000000E+00 0. -1.
          6    2    1    2  501    0 -0.80428000400E+02 -0.17253620652E+02  0.22169458012E+03  0.29087503877E+03  0.16939141256E+03 0.  0.
         24    2    3    3    0    0 -0.11851358703E+02  0.36209430778E+02  0.16360596853E+03  0.18619729303E+03  0.80317752804E+02 0.  0.
         -6    2    1    2    0  502  0.80428000400E+02  0.17253620652E+02  0.40286802899E+03  0.44542298564E+03  0.17126773391E+03 0.  0.
        -24    2    5    5    0    0  0.15254419313E+02  0.37661294610E+02  0.10779762868E+03  0.14251590424E+03  0.83901035690E+02 0.  0.
          5    1    3    3  501    0 -0.68576641697E+02 -0.53463051429E+02  0.58088611598E+02  0.10467774573E+03  0.47000000000E+01 0. -1.
        -13    1    4    4    0    0 -0.29538475813E+02 -0.15431666919E+02  0.49046596119E+02  0.59297778104E+02  0.00000000000E+00 0.  1.
         14    1    4    4    0    0  0.17687117110E+02  0.51641097697E+02  0.11455937241E+03  0.12689951493E+03  0.00000000000E+00 0. -1.
         -5    1    5    5    0  502  0.65173581087E+02 -0.20407673958E+02  0.29507040031E+03  0.30290708140E+03  0.47000000000E+01 0.  1.
         13    1    6    6    0    0 -0.21577704371E+01  0.15942937132E+00 -0.13858035885E+02  0.14025924197E+02  0.00000000000E+00 0. -1.
        -14    1    6    6    0    0  0.17412189750E+02  0.37501865239E+02  0.12165566457E+03  0.12848998004E+03  0.00000000000E+00 0.  1.
</event>
<event>
12    1  0.8724767E-002  0.2177608E+03  0.7818608E-02  0.1136165E+00
         21   -1    0    0  501  502  0.00000000000E+00  0.00000000000E+00  0.94179741039E+02  0.94179741039E+02  0.00000000000E+00 0.  1.
         21   -1    0    0  502  503 -0.00000000000E+00 -0.00000000000E+00 -0.49623004756E+03  0.49623004756E+03  0.00000000000E+00 0. -1.
         -6    2    1    2    0  503  0.49055227281E+02 -0.11843563115E+03 -0.19846744493E+03  0.29230620499E+03  0.17210513278E+03 0.  0.
        -24    2    3    3    0    0  0.68210481943E+02 -0.23593035212E+02 -0.14978332228E+03  0.18388906805E+03  0.78554723316E+02 0.  0.
          6    2    1    2  501    0 -0.49055227281E+02  0.11843563115E+03 -0.20358286159E+03  0.29810358361E+03  0.17602940373E+03 0.  0.
         24    2    5    5    0    0 -0.41674815018E+02  0.12923521327E+03 -0.85682884677E+02  0.17938713144E+03  0.79997847747E+02 0.  0.
          5    1    5    5  501    0 -0.73804122630E+01 -0.10799582121E+02 -0.11789997691E+03  0.11871645217E+03  0.47000000000E+01 0. -1.
        -11    1    6    6    0    0 -0.12392550870E+02  0.16916273204E+02  0.14958817117E+02  0.25758529184E+02  0.00000000000E+00 0.  1.
         12    1    6    6    0    0 -0.29282264148E+02  0.11231894007E+03 -0.10064170179E+03  0.15362860226E+03  0.00000000000E+00 0. -1.
         -5    1    3    3    0  503 -0.19155254662E+02 -0.94842595937E+02 -0.48684122645E+02  0.10841713694E+03  0.47000000000E+01 0.  1.
         13    1    4    4    0    0  0.68985599678E+02 -0.45464110472E+02 -0.10148086900E+03  0.13086009735E+03  0.00000000000E+00 0. -1.
        -14    1    4    4    0    0 -0.77511773442E+00  0.21871075260E+02 -0.48302453283E+02  0.53028970702E+02  0.00000000000E+00 0.  1.
</event>
<event>
12    1  0.8724767E-002  0.2096716E+03  0.7818608E-02  0.1141873E+00
         21   -1    0    0  503  502  0.00000000000E+00  0.00000000000E+00  0.60411923841E+02  0.60411923841E+02  0.00000000000E+00 0. -1.
         21   -1    0    0  501  503 -0.00000000000E+00 -0.00000000000E+00 -0.72703530853E+03  0.72703530853E+03  0.00000000000E+00 0. -1.
          6    2    1    2  501    0  0.11089445465E+03  0.45676411612E+02 -0.32781731459E+03  0.38913542089E+03  0.17198334045E+03 0.  0.
         24    2    3    3    0    0  0.23519656388E+02  0.53772049804E+02 -0.25304058690E+03  0.27375109035E+03  0.86403201739E+02 0.  0.
         -6    2    1    2    0  502 -0.11089445465E+03 -0.45676411612E+02 -0.33880607010E+03  0.39831181149E+03  0.17169400508E+03 0.  0.
        -24    2    5    5    0    0 -0.14092227149E+03 -0.63665947534E+02 -0.28145625288E+03  0.33095912244E+03  0.80024239860E+02 0.  0.
          5    1    3    3  501    0  0.87374798265E+02 -0.80956381920E+01 -0.74776727686E+02  0.11538433054E+03  0.47000000000E+01 0. -1.
        -11    1    4    4    0    0  0.16557185296E+02  0.66420009711E+02 -0.10715786786E+03  0.12715567907E+03  0.00000000000E+00 0.  1.
         12    1    4    4    0    0  0.69624710924E+01 -0.12647959907E+02 -0.14588271904E+03  0.14659541128E+03  0.00000000000E+00 0. -1.
         -5    1    5    5    0  502  0.30027816833E+02  0.17989535922E+02 -0.57349817223E+02  0.67352689047E+02  0.47000000000E+01 0.  1.
         13    1    6    6    0    0 -0.13527199273E+03 -0.50217757539E+02 -0.19122576341E+03  0.23955714930E+03  0.00000000000E+00 0. -1.
        -14    1    6    6    0    0 -0.56502787597E+01 -0.13448189994E+02 -0.90230489469E+02  0.91401973140E+02  0.00000000000E+00 0.  1.
</event>
<event>
12    1  0.8724767E-002  0.1955464E+03  0.7818608E-02  0.1154077E+00
         21   -1    0    0  503  502  0.00000000000E+00  0.00000000000E+00  0.26797567389E+02  0.26797567389E+02  0.00000000000E+00 0.  1.
         21   -1    0    0  501  503 -0.00000000000E+00 -0.00000000000E+00 -0.16014989717E+04  0.16014989717E+04  0.00000000000E+00 0.  1.
          6    2    1    2  501    0  0.81970444870E+02 -0.45217198039E+02 -0.10649899874E+04  0.10823623616E+04  0.16894040335E+03 0.  0.
         24    2    3    3    0    0 -0.11485816758E+02  0.77701110297E+01 -0.57756083755E+03  0.58321208983E+03  0.79796754589E+02 0.  0.
         -6    2    1    2    0  502 -0.81970444870E+02  0.45217198039E+02 -0.50971141692E+03  0.54593417742E+03  0.17168182404E+03 0.  0.
        -24    2    5    5    0    0 -0.82465769332E+02  0.73196558715E+02 -0.25819474063E+03  0.29282191295E+03  0.83197411608E+02 0.  0.
          5    1    3    3  501    0  0.93456261627E+02 -0.52987309069E+02 -0.48742914981E+03  0.49915027180E+03  0.47000000000E+01 0. -1.
        -13    1    4    4    0    0  0.22957421628E+02  0.28588413610E+02 -0.36796952925E+03  0.36979171849E+03  0.00000000000E+00 0.  1.
         14    1    4    4    0    0 -0.34443238385E+02 -0.20818302581E+02 -0.20959130829E+03  0.21342037135E+03  0.00000000000E+00 0. -1.
         -5    1    5    5    0  502  0.49532446278E+00 -0.27979360676E+02 -0.25151667630E+03  0.25311226447E+03  0.47000000000E+01 0.  1.
         13    1    6    6    0    0  0.80460071079E+01 -0.95987801037E+01 -0.46472774666E+02  0.48131004509E+02  0.00000000000E+00 0. -1.
        -14    1    6    6    0    0 -0.90511776440E+02  0.82795338819E+02 -0.21172196596E+03  0.24469090844E+03  0.00000000000E+00 0.  1.
</event>
<event>
12    1  0.8724767E-002  0.1837860E+03  0.7818608E-02  0.1164225E+00
         21   -1    0    0  501  502  0.00000000000E+00  0.00000000000E+00  0.23214224664E+03  0.23214224664E+03  0.00000000000E+00 0. -1.
         21   -1    0    0  502  503 -0.00000000000E+00 -0.00000000000E+00 -0.24922649313E+03  0.24922649313E+03  0.00000000000E+00 0. -1.
         -6    2    1    2    0  503 -0.39263409935E+02 -0.51452129608E+02 -0.16390615003E+03  0.24625705499E+03  0.17201271497E+03 0.  0.
        -24    2    3    3    0    0  0.12436564875E+02 -0.87984060507E+02 -0.10614441698E+03  0.16043178379E+03  0.81091657678E+02 0.  0.
          6    2    1    2  501    0  0.39263409935E+02  0.51452129608E+02  0.14682190355E+03  0.23511168478E+03  0.17184846801E+03 0.  0.
         24    2    5    5    0    0  0.72392919467E+02  0.15258526565E+02  0.48164231407E+02  0.12482583992E+03  0.88250437415E+02 0.  0.
          5    1    5    5  501    0 -0.33129509532E+02  0.36193603043E+02  0.98657672140E+02  0.11028584485E+03  0.47000000000E+01 0. -1.
        -13    1    6    6    0    0  0.25433159964E+02 -0.54585807026E+01  0.65639537044E+02  0.70605881854E+02  0.00000000000E+00 0.  1.
         14    1    6    6    0    0  0.46959759503E+02  0.20717107268E+02 -0.17475305636E+02  0.54219958071E+02  0.00000000000E+00 0. -1.
         -5    1    3    3    0  503 -0.51699974809E+02  0.36531930899E+02 -0.57761733056E+02  0.85825271198E+02  0.47000000000E+01 0.  1.
         11    1    4    4    0    0  0.11392703098E+02 -0.10087892909E+02 -0.75009208419E+02  0.76537184524E+02  0.00000000000E+00 0. -1.
        -12    1    4    4    0    0  0.10438617770E+01 -0.77896167597E+02 -0.31135208558E+02  0.83894599264E+02  0.00000000000E+00 0.  1.
</event>
<event>
12    1  0.8724767E-002  0.2313932E+03  0.7818608E-02  0.1126169E+00
         21   -1    0    0  501  502  0.00000000000E+00  0.00000000000E+00  0.28804226962E+04  0.28804226962E+04  0.00000000000E+00 0. -1.
         21   -1    0    0  502  503 -0.00000000000E+00 -0.00000000000E+00 -0.44125969573E+02  0.44125969573E+02  0.00000000000E+00 0.  1.
         -6    2    1    2    0  503 -0.59094560765E+01 -0.15436822946E+03  0.29702742139E+03  0.37475819741E+03  0.16838629854E+03 0.  0.
        -24    2    3    3    0    0 -0.44213571962E+02 -0.62796545386E+02  0.22424031831E+03  0.25158096335E+03  0.84326832667E+02 0.  0.
          6    2    1    2  501    0  0.59094560765E+01  0.15436822946E+03  0.25392693053E+04  0.25497904684E+04  0.17227407249E+03 0.  0.
         24    2    5    5    0    0  0.60236702093E+02  0.95920121489E+02  0.11689002463E+04  0.11770920023E+04  0.79929131852E+02 0.  0.
          5    1    5    5  501    0 -0.54327246017E+02  0.58448107967E+02  0.13703690590E+04  0.13726984661E+04  0.47000000000E+01 0. -1.
        -11    1    6    6    0    0  0.55247215131E+02  0.23946896437E+02  0.36209091693E+03  0.36706340155E+03  0.00000000000E+00 0.  1.
         12    1    6    6    0    0  0.49894869623E+01  0.71973225052E+02  0.80680932937E+03  0.81002860077E+03  0.00000000000E+00 0. -1.
         -5    1    3    3    0  503  0.38304115886E+02 -0.91571684070E+02  0.72787103080E+02  0.12317723407E+03  0.47000000000E+01 0.  1.
         11    1    4    4    0    0  0.12483818567E+02 -0.23323859846E+01  0.10839103585E+03  0.10913249930E+03  0.00000000000E+00 0. -1.
        -12    1    4    4    0    0 -0.56697390529E+02 -0.60464159402E+02  0.11584928246E+03  0.14244846405E+03  0.00000000000E+00 0.  1.
</event>
<event>
12    1  0.8724767E-002  0.1844148E+03  0.7818608E-02  0.1164131E+00
         21   -1    0    0  503  502  0.00000000000E+00  0.00000000000E+00  0.64261122540E+03  0.64261122540E+03  0.00000000000E+00 0.  1.
         21   -1    0    0  501  503 -0.00000000000E+00 -0.00000000000E+00 -0.58037239644E+02  0.58037239644E+02  0.00000000000E+00 0.  1.
          6    2    1    2  501    0 -0.22762142724E+02 -0.56282418269E+02  0.18028700644E+03  0.25628736141E+03  0.17173811802E+03 0.  0.
         24    2    3    3    0    0 -0.19473393943E+02 -0.23907265424E+02  0.15180232605E+02  0.87938606870E+02  0.80944355607E+02 0.  0.
         -6    2    1    2    0  502  0.22762142724E+02  0.56282418269E+02  0.40428697932E+03  0.44436110363E+03  0.17413501379E+03 0.  0.
        -24    2    5    5    0    0  0.25058545186E+02  0.10438478115E+03  0.26357867316E+03  0.29556584765E+03  0.79758009832E+02 0.  0.
          5    1    3    3  501    0 -0.32887487814E+01 -0.32375152845E+02  0.16510677383E+03  0.16834875454E+03  0.47000000000E+01 0. -1.
        -13    1    4    4    0    0 -0.34811011953E+02 -0.47116720334E+02  0.13190116315E+02  0.60048072880E+02  0.00000000000E+00 0.  1.
         14    1    4    4    0    0  0.15337618010E+02  0.23209454910E+02  0.19901162905E+01  0.27890533990E+02  0.00000000000E+00 0. -1.
         -5    1    5    5    0  502 -0.22964024618E+01 -0.48102362883E+02  0.14070830616E+03  0.14879525598E+03  0.47000000000E+01 0.  1.
         11    1    6    6    0    0 -0.14432133670E+02  0.52841256611E+01  0.55268582225E+01  0.16332624654E+02  0.00000000000E+00 0. -1.
        -12    1    6    6    0    0  0.39490678856E+02  0.99100655492E+02  0.25805181493E+03  0.27923322300E+03  0.00000000000E+00 0.  1.
</event>
<event>
12    1  0.8724767E-002  0.2294099E+03  0.7818608E-02  0.1127126E+00
         21   -1    0    0  501  502  0.00000000000E+00  0.00000000000E+00  0.64279712423E+03  0.64279712423E+03  0.00000000000E+00 0.  1.
         21   -1    0    0  502  503 -0.00000000000E+00 -0.00000000000E+00 -0.97444200645E+02  0.97444200645E+02  0.00000000000E+00 0. -1.
         -6    2    1    2    0  503 -0.13012023949E+03 -0.77783244730E+02  0.12386308229E+03  0.26036366547E+03  0.17165565897E+03 0.  0.
        -24    2    3    3    0    0 -0.75502489642E+02 -0.66097661767E+02  0.14114102021E+03  0.20170986264E+03  0.10342414741E+03 0.  0.
          6    2    1    2  501    0  0.13012023949E+03  0.77783244730E+02  0.42148984129E+03  0.47987765941E+03  0.17218412179E+03 0.  0.
         24    2    5    5    0    0  0.81854495851E+02 -0.20538569554E+02  0.18286840165E+03  0.21727712126E+03  0.81526092594E+02 0.  0.
          5    1    5    5  501    0  0.48265743644E+02  0.98321814284E+02  0.23862143965E+03  0.26260053814E+03  0.47000000000E+01 0. -1.
        -11    1    6    6    0    0  0.66355710048E+02  0.43354339381E+01  0.17458695873E+03  0.18682206080E+03  0.00000000000E+00 0.  1.
         12    1    6    6    0    0  0.15498785803E+02 -0.24874003492E+02  0.82814429188E+01  0.30455060465E+02  0.00000000000E+00 0. -1.
         -5    1    3    3    0  503 -0.54617749852E+02 -0.11685582962E+02 -0.17277937914E+02  0.58653802832E+02  0.47000000000E+01 0.  1.
         13    1    4    4    0    0 -0.32341145621E+02 -0.44872792424E+02  0.29542000208E+01  0.55391736728E+02  0.00000000000E+00 0. -1.
        -14    1    4    4    0    0 -0.43161344021E+02 -0.21224869343E+02  0.13818682019E+03  0.14631812591E+03  0.00000000000E+00 0.  1.
</event>
<event>
12    1  0.8724767E-002  0.2376392E+03  0.7818608E-02  0.1123491E+00
         21   -1    0    0  501  502  0.00000000000E+00  0.00000000000E+00  0.20802927613E+04  0.20802927613E+04  0.00000000000E+00 0.  1.
         21   -1    0    0  502  503 -0.00000000000E+00 -0.00000000000E+00 -0.34814252622E+02  0.34814252622E+02  0.00000000000E+00 0.  1.
         -6    2    1    2    0  503  0.54432558831E+02  0.15405585840E+03  0.46396945567E+03  0.51584366392E+03  0.15534129792E+03 0.  0.
        -24    2    3    3    0    0  0.42121752799E+02  0.16621663343E+03  0.45961376531E+03  0.49739095591E+03  0.82162877663E+02 0.  0.
          6    2    1    2  501    0 -0.54432558831E+02 -0.15405585840E+03  0.15815090530E+04  0.15992633500E+04  0.17255801041E+03 0.  0.
         24    2    5    5    0    0 -0.64735468639E+01 -0.80835845122E+01  0.66433876614E+03  0.66930023424E+03  0.80681820805E+02 0.  0.
          5    1    5    5  501    0 -0.47959011967E+02 -0.14597227389E+03  0.91717028683E+03  0.92996311573E+03  0.47000000000E+01 0. -1.
        -13    1    6    6    0    0  0.20402662511E+02 -0.23107357530E+02  0.11379786550E+03  0.11789899406E+03  0.00000000000E+00 0.  1.
         14    1    6    6    0    0 -0.26876209375E+02  0.15023773017E+02  0.55054090064E+03  0.55140124018E+03  0.00000000000E+00 0. -1.
         -5    1    3    3    0  503  0.12310806032E+02 -0.12160775026E+02  0.43556903574E+01  0.18452708009E+02  0.47000000000E+01 0.  1.
         13    1    4    4    0    0 -0.22295304856E+02  0.23908047665E+02  0.59938407900E+02  0.68273626704E+02  0.00000000000E+00 0. -1.
        -14    1    4    4    0    0  0.64417057655E+02  0.14230858576E+03  0.39967535741E+03  0.42911732920E+03  0.00000000000E+00 0.  1.
</event>
<event>
12    1  0.8724767E-002  0.2553217E+03  0.7818608E-02  0.1110215E+00
         21   -1    0    0  501  502  0.00000000000E+00  0.00000000000E+00  0.24377297366E+03  0.24377297366E+03  0.00000000000E+00 0. -1.
         21   -1    0    0  502  503 -0.00000000000E+00 -0.00000000000E+00 -0.29186498253E+03  0.29186498253E+03  0.00000000000E+00 0. -1.
         -6    2    1    2    0  503 -0.60251848123E+02  0.17776418344E+03  0.55942481511E+02  0.25993458264E+03  0.17089773520E+03 0.  0.
        -24    2    3    3    0    0  0.75211084897E+01  0.27302116762E+02 -0.12032781190E+02  0.81399618284E+02  0.75360051626E+02 0.  0.
          6    2    1    2  501    0  0.60251848123E+02 -0.17776418344E+03 -0.10403449038E+03  0.27570337355E+03  0.17308606206E+03 0.  0.
         24    2    5    5    0    0 -0.11985323206E+02 -0.26669678873E+02 -0.51862326997E+02  0.10022749810E+03  0.80628349043E+02 0.  0.
          5    1    5    5  501    0  0.72237171329E+02 -0.15109450457E+03 -0.52172163386E+02  0.17547587545E+03  0.47000000000E+01 0. -1.
        -13    1    6    6    0    0  0.22840256829E+02  0.14492830424E+02 -0.33956452556E+02  0.43413824249E+02  0.00000000000E+00 0.  1.
         14    1    6    6    0    0 -0.34825580035E+02 -0.41162509297E+02 -0.17905874441E+02  0.56813673846E+02  0.00000000000E+00 0. -1.
         -5    1    3    3    0  503 -0.67772956613E+02  0.15046206668E+03  0.67975262701E+02  0.17853496435E+03  0.47000000000E+01 0.  1.
         11    1    4    4    0    0  0.86595970354E+00  0.50412513967E+02 -0.22448368567E+02  0.55191491210E+02  0.00000000000E+00 0. -1.
        -12    1    4    4    0    0  0.66551487861E+01 -0.23110397205E+02  0.10415587376E+02  0.26208127074E+02  0.00000000000E+00 0.  1.
</event>
<event>
12    1  0.8724767E-002  0.1757791E+03  0.7818608E-02  0.1172217E+00
         21   -1    0    0  501  502  0.00000000000E+00  0.00000000000E+00  0.62243920153E+03  0.62243920153E+03  0.00000000000E+00 0.  1.
         21   -1    0    0  502  503 -0.00000000000E+00 -0.00000000000E+00 -0.52929099543E+02  0.52929099543E+02  0.00000000000E+00 0.  1.
         -6    2    1    2    0  503  0.15909104862E+02  0.19823686339E+02  0.19764884679E+03  0.26450586763E+03  0.17393162224E+03 0.  0.
        -24    2    3    3    0    0  0.20366359456E+02 -0.84260127922E+01  0.22255166249E+02  0.86733693783E+02  0.80880497794E+02 0.  0.
          6    2    1    2  501    0 -0.15909104862E+02 -0.19823686339E+02  0.37186125519E+03  0.41086243344E+03  0.17286141253E+03 0.  0.
         24    2    5    5    0    0  0.45834656369E+02  0.85872503923E+01  0.29147207353E+03  0.30548699084E+03  0.78687834670E+02 0.  0.
          5    1    5    5  501    0 -0.61743761231E+02 -0.28410936731E+02  0.80389181657E+02  0.10537544261E+03  0.47000000000E+01 0. -1.
        -11    1    6    6    0    0 -0.12605011133E+02 -0.18371420667E+02  0.12571922149E+03  0.12767818159E+03  0.00000000000E+00 0.  1.
         12    1    6    6    0    0  0.58439667502E+02  0.26958671059E+02  0.16575285205E+03  0.17780880924E+03  0.00000000000E+00 0. -1.
         -5    1    3    3    0  503 -0.44572545947E+01  0.28249699131E+02  0.17539368054E+03  0.17777217385E+03  0.47000000000E+01 0.  1.
         11    1    4    4    0    0  0.42672043167E+02 -0.30050731631E+02  0.90219374871E+01  0.52965508547E+02  0.00000000000E+00 0. -1.
        -12    1    4    4    0    0 -0.22305683711E+02  0.21624718839E+02  0.13233228762E+02  0.33768185236E+02  0.00000000000E+00 0.  1.
</event>
<event>
12    1  0.8724767E-002  0.2502049E+03  0.7818608E-02  0.1113314E+00
         21   -1    0    0  501  502  0.00000000000E+00  0.00000000000E+00  0.12156572013E+04  0.12156572013E+04  0.00000000000E+00 0.  1.
         21   -1    0    0  502  503 -0.00000000000E+00 -0.00000000000E+00 -0.71609062449E+02  0.71609062449E+02  0.00000000000E+00 0. -1.
         -6    2    1    2    0  503 -0.16116272862E+03  0.81511631164E+02  0.22867369499E+03  0.33831270599E+03  0.17189024738E+03 0.  0.
        -24    2    3    3    0    0 -0.15855231391E+03  0.79406404114E+02  0.11702336993E+03  0.22651319198E+03  0.78546443398E+02 0.  0.
          6    2    1    2  501    0  0.16116272862E+03 -0.81511631164E+02  0.91537444386E+03  0.94895355776E+03  0.17316151767E+03 0.  0.
         24    2    5    5    0    0  0.13237580830E+03 -0.40579226437E+02  0.39492225450E+03  0.42608003582E+03  0.80066107575E+02 0.  0.
          5    1    5    5  501    0  0.28786920321E+02 -0.40932404727E+02  0.52045218936E+03  0.52287352194E+03  0.47000000000E+01 0. -1.
        -13    1    6    6    0    0 -0.11725784448E+01 -0.16712373858E+02  0.10073580299E+03  0.10211944176E+03  0.00000000000E+00 0.  1.
         14    1    6    6    0    0  0.13354838674E+03 -0.23866852579E+02  0.29418645151E+03  0.32396059406E+03  0.00000000000E+00 0. -1.
         -5    1    3    3    0  503 -0.26104147059E+01  0.21052270504E+01  0.11165032507E+03  0.11179951401E+03  0.47000000000E+01 0.  1.
         13    1    4    4    0    0 -0.73872948626E+02  0.60176905335E+02  0.99811667909E+02  0.13798855578E+03  0.00000000000E+00 0. -1.
        -14    1    4    4    0    0 -0.84679365287E+02  0.19229498779E+02  0.17211702018E+02  0.88524636204E+02  0.00000000000E+00 0.  1.
</event>
<event>
12    1  0.8724767E-002  0.2379407E+03  0.7818608E-02  0.1121358E+00
         21   -1    0    0  503  502  0.00000000000E+00  0.00000000000E+00  0.14781677382E+03  0.14781677382E+03  0.00000000000E+00 0. -1.
         21   -1    0    0  501  503 -0.00000000000E+00 -0.00000000000E+00 -0.70863659728E+03  0.70863659728E+03  0.00000000000E+00 0. -1.
          6    2    1    2  501    0 -0.69537934996E+02  0.15114809257E+03 -0.57112873491E+03  0.61828950557E+03  0.16856040628E+03 0.  0.
         24    2    3    3    0    0 -0.10852549935E+03  0.96262238902E+02 -0.44881078230E+03  0.47858890200E+03  0.81067972469E+02 0.  0.
         -6    2    1    2    0  502  0.69537934996E+02 -0.15114809257E+03  0.10308911447E+02  0.23816386553E+03  0.17010139005E+03 0.  0.
        -24    2    5    5    0    0  0.77056619738E+02 -0.30289841564E+02  0.17118523583E+02  0.11678961672E+03  0.80570302073E+02 0.  0.
          5    1    3    3  501    0  0.38987564354E+02  0.54885853672E+02 -0.12231795261E+03  0.13970060357E+03  0.47000000000E+01 0. -1.
        -13    1    4    4    0    0 -0.33315987752E+02 -0.11044942915E+02 -0.99322995643E+02  0.10534231471E+03  0.00000000000E+00 0.  1.
         14    1    4    4    0    0 -0.75209511597E+02  0.10730718182E+03 -0.34948778666E+03  0.37324658729E+03  0.00000000000E+00 0. -1.
         -5    1    5    5    0  502 -0.75186847422E+01 -0.12085825101E+03 -0.68096121360E+01  0.12137424881E+03  0.47000000000E+01 0.  1.
         11    1    6    6    0    0  0.78581462504E+02 -0.92677331244E+01 -0.12838332975E+02  0.80160837821E+02  0.00000000000E+00 0. -1.
        -12    1    6    6    0    0 -0.15248427654E+01 -0.21022108439E+02  0.29956856558E+02  0.36628778898E+02  0.00000000000E+00 0.  1.
</event>
<event>
12    1  0.8724767E-002  0.2640379E+03  0.7818608E-02  0.1105972E+00
         21   -1    0    0  503  502  0.00000000000E+00  0.00000000000E+00  0.30308358611E+03  0.30308358611E+03  0.00000000000E+00 0. -1.
         21   -1    0    0  501  503 -0.00000000000E+00 -0.00000000000E+00 -0.29850676703E+03  0.29850676703E+03  0.00000000000E+00 0. -1.
          6    2    1    2  501    0 -0.18526000532E+03  0.42611439485E+02 -0.14903412723E+03  0.30319492764E+03  0.18324570587E+03 0.  0.
         24    2    3    3    0    0 -0.36504444985E+02  0.34250340982E+01  0.25663817006E+01  0.87165773576E+02  0.79037841607E+02 0.  0.
         -6    2    1    2    0  502  0.18526000532E+03 -0.42611439485E+02  0.15361094631E+03  0.29839542550E+03  0.17119142148E+03 0.  0.
        -24    2    5    5    0    0  0.17917255343E+02 -0.33926500462E+02  0.63752499048E+02  0.10819643844E+03  0.78549682897E+02 0.  0.
          5    1    3    3  501    0 -0.14875556033E+03  0.39186405387E+02 -0.15160050893E+03  0.21602915406E+03  0.47000000000E+01 0. -1.
        -11    1    4    4    0    0 -0.72447719496E+01  0.29519123281E+02 -0.24903883101E+02  0.39294640263E+02  0.00000000000E+00 0.  1.
         12    1    4    4    0    0 -0.29259673035E+02 -0.26094089183E+02  0.27470264802E+02  0.47871133313E+02  0.00000000000E+00 0. -1.
         -5    1    5    5    0  502  0.16734274997E+03 -0.86849390232E+01  0.89858447259E+02  0.19019898706E+03  0.47000000000E+01 0.  1.
         11    1    6    6    0    0  0.46552387209E+02 -0.28122548293E+02  0.55789753739E+02  0.77913407701E+02  0.00000000000E+00 0. -1.
        -12    1    6    6    0    0 -0.28635131866E+02 -0.58039521688E+01  0.79627453097E+01  0.30283030738E+02  0.00000000000E+00 0.  1.
</event>
<event>
12    1  0.8724767E-002  0.2802921E+03  0.7818608E-02  0.1095544E+00
         21   -1    0    0  503  502  0.00000000000E+00  0.00000000000E+00  0.20317605992E+03  0.20317605992E+03  0.00000000000E+00 0.  1.
         21   -1    0    0  501  503 -0.00000000000E+00 -0.00000000000E+00 -0.86005411110E+03  0.86005411110E+03  0.00000000000E+00 0. -1.
          6    2    1    2  501    0  0.19716377704E+03 -0.98937837612E+02 -0.72292658789E+03  0.77536218985E+03  0.17292028012E+03 0.  0.
         24    2    3    3    0    0  0.20312484042E+02 -0.19821404027E+02 -0.17953767362E+03  0.19844851168E+03  0.79640131060E+02 0.  0.
         -6    2    1    2    0  502 -0.19716377704E+03  0.98937837612E+02  0.66048536718E+02  0.28786798117E+03  0.17275217709E+03 0.  0.
        -24    2    5    5    0    0 -0.16109759856E+03  0.15821817306E+02  0.97413860962E+01  0.18108957852E+03  0.80596368894E+02 0.  0.
          5    1    3    3  501    0  0.17685129300E+03 -0.79116433584E+02 -0.54338891428E+03  0.57691367817E+03  0.47000000000E+01 0. -1.
        -13    1    4    4    0    0 -0.54834964651E+01 -0.31796822162E+01 -0.16385288815E+03  0.16397544958E+03  0.00000000000E+00 0.  1.
         14    1    4    4    0    0  0.25795980507E+02 -0.16641721811E+02 -0.15684785472E+02  0.34473062099E+02  0.00000000000E+00 0. -1.
         -5    1    5    5    0  502 -0.36066178480E+02  0.83116020306E+02  0.56307150622E+02  0.10677840265E+03  0.47000000000E+01 0.  1.
         11    1    6    6    0    0 -0.12851477171E+03  0.76582967417E+01  0.41092808256E+02  0.13514183271E+03  0.00000000000E+00 0. -1.
        -12    1    6    6    0    0 -0.32582826854E+02  0.81635205642E+01 -0.31351422160E+02  0.45947745812E+02  0.00000000000E+00 0.  1.
</event>
<event>
12    1  0.8724767E-002  0.3594984E+03  0.7818608E-02  0.1059105E+00
         21   -1    0    0  503  502  0.00000000000E+00  0.00000000000E+00  0.21318186095E+03  0.21318186095E+03  0.00000000000E+00 0.  1.
         21   -1    0    0  501  503 -0.00000000000E+00 -0.00000000000E+00 -0.89426227413E+03  0.89426227413E+03  0.00000000000E+00 0. -1.
          6    2    1    2  501    0 -0.31275650952E+03 -0.39176666696E+02 -0.22304354910E+02  0.35696097864E+03  0.16604881981E+03 0.  0.
         24    2    3    3    0    0 -0.24417654001E+03 -0.88489303177E+02 -0.18531529115E+02  0.27227761221E+03  0.79618723118E+02 0.  0.
         -6    2    1    2    0  502  0.31275650952E+03  0.39176666696E+02 -0.65877605827E+03  0.75048315645E+03  0.17288038552E+03 0.  0.
        -24    2    5    5    0    0  0.28316202495E+03  0.53655894900E+01 -0.45709766934E+03  0.54380639186E+03  0.81102346373E+02 0.  0.
          5    1    3    3  501    0 -0.68579969515E+02  0.49312636482E+02 -0.37728257945E+01  0.84683366430E+02  0.47000000000E+01 0. -1.
        -13    1    4    4    0    0 -0.99631105761E+01  0.12762098401E+02  0.18845860255E+01  0.16299889338E+02  0.00000000000E+00 0.  1.
         14    1    4    4    0    0 -0.23421342943E+03 -0.10125140158E+03 -0.20416115141E+02  0.25597772287E+03  0.00000000000E+00 0. -1.
         -5    1    5    5    0  502  0.29594484575E+02  0.33811077206E+02 -0.20167838893E+03  0.20667676459E+03  0.47000000000E+01 0.  1.
         11    1    6    6    0    0  0.22385489452E+03  0.18704292997E+01 -0.28928193761E+03  0.36578484350E+03  0.00000000000E+00 0. -1.
        -12    1    6    6    0    0  0.59307130431E+02  0.34951601903E+01 -0.16781573174E+03  0.17802154837E+03  0.00000000000E+00 0.  1.
</event>
<event>
12    1  0.8724767E-002  0.1933296E+03  0.7818608E-02  0.1155781E+00
         21   -1    0    0  503  502  0.00000000000E+00  0.00000000000E+00  0.72076879348E+03  0.72076879348E+03  0.00000000000E+00 0. -1.
         21   -1    0    0  501  503 -0.00000000000E+00 -0.00000000000E+00 -0.51693308195E+02  0.51693308195E+02  0.00000000000E+00 0. -1.
          6    2    1    2  501    0  0.85441662463E+02  0.11001159756E+02  0.35665429734E+03  0.40506130901E+03  0.17161314941E+03 0.  0.
         24    2    3    3    0    0  0.38929610419E+02 -0.59139002172E+02  0.20841894074E+03  0.23453616645E+03  0.80968033002E+02 0.  0.
         -6    2    1    2    0  502 -0.85441662463E+02 -0.11001159756E+02  0.31242118794E+03  0.36740079266E+03  0.17307524540E+03 0.  0.
        -24    2    5    5    0    0 -0.61483738680E+02  0.18818885534E+02  0.31236017822E+03  0.32886106076E+03  0.80288951737E+02 0.  0.
          5    1    3    3  501    0  0.46512052044E+02  0.70140161928E+02  0.14823535660E+03  0.17052514256E+03  0.47000000000E+01 0. -1.
        -13    1    4    4    0    0 -0.10396610209E+02 -0.57221539564E+02  0.11576530841E+03  0.12955308072E+03  0.00000000000E+00 0.  1.
         14    1    4    4    0    0  0.49326220629E+02 -0.19174626076E+01  0.92653632330E+02  0.10498308572E+03  0.00000000000E+00 0. -1.
         -5    1    5    5    0  502 -0.23957923783E+02 -0.29820045290E+02  0.61009728511E-01  0.38539731904E+02  0.47000000000E+01 0.  1.
         13    1    6    6    0    0  0.24526609521E+00 -0.17527576165E+02  0.15241474644E+02  0.23228831891E+02  0.00000000000E+00 0. -1.
        -14    1    6    6    0    0 -0.61729004775E+02  0.36346461698E+02  0.29711870357E+03  0.30563222886E+03  0.00000000000E+00 0.  1.
</event>
<event>
12    1  0.8724767E-002  0.1778747E+03  0.7818608E-02  0.1170027E+00
         21   -1    0    0  501  502  0.00000000000E+00  0.00000000000E+00  0.18378138402E+03  0.18378138402E+03  0.00000000000E+00 0.  1.
         21   -1    0    0  502  503 -0.00000000000E+00 -0.00000000000E+00 -0.22860787117E+03  0.22860787117E+03  0.00000000000E+00 0.  1.
         -6    2    1    2    0  503 -0.21335766550E+02 -0.31371664683E+02 -0.12544158604E+03  0.21765798395E+03  0.17378150128E+03 0.  0.
        -24    2    3    3    0    0 -0.35778552026E+01 -0.84971853416E+02 -0.59318431581E+02  0.13057936887E+03  0.79367993095E+02 0.  0.
          6    2    1    2  501    0  0.21335766550E+02  0.31371664683E+02  0.80615098888E+02  0.19473127125E+03  0.17315333538E+03 0.  0.
         24    2    5    5    0    0  0.44309079585E+02 -0.35255702576E+02  0.31706020788E+02  0.10881755232E+03  0.87348319048E+02 0.  0.
          5    1    5    5  501    0 -0.22973313035E+02  0.66627367259E+02  0.48909078100E+02  0.85913718929E+02  0.47000000000E+01 0. -1.
        -11    1    6    6    0    0  0.34180326830E+02 -0.64198692687E+01  0.58576042020E+02  0.68122405729E+02  0.00000000000E+00 0.  1.
         12    1    6    6    0    0  0.10128752755E+02 -0.28835833307E+02 -0.26870021232E+02  0.40695146589E+02  0.00000000000E+00 0. -1.
         -5    1    3    3    0  503 -0.17757911347E+02  0.53600188733E+02 -0.66123154463E+02  0.87078615077E+02  0.47000000000E+01 0.  1.
         13    1    4    4    0    0  0.12174244439E+02 -0.99224913512E+01  0.16473297523E+02  0.22760439222E+02  0.00000000000E+00 0. -1.
        -14    1    4    4    0    0 -0.15752099641E+02 -0.75049362065E+02 -0.75791729104E+02  0.10781892965E+03  0.00000000000E+00 0.  1.
</event>
<event>
12    1  0.8724767E-002  0.2784937E+03  0.7818608E-02  0.1096855E+00
         21   -1    0    0  501  502  0.00000000000E+00  0.00000000000E+00  0.38452222445E+03  0.38452222445E+03  0.00000000000E+00 0.  1.
         21   -1    0    0  502  503 -0.00000000000E+00 -0.00000000000E+00 -0.41433888120E+03  0.41433888120E+03  0.00000000000E+00 0.  1.
         -6    2    1    2    0  503  0.20123930151E+03  0.78996904643E+02 -0.30227708956E+03  0.41101116561E+03  0.17555902701E+03 0.  0.
        -24    2    3    3    0    0  0.63708886713E+02  0.89733345047E+02 -0.10908295276E+03  0.17357496230E+03  0.78219444475E+02 0.  0.
          6    2    1    2  501    0 -0.20123930151E+03 -0.78996904643E+02  0.27246043282E+03  0.38784994004E+03  0.17162494319E+03 0.  0.
         24    2    5    5    0    0 -0.28845902229E+02 -0.35154203822E+02  0.62080288664E+02  0.11230763551E+03  0.81799380390E+02 0.  0.
          5    1    5    5  501    0 -0.17239339928E+03 -0.43842700821E+02  0.21038014416E+03  0.27554230453E+03  0.47000000000E+01 0. -1.
        -11    1    6    6    0    0 -0.60110900593E+01  0.21917078060E+02  0.41799818600E+02  0.47578528239E+02  0.00000000000E+00 0.  1.
         12    1    6    6    0    0 -0.22834812169E+02 -0.57071281883E+02  0.20280470064E+02  0.64729107274E+02  0.00000000000E+00 0. -1.
         -5    1    3    3    0  503  0.13753041479E+03 -0.10736440404E+02 -0.19319413681E+03  0.23743620331E+03  0.47000000000E+01 0.  1.
         11    1    4    4    0    0  0.28570665733E+02  0.72259324381E+02 -0.26422742274E+02  0.82072249937E+02  0.00000000000E+00 0. -1.
        -12    1    4    4    0    0  0.35138220979E+02  0.17474020666E+02 -0.82660210483E+02  0.91502712359E+02  0.00000000000E+00 0.  1.
</event>
<event>
12    1  0.8724767E-002  0.2555584E+03  0.7818608E-02  0.1109856E+00
         21   -1    0    0  503  502  0.00000000000E+00  0.00000000000E+00  0.27262127269E+03  0.27262127269E+03  0.00000000000E+00 0.  1.
         21   -1    0    0  501  503 -0.00000000000E+00 -0.00000000000E+00 -0.51739913045E+03  0.51739913045E+03  0.00000000000E+00 0. -1.
          6    2    1    2  501    0  0.41389478450E+02  0.18409056097E+03 -0.41190626799E+03  0.48474414033E+03  0.17235917268E+03 0.  0.
         24    2    3    3    0    0 -0.13605202205E+02  0.22948531324E+02 -0.15875180423E+03  0.17962049139E+03  0.79684684625E+02 0.  0.
         -6    2    1    2    0  502 -0.41389478450E+02 -0.18409056097E+03  0.16712841024E+03  0.30527626281E+03  0.17221866206E+03 0.  0.
        -24    2    5    5    0    0 -0.32704416837E+02 -0.17856885633E+03  0.19340867441E+03  0.27666399616E+03  0.78610661518E+02 0.  0.
          5    1    3    3  501    0  0.54994680655E+02  0.16114202964E+03 -0.25315446376E+03  0.30512364894E+03  0.47000000000E+01 0. -1.
        -11    1    4    4    0    0 -0.79575190440E+01  0.83333158483E+01  0.67664345649E+01  0.13362293930E+02  0.00000000000E+00 0.  1.
         12    1    4    4    0    0 -0.56476831607E+01  0.14615215476E+02 -0.16551823880E+03  0.16625819746E+03  0.00000000000E+00 0. -1.
         -5    1    5    5    0  502 -0.86850616129E+01 -0.55217046368E+01 -0.26280264176E+02  0.28612266643E+02  0.47000000000E+01 0.  1.
         13    1    6    6    0    0  0.23699786973E+01 -0.14065201422E+02  0.60869921267E+02  0.62518749229E+02  0.00000000000E+00 0. -1.
        -14    1    6    6    0    0 -0.35074395534E+02 -0.16450365491E+03  0.13253875315E+03  0.21414524693E+03  0.00000000000E+00 0.  1.
</event>
<event>
12    1  0.8724767E-002  0.2753550E+03  0.7818608E-02  0.1098673E+00
         21   -1    0    0  501  502  0.00000000000E+00  0.00000000000E+00  0.13030161731E+03  0.13030161731E+03  0.00000000000E+00 0. -1.
         21   -1    0    0  502  503 -0.00000000000E+00 -0.00000000000E+00 -0.72107119630E+03  0.72107119630E+03  0.00000000000E+00 0. -1.
         -6    2    1    2    0  503 -0.10727375739E+03 -0.18590803811E+03 -0.48530782370E+03  0.55651258465E+03  0.16766966174E+03 0.  0.
        -24    2    3    3    0    0 -0.10722736257E+03 -0.15685931267E+03 -0.27178627815E+03  0.34097286437E+03  0.79323149167E+02 0.  0.
          6    2    1    2  501    0  0.10727375739E+03  0.18590803811E+03 -0.10546175529E+03  0.29486022896E+03  0.17248453594E+03 0.  0.
         24    2    5    5    0    0  0.36563832786E+02  0.18374793800E+03 -0.78105769745E+02  0.21886681205E+03  0.81865447909E+02 0.  0.
          5    1    5    5  501    0  0.70709924604E+02  0.21601001086E+01 -0.27355985541E+02  0.75993416918E+02  0.47000000000E+01 0. -1.
        -11    1    6    6    0    0 -0.22515281769E+02  0.90712968415E+02 -0.45398242710E+02  0.10390755985E+03  0.00000000000E+00 0.  1.
         12    1    6    6    0    0  0.59079114555E+02  0.93034969583E+02 -0.32707527035E+02  0.11495925220E+03  0.00000000000E+00 0. -1.
         -5    1    3    3    0  503 -0.46394819767E-01 -0.29048725441E+02 -0.21352154555E+03  0.21553972027E+03  0.47000000000E+01 0.  1.
         11    1    4    4    0    0 -0.40575843416E+02 -0.12246210029E+03 -0.19342996074E+03  0.23250487047E+03  0.00000000000E+00 0. -1.
        -12    1    4    4    0    0 -0.66651519155E+02 -0.34397212375E+02 -0.78356317405E+02  0.10846799391E+03  0.00000000000E+00 0.  1.
</event>
<event>
12    1  0.8724767E-002  0.2486547E+03  0.7818608E-02  0.1114186E+00
         21   -1    0    0  501  502  0.00000000000E+00  0.00000000000E+00  0.13511552660E+04  0.13511552660E+04  0.00000000000E+00 0. -1.
         21   -1    0    0  502  503 -0.00000000000E+00 -0.00000000000E+00 -0.46114343619E+02  0.46114343619E+02  0.00000000000E+00 0.  1.
         -6    2    1    2    0  503  0.15194208701E+03  0.94518347226E+02  0.71625787052E+03  0.75813376475E+03  0.17239881786E+03 0.  0.
        -24    2    3    3    0    0  0.13460007943E+03  0.12862030259E+03  0.65566921393E+03  0.68632315345E+03  0.80479744354E+02 0.  0.
          6    2    1    2  501    0 -0.15194208701E+03 -0.94518347226E+02  0.58878305186E+03  0.63913584488E+03  0.17265291853E+03 0.  0.
         24    2    5    5    0    0 -0.84105508298E+02 -0.70851807108E+02  0.18799054339E+03  0.23192750584E+03  0.79725833103E+02 0.  0.
          5    1    5    5  501    0 -0.67836578708E+02 -0.23666540118E+02  0.40079250848E+03  0.40720833904E+03  0.47000000000E+01 0. -1.
        -13    1    6    6    0    0 -0.98762657943E+02 -0.51009468510E+02  0.15453095015E+03  0.19035714601E+03  0.00000000000E+00 0.  1.
         14    1    6    6    0    0  0.14657149645E+02 -0.19842338598E+02  0.33459593236E+02  0.41570359828E+02  0.00000000000E+00 0. -1.
         -5    1    3    3    0  503  0.17342007577E+02 -0.34101955367E+02  0.60588656596E+02  0.71810611296E+02  0.47000000000E+01 0.  1.
         11    1    4    4    0    0  0.75296243963E+02  0.78574108810E+02  0.50778856942E+03  0.51931940669E+03  0.00000000000E+00 0. -1.
        -12    1    4    4    0    0  0.59303835465E+02  0.50046193784E+02  0.14788064451E+03  0.16700374676E+03  0.00000000000E+00 0.  1.
</event>
<event>
12    1  0.8724767E-002  0.1735499E+03  0.7818608E-02  0.1174226E+00
         21   -1    0    0  503  502  0.00000000000E+00  0.00000000000E+00  0.12731154563E+04  0.12731154563E+04  0.00000000000E+00 0. -1.
         21   -1    0    0  501  503 -0.00000000000E+00 -0.00000000000E+00 -0.42680565889E+02  0.42680565889E+02  0.00000000000E+00 0. -1.
          6    2    1    2  501    0 -0.17867870402E+02  0.18869335769E+02  0.17593385844E+03  0.24712811379E+03  0.17159332579E+03 0.  0.
         24    2    3    3    0    0 -0.44034891432E+02 -0.46887968493E+02  0.10323684266E+03  0.14556196709E+03  0.79955533434E+02 0.  0.
         -6    2    1    2    0  502  0.17867870402E+02 -0.18869335769E+02  0.10545010319E+04  0.10686679084E+04  0.17147407787E+03 0.  0.
        -24    2    5    5    0    0 -0.23988938026E+02 -0.65946954659E+02  0.53959428594E+03  0.54990077208E+03  0.79400225065E+02 0.  0.
          5    1    3    3  501    0  0.26167021031E+02  0.65757304262E+02  0.72697015778E+02  0.10156614670E+03  0.47000000000E+01 0. -1.
        -13    1    4    4    0    0 -0.55534740053E+02 -0.37445411787E+02  0.34711559608E+02  0.75439767942E+02  0.00000000000E+00 0.  1.
         14    1    4    4    0    0  0.11499848621E+02 -0.94425567062E+01  0.68525283053E+02  0.70122199146E+02  0.00000000000E+00 0. -1.
         -5    1    5    5    0  502  0.41856808428E+02  0.47077618890E+02  0.51490674598E+03  0.51876713627E+03  0.47000000000E+01 0.  1.
         13    1    6    6    0    0 -0.30685438608E+02 -0.25622014899E+02  0.90328200581E+02  0.98778882411E+02  0.00000000000E+00 0. -1.
        -14    1    6    6    0    0  0.66965005817E+01 -0.40324939760E+02  0.44926608536E+03  0.45112188967E+03  0.00000000000E+00 0.  1.
</event>
<event>
12    1  0.8724767E-002  0.1744660E+03  0.7818608E-02  0.1173456E+00
         21   -1    0    0  501  502  0.00000000000E+00  0.00000000000E+00  0.11504039007E+04  0.11504039007E+04  0.00000000000E+00 0. -1.
         21   -1    0    0  502  503 -0.00000000000E+00 -0.00000000000E+00 -0.30125889154E+02  0.30125889154E+02  0.00000000000E+00 0. -1.
         -6    2    1    2    0  503  0.37856830977E+01 -0.27928581216E+02  0.76816125232E+03  0.78756083403E+03  0.17142351264E+03 0.  0.
        -24    2    3    3    0    0  0.12474438140E+01 -0.79029767880E+02  0.63289909624E+03  0.64286904157E+03  0.80449227855E+02 0.  0.
          6    2    1    2  501    0 -0.37856830977E+01  0.27928581216E+02  0.35211675920E+03  0.39296895580E+03  0.17217447856E+03 0.  0.
         24    2    5    5    0    0  0.21190218872E+01 -0.27025604639E+02  0.31486522206E+03  0.32615133010E+03  0.80620769703E+02 0.  0.
          5    1    5    5  501    0 -0.59047049849E+01  0.54954185854E+02  0.37251537142E+02  0.66817625693E+02  0.47000000000E+01 0. -1.
        -11    1    6    6    0    0  0.15498084980E+02 -0.38978686893E+02  0.77624198038E+02  0.88232900842E+02  0.00000000000E+00 0.  1.
         12    1    6    6    0    0 -0.13379063093E+02  0.11953082255E+02  0.23724102402E+03  0.23791842926E+03  0.00000000000E+00 0. -1.
         -5    1    3    3    0  503  0.25382392836E+01  0.51101186664E+02  0.13526215608E+03  0.14469179246E+03  0.47000000000E+01 0.  1.
         11    1    4    4    0    0 -0.37548310956E+02 -0.56488733649E+02  0.39280248890E+03  0.39861591536E+03  0.00000000000E+00 0. -1.
        -12    1    4    4    0    0  0.38795754770E+02 -0.22541034231E+02  0.24009660734E+03  0.24425312622E+03  0.00000000000E+00 0.  1.
</event>
<event>
12    1  0.8724767E-002  0.2042145E+03  0.7818608E-02  0.1146267E+00
         21   -1    0    0  503  502  0.00000000000E+00  0.00000000000E+00  0.27427532403E+03  0.27427532403E+03  0.00000000000E+00 0.  1.
         21   -1    0    0  501  503 -0.00000000000E+00 -0.00000000000E+00 -0.18152614296E+03  0.18152614296E+03  0.00000000000E+00 0.  1.
          6    2    1    2  501    0  0.36897473337E+02  0.10333324441E+03  0.13839466555E+03  0.24654782998E+03  0.17202780612E+03 0.  0.
         24    2    3    3    0    0 -0.35143987363E+02  0.56144078342E+02  0.30654004617E+02  0.10853721636E+03  0.80333068879E+02 0.  0.
         -6    2    1    2    0  502 -0.36897473337E+02 -0.10333324441E+03 -0.45645484473E+02  0.20925363701E+03  0.17223353742E+03 0.  0.
        -24    2    5    5    0    0 -0.84627563117E+01 -0.43495367991E+02  0.40365383500E+02  0.10058411969E+03  0.80773359883E+02 0.  0.
          5    1    3    3  501    0  0.72041460700E+02  0.47189166071E+02  0.10774066093E+03  0.13801061362E+03  0.47000000000E+01 0. -1.
        -11    1    4    4    0    0 -0.73504260785E+01  0.70926982568E+02  0.13122271868E+02  0.72504204283E+02  0.00000000000E+00 0.  1.
         12    1    4    4    0    0 -0.27793561285E+02 -0.14782904225E+02  0.17531732749E+02  0.36033012078E+02  0.00000000000E+00 0. -1.
         -5    1    5    5    0  502 -0.28434717026E+02 -0.59837876422E+02 -0.86010867972E+02  0.10866951733E+03  0.47000000000E+01 0.  1.
         13    1    6    6    0    0 -0.48521101152E+01  0.13080663612E+02 -0.15595629661E+02  0.20925352987E+02  0.00000000000E+00 0. -1.
        -14    1    6    6    0    0 -0.36106461965E+01 -0.56576031603E+02  0.55961013161E+02  0.79658766698E+02  0.00000000000E+00 0.  1.
</event>
<event>
12    1  0.8724767E-002  0.2541918E+03  0.7818608E-02  0.1110688E+00
         21   -1    0    0  501  502  0.00000000000E+00  0.00000000000E+00  0.56899595518E+02  0.56899595518E+02  0.00000000000E+00 0.  1.
         21   -1    0    0  502  503 -0.00000000000E+00 -0.00000000000E+00 -0.15410034788E+04  0.15410034788E+04  0.00000000000E+00 0. -1.
         -6    2    1    2    0  503  0.55855428712E+02 -0.17907910413E+03 -0.33216930559E+03  0.41825619359E+03  0.17150114124E+03 0.  0.
        -24    2    3    3    0    0  0.74008193921E+02 -0.57560452419E+02 -0.11930427285E+03  0.17243121976E+03  0.81906028933E+02 0.  0.
          6    2    1    2  501    0 -0.55855428712E+02  0.17907910413E+03 -0.11519345777E+04  0.11796468808E+04  0.17153523684E+03 0.  0.
         24    2    5    5    0    0  0.35744050839E+02  0.69012138043E+02 -0.46919132864E+03  0.48203263503E+03  0.78578915704E+02 0.  0.
          5    1    5    5  501    0 -0.91599479551E+02  0.11006696609E+03 -0.68274324909E+03  0.69761424573E+03  0.47000000000E+01 0. -1.
        -13    1    6    6    0    0  0.50503952498E+01  0.69440479114E+02 -0.40425026087E+03  0.41020209659E+03  0.00000000000E+00 0.  1.
         14    1    6    6    0    0  0.30693655589E+02 -0.42834107105E+00 -0.64941067774E+02  0.71830538443E+02  0.00000000000E+00 0. -1.
         -5    1    3    3    0  503 -0.18152765208E+02 -0.12151865171E+03 -0.21286503273E+03  0.24582497383E+03  0.47000000000E+01 0.  1.
         13    1    4    4    0    0  0.87737944507E+01  0.14974717916E+02 -0.49556484223E+02  0.52507778227E+02  0.00000000000E+00 0. -1.
        -14    1    4    4    0    0  0.65234399470E+02 -0.72535170335E+02 -0.69747788632E+02  0.11992344153E+03  0.00000000000E+00 0.  1.
</event>
<event>
12    1  0.8724767E-002  0.2176208E+03  0.7818608E-02  0.1135837E+00
         21   -1    0    0  503  502  0.00000000000E+00  0.00000000000E+00  0.97287037317E+02  0.97287037317E+02  0.00000000000E+00 0.  1.
         21   -1    0    0  501  503 -0.00000000000E+00 -0.00000000000E+00 -0.69893787054E+03  0.69893787054E+03  0.00000000000E+00 0.  1.
          6    2    1    2  501    0  0.11384177441E+03  0.67904173187E+02 -0.52074985988E+03  0.56405299696E+03  0.17147723023E+03 0.  0.
         24    2    3    3    0    0  0.67748256198E+02 -0.57441875644E+01 -0.41144342367E+03  0.42434372577E+03  0.78479836948E+02 0.  0.
         -6    2    1    2    0  502 -0.11384177441E+03 -0.67904173187E+02 -0.80900973347E+02  0.23217191089E+03  0.17259172165E+03 0.  0.
        -24    2    5    5    0    0 -0.14899102415E+03 -0.68304466324E+02 -0.67559605088E+02  0.19428111915E+03  0.79479730873E+02 0.  0.
          5    1    3    3  501    0  0.46093518212E+02  0.73648360752E+02 -0.10930643621E+03  0.13970927120E+03  0.47000000000E+01 0. -1.
        -13    1    4    4    0    0  0.74598792514E+02 -0.20905359251E+02 -0.24230253364E+03  0.25438657924E+03  0.00000000000E+00 0.  1.
         14    1    4    4    0    0 -0.68505363152E+01  0.15161171686E+02 -0.16914089003E+03  0.16995714653E+03  0.00000000000E+00 0. -1.
         -5    1    5    5    0  502  0.35149249742E+02  0.40029313694E+00 -0.13341368259E+02  0.37890791745E+02  0.47000000000E+01 0.  1.
         11    1    6    6    0    0 -0.10869455424E+01  0.22620523552E+01  0.11896862564E+02  0.12158687032E+02  0.00000000000E+00 0. -1.
        -12    1    6    6    0    0 -0.14790407861E+03 -0.70566518679E+02 -0.79456467652E+02  0.18212243212E+03  0.00000000000E+00 0.  1.
</event>
<event>
12    1  0.8724767E-002  0.1712638E+03  0.7818608E-02  0.1176785E+00
         21   -1    0    0  501  502  0.00000000000E+00  0.00000000000E+00  0.23962646046E+04  0.23962646046E+04  0.00000000000E+00 0. -1.
         21   -1    0    0  502  503 -0.00000000000E+00 -0.00000000000E+00 -0.22796103772E+02  0.22796103772E+02  0.00000000000E+00 0. -1.
         -6    2    1    2    0  503 -0.78826715693E+01  0.17629490060E+02  0.36279477641E+03  0.40118741476E+03  0.17017155033E+03 0.  0.
        -24    2    3    3    0    0 -0.87882177101E+01  0.15346683011E+02  0.37693378804E+03  0.38608665744E+03  0.81676637046E+02 0.  0.
          6    2    1    2  501    0  0.78826715693E+01 -0.17629490060E+02  0.20106737244E+04  0.20178732936E+04  0.16920658254E+03 0.  0.
         24    2    5    5    0    0  0.13822365793E+01  0.53986841302E+02  0.10069597526E+04  0.10115756330E+04  0.80005176514E+02 0.  0.
          5    1    5    5  501    0  0.65004349900E+01 -0.71616331361E+02  0.10037139717E+04  0.10062976606E+04  0.47000000000E+01 0. -1.
        -13    1    6    6    0    0  0.97966903537E+00 -0.21194002341E+02  0.20080585268E+03  0.20192358941E+03  0.00000000000E+00 0.  1.
         14    1    6    6    0    0  0.40256754391E+00  0.75180843643E+02  0.80615389996E+03  0.80965204361E+03  0.00000000000E+00 0. -1.
         -5    1    3    3    0  503  0.90554614083E+00  0.22828070483E+01 -0.14139011627E+02  0.15100757320E+02  0.47000000000E+01 0.  1.
         11    1    4    4    0    0  0.79778235735E+01  0.35392103370E+02  0.78133200829E+02  0.86145479984E+02  0.00000000000E+00 0. -1.
        -12    1    4    4    0    0 -0.16766041284E+02 -0.20045420358E+02  0.29880058721E+03  0.29994117746E+03  0.00000000000E+00 0.  1.
</event>
<event>
12    1  0.8724767E-002  0.2074871E+03  0.7818608E-02  0.1143625E+00
         21   -1    0    0  501  502  0.00000000000E+00  0.00000000000E+00  0.12319641907E+03  0.12319641907E+03  0.00000000000E+00 0.  1.
         21   -1    0    0  502  503 -0.00000000000E+00 -0.00000000000E+00 -0.38495106394E+03  0.38495106394E+03  0.00000000000E+00 0.  1.
         -6    2    1    2    0  503 -0.11351708960E+03  0.20532890172E+02 -0.20844221438E+03  0.29392075269E+03  0.17214390177E+03 0.  0.
        -24    2    3    3    0    0 -0.10757565945E+03  0.29328642253E+02 -0.68488184201E+02  0.15348611875E+03  0.80216366844E+02 0.  0.
          6    2    1    2  501    0  0.11351708960E+03 -0.20532890172E+02 -0.53312430489E+02  0.21422673032E+03  0.17246201764E+03 0.  0.
         24    2    5    5    0    0  0.12414291691E+03 -0.10356224033E+02  0.89131871070E+01  0.15011284551E+03  0.83280887887E+02 0.  0.
          5    1    5    5  501    0 -0.10625827312E+02 -0.10176666139E+02 -0.62225617596E+02  0.64113884807E+02  0.47000000000E+01 0. -1.
        -13    1    6    6    0    0  0.10428471519E+03 -0.32268949009E+02 -0.17384925692E+02  0.11053878294E+03  0.00000000000E+00 0.  1.
         14    1    6    6    0    0  0.19858201719E+02  0.21912724976E+02  0.26298112799E+02  0.39574062568E+02  0.00000000000E+00 0. -1.
         -5    1    3    3    0  503 -0.59414301467E+01 -0.87957520803E+01 -0.13995403018E+03  0.14043463394E+03  0.47000000000E+01 0.  1.
         13    1    4    4    0    0 -0.93619367690E+02 -0.11392854672E+02 -0.46663520990E+02  0.10522294111E+03  0.00000000000E+00 0. -1.
        -14    1    4    4    0    0 -0.13956291764E+02  0.40721496925E+02 -0.21824663211E+02  0.48263177640E+02  0.00000000000E+00 0.  1.
</event>
<event>
12    1  0.8724767E-002  0.2275863E+03  0.7818608E-02  0.1128445E+00
         21   -1    0    0  501  502  0.00000000000E+00  0.00000000000E+00  0.30086986564E+03  0.30086986564E+03  0.00000000000E+00 0. -1.
         21   -1    0    0  502  503 -0.00000000000E+00 -0.00000000000E+00 -0.19638657453E+03  0.19638657453E+03  0.00000000000E+00 0. -1.
         -6    2    1    2    0  503 -0.14065554193E+03  0.45521569215E+02 -0.35763649684E+02  0.23037917002E+03  0.17302984887E+03 0.  0.
        -24    2    3    3    0    0 -0.34573845487E+02 -0.35535392282E+02 -0.75905704679E+01  0.93853092952E+02  0.79326360059E+02 0.  0.
          6    2    1    2  501    0  0.14065554193E+03 -0.45521569215E+02  0.14024694079E+03  0.26687727015E+03  0.17233130354E+03 0.  0.
         24    2    5    5    0    0  0.36067838406E+02 -0.15922775809E+02 -0.66652763440E+01  0.84065985365E+02  0.73947550534E+02 0.  0.
          5    1    5    5  501    0  0.10458770352E+03 -0.29598793406E+02  0.14691221714E+03  0.18281128478E+03  0.47000000000E+01 0. -1.
        -13    1    6    6    0    0 -0.17226762982E+02 -0.14689214801E+02 -0.18760459569E+02  0.29402197835E+02  0.00000000000E+00 0.  1.
         14    1    6    6    0    0  0.53294601388E+02 -0.12335610084E+01  0.12095183225E+02  0.54663787530E+02  0.00000000000E+00 0. -1.
         -5    1    3    3    0  503 -0.10608169644E+03  0.81056961497E+02 -0.28173079216E+02  0.13652607707E+03  0.47000000000E+01 0.  1.
         11    1    4    4    0    0 -0.59059870626E+02 -0.20150840636E+02  0.43777265904E+01  0.62556288148E+02  0.00000000000E+00 0. -1.
        -12    1    4    4    0    0  0.24486025139E+02 -0.15384551646E+02 -0.11968297058E+02  0.31296804804E+02  0.00000000000E+00 0.  1.
</event>
<event>
12    1  0.8724767E-002  0.2202007E+03  0.7818608E-02  0.1133840E+00
         21   -1    0    0  501  502  0.00000000000E+00  0.00000000000E+00  0.97999924010E+02  0.97999924010E+02  0.00000000000E+00 0. -1.
         21   -1    0    0  502  503 -0.00000000000E+00 -0.00000000000E+00 -0.11116554828E+04  0.11116554828E+04  0.00000000000E+00 0. -1.
         -6    2    1    2    0  503 -0.13263749574E+03  0.36977454784E+02 -0.95814311092E+03  0.98312084087E+03  0.17183809040E+03 0.  0.
        -24    2    3    3    0    0 -0.14417352447E+03  0.36982466505E+02 -0.95331490756E+03  0.96976114283E+03  0.97332693266E+02 0.  0.
          6    2    1    2  501    0  0.13263749574E+03 -0.36977454784E+02 -0.55512447853E+02  0.22653456592E+03  0.17110301065E+03 0.  0.
         24    2    5    5    0    0  0.15705127350E+03 -0.58582249193E+02 -0.40633482049E+02  0.19039216272E+03  0.80629481773E+02 0.  0.
          5    1    5    5  501    0 -0.24413777763E+02  0.21604794409E+02 -0.14878965804E+02  0.36142403207E+02  0.47000000000E+01 0. -1.
        -11    1    6    6    0    0  0.40195301643E+02 -0.51413332989E+01 -0.46603501415E+02  0.61757444300E+02  0.00000000000E+00 0.  1.
         12    1    6    6    0    0  0.11685597186E+03 -0.53440915894E+02  0.59700193663E+01  0.12863471842E+03  0.00000000000E+00 0. -1.
         -5    1    3    3    0  503  0.11536028736E+02 -0.50117210813E-02 -0.48282033619E+01  0.13359698043E+02  0.47000000000E+01 0.  1.
         13    1    4    4    0    0 -0.74031306584E+02  0.20876619083E+02 -0.75285299803E+03  0.75677216136E+03  0.00000000000E+00 0. -1.
        -14    1    4    4    0    0 -0.70142217891E+02  0.16105847422E+02 -0.20046190953E+03  0.21298898146E+03  0.00000000000E+00 0.  1.
</event>
<event>
12    1  0.8724767E-002  0.1753463E+03  0.7818608E-02  0.1172575E+00
         21   -1    0    0  503  502  0.00000000000E+00  0.00000000000E+00  0.27421101950E+03  0.27421101950E+03  0.00000000000E+00 0.  1.
         21   -1    0    0  501  503 -0.00000000000E+00 -0.00000000000E+00 -0.11176151121E+03  0.11176151121E+03  0.00000000000E+00 0.  1.
          6    2    1    2  501    0  0.24108080902E+02 -0.15391036992E+02  0.75047469325E+02  0.19073136150E+03  0.17299782087E+03 0.  0.
         24    2    3    3    0    0 -0.41762212982E+01  0.24872661534E+01  0.11393624087E+03  0.13921377202E+03  0.79845976852E+02 0.  0.
         -6    2    1    2    0  502 -0.24108080902E+02  0.15391036992E+02  0.87402038958E+02  0.19524116921E+03  0.17222634570E+03 0.  0.
        -24    2    5    5    0    0  0.19452768075E+02 -0.44356181102E+02  0.21470578392E+02  0.96062919949E+02  0.80132501926E+02 0.  0.
          5    1    3    3  501    0  0.28284302200E+02 -0.17878303145E+02 -0.38888771542E+02  0.51517589485E+02  0.47000000000E+01 0. -1.
        -11    1    4    4    0    0  0.12681320543E+02 -0.34495309362E+02  0.71861643441E+02  0.80714546748E+02  0.00000000000E+00 0.  1.
         12    1    4    4    0    0 -0.16857541842E+02  0.36982575515E+02  0.42074597425E+02  0.58499225270E+02  0.00000000000E+00 0. -1.
         -5    1    5    5    0  502 -0.43560848976E+02  0.59747218094E+02  0.65931460566E+02  0.99178249258E+02  0.47000000000E+01 0.  1.
         11    1    6    6    0    0  0.35368935208E+02 -0.67753160638E+01 -0.17138179827E+02  0.39882122478E+02  0.00000000000E+00 0. -1.
        -12    1    6    6    0    0 -0.15916167133E+02 -0.37580865039E+02  0.38608758219E+02  0.56180797471E+02  0.00000000000E+00 0.  1.
</event>
<event>
12    1  0.8724767E-002  0.2355663E+03  0.7818608E-02  0.1122986E+00
         21   -1    0    0  503  502  0.00000000000E+00  0.00000000000E+00  0.80817343330E+03  0.80817343330E+03  0.00000000000E+00 0. -1.
         21   -1    0    0  501  503 -0.00000000000E+00 -0.00000000000E+00 -0.79384705063E+02  0.79384705063E+02  0.00000000000E+00 0. -1.
          6    2    1    2  501    0  0.15312991510E+03  0.43335908465E+02  0.52930959967E+03  0.57887802435E+03  0.17205912622E+03 0.  0.
         24    2    3    3    0    0  0.15730956923E+03  0.80881443577E+02  0.41042083883E+03  0.45404307664E+03  0.80135772382E+02 0.  0.
         -6    2    1    2    0  502 -0.15312991510E+03 -0.43335908465E+02  0.19947912857E+03  0.30868011401E+03  0.17367993031E+03 0.  0.
        -24    2    5    5    0    0 -0.17319035981E+03 -0.31086202373E+02  0.12346568290E+03  0.22897684768E+03  0.78901008940E+02 0.  0.
          5    1    3    3  501    0 -0.41796541367E+01 -0.37545535112E+02  0.11888876084E+03  0.12483494771E+03  0.47000000000E+01 0. -1.
        -11    1    4    4    0    0 -0.81543245599E+01  0.12157415524E+02  0.39257568486E+02  0.41898119823E+02  0.00000000000E+00 0.  1.
         12    1    4    4    0    0  0.16546389379E+03  0.68724028053E+02  0.37116327034E+03  0.41214495682E+03  0.00000000000E+00 0. -1.
         -5    1    5    5    0  502  0.20060444712E+02 -0.12249706092E+02  0.76013445669E+02  0.79703266331E+02  0.47000000000E+01 0.  1.
         11    1    6    6    0    0 -0.84859828501E+02 -0.54405604438E+00  0.10272060603E+03  0.13324041952E+03  0.00000000000E+00 0. -1.
        -12    1    6    6    0    0 -0.88330531306E+02 -0.30542146328E+02  0.20745076873E+02  0.95736428164E+02  0.00000000000E+00 0.  1.
</event>
<event>
12    1  0.8724767E-002  0.1825624E+03  0.7818608E-02  0.1165676E+00
         21   -1    0    0  501  502  0.00000000000E+00  0.00000000000E+00  0.38146669845E+03  0.38146669845E+03  0.00000000000E+00 0. -1.
         21   -1    0    0  502  503 -0.00000000000E+00 -0.00000000000E+00 -0.16650532665E+03  0.16650532665E+03  0.00000000000E+00 0. -1.
         -6    2    1    2    0  503  0.42585820542E+02 -0.44031363981E+02 -0.82405129982E+02  0.19903667153E+03  0.17050712021E+03 0.  0.
        -24    2    3    3    0    0 -0.34441069760E+02 -0.35268148486E+02 -0.14027988704E+02  0.95559817962E+02  0.80652741788E+02 0.  0.
          6    2    1    2  501    0 -0.42585820542E+02  0.44031363981E+02  0.29736650178E+03  0.34893535357E+03  0.17197886925E+03 0.  0.
         24    2    5    5    0    0  0.91809225719E+01  0.15351014370E+02  0.27287116404E+03  0.28471331906E+03  0.79265748611E+02 0.  0.
          5    1    5    5  501    0 -0.51766743114E+02  0.28680349611E+02  0.24495337739E+02  0.64222034516E+02  0.47000000000E+01 0. -1.
        -11    1    6    6    0    0  0.36460640834E+02 -0.15766638680E+02  0.14238544478E+03  0.14782279969E+03  0.00000000000E+00 0.  1.
         12    1    6    6    0    0 -0.27279718263E+02  0.31117653050E+02  0.13048571926E+03  0.13689051936E+03  0.00000000000E+00 0. -1.
         -5    1    3    3    0  503  0.77026890303E+02 -0.87632154952E+01 -0.68377141278E+02  0.10347685357E+03  0.47000000000E+01 0.  1.
         13    1    4    4    0    0 -0.89610039181E+01 -0.69230591537E+01 -0.45028356019E+02  0.46430390749E+02  0.00000000000E+00 0. -1.
        -14    1    4    4    0    0 -0.25480065842E+02 -0.28345089332E+02  0.31000367316E+02  0.49129427213E+02  0.00000000000E+00 0.  1.
</event>
<event>
12    1  0.8724767E-002  0.1848951E+03  0.7818608E-02  0.1163922E+00
         21   -1    0    0  503  502  0.00000000000E+00  0.00000000000E+00  0.49208959958E+03  0.49208959958E+03  0.00000000000E+00 0. -1.
         21   -1    0    0  501  503 -0.00000000000E+00 -0.00000000000E+00 -0.41220153063E+03  0.41220153063E+03  0.00000000000E+00 0.  1.
          6    2    1    2  501    0 -0.53179356411E+02  0.29375270942E+02 -0.37313728236E+03  0.41498738520E+03  0.17114948990E+03 0.  0.
         24    2    3    3    0    0 -0.62203585104E+02  0.37048145874E+02 -0.38358185036E+03  0.39851047063E+03  0.80210399328E+02 0.  0.
         -6    2    1    2    0  502  0.53179356411E+02 -0.29375270942E+02  0.45302535131E+03  0.48930374501E+03  0.17462885061E+03 0.  0.
        -24    2    5    5    0    0 -0.12519293977E+02 -0.69674806083E+02  0.29120394368E+03  0.31000337368E+03  0.79316098933E+02 0.  0.
          5    1    3    3  501    0  0.90242286933E+01 -0.76728749317E+01  0.10444567997E+02  0.16476914574E+02  0.47000000000E+01 0. -1.
        -13    1    4    4    0    0 -0.79512319555E+02  0.38377622530E+02 -0.28335537422E+03  0.29679170975E+03  0.00000000000E+00 0.  1.
         14    1    4    4    0    0  0.17308734450E+02 -0.13294766555E+01 -0.10022647614E+03  0.10171876088E+03  0.00000000000E+00 0. -1.
         -5    1    5    5    0  502  0.65698650388E+02  0.40299535141E+02  0.16182140763E+03  0.17930037134E+03  0.47000000000E+01 0.  1.
         13    1    6    6    0    0 -0.10614390968E+02 -0.57838371805E+02  0.29211977473E+03  0.29797970625E+03  0.00000000000E+00 0. -1.
        -14    1    6    6    0    0 -0.19049030093E+01 -0.11836434278E+02 -0.91583104637E+00  0.12023667427E+02  0.00000000000E+00 0.  1.
</event>
<event>
12    1  0.8724767E-002  0.1890725E+03  0.7818608E-02  0.1160045E+00
         21   -1    0    0  503  502  0.00000000000E+00  0.00000000000E+00  0.20767275704E+04  0.20767275704E+04  0.00000000000E+00 0.  1.
         21   -1    0    0  501  503 -0.00000000000E+00 -0.00000000000E+00 -0.32681182229E+02  0.32681182229E+02  0.00000000000E+00 0.  1.
          6    2    1    2  501    0 -0.34049380757E+02  0.64115634220E+02  0.28498122645E+03  0.34021157133E+03  0.17105390659E+03 0.  0.
         24    2    3    3    0    0  0.21233451445E+02  0.71421181347E+02  0.25355573474E+03  0.27603046754E+03  0.79689797248E+02 0.  0.
         -6    2    1    2    0  502  0.34049380757E+02 -0.64115634220E+02  0.17590651617E+04  0.17691971813E+04  0.17458020573E+03 0.  0.
        -24    2    5    5    0    0  0.20717644573E+02 -0.58553760938E+01  0.37741073279E+03  0.38624271933E+03  0.79253206800E+02 0.  0.
          5    1    3    3  501    0 -0.55282832201E+02 -0.73055471273E+01  0.31425491707E+02  0.64181103792E+02  0.47000000000E+01 0. -1.
        -13    1    4    4    0    0  0.46311019173E+02  0.42756737828E+02  0.10319930881E+03  0.12092537561E+03  0.00000000000E+00 0.  1.
         14    1    4    4    0    0 -0.25077567729E+02  0.28664443519E+02  0.15035642593E+03  0.15510509193E+03  0.00000000000E+00 0. -1.
         -5    1    5    5    0  502  0.13331736184E+02 -0.58260258126E+02  0.13816544289E+04  0.13829544619E+04  0.47000000000E+01 0.  1.
         13    1    6    6    0    0  0.48607745090E+02 -0.98874864622E+01  0.29514695208E+03  0.29928614835E+03  0.00000000000E+00 0. -1.
        -14    1    6    6    0    0 -0.27890100518E+02  0.40321103685E+01  0.82263780706E+02  0.86956570982E+02  0.00000000000E+00 0.  1.
</event>
<event>
12    1  0.8724767E-002  0.2653815E+03  0.7818608E-02  0.1103987E+00
         21   -1    0    0  501  502  0.00000000000E+00  0.00000000000E+00  0.16981888153E+03  0.16981888153E+03  0.00000000000E+00 0. -1.
         21   -1    0    0  502  503 -0.00000000000E+00 -0.00000000000E+00 -0.61830862136E+03  0.61830862136E+03  0.00000000000E+00 0.  1.
         -6    2    1    2    0  503  0.18043607155E+03 -0.90261614159E+02 -0.45063545447E+03  0.52297194353E+03  0.17240361361E+03 0.  0.
        -24    2    3    3    0    0  0.10125275951E+03  0.18456676369E+02 -0.24294840293E+03  0.27549332833E+03  0.79245676596E+02 0.  0.
          6    2    1    2  501    0 -0.18043607155E+03  0.90261614159E+02  0.21457146389E+01  0.26515555935E+03  0.17204223801E+03 0.  0.
         24    2    5    5    0    0 -0.60340970122E+02  0.68722981876E+02 -0.51128932185E+02  0.13193760237E+03  0.80184052658E+02 0.  0.
          5    1    5    5  501    0 -0.12009510143E+03  0.21538632282E+02  0.53274646824E+02  0.13321795698E+03  0.47000000000E+01 0. -1.
        -13    1    6    6    0    0 -0.13881752105E+02 -0.75101324100E+00 -0.46165708865E+02  0.48213480868E+02  0.00000000000E+00 0.  1.
         14    1    6    6    0    0 -0.46459218017E+02  0.69473995117E+02 -0.49632233198E+01  0.83724121507E+02  0.00000000000E+00 0. -1.
         -5    1    3    3    0  503  0.79183312036E+02 -0.10871829053E+03 -0.20768705154E+03  0.24747861520E+03  0.47000000000E+01 0.  1.
         11    1    4    4    0    0  0.83595688747E+02  0.23349956814E+02 -0.24205831883E+03  0.25714915783E+03  0.00000000000E+00 0. -1.
        -12    1    4    4    0    0  0.17657070767E+02 -0.48932804447E+01 -0.89008409791E+00  0.18344170499E+02  0.00000000000E+00 0.  1.
</event>
<event>
12    1  0.8724767E-002  0.2231523E+03  0.7818608E-02  0.1131856E+00
         21   -1    0    0  503  502  0.00000000000E+00  0.00000000000E+00  0.14973353155E+03  0.14973353155E+03  0.00000000000E+00 0. -1.
         21   -1    0    0  501  503 -0.00000000000E+00 -0.00000000000E+00 -0.37940215986E+03  0.37940215986E+03  0.00000000000E+00 0. -1.
          6    2    1    2  501    0 -0.14123472532E+03  0.18259482141E+02 -0.19861566784E+02  0.22403448992E+03  0.17180312719E+03 0.  0.
         24    2    3    3    0    0 -0.40240167221E+01  0.10941960322E+00  0.16381563703E+02  0.80884715797E+02  0.79106111881E+02 0.  0.
         -6    2    1    2    0  502  0.14123472532E+03 -0.18259482141E+02 -0.20980706152E+03  0.30510120149E+03  0.16966756839E+03 0.  0.
        -24    2    5    5    0    0  0.12670094716E+03 -0.64454025005E+02 -0.11701661174E+03  0.20032847571E+03  0.78937693182E+02 0.  0.
          5    1    3    3  501    0 -0.13721070859E+03  0.18150062538E+02 -0.36243130487E+02  0.14314977412E+03  0.47000000000E+01 0. -1.
        -13    1    4    4    0    0  0.34596299163E+02  0.14704738468E+02  0.11497380979E+02  0.39310596772E+02  0.00000000000E+00 0.  1.
         14    1    4    4    0    0 -0.38620315885E+02 -0.14595318865E+02  0.48841827240E+01  0.41574119025E+02  0.00000000000E+00 0. -1.
         -5    1    5    5    0  502  0.14533778152E+02  0.46194542864E+02 -0.92790449783E+02  0.10477272579E+03  0.47000000000E+01 0.  1.
         13    1    6    6    0    0  0.10437328248E+03 -0.30625597451E+02 -0.11705991241E+03  0.15979590860E+03  0.00000000000E+00 0. -1.
        -14    1    6    6    0    0  0.22327664686E+02 -0.33828427554E+02  0.43300664218E-01  0.40532567104E+02  0.00000000000E+00 0.  1.
</event>
<event>
12    1  0.8724767E-002  0.1781050E+03  0.7818608E-02  0.1169911E+00
         21   -1    0    0  501  502  0.00000000000E+00  0.00000000000E+00  0.17113323788E+03  0.17113323788E+03  0.00000000000E+00 0. -1.
         21   -1    0    0  502  503 -0.00000000000E+00 -0.00000000000E+00 -0.27320720360E+03  0.27320720360E+03  0.00000000000E+00 0. -1.
         -6    2    1    2    0  503 -0.28134164119E+02 -0.32204722802E+02 -0.17770157870E+03  0.25084382736E+03  0.17180250082E+03 0.  0.
        -24    2    3    3    0    0 -0.22878155810E+02 -0.80933694733E+02 -0.15971446206E+03  0.19842470209E+03  0.82401335264E+02 0.  0.
          6    2    1    2  501    0  0.28134164119E+02  0.32204722802E+02  0.75627612979E+02  0.19349661412E+03  0.17289513721E+03 0.  0.
         24    2    5    5    0    0  0.12720792824E+02  0.50369714325E+02 -0.17481067507E+02  0.97273668246E+02  0.80359517928E+02 0.  0.
          5    1    5    5  501    0  0.15413371295E+02 -0.18164991523E+02  0.93108680486E+02  0.96222945878E+02  0.47000000000E+01 0. -1.
        -11    1    6    6    0    0 -0.12769251469E+02  0.64775190543E+02 -0.80367766744E+01  0.66509163822E+02  0.00000000000E+00 0.  1.
         12    1    6    6    0    0  0.25490044293E+02 -0.14405476218E+02 -0.94442908321E+01  0.30764504424E+02  0.00000000000E+00 0. -1.
         -5    1    3    3    0  503 -0.52560083097E+01  0.48728971931E+02 -0.17987116647E+02  0.52419125270E+02  0.47000000000E+01 0.  1.
         13    1    4    4    0    0 -0.17385515188E+02  0.13485285403E+02 -0.42073224896E+02  0.47479103971E+02  0.00000000000E+00 0. -1.
        -14    1    4    4    0    0 -0.54926406220E+01 -0.94418980136E+02 -0.11764123716E+03  0.15094559812E+03  0.00000000000E+00 0.  1.
</event>
<event>
12    1  0.8724767E-002  0.2086237E+03  0.7818608E-02  0.1143062E+00
         21   -1    0    0  501  502  0.00000000000E+00  0.00000000000E+00  0.20117487684E+03  0.20117487684E+03  0.00000000000E+00 0. -1.
         21   -1    0    0  502  503 -0.00000000000E+00 -0.00000000000E+00 -0.23079649133E+03  0.23079649133E+03  0.00000000000E+00 0. -1.
         -6    2    1    2    0  503  0.56582334199E+01  0.10804144184E+03 -0.72659542272E+02  0.22091461239E+03  0.17837849681E+03 0.  0.
        -24    2    3    3    0    0  0.57297418235E+01  0.28631395415E+02  0.30199490883E+02  0.90883726492E+02  0.80593149503E+02 0.  0.
          6    2    1    2  501    0 -0.56582334199E+01 -0.10804144184E+03  0.43037927780E+02  0.21105675578E+03  0.17603329847E+03 0.  0.
         24    2    5    5    0    0  0.27744934746E+01 -0.79563691070E+02 -0.39117003255E+02  0.12357180927E+03  0.86033559448E+02 0.  0.
          5    1    5    5  501    0 -0.84327268945E+01 -0.28477750773E+02  0.82154931036E+02  0.87484946508E+02  0.47000000000E+01 0. -1.
        -11    1    6    6    0    0  0.21242454337E+02 -0.98945721624E+01  0.19644377284E+02  0.30578521603E+02  0.00000000000E+00 0.  1.
         12    1    6    6    0    0 -0.18467960863E+02 -0.69669118907E+02 -0.58761380540E+02  0.92993287665E+02  0.00000000000E+00 0. -1.
         -5    1    3    3    0  503 -0.71508403532E-01  0.79410046427E+02 -0.10285903315E+03  0.13003088590E+03  0.47000000000E+01 0.  1.
         11    1    4    4    0    0 -0.13284331312E+02  0.48260723405E+02 -0.13315821895E+00  0.50055854933E+02  0.00000000000E+00 0. -1.
        -12    1    4    4    0    0  0.19014073135E+02 -0.19629327990E+02  0.30332649101E+02  0.40827871559E+02  0.00000000000E+00 0.  1.
</event>
<event>
12    1  0.8724767E-002  0.1799492E+03  0.7818608E-02  0.1167911E+00
         21   -1    0    0  501  502  0.00000000000E+00  0.00000000000E+00  0.45455929991E+03  0.45455929991E+03  0.00000000000E+00 0. -1.
         21   -1    0    0  502  503 -0.00000000000E+00 -0.00000000000E+00 -0.17387521506E+03  0.17387521506E+03  0.00000000000E+00 0. -1.
         -6    2    1    2    0  503  0.47264677413E+02  0.25047221679E+02 -0.10114745721E+03  0.20642798408E+03  0.17181499197E+03 0.  0.
        -24    2    3    3    0    0  0.69242276195E+02  0.13203623027E+02 -0.12981690145E+03  0.16812246607E+03  0.80273951075E+02 0.  0.
          6    2    1    2  501    0 -0.47264677413E+02 -0.25047221679E+02  0.38183154205E+03  0.42200653089E+03  0.17156011355E+03 0.  0.
         24    2    5    5    0    0  0.38194773264E+02 -0.94143889016E+01  0.94983968290E+02  0.12225442707E+03  0.66156778058E+02 0.  0.
          5    1    5    5  501    0 -0.85459450677E+02 -0.15632832777E+02  0.28684757376E+03  0.29975210382E+03  0.47000000000E+01 0. -1.
        -11    1    6    6    0    0  0.15927402875E+02  0.28523357287E+02  0.45954931103E+02  0.56383683508E+02  0.00000000000E+00 0.  1.
         12    1    6    6    0    0  0.22267370390E+02 -0.37937746188E+02  0.49029037187E+02  0.65870743562E+02  0.00000000000E+00 0. -1.
         -5    1    3    3    0  503 -0.21977598782E+02  0.11843598652E+02  0.28669444241E+02  0.38305518014E+02  0.47000000000E+01 0.  1.
         11    1    4    4    0    0  0.46400982279E+02  0.46078933276E+02 -0.93317476525E+02  0.11394942156E+03  0.00000000000E+00 0. -1.
        -12    1    4    4    0    0  0.22841293916E+02 -0.32875310249E+02 -0.36499424923E+02  0.54173044510E+02  0.00000000000E+00 0.  1.
</event>
<event>
12    1  0.8724767E-002  0.2072089E+03  0.7818608E-02  0.1144275E+00
         21   -1    0    0  503  502  0.00000000000E+00  0.00000000000E+00  0.68578370111E+03  0.68578370111E+03  0.00000000000E+00 0.  1.
         21   -1    0    0  501  503 -0.00000000000E+00 -0.00000000000E+00 -0.86849758863E+02  0.86849758863E+02  0.00000000000E+00 0.  1.
          6    2    1    2  501    0  0.89111479509E+02 -0.73700815436E+02  0.91169334116E+02  0.22421718773E+03  0.16908232851E+03 0.  0.
         24    2    3    3    0    0  0.12225489400E+03 -0.68332474323E+02  0.99556967661E+02  0.18929230539E+03  0.79400257646E+02 0.  0.
         -6    2    1    2    0  502 -0.89111479509E+02  0.73700815436E+02  0.50776460813E+03  0.54841627224E+03  0.17193849020E+03 0.  0.
        -24    2    5    5    0    0 -0.89225702109E+02  0.96245234826E+02  0.50165564999E+03  0.52459037746E+03  0.79449995690E+02 0.  0.
          5    1    3    3  501    0 -0.33143414491E+02 -0.53683411131E+01 -0.83876335455E+01  0.34924882347E+02  0.47000000000E+01 0. -1.
        -13    1    4    4    0    0  0.41672437421E+02 -0.67361514876E+02  0.37826754341E+02  0.87778294988E+02  0.00000000000E+00 0.  1.
         14    1    4    4    0    0  0.80582456579E+02 -0.97095944754E+00  0.61730213320E+02  0.10151401040E+03  0.00000000000E+00 0. -1.
         -5    1    5    5    0  502  0.11422259968E+00 -0.22544419390E+02  0.61089581419E+01  0.23825894779E+02  0.47000000000E+01 0.  1.
         11    1    6    6    0    0 -0.18500160289E+02  0.58994401065E+00  0.19166827260E+03  0.19255994050E+03  0.00000000000E+00 0. -1.
        -12    1    6    6    0    0 -0.70725541820E+02  0.95655290816E+02  0.30998737739E+03  0.33203043696E+03  0.00000000000E+00 0.  1.
</event>
<event>
12    1  0.8724767E-002  0.2009746E+03  0.7818608E-02  0.1149250E+00
         21   -1    0    0  503  502  0.00000000000E+00  0.00000000000E+00  0.35841018671E+03  0.35841018671E+03  0.00000000000E+00 0. -1.
         21   -1    0    0  501  503 -0.00000000000E+00 -0.00000000000E+00 -0.11262991978E+03  0.11262991978E+03  0.00000000000E+00 0. -1.
          6    2    1    2  501    0 -0.53433097091E+02 -0.85764409976E+02  0.10238154764E+03  0.22415151306E+03  0.17190488541E+03 0.  0.
         24    2    3    3    0    0 -0.83345901990E+02 -0.83592015099E+02  0.30341864254E+02  0.14597670140E+03  0.80339307052E+02 0.  0.
         -6    2    1    2    0  502  0.53433097091E+02  0.85764409976E+02  0.14339871929E+03  0.24688859343E+03  0.17372436498E+03 0.  0.
        -24    2    5    5    0    0  0.36924582690E+02  0.12809124807E+03  0.11864765611E+03  0.19493864252E+03  0.78441158914E+02 0.  0.
          5    1    3    3  501    0  0.29912804900E+02 -0.21723948769E+01  0.72039683384E+02  0.78174811663E+02  0.47000000000E+01 0. -1.
        -13    1    4    4    0    0 -0.54592471340E+02 -0.62934304763E+02 -0.18801276271E+02  0.85408153197E+02  0.00000000000E+00 0.  1.
         14    1    4    4    0    0 -0.28753430650E+02 -0.20657710336E+02  0.49143140525E+02  0.60568548201E+02  0.00000000000E+00 0. -1.
         -5    1    5    5    0  502  0.16508514400E+02 -0.42326838090E+02  0.24751063181E+02  0.51949950905E+02  0.47000000000E+01 0.  1.
         13    1    6    6    0    0 -0.18664499438E+02  0.41756924141E+02  0.63870859955E+02  0.78558837850E+02  0.00000000000E+00 0. -1.
        -14    1    6    6    0    0  0.55589082128E+02  0.86334323924E+02  0.54776796152E+02  0.11637980467E+03  0.00000000000E+00 0.  1.
</event>
<event>
12    1  0.8724767E-002  0.1842132E+03  0.7818608E-02  0.1163888E+00
         21   -1    0    0  501  502  0.00000000000E+00  0.00000000000E+00  0.25921810377E+03  0.25921810377E+03  0.00000000000E+00 0.  1.
         21   -1    0    0  502  503 -0.00000000000E+00 -0.00000000000E+00 -0.13696541072E+03  0.13696541072E+03  0.00000000000E+00 0.  1.
         -6    2    1    2    0  503 -0.80822234414E+01 -0.65545161343E+02  0.18366062413E+02  0.18469606525E+03  0.17150461731E+03 0.  0.
        -24    2    3    3    0    0 -0.74774499830E+00 -0.10629276295E+03 -0.12923323334E+02  0.13258774277E+03  0.78190707039E+02 0.  0.
          6    2    1    2  501    0  0.80822234414E+01  0.65545161343E+02  0.10388663064E+03  0.21148744924E+03  0.17196807451E+03 0.  0.
         24    2    5    5    0    0  0.28195556954E+02 -0.26144760816E+02  0.57236694902E+02  0.10655940478E+03  0.81242412285E+02 0.  0.
          5    1    5    5  501    0 -0.20113333513E+02  0.91689922159E+02  0.46649935736E+02  0.10492804446E+03  0.47000000000E+01 0. -1.
        -11    1    6    6    0    0  0.31595251860E+02 -0.12314832853E+02 -0.11925414473E+02  0.35946217585E+02  0.00000000000E+00 0.  1.
         12    1    6    6    0    0 -0.33996949056E+01 -0.13829927963E+02  0.69162109375E+02  0.70613187197E+02  0.00000000000E+00 0. -1.
         -5    1    3    3    0  503 -0.73344784430E+01  0.40747601612E+02  0.31289385748E+02  0.52108322479E+02  0.47000000000E+01 0.  1.
         11    1    4    4    0    0  0.18498976693E+02 -0.37657838284E+01 -0.20656488140E+02  0.27983633946E+02  0.00000000000E+00 0. -1.
        -12    1    4    4    0    0 -0.19246721691E+02 -0.10252697913E+03  0.77331648058E+01  0.10460410882E+03  0.00000000000E+00 0.  1.
</event>
<event>
12    1  0.8724767E-002  0.1896011E+03  0.7818608E-02  0.1159376E+00
         21   -1    0    0  501  502  0.00000000000E+00  0.00000000000E+00  0.32999480218E+03  0.32999480218E+03  0.00000000000E+00 0. -1.
         21   -1    0    0  502  503 -0.00000000000E+00 -0.00000000000E+00 -0.41655036068E+03  0.41655036068E+03  0.00000000000E+00 0.  1.
         -6    2    1    2    0  503 -0.43904821144E+02 -0.66828987153E+02 -0.36470088545E+03  0.40992461640E+03  0.16922679585E+03 0.  0.
        -24    2    3    3    0    0 -0.36600801506E+02 -0.60078721806E+02 -0.37808680643E+03  0.39259869173E+03  0.78962193864E+02 0.  0.
          6    2    1    2  501    0  0.43904821144E+02  0.66828987153E+02  0.27814532695E+03  0.33662054647E+03  0.17191516093E+03 0.  0.
         24    2    5    5    0    0 -0.39036928075E+02  0.11674292842E+02  0.11634167349E+03  0.14655769807E+03  0.79269180681E+02 0.  0.
          5    1    5    5  501    0  0.82941749220E+02  0.55154694311E+02  0.16180365346E+03  0.19006284840E+03  0.47000000000E+01 0. -1.
        -13    1    6    6    0    0  0.10932240426E+02 -0.12690150478E+02 -0.93088205327E+00  0.16775587658E+02  0.00000000000E+00 0.  1.
         14    1    6    6    0    0 -0.49969168502E+02  0.24364443320E+02  0.11727255554E+03  0.12978211041E+03  0.00000000000E+00 0. -1.
         -5    1    3    3    0  503 -0.73040196383E+01 -0.67502653469E+01  0.13385920983E+02  0.17325924671E+02  0.47000000000E+01 0.  1.
         13    1    4    4    0    0  0.14916152868E+02 -0.30071174824E+02 -0.58053485401E+02  0.67059483587E+02  0.00000000000E+00 0. -1.
        -14    1    4    4    0    0 -0.51516954374E+02 -0.30007546982E+02 -0.32003332103E+03  0.32553920814E+03  0.00000000000E+00 0.  1.
</event>
<event>
12    1  0.8724767E-002  0.2159726E+03  0.7818608E-02  0.1137344E+00
         21   -1    0    0  501  502  0.00000000000E+00  0.00000000000E+00  0.32218894308E+03  0.32218894308E+03  0.00000000000E+00 0. -1.
         21   -1    0    0  502  503 -0.00000000000E+00 -0.00000000000E+00 -0.21045918847E+03  0.21045918847E+03  0.00000000000E+00 0. -1.
         -6    2    1    2    0  503 -0.57121896669E+02  0.11476725101E+03 -0.94383411698E+02  0.23569556490E+03  0.17380948744E+03 0.  0.
        -24    2    3    3    0    0 -0.10105530021E+03  0.60592177739E+02 -0.82094411835E+02  0.16471534210E+03  0.80672583739E+02 0.  0.
          6    2    1    2  501    0  0.57121896669E+02 -0.11476725101E+03  0.20611316631E+03  0.29695256666E+03  0.17106652663E+03 0.  0.
         24    2    5    5    0    0 -0.31034243604E+02 -0.63392144338E+02  0.70003904512E+02  0.12677992549E+03  0.78682365375E+02 0.  0.
          5    1    5    5  501    0  0.88156140273E+02 -0.51375106669E+02  0.13610926180E+03  0.17017264116E+03  0.47000000000E+01 0. -1.
        -13    1    6    6    0    0  0.99131076302E+01 -0.40893409089E+02 -0.64129982247E+00  0.42082679041E+02  0.00000000000E+00 0.  1.
         14    1    6    6    0    0 -0.40947351234E+02 -0.22498735248E+02  0.70645204335E+02  0.84697246451E+02  0.00000000000E+00 0. -1.
         -5    1    3    3    0  503  0.43933403536E+02  0.54175073268E+02 -0.12288999863E+02  0.70980222791E+02  0.47000000000E+01 0.  1.
         11    1    4    4    0    0 -0.83213120217E+02  0.79170535395E+02 -0.55057370543E+02  0.12737233256E+03  0.00000000000E+00 0. -1.
        -12    1    4    4    0    0 -0.17842179989E+02 -0.18578357656E+02 -0.27037041292E+02  0.37343009543E+02  0.00000000000E+00 0.  1.
</event>
<event>
12    1  0.8724767E-002  0.1820701E+03  0.7818608E-02  0.1165935E+00
         21   -1    0    0  503  502  0.00000000000E+00  0.00000000000E+00  0.24643099789E+03  0.24643099789E+03  0.00000000000E+00 0. -1.
         21   -1    0    0  501  503 -0.00000000000E+00 -0.00000000000E+00 -0.18623630486E+03  0.18623630486E+03  0.00000000000E+00 0. -1.
          6    2    1    2  501    0 -0.52848442495E+02  0.43909860116E+02 -0.84345333851E+02  0.20019939876E+03  0.16806138828E+03 0.  0.
         24    2    3    3    0    0 -0.32702837939E+02  0.58126133330E+02  0.71698839995E+01  0.10530433616E+03  0.81175568938E+02 0.  0.
         -6    2    1    2    0  502  0.52848442495E+02 -0.43909860116E+02  0.14454002689E+03  0.23246790399E+03  0.16860745335E+03 0.  0.
        -24    2    5    5    0    0  0.67463185124E+02 -0.26227924586E+02  0.16792392893E+03  0.19937502831E+03  0.79452946028E+02 0.  0.
          5    1    3    3  501    0 -0.20145604556E+02 -0.14216273214E+02 -0.91515217850E+02  0.94895062596E+02  0.47000000000E+01 0. -1.
        -13    1    4    4    0    0 -0.26653316952E+02  0.36515665774E+02 -0.35241613289E+02  0.57321588068E+02  0.00000000000E+00 0.  1.
         14    1    4    4    0    0 -0.60495209869E+01  0.21610467556E+02  0.42411497289E+02  0.47982748092E+02  0.00000000000E+00 0. -1.
         -5    1    5    5    0  502 -0.14614742629E+02 -0.17681935529E+02 -0.23383902042E+02  0.33092875682E+02  0.47000000000E+01 0.  1.
         13    1    6    6    0    0  0.46465863052E+02 -0.52736814899E+02  0.88239088910E+02  0.11281127996E+03  0.00000000000E+00 0. -1.
        -14    1    6    6    0    0  0.20997322072E+02  0.26508890313E+02  0.79684840017E+02  0.86563748350E+02  0.00000000000E+00 0.  1.
</event>
<event>
12    1  0.8724767E-002  0.2110189E+03  0.7818608E-02  0.1141008E+00
         21   -1    0    0  501  502  0.00000000000E+00  0.00000000000E+00  0.15257450595E+03  0.15257450595E+03  0.00000000000E+00 0. -1.
         21   -1    0    0  502  503 -0.00000000000E+00 -0.00000000000E+00 -0.33942535318E+03  0.33942535318E+03  0.00000000000E+00 0.  1.
         -6    2    1    2    0  503  0.63099229738E+02  0.10395819986E+03 -0.18741733821E+03  0.28223082010E+03  0.17245334744E+03 0.  0.
        -24    2    3    3    0    0  0.87237721126E+02  0.10100601611E+03 -0.86526141294E+02  0.17834383453E+03  0.80666690222E+02 0.  0.
          6    2    1    2  501    0 -0.63099229738E+02 -0.10395819986E+03  0.56649097989E+00  0.20976903902E+03  0.17092076734E+03 0.  0.
         24    2    5    5    0    0  0.24713697152E+02 -0.30062360354E+02 -0.24420746102E+02  0.92218380829E+02  0.79958392839E+02 0.  0.
          5    1    5    5  501    0 -0.87812926890E+02 -0.73895839502E+02  0.24987237082E+02  0.11755065819E+03  0.47000000000E+01 0. -1.
        -13    1    6    6    0    0  0.22093364831E+02 -0.51504315599E+02 -0.37062559395E+02  0.67189616786E+02  0.00000000000E+00 0.  1.
         14    1    6    6    0    0  0.26203323209E+01  0.21441955244E+02  0.12641813293E+02  0.25028764043E+02  0.00000000000E+00 0. -1.
         -5    1    3    3    0  503 -0.24138491388E+02  0.29521837464E+01 -0.10089119692E+03  0.10388698557E+03  0.47000000000E+01 0.  1.
         13    1    4    4    0    0  0.60633830705E+02  0.11560834517E+02 -0.25160922295E+02  0.66657230152E+02  0.00000000000E+00 0. -1.
        -14    1    4    4    0    0  0.26603890420E+02  0.89445181593E+02 -0.61365218999E+02  0.11168660438E+03  0.00000000000E+00 0.  1.
</event>
<event>
12    1  0.8724767E-002  0.1800890E+03  0.7818608E-02  0.1167750E+00
         21   -1    0    0  503  502  0.00000000000E+00  0.00000000000E+00  0.75005177847E+02  0.75005177847E+02  0.00000000000E+00 0.  1.
         21   -1    0    0  501  503 -0.00000000000E+00 -0.00000000000E+00 -0.59198837191E+03  0.59198837191E+03  0.00000000000E+00 0.  1.
          6    2    1    2  501    0 -0.38059014363E+02 -0.37490900636E+02 -0.43189475986E+03  0.46793711451E+03  0.17198256694E+03 0.  0.
         24    2    3    3    0    0 -0.50121211265E+02 -0.15095106446E+02 -0.43169008591E+03  0.44206821265E+03  0.79548578297E+02 0.  0.
         -6    2    1    2    0  502  0.38059014363E+02  0.37490900636E+02 -0.85088434201E+02  0.19905643525E+03  0.17184110851E+03 0.  0.
        -24    2    5    5    0    0  0.44640190057E+02  0.67134943149E+02 -0.11130419705E+03  0.15866537990E+03  0.79285757472E+02 0.  0.
          5    1    3    3  501    0  0.12062196902E+02 -0.22395794191E+02 -0.20467394951E+00  0.25868901851E+02  0.47000000000E+01 0. -1.
        -13    1    4    4    0    0 -0.35568325580E+02 -0.37251703882E+02 -0.38456740940E+03  0.38800114381E+03  0.00000000000E+00 0.  1.
         14    1    4    4    0    0 -0.14552885685E+02  0.22156597437E+02 -0.47122676510E+02  0.54067068842E+02  0.00000000000E+00 0. -1.
         -5    1    5    5    0  502 -0.65811756942E+01 -0.29644042513E+02  0.26215762853E+02  0.40391055346E+02  0.47000000000E+01 0.  1.
         11    1    6    6    0    0 -0.17479654795E+02  0.42743641789E+02 -0.49684853603E+02  0.67831717675E+02  0.00000000000E+00 0. -1.
        -12    1    6    6    0    0  0.62119844852E+02  0.24391301360E+02 -0.61619343450E+02  0.90833662228E+02  0.00000000000E+00 0.  1.
</event>
<event>
12    1  0.8724767E-002  0.2003195E+03  0.7818608E-02  0.1149801E+00
         21   -1    0    0  503  502  0.00000000000E+00  0.00000000000E+00  0.30941167731E+03  0.30941167731E+03  0.00000000000E+00 0.  1.
         21   -1    0    0  501  503 -0.00000000000E+00 -0.00000000000E+00 -0.13405659281E+03  0.13405659281E+03  0.00000000000E+00 0.  1.
          6    2    1    2  501    0  0.53932335360E+02 -0.89235001096E+02  0.13242008458E+03  0.24013113448E+03  0.17104473312E+03 0.  0.
         24    2    3    3    0    0  0.48510642608E+02  0.83939042491E+01  0.10063762897E+03  0.13720877347E+03  0.79212215456E+02 0.  0.
         -6    2    1    2    0  502 -0.53932335360E+02  0.89235001096E+02  0.42934999928E+02  0.20333713564E+03  0.16920695699E+03 0.  0.
        -24    2    5    5    0    0 -0.14717071851E+02  0.12233160858E+03  0.38369034517E+02  0.15160551708E+03  0.79564032945E+02 0.  0.
          5    1    3    3  501    0  0.54216927517E+01 -0.97628905346E+02  0.31782455606E+02  0.10292236101E+03  0.47000000000E+01 0. -1.
        -11    1    4    4    0    0  0.94625490067E+01 -0.30043574726E+02  0.63896000833E+02  0.71238017508E+02  0.00000000000E+00 0.  1.
         12    1    4    4    0    0  0.39048093602E+02  0.38437478975E+02  0.36741628136E+02  0.65970755961E+02  0.00000000000E+00 0. -1.
         -5    1    5    5    0  502 -0.39215263509E+02 -0.33096607483E+02  0.45659654106E+01  0.51731618562E+02  0.47000000000E+01 0.  1.
         11    1    6    6    0    0  0.16035627507E+02  0.60820004518E+02  0.51863676452E+02  0.81523341653E+02  0.00000000000E+00 0. -1.
        -12    1    6    6    0    0 -0.30752699358E+02  0.61511604061E+02 -0.13494641935E+02  0.70082175429E+02  0.00000000000E+00 0.  1.
</event>
<event>
12    1  0.8724767E-002  0.2639723E+03  0.7818608E-02  0.1104965E+00
         21   -1    0    0  501  502  0.00000000000E+00  0.00000000000E+00  0.62360352058E+03  0.62360352058E+03  0.00000000000E+00 0.  1.
         21   -1    0    0  502  503 -0.00000000000E+00 -0.00000000000E+00 -0.13427202077E+03  0.13427202077E+03  0.00000000000E+00 0. -1.
         -6    2    1    2    0  503 -0.19178115748E+03 -0.53593445727E+02  0.40122628050E+03  0.47958806500E+03  0.17137652737E+03 0.  0.
        -24    2    3    3    0    0 -0.29808790398E+02  0.16507705841E+01  0.18539893832E+03  0.20410575564E+03  0.79969394945E+02 0.  0.
          6    2    1    2  501    0  0.19178115748E+03  0.53593445727E+02  0.88105219307E+02  0.27828747635E+03  0.17328912266E+03 0.  0.
         24    2    5    5    0    0  0.15599488461E+03  0.90532416848E+02  0.10672096377E+03  0.22338956331E+03  0.77349921553E+02 0.  0.
          5    1    5    5  501    0  0.35786272872E+02 -0.36938971122E+02 -0.18615744464E+02  0.54897913034E+02  0.47000000000E+01 0. -1.
        -13    1    6    6    0    0  0.72503473326E+02  0.64908707730E+01  0.65600669199E+02  0.97991493748E+02  0.00000000000E+00 0.  1.
         14    1    6    6    0    0  0.83491411286E+02  0.84041546075E+02  0.41120294573E+02  0.12539806957E+03  0.00000000000E+00 0. -1.
         -5    1    3    3    0  503 -0.16197236709E+03 -0.55244216311E+02  0.21582734218E+03  0.27548230935E+03  0.47000000000E+01 0.  1.
         11    1    4    4    0    0 -0.28865560884E+02  0.38022444061E+02  0.12201738865E+03  0.13102354747E+03  0.00000000000E+00 0. -1.
        -12    1    4    4    0    0 -0.94322951354E+00 -0.36371673477E+02  0.63381549666E+02  0.73082208173E+02  0.00000000000E+00 0.  1.
</event>
<event>
12    1  0.8724767E-002  0.1828858E+03  0.7818608E-02  0.1165511E+00
         21   -1    0    0  503  502  0.00000000000E+00  0.00000000000E+00  0.53601174604E+03  0.53601174604E+03  0.00000000000E+00 0.  1.
         21   -1    0    0  501  503 -0.00000000000E+00 -0.00000000000E+00 -0.90475462995E+02  0.90475462995E+02  0.00000000000E+00 0.  1.
          6    2    1    2  501    0  0.59337425363E+02 -0.12838749659E+02  0.45366399968E+02  0.18650636366E+03  0.17041346748E+03 0.  0.
         24    2    3    3    0    0  0.89860577430E+02  0.13159313980E+02 -0.71761176204E+01  0.12024650945E+03  0.78483345057E+02 0.  0.
         -6    2    1    2    0  502 -0.59337425363E+02  0.12838749659E+02  0.40016988308E+03  0.43998084538E+03  0.17251505857E+03 0.  0.
        -24    2    5    5    0    0  0.12731067630E+02 -0.40433975119E+02  0.21972844023E+03  0.23845403529E+03  0.82357471254E+02 0.  0.
          5    1    3    3  501    0 -0.30523152067E+02 -0.25998063638E+02  0.52542517588E+02  0.66259854207E+02  0.47000000000E+01 0. -1.
        -11    1    4    4    0    0  0.24412669689E+02 -0.31984858126E+02  0.15155433865E+01  0.40265449985E+02  0.00000000000E+00 0.  1.
         12    1    4    4    0    0  0.65447907741E+02  0.45144172106E+02 -0.86916610069E+01  0.79981059469E+02  0.00000000000E+00 0. -1.
         -5    1    5    5    0  502 -0.72068492993E+02  0.53272724778E+02  0.18044144285E+03  0.20152681009E+03  0.47000000000E+01 0.  1.
         11    1    6    6    0    0  0.43817435291E+02 -0.13579523021E+02  0.74169507824E+02  0.87209443134E+02  0.00000000000E+00 0. -1.
        -12    1    6    6    0    0 -0.31086367662E+02 -0.26854452098E+02  0.14555893241E+03  0.15124459215E+03  0.00000000000E+00 0.  1.
</event>
<event>
12    1  0.8724767E-002  0.1835987E+03  0.7818608E-02  0.1164389E+00
         21   -1    0    0  503  502  0.00000000000E+00  0.00000000000E+00  0.30214683070E+03  0.30214683070E+03  0.00000000000E+00 0.  1.
         21   -1    0    0  501  503 -0.00000000000E+00 -0.00000000000E+00 -0.50873418495E+03  0.50873418495E+03  0.00000000000E+00 0.  1.
          6    2    1    2  501    0  0.49372957309E+02  0.47717788942E+02 -0.46155251281E+03  0.49669046109E+03  0.17016467248E+03 0.  0.
         24    2    3    3    0    0  0.38423715463E+01  0.79752144104E+02 -0.20875948117E+03  0.23779735381E+03  0.81190468602E+02 0.  0.
         -6    2    1    2    0  502 -0.49372957309E+02 -0.47717788942E+02  0.25496515856E+03  0.31419055456E+03  0.17027564771E+03 0.  0.
        -24    2    5    5    0    0 -0.30002218342E+02  0.94238247627E+01  0.23534059909E+03  0.25056978060E+03  0.80069193784E+02 0.  0.
          5    1    3    3  501    0  0.45530585763E+02 -0.32034355162E+02 -0.25279303164E+03  0.25889310728E+03  0.47000000000E+01 0. -1.
        -13    1    4    4    0    0  0.16322292587E+02 -0.41667952530E+01 -0.91647530829E+02  0.93182881073E+02  0.00000000000E+00 0.  1.
         14    1    4    4    0    0 -0.12479921041E+02  0.83918939357E+02 -0.11711195034E+03  0.14461447273E+03  0.00000000000E+00 0. -1.
         -5    1    5    5    0  502 -0.19370738967E+02 -0.57141613705E+02  0.19624559467E+02  0.63620773960E+02  0.47000000000E+01 0.  1.
         13    1    6    6    0    0  0.27679441274E+02  0.89090232258E+00  0.78338024776E+02  0.83089056451E+02  0.00000000000E+00 0. -1.
        -14    1    6    6    0    0 -0.57681659616E+02  0.85329224401E+01  0.15700257431E+03  0.16748072415E+03  0.00000000000E+00 0.  1.
</event>
<event>
12    1  0.8724767E-002  0.2309994E+03  0.7818608E-02  0.1125962E+00
         21   -1    0    0  503  502  0.00000000000E+00  0.00000000000E+00  0.17306304797E+04  0.17306304797E+04  0.00000000000E+00 0.  1.
         21   -1    0    0  501  503 -0.00000000000E+00 -0.00000000000E+00 -0.44258023580E+02  0.44258023580E+02  0.00000000000E+00 0. -1.
          6    2    1    2  501    0  0.15399545700E+03  0.18423383017E+02  0.35426414173E+03  0.42292292856E+03  0.17119199621E+03 0.  0.
         24    2    3    3    0    0  0.14848411710E+03  0.40543820018E+02  0.19043528870E+03  0.25744884694E+03  0.79517138014E+02 0.  0.
         -6    2    1    2    0  502 -0.15399545700E+03 -0.18423383017E+02  0.13321083144E+04  0.13519655747E+04  0.17100974284E+03 0.  0.
        -24    2    5    5    0    0 -0.14650781206E+03 -0.56677545256E+01  0.13239408176E+04  0.13344279326E+04  0.79887148834E+02 0.  0.
          5    1    3    3  501    0  0.55113398986E+01 -0.22120437001E+02  0.16382885303E+03  0.16547408162E+03  0.47000000000E+01 0. -1.
        -11    1    4    4    0    0  0.29245767721E+02  0.44152321779E+02  0.46251818750E+02  0.70313392649E+02  0.00000000000E+00 0.  1.
         12    1    4    4    0    0  0.11923834938E+03 -0.36085017611E+01  0.14418346995E+03  0.18713545429E+03  0.00000000000E+00 0. -1.
         -5    1    5    5    0  502 -0.74876449377E+01 -0.12755628492E+02  0.81674967931E+01  0.17537642054E+02  0.47000000000E+01 0.  1.
         11    1    6    6    0    0 -0.10818787906E+03 -0.11599566227E+02  0.62412249896E+03  0.63353615589E+03  0.00000000000E+00 0. -1.
        -12    1    6    6    0    0 -0.38319933004E+02  0.59318117010E+01  0.69981831862E+03  0.70089177676E+03  0.00000000000E+00 0.  1.
</event>
<event>
12    1  0.8724767E-002  0.2298704E+03  0.7818608E-02  0.1126735E+00
         21   -1    0    0  501  502  0.00000000000E+00  0.00000000000E+00  0.72620088132E+02  0.72620088132E+02  0.00000000000E+00 0.  1.
         21   -1    0    0  502  503 -0.00000000000E+00 -0.00000000000E+00 -0.11411888846E+04  0.11411888846E+04  0.00000000000E+00 0. -1.
         -6    2    1    2    0  503 -0.15052422472E+03 -0.25517881146E+02 -0.89965199128E+03  0.92854890809E+03  0.17181578745E+03 0.  0.
        -24    2    3    3    0    0 -0.24129635603E+02 -0.54979356600E+02 -0.37704022851E+03  0.39004290508E+03  0.79807048062E+02 0.  0.
          6    2    1    2  501    0  0.15052422472E+03  0.25517881146E+02 -0.16891680522E+03  0.28526006468E+03  0.17184793547E+03 0.  0.
         24    2    5    5    0    0  0.16443755856E+03  0.60033161131E+02 -0.14452571773E+03  0.24051746127E+03  0.79481287036E+02 0.  0.
          5    1    5    5  501    0 -0.13913333835E+02 -0.34515279985E+02 -0.24391087493E+02  0.44742603410E+02  0.47000000000E+01 0. -1.
        -13    1    6    6    0    0  0.55144031478E+02 -0.94324828195E+01 -0.16291356761E+02  0.58268724415E+02  0.00000000000E+00 0.  1.
         14    1    6    6    0    0  0.10929352708E+03  0.69465643950E+02 -0.12823436097E+03  0.18224873685E+03  0.00000000000E+00 0. -1.
         -5    1    3    3    0  503 -0.12639458912E+03  0.29461475454E+02 -0.52261176277E+03  0.53850600301E+03  0.47000000000E+01 0.  1.
         11    1    4    4    0    0 -0.47408177894E+02 -0.29193878298E+02 -0.30529129164E+03  0.31032658702E+03  0.00000000000E+00 0. -1.
        -12    1    4    4    0    0  0.23278542291E+02 -0.25785478302E+02 -0.71748936866E+02  0.79716318053E+02  0.00000000000E+00 0.  1.
</event>
<event>
12    1  0.8724767E-002  0.1779440E+03  0.7818608E-02  0.1170108E+00
         21   -1    0    0  503  502  0.00000000000E+00  0.00000000000E+00  0.12601910421E+03  0.12601910421E+03  0.00000000000E+00 0.  1.
         21   -1    0    0  501  503 -0.00000000000E+00 -0.00000000000E+00 -0.45213261958E+03  0.45213261958E+03  0.00000000000E+00 0.  1.
          6    2    1    2  501    0  0.17033909154E+02 -0.35024669400E+02 -0.35686451320E+03  0.39876853937E+03  0.17362944934E+03 0.  0.
         24    2    3    3    0    0  0.66809472389E+02  0.10483426881E+02 -0.26544761889E+03  0.28506835428E+03  0.78918441431E+02 0.  0.
         -6    2    1    2    0  502 -0.17033909154E+02  0.35024669400E+02  0.30750997831E+02  0.17938318443E+03  0.17238277600E+03 0.  0.
        -24    2    5    5    0    0 -0.40810721470E+02 -0.73643870381E+01 -0.39182011437E+02  0.94090249815E+02  0.74819756126E+02 0.  0.
          5    1    3    3  501    0 -0.49775563235E+02 -0.45508096280E+02 -0.91416894310E+02  0.11370018508E+03  0.47000000000E+01 0. -1.
        -13    1    4    4    0    0  0.43184262770E+02  0.36507063813E+02 -0.22249187042E+03  0.22956541260E+03  0.00000000000E+00 0.  1.
         14    1    4    4    0    0  0.23625209619E+02 -0.26023636932E+02 -0.42955748476E+02  0.55502941686E+02  0.00000000000E+00 0. -1.
         -5    1    5    5    0  502  0.23776812316E+02  0.42389056438E+02  0.69933009268E+02  0.85292934613E+02  0.47000000000E+01 0.  1.
         13    1    6    6    0    0  0.16460400181E+02  0.12944866703E+02 -0.23210423409E+02  0.31260807777E+02  0.00000000000E+00 0. -1.
        -14    1    6    6    0    0 -0.57271121651E+02 -0.20309253741E+02 -0.15971588028E+02  0.62829442038E+02  0.00000000000E+00 0.  1.
</event>
<event>
12    1  0.8724767E-002  0.1862445E+03  0.7818608E-02  0.1162270E+00
         21   -1    0    0  501  502  0.00000000000E+00  0.00000000000E+00  0.35039318150E+02  0.35039318150E+02  0.00000000000E+00 0.  1.
         21   -1    0    0  502  503 -0.00000000000E+00 -0.00000000000E+00 -0.10817679470E+04  0.10817679470E+04  0.00000000000E+00 0. -1.
         -6    2    1    2    0  503 -0.51842954914E+02  0.48531393303E+02 -0.69557670616E+03  0.72007913180E+03  0.17217437030E+03 0.  0.
        -24    2    3    3    0    0 -0.68239893165E+02  0.30136950031E+02 -0.24197499884E+03  0.26578427820E+03  0.80774152397E+02 0.  0.
          6    2    1    2  501    0  0.51842954914E+02 -0.48531393303E+02 -0.35115192266E+03  0.39672813332E+03  0.17041875152E+03 0.  0.
         24    2    5    5    0    0  0.65927197894E+02 -0.88874038126E+02 -0.30412016198E+03  0.33301022842E+03  0.78496810371E+02 0.  0.
          5    1    5    5  501    0 -0.14084242980E+02  0.40342644823E+02 -0.47031760683E+02  0.63717904898E+02  0.47000000000E+01 0. -1.
        -11    1    6    6    0    0  0.41345281664E+02 -0.14636339517E+02 -0.47110929803E+02  0.64366873912E+02  0.00000000000E+00 0.  1.
         12    1    6    6    0    0  0.24581916230E+02 -0.74237698609E+02 -0.25700923217E+03  0.26864335451E+03  0.00000000000E+00 0. -1.
         -5    1    3    3    0  503  0.16396938252E+02  0.18394443272E+02 -0.45360170731E+03  0.45429485360E+03  0.47000000000E+01 0.  1.
         11    1    4    4    0    0 -0.76019625074E+02  0.24371185170E+02 -0.24325245090E+03  0.25601697782E+03  0.00000000000E+00 0. -1.
        -12    1    4    4    0    0  0.77797319081E+01  0.57657648612E+01  0.12774520531E+01  0.97673003816E+01  0.00000000000E+00 0.  1.
</event>
<event>
12    1  0.8724767E-002  0.2173214E+03  0.7818608E-02  0.1135903E+00
         21   -1    0    0  503  502  0.00000000000E+00  0.00000000000E+00  0.60941973372E+03  0.60941973372E+03  0.00000000000E+00 0. -1.
         21   -1    0    0  501  503 -0.00000000000E+00 -0.00000000000E+00 -0.11168594847E+03  0.11168594847E+03  0.00000000000E+00 0.  1.
          6    2    1    2  501    0 -0.92841982757E+01 -0.13206543277E+03  0.49357928392E+02  0.22285601888E+03  0.17234014386E+03 0.  0.
         24    2    3    3    0    0  0.16306323766E+02 -0.11589518096E+03  0.85434273353E+02  0.17552796665E+03  0.99062923688E+02 0.  0.
         -6    2    1    2    0  502  0.92841982757E+01  0.13206543277E+03  0.44837585685E+03  0.49824966331E+03  0.17229144816E+03 0.  0.
        -24    2    5    5    0    0 -0.24217917563E+02  0.15512587591E+03  0.34965611523E+03  0.39137659285E+03  0.79156134372E+02 0.  0.
          5    1    3    3  501    0 -0.25590522042E+02 -0.16170251810E+02 -0.36076344960E+02  0.47328052228E+02  0.47000000000E+01 0. -1.
        -13    1    4    4    0    0  0.20094779750E+02 -0.35277196904E+02 -0.17934696618E+02  0.44383940084E+02  0.00000000000E+00 0.  1.
         14    1    4    4    0    0 -0.37884559845E+01 -0.80617984057E+02  0.10336896997E+03  0.13114402657E+03  0.00000000000E+00 0. -1.
         -5    1    5    5    0  502  0.33502115839E+02 -0.23060443134E+02  0.98719741618E+02  0.10687307045E+03  0.47000000000E+01 0.  1.
         11    1    6    6    0    0 -0.35798924204E+02  0.68253470421E+02  0.96629091584E+02  0.12360129667E+03  0.00000000000E+00 0. -1.
        -12    1    6    6    0    0  0.11581006641E+02  0.86872405485E+02  0.25302702365E+03  0.26777529618E+03  0.00000000000E+00 0.  1.
</event>
<event>
12    1  0.8724767E-002  0.1911890E+03  0.7818608E-02  0.1158585E+00
         21   -1    0    0  503  502  0.00000000000E+00  0.00000000000E+00  0.45424059162E+03  0.45424059162E+03  0.00000000000E+00 0.  1.
         21   -1    0    0  501  503 -0.00000000000E+00 -0.00000000000E+00 -0.61572695205E+03  0.61572695205E+03  0.00000000000E+00 0.  1.
          6    2    1    2  501    0  0.69357263092E+02 -0.25932624142E+02 -0.58041612559E+03  0.60947283579E+03  0.17056180048E+03 0.  0.
         24    2    3    3    0    0 -0.15841152735E+02  0.25638466338E+02 -0.28970560795E+03  0.30214069869E+03  0.80320541870E+02 0.  0.
         -6    2    1    2    0  502 -0.69357263092E+02  0.25932624142E+02  0.41892976516E+03  0.46049470788E+03  0.17626768538E+03 0.  0.
        -24    2    5    5    0    0  0.19028638332E+02  0.53363854382E+02  0.22632591503E+03  0.24675918662E+03  0.80354753040E+02 0.  0.
          5    1    3    3  501    0  0.85198415826E+02 -0.51571090481E+02 -0.29071051763E+03  0.30733213710E+03  0.47000000000E+01 0. -1.
        -11    1    4    4    0    0 -0.17514928377E+02  0.23440338984E+01 -0.27264840096E+03  0.27322045633E+03  0.00000000000E+00 0.  1.
         12    1    4    4    0    0  0.16737756417E+01  0.23294432440E+02 -0.17057206998E+02  0.28920242360E+02  0.00000000000E+00 0. -1.
         -5    1    5    5    0  502 -0.88385901424E+02 -0.27431230240E+02  0.19260385013E+03  0.21373552126E+03  0.47000000000E+01 0.  1.
         13    1    6    6    0    0  0.93872456909E+01 -0.21153105301E+02  0.56277961374E+02  0.60850498617E+02  0.00000000000E+00 0. -1.
        -14    1    6    6    0    0  0.96413926412E+01  0.74516959684E+02  0.17004795366E+03  0.18590868801E+03  0.00000000000E+00 0.  1.
</event>
<event>
12    1  0.8724767E-002  0.2061833E+03  0.7818608E-02  0.1148355E+00
         21   -1    0    0  503  502  0.00000000000E+00  0.00000000000E+00  0.55607269089E+03  0.55607269089E+03  0.00000000000E+00 0.  1.
         21   -1    0    0  501  503 -0.00000000000E+00 -0.00000000000E+00 -0.10253035176E+03  0.10253035176E+03  0.00000000000E+00 0.  1.
          6    2    1    2  501    0  0.60329891284E+02  0.50613147756E+02  0.48533750279E+02  0.21181853318E+03  0.19055230142E+03 0.  0.
         24    2    3    3    0    0  0.36396625013E+02 -0.15208217064E+02  0.93456287724E+02  0.12847960068E+03  0.78847485033E+02 0.  0.
         -6    2    1    2    0  502 -0.60329891284E+02 -0.50613147756E+02  0.40500858885E+03  0.44678450947E+03  0.17141486034E+03 0.  0.
        -24    2    5    5    0    0 -0.83916884791E+02 -0.46321375110E+02  0.17031871710E+03  0.21082648041E+03  0.79067225193E+02 0.  0.
          5    1    3    3  501    0  0.23933266271E+02  0.65821364819E+02 -0.44922537446E+02  0.83338932508E+02  0.47000000000E+01 0. -1.
        -11    1    4    4    0    0 -0.15854795682E+02 -0.29795388514E+02  0.32078502488E+02  0.46563612883E+02  0.00000000000E+00 0.  1.
         12    1    4    4    0    0  0.52251420696E+02  0.14587171450E+02  0.61377785236E+02  0.81915987793E+02  0.00000000000E+00 0. -1.
         -5    1    5    5    0  502  0.23586993507E+02 -0.42917726452E+01  0.23468987175E+03  0.23595802906E+03  0.47000000000E+01 0.  1.
         13    1    6    6    0    0 -0.46663016647E+02  0.35704824430E+01  0.12596711312E+03  0.13437968245E+03  0.00000000000E+00 0. -1.
        -14    1    6    6    0    0 -0.37253868144E+02 -0.49891857553E+02  0.44351603981E+02  0.76446797954E+02  0.00000000000E+00 0.  1.
</event>
<event>
12    1  0.8724767E-002  0.3711533E+03  0.7818608E-02  0.1054362E+00
         21   -1    0    0  503  502  0.00000000000E+00  0.00000000000E+00  0.78792413852E+03  0.78792413852E+03  0.00000000000E+00 0. -1.
         21   -1    0    0  501  503 -0.00000000000E+00 -0.00000000000E+00 -0.27119131355E+03  0.27119131355E+03  0.00000000000E+00 0.  1.
          6    2    1    2  501    0 -0.97622153163E+02  0.31304194059E+03 -0.57916310721E+02  0.37564488107E+03  0.17386614468E+03 0.  0.
         24    2    3    3    0    0 -0.43692978214E+02  0.27727675528E+03 -0.48300597120E+01  0.29181323766E+03  0.79625126861E+02 0.  0.
         -6    2    1    2    0  502  0.97622153163E+02 -0.31304194059E+03  0.57464913569E+03  0.68347057101E+03  0.17142068406E+03 0.  0.
        -24    2    5    5    0    0  0.60389529309E+02 -0.26241999752E+03  0.54698724595E+03  0.61465110033E+03  0.78037026840E+02 0.  0.
          5    1    3    3  501    0 -0.53929174949E+02  0.35765185310E+02 -0.53086251009E+02  0.83831643412E+02  0.47000000000E+01 0. -1.
        -13    1    4    4    0    0  0.18036993494E+02  0.32821049925E+02  0.11441458021E+02  0.39159435825E+02  0.00000000000E+00 0.  1.
         14    1    4    4    0    0 -0.61729971709E+02  0.24445570536E+03 -0.16271517733E+02  0.25265380183E+03  0.00000000000E+00 0. -1.
         -5    1    5    5    0  502  0.37232623854E+02 -0.50621943078E+02  0.27661889737E+02  0.68819470674E+02  0.47000000000E+01 0.  1.
         11    1    6    6    0    0  0.69490393102E+02 -0.14841118195E+03  0.35848719467E+03  0.39416730255E+03  0.00000000000E+00 0. -1.
        -12    1    6    6    0    0 -0.91008637932E+01 -0.11400881557E+03  0.18850005128E+03  0.22048379778E+03  0.00000000000E+00 0.  1.
</event>
<event>
12    1  0.8724767E-002  0.2036594E+03  0.7818608E-02  0.1146961E+00
         21   -1    0    0  503  502  0.00000000000E+00  0.00000000000E+00  0.59954394628E+02  0.59954394628E+02  0.00000000000E+00 0. -1.
         21   -1    0    0  501  503 -0.00000000000E+00 -0.00000000000E+00 -0.73975083346E+03  0.73975083346E+03  0.00000000000E+00 0.  1.
          6    2    1    2  501    0  0.10242496162E+03  0.29861290698E+02 -0.23243782127E+03  0.30816998825E+03  0.17192682006E+03 0.  0.
         24    2    3    3    0    0  0.10067735501E+03  0.56528311307E+02 -0.10046829947E+03  0.17343978079E+03  0.81584916328E+02 0.  0.
         -6    2    1    2    0  502 -0.10242496162E+03 -0.29861290698E+02 -0.44735861757E+03  0.49153523984E+03  0.17347792323E+03 0.  0.
        -24    2    5    5    0    0 -0.56938778343E+02 -0.74290592428E+02 -0.19032573100E+03  0.22671275119E+03  0.80085398588E+02 0.  0.
          5    1    3    3  501    0  0.17476066111E+01 -0.26667020608E+02 -0.13196952180E+03  0.13473020745E+03  0.47000000000E+01 0. -1.
        -13    1    4    4    0    0 -0.14180093649E+02  0.84523465791E+01 -0.15921863884E+02  0.22935190606E+02  0.00000000000E+00 0.  1.
         14    1    4    4    0    0  0.11485744866E+03  0.48075964727E+02 -0.84546435585E+02  0.15050459019E+03  0.00000000000E+00 0. -1.
         -5    1    5    5    0  502 -0.45486183281E+02  0.44429301730E+02 -0.25703288656E+03  0.26482248865E+03  0.47000000000E+01 0.  1.
         13    1    6    6    0    0  0.17972538156E+01  0.42313031131E+01  0.58227563474E+01  0.74187963171E+01  0.00000000000E+00 0. -1.
        -14    1    6    6    0    0 -0.58736032158E+02 -0.78521895542E+02 -0.19614848735E+03  0.21929395487E+03  0.00000000000E+00 0.  1.
</event>
<event>
12    1  0.8724767E-002  0.2931136E+03  0.7818608E-02  0.1088906E+00
         21   -1    0    0  501  502  0.00000000000E+00  0.00000000000E+00  0.12202469712E+04  0.12202469712E+04  0.00000000000E+00 0. -1.
         21   -1    0    0  502  503 -0.00000000000E+00 -0.00000000000E+00 -0.16141451191E+03  0.16141451191E+03  0.00000000000E+00 0.  1.
         -6    2    1    2    0  503 -0.10608871628E+03 -0.21007114234E+03  0.10307601778E+02  0.29329473249E+03  0.17473080119E+03 0.  0.
        -24    2    3    3    0    0  0.15381149828E+02 -0.10612096423E+03  0.16047766461E+02  0.13324596682E+03  0.77451391509E+02 0.  0.
          6    2    1    2  501    0  0.10608871628E+03  0.21007114234E+03  0.10485248575E+04  0.10883667506E+04  0.17249088808E+03 0.  0.
         24    2    5    5    0    0  0.10016002837E+03  0.17160422845E+03  0.58165369336E+03  0.61985247472E+03  0.80100118068E+02 0.  0.
          5    1    5    5  501    0  0.59286879119E+01  0.38466913896E+02  0.46687116418E+03  0.46851427593E+03  0.47000000000E+01 0. -1.
        -11    1    6    6    0    0  0.13157084577E+02  0.94827153300E+02  0.21693941714E+03  0.23712445801E+03  0.00000000000E+00 0.  1.
         12    1    6    6    0    0  0.87002943792E+02  0.76777075148E+02  0.36471427622E+03  0.38272801671E+03  0.00000000000E+00 0. -1.
         -5    1    3    3    0  503 -0.12146986611E+03 -0.10395017812E+03 -0.57401646828E+01  0.16004876567E+03  0.47000000000E+01 0.  1.
         11    1    4    4    0    0 -0.20022914544E+02 -0.72670569315E+02  0.32146892545E+02  0.81947247981E+02  0.00000000000E+00 0. -1.
        -12    1    4    4    0    0  0.35404064371E+02 -0.33450394911E+02 -0.16099126084E+02  0.51298718838E+02  0.00000000000E+00 0.  1.
</event>
<event>
12    1  0.8724767E-002  0.1920190E+03  0.7818608E-02  0.1156978E+00
         21   -1    0    0  503  502  0.00000000000E+00  0.00000000000E+00  0.11159100288E+04  0.11159100288E+04  0.00000000000E+00 0.  1.
         21   -1    0    0  501  503 -0.00000000000E+00 -0.00000000000E+00 -0.44303289463E+02  0.44303289463E+02  0.00000000000E+00 0.  1.
          6    2    1    2  501    0  0.41191952956E+02 -0.71368560412E+02  0.24160575870E+03  0.30861729768E+03  0.17343888083E+03 0.  0.
         24    2    3    3    0    0 -0.13820292645E+02  0.47301318859E+01  0.51298539240E+02  0.96352637608E+02  0.80242856439E+02 0.  0.
         -6    2    1    2    0  502 -0.41191952956E+02  0.71368560412E+02  0.83000098065E+03  0.85159602060E+03  0.17182521939E+03 0.  0.
        -24    2    5    5    0    0  0.36274493000E+02  0.70566514986E+02  0.51591664058E+03  0.52806432787E+03  0.79915470698E+02 0.  0.
          5    1    3    3  501    0  0.55012245601E+02 -0.76098692297E+02  0.19030721947E+03  0.21226466007E+03  0.47000000000E+01 0. -1.
        -11    1    4    4    0    0  0.22599647510E+02  0.27141967297E+02  0.95452462110E+01  0.36586092734E+02  0.00000000000E+00 0.  1.
         12    1    4    4    0    0 -0.36419940155E+02 -0.22411835411E+02  0.41753293029E+02  0.59766544874E+02  0.00000000000E+00 0. -1.
         -5    1    5    5    0  502 -0.77466445956E+02  0.80204542513E+00  0.31408434007E+03  0.32353169273E+03  0.47000000000E+01 0.  1.
         13    1    6    6    0    0  0.31449804910E+02 -0.13729485478E+01  0.26901031015E+03  0.27084593809E+03  0.00000000000E+00 0. -1.
        -14    1    6    6    0    0  0.48246880901E+01  0.71939463534E+02  0.24690633043E+03  0.25721838977E+03  0.00000000000E+00 0.  1.
</event>
<event>
12    1  0.8724767E-002  0.1874399E+03  0.7818608E-02  0.1160802E+00
         21   -1    0    0  503  502  0.00000000000E+00  0.00000000000E+00  0.20736787288E+03  0.20736787288E+03  0.00000000000E+00 0.  1.
         21   -1    0    0  501  503 -0.00000000000E+00 -0.00000000000E+00 -0.17916520408E+03  0.17916520408E+03  0.00000000000E+00 0.  1.
          6    2    1    2  501    0 -0.28161566888E+01 -0.74701296919E+02 -0.31056935727E+02  0.18999539914E+03  0.17188805641E+03 0.  0.
         24    2    3    3    0    0 -0.44116206383E+02  0.70651750156E+00 -0.46448629878E+02  0.10252525092E+03  0.80045068719E+02 0.  0.
         -6    2    1    2    0  502  0.28161566888E+01  0.74701296919E+02  0.59259604523E+02  0.19653767782E+03  0.17183464021E+03 0.  0.
        -24    2    5    5    0    0  0.31563401978E+02  0.83835650552E+02  0.92659979853E+02  0.15128819606E+03  0.79231191784E+02 0.  0.
          5    1    3    3  501    0  0.41300049694E+02 -0.75407814420E+02  0.15391694152E+02  0.87470148218E+02  0.47000000000E+01 0. -1.
        -13    1    4    4    0    0 -0.20527341451E+01 -0.33938970281E+02 -0.56885219544E+01  0.34473565282E+02  0.00000000000E+00 0.  1.
         14    1    4    4    0    0 -0.42063472238E+02  0.34645487782E+02 -0.40760107924E+02  0.68051685640E+02  0.00000000000E+00 0. -1.
         -5    1    5    5    0  502 -0.28747245289E+02 -0.91343536332E+01 -0.33400375329E+02  0.45249481767E+02  0.47000000000E+01 0.  1.
         11    1    6    6    0    0  0.34327647639E+02  0.43883606500E+01  0.87396770674E+01  0.35693515614E+02  0.00000000000E+00 0. -1.
        -12    1    6    6    0    0 -0.27642456612E+01  0.79447289902E+02  0.83920302785E+02  0.11559468044E+03  0.00000000000E+00 0.  1.
</event>
<event>
12    1  0.8724767E-002  0.2554246E+03  0.7818608E-02  0.1111520E+00
         21   -1    0    0  503  502  0.00000000000E+00  0.00000000000E+00  0.16700045069E+03  0.16700045069E+03  0.00000000000E+00 0. -1.
         21   -1    0    0  501  503 -0.00000000000E+00 -0.00000000000E+00 -0.21654420194E+04  0.21654420194E+04  0.00000000000E+00 0. -1.
          6    2    1    2  501    0 -0.41374272025E+02 -0.16979366050E+03 -0.20630575476E+04  0.20788093125E+04  0.18627934836E+03 0.  0.
         24    2    3    3    0    0  0.44120150896E+02 -0.13673013879E+03 -0.13669271316E+04  0.13766539602E+04  0.77747181826E+02 0.  0.
         -6    2    1    2    0  502  0.41374272025E+02  0.16979366050E+03  0.64615978805E+02  0.25363315764E+03  0.17208380635E+03 0.  0.
        -24    2    5    5    0    0  0.56515033756E+02  0.68651699148E+02  0.88723637418E+02  0.14845612490E+03  0.79122262029E+02 0.  0.
          5    1    3    3  501    0 -0.85494422921E+02 -0.33063521704E+02 -0.69613041594E+03  0.70215535234E+03  0.47000000000E+01 0. -1.
        -11    1    4    4    0    0  0.15845093695E+02 -0.75415672205E+02 -0.39893796780E+03  0.40631280162E+03  0.00000000000E+00 0.  1.
         12    1    4    4    0    0  0.28275057202E+02 -0.61314466586E+02 -0.96798916382E+03  0.97034115854E+03  0.00000000000E+00 0. -1.
         -5    1    5    5    0  502 -0.15140761731E+02  0.10114196135E+03 -0.24107658613E+02  0.10517703273E+03  0.47000000000E+01 0.  1.
         11    1    6    6    0    0  0.64202379407E+02  0.78934808511E+02  0.62909548979E+02  0.11962550259E+03  0.00000000000E+00 0. -1.
        -12    1    6    6    0    0 -0.76873456508E+01 -0.10283109363E+02  0.25814088439E+02  0.28830622318E+02  0.00000000000E+00 0.  1.
</event>
<event>
12    1  0.8724767E-002  0.1846171E+03  0.7818608E-02  0.1164016E+00
         21   -1    0    0  503  502  0.00000000000E+00  0.00000000000E+00  0.53515421553E+03  0.53515421553E+03  0.00000000000E+00 0. -1.
         21   -1    0    0  501  503 -0.00000000000E+00 -0.00000000000E+00 -0.63255765201E+02  0.63255765201E+02  0.00000000000E+00 0. -1.
          6    2    1    2  501    0 -0.54150142262E+02 -0.40068249536E+02  0.20898444960E+03  0.27715116420E+03  0.16911701604E+03 0.  0.
         24    2    3    3    0    0 -0.83544417745E+02 -0.51794809576E+02  0.20910201443E+03  0.24515679809E+03  0.81950174946E+02 0.  0.
         -6    2    1    2    0  502  0.54150142262E+02  0.40068249536E+02  0.26291400072E+03  0.32125881653E+03  0.17188878059E+03 0.  0.
        -24    2    5    5    0    0  0.70653884892E+02  0.70035883375E+02  0.12345837240E+03  0.17759116230E+03  0.79997842488E+02 0.  0.
          5    1    3    3  501    0  0.29394275483E+02  0.11726560040E+02 -0.11756482682E+00  0.31994366114E+02  0.47000000000E+01 0. -1.
        -11    1    4    4    0    0 -0.76078919649E+02 -0.23984436864E+02  0.19941179988E+03  0.21477504781E+03  0.00000000000E+00 0.  1.
         12    1    4    4    0    0 -0.74654980961E+01 -0.27810372712E+02  0.96902145461E+01  0.30381750281E+02  0.00000000000E+00 0. -1.
         -5    1    5    5    0  502 -0.16503742630E+02 -0.29967633838E+02  0.13945562833E+03  0.14366765423E+03  0.47000000000E+01 0.  1.
         13    1    6    6    0    0  0.58593653168E+02  0.48108355278E+02  0.13108498456E+03  0.15142953218E+03  0.00000000000E+00 0. -1.
        -14    1    6    6    0    0  0.12060231725E+02  0.21927528097E+02 -0.76266121621E+01  0.26161630124E+02  0.00000000000E+00 0.  1.
</event>
<event>
12    1  0.8724767E-002  0.1918960E+03  0.7818608E-02  0.1157122E+00
         21   -1    0    0  501  502  0.00000000000E+00  0.00000000000E+00  0.69569524885E+03  0.69569524885E+03  0.00000000000E+00 0. -1.
         21   -1    0    0  502  503 -0.00000000000E+00 -0.00000000000E+00 -0.63265090870E+02  0.63265090870E+02  0.00000000000E+00 0.  1.
         -6    2    1    2    0  503  0.69741349570E+02  0.51423005184E+02  0.15849084615E+03  0.24764579359E+03  0.16941342765E+03 0.  0.
        -24    2    3    3    0    0  0.46895299256E+02  0.82014014338E+02  0.16650611627E+03  0.20835092865E+03  0.82221378447E+02 0.  0.
          6    2    1    2  501    0 -0.69741349570E+02 -0.51423005184E+02  0.47393931182E+03  0.51131454612E+03  0.17121890224E+03 0.  0.
         24    2    5    5    0    0 -0.47207017867E+02 -0.36329302010E+02  0.47318789529E+03  0.48377783231E+03  0.81153472299E+02 0.  0.
          5    1    5    5  501    0 -0.22534331703E+02 -0.15093703174E+02  0.75141653252E+00  0.27536713813E+02  0.47000000000E+01 0. -1.
        -11    1    6    6    0    0 -0.34358345753E+02  0.21486338212E+02  0.22508369659E+03  0.22870249042E+03  0.00000000000E+00 0.  1.
         12    1    6    6    0    0 -0.12848672114E+02 -0.57815640222E+02  0.24810419870E+03  0.25507534189E+03  0.00000000000E+00 0. -1.
         -5    1    3    3    0  503  0.22846050313E+02 -0.30591009154E+02 -0.80152701149E+01  0.39294864944E+02  0.47000000000E+01 0.  1.
         11    1    4    4    0    0  0.30316239533E+02  0.38908165394E+02  0.17476674786E+02  0.52329283153E+02  0.00000000000E+00 0. -1.
        -12    1    4    4    0    0  0.16579059724E+02  0.43105848944E+02  0.14902944148E+03  0.15602164550E+03  0.00000000000E+00 0.  1.
</event>
<event>
12    1  0.8724767E-002  0.2202564E+03  0.7818608E-02  0.1133792E+00
         21   -1    0    0  501  502  0.00000000000E+00  0.00000000000E+00  0.11725396990E+03  0.11725396990E+03  0.00000000000E+00 0. -1.
         21   -1    0    0  502  503 -0.00000000000E+00 -0.00000000000E+00 -0.41283037095E+03  0.41283037095E+03  0.00000000000E+00 0.  1.
         -6    2    1    2    0  503  0.13750497456E+03 -0.13263747988E+02 -0.14349141967E+03  0.26242277593E+03  0.17085777936E+03 0.  0.
        -24    2    3    3    0    0  0.38254318363E+02 -0.23606736790E+02 -0.58930367061E+01  0.92384323904E+02  0.80495121134E+02 0.  0.
          6    2    1    2  501    0 -0.13750497456E+03  0.13263747988E+02 -0.15208498139E+03  0.26766156492E+03  0.17154977916E+03 0.  0.
         24    2    5    5    0    0 -0.16530699156E+03  0.32673553372E+02 -0.12775574441E+03  0.22566520239E+03  0.78799053233E+02 0.  0.
          5    1    5    5  501    0  0.27802016994E+02 -0.19409805384E+02 -0.24329236984E+02  0.41996362535E+02  0.47000000000E+01 0. -1.
        -13    1    6    6    0    0 -0.10839350286E+03 -0.17652079199E+02 -0.70024673542E+02  0.13024669772E+03  0.00000000000E+00 0.  1.
         14    1    6    6    0    0 -0.56913488703E+02  0.50325632571E+02 -0.57731070866E+02  0.95418504670E+02  0.00000000000E+00 0. -1.
         -5    1    3    3    0  503  0.99250656202E+02  0.10342988802E+02 -0.13759838296E+03  0.17003845203E+03  0.47000000000E+01 0.  1.
         11    1    4    4    0    0 -0.13536420585E+02 -0.33765710346E+02  0.91376054808E+01  0.37508048621E+02  0.00000000000E+00 0. -1.
        -12    1    4    4    0    0  0.51790738948E+02  0.10158973556E+02 -0.15030642187E+02  0.54876275284E+02  0.00000000000E+00 0.  1.
</event>
<event>
12    1  0.8724767E-002  0.1888894E+03  0.7818608E-02  0.1160450E+00
         21   -1    0    0  503  502  0.00000000000E+00  0.00000000000E+00  0.10341213527E+04  0.10341213527E+04  0.00000000000E+00 0. -1.
         21   -1    0    0  501  503 -0.00000000000E+00 -0.00000000000E+00 -0.38196466794E+02  0.38196466794E+02  0.00000000000E+00 0. -1.
          6    2    1    2  501    0  0.71096619067E+02 -0.92014768542E+01  0.31957672821E+03  0.37122568399E+03  0.17475647863E+03 0.  0.
         24    2    3    3    0    0 -0.41112633251E+01  0.33282857045E+02  0.86448837791E+02  0.12256557965E+03  0.80151535858E+02 0.  0.
         -6    2    1    2    0  502 -0.71096619067E+02  0.92014768542E+01  0.67634815765E+03  0.70109213545E+03  0.17012923211E+03 0.  0.
        -24    2    5    5    0    0 -0.51538774533E+02  0.48684566815E+01  0.17259175348E+03  0.19691568907E+03  0.79422465850E+02 0.  0.
          5    1    3    3  501    0  0.75207882392E+02 -0.42484333899E+02  0.23312789042E+03  0.24866010434E+03  0.47000000000E+01 0. -1.
        -11    1    4    4    0    0 -0.25680811402E+01 -0.19253113651E+01 -0.14911670409E+02  0.15253189142E+02  0.00000000000E+00 0.  1.
         12    1    4    4    0    0 -0.15431821849E+01  0.35208168410E+02  0.10136050820E+03  0.10731239051E+03  0.00000000000E+00 0. -1.
         -5    1    5    5    0  502 -0.19557844534E+02  0.43330201727E+01  0.50375640417E+03  0.50417644638E+03  0.47000000000E+01 0.  1.
         11    1    6    6    0    0 -0.21257240765E+02  0.24868098432E+02  0.15139364933E+03  0.15488811982E+03  0.00000000000E+00 0. -1.
        -12    1    6    6    0    0 -0.30281533768E+02 -0.19999641750E+02  0.21198104154E+02  0.42027569252E+02  0.00000000000E+00 0.  1.
</event>
<event>
12    1  0.8724767E-002  0.1935052E+03  0.7818608E-02  0.1160282E+00
         21   -1    0    0  501  502  0.00000000000E+00  0.00000000000E+00  0.11884525801E+04  0.11884525801E+04  0.00000000000E+00 0.  1.
         21   -1    0    0  502  503 -0.00000000000E+00 -0.00000000000E+00 -0.64353856237E+02  0.64353856237E+02  0.00000000000E+00 0.  1.
         -6    2    1    2    0  503 -0.56895338535E+01 -0.42866823656E+02  0.78441393557E+02  0.18939516895E+03  0.16687582939E+03 0.  0.
        -24    2    3    3    0    0  0.99432271803E+01  0.31774632420E+02  0.11451661752E+02  0.87780975309E+02  0.80410596547E+02 0.  0.
          6    2    1    2  501    0  0.56895338535E+01  0.42866823656E+02  0.10456573303E+04  0.10634112674E+04  0.18861160041E+03 0.  0.
         24    2    5    5    0    0 -0.26028971179E+01  0.49879035454E+02  0.10471976100E+04  0.10514782046E+04  0.80553629489E+02 0.  0.
          5    1    5    5  501    0  0.82924309713E+01 -0.70122117974E+01 -0.15402796509E+01  0.11933062772E+02  0.47000000000E+01 0. -1.
        -11    1    6    6    0    0  0.10601524438E+02  0.26137760364E+02  0.95362078750E+03  0.95403783006E+03  0.00000000000E+00 0.  1.
         12    1    6    6    0    0 -0.13204421556E+02  0.23741275090E+02  0.93576822483E+02  0.97440374576E+02  0.00000000000E+00 0. -1.
         -5    1    3    3    0  503 -0.15632761034E+02 -0.74641456077E+02  0.66989731805E+02  0.10161419364E+03  0.47000000000E+01 0.  1.
         11    1    4    4    0    0  0.45280435573E+01  0.57582146235E+02  0.18204001379E+02  0.60560650671E+02  0.00000000000E+00 0. -1.
        -12    1    4    4    0    0  0.54151836230E+01 -0.25807513815E+02 -0.67523396269E+01  0.27220324638E+02  0.00000000000E+00 0.  1.
</event>
<event>
12    1  0.8724767E-002  0.1758619E+03  0.7818608E-02  0.1172198E+00
         21   -1    0    0  503  502  0.00000000000E+00  0.00000000000E+00  0.45902123429E+02  0.45902123429E+02  0.00000000000E+00 0.  1.
         21   -1    0    0  501  503 -0.00000000000E+00 -0.00000000000E+00 -0.66909410244E+03  0.66909410244E+03  0.00000000000E+00 0. -1.
          6    2    1    2  501    0 -0.28087544724E+02 -0.21317550273E+02 -0.30453072884E+03  0.35166231591E+03  0.17229065995E+03 0.  0.
         24    2    3    3    0    0 -0.83577067164E+02 -0.17451790272E+02 -0.17950700422E+03  0.21474243817E+03  0.81251824904E+02 0.  0.
         -6    2    1    2    0  502  0.28087544724E+02  0.21317550273E+02 -0.31866125018E+03  0.36333390997E+03  0.17094791501E+03 0.  0.
        -24    2    5    5    0    0 -0.47909095226E+02 -0.50160769684E+01 -0.19435816769E+03  0.21520458970E+03  0.78850971109E+02 0.  0.
          5    1    3    3  501    0  0.55489522440E+02 -0.38657600009E+01 -0.12502372462E+03  0.13691987773E+03  0.47000000000E+01 0. -1.
        -13    1    4    4    0    0 -0.22915533561E+02 -0.36889557145E+02 -0.31618402432E+02  0.53718567340E+02  0.00000000000E+00 0.  1.
         14    1    4    4    0    0 -0.60661533602E+02  0.19437766873E+02 -0.14788860179E+03  0.16102387083E+03  0.00000000000E+00 0. -1.
         -5    1    5    5    0  502  0.75996639950E+02  0.26333627241E+02 -0.12430308249E+03  0.14812932027E+03  0.47000000000E+01 0.  1.
         11    1    6    6    0    0 -0.34622843588E+01 -0.35269575581E+02 -0.51074614412E+02  0.62165477654E+02  0.00000000000E+00 0. -1.
        -12    1    6    6    0    0 -0.44446810867E+02  0.30253498612E+02 -0.14328355328E+03  0.15303911204E+03  0.00000000000E+00 0.  1.
</event>
<event>
12    1  0.8724767E-002  0.2053658E+03  0.7818608E-02  0.1147475E+00
         21   -1    0    0  503  502  0.00000000000E+00  0.00000000000E+00  0.24360348993E+03  0.24360348993E+03  0.00000000000E+00 0. -1.
         21   -1    0    0  501  503 -0.00000000000E+00 -0.00000000000E+00 -0.17165700971E+03  0.17165700971E+03  0.00000000000E+00 0. -1.
          6    2    1    2  501    0  0.34269159873E+02  0.10319821561E+03  0.77604355201E+02  0.20981674453E+03  0.16179117193E+03 0.  0.
         24    2    3    3    0    0  0.46650366927E+02  0.11872192313E+03  0.23939669905E+02  0.15240360813E+03  0.79891177290E+02 0.  0.
         -6    2    1    2    0  502 -0.34269159873E+02 -0.10319821561E+03 -0.56578749830E+01  0.20544375510E+03  0.17421503362E+03 0.  0.
        -24    2    5    5    0    0  0.27987031044E+01 -0.12747585018E+03  0.26720772934E+02  0.15036293406E+03  0.75080537526E+02 0.  0.
          5    1    3    3  501    0 -0.12381207054E+02 -0.15523707525E+02  0.53664685296E+02  0.57413136400E+02  0.47000000000E+01 0. -1.
        -13    1    4    4    0    0 -0.81548482491E+01 -0.80051055657E+01 -0.28063124329E+01  0.11766845565E+02  0.00000000000E+00 0.  1.
         14    1    4    4    0    0  0.54805215176E+02  0.12672702870E+03  0.26745982338E+02  0.14063676256E+03  0.00000000000E+00 0. -1.
         -5    1    5    5    0  502 -0.37067862977E+02  0.24277634569E+02 -0.32378647917E+02  0.55080821044E+02  0.47000000000E+01 0.  1.
         13    1    6    6    0    0 -0.32614397857E+02 -0.44761405110E+02 -0.33770861315E+01  0.55485917544E+02  0.00000000000E+00 0. -1.
        -14    1    6    6    0    0  0.35413100961E+02 -0.82714445068E+02  0.30097859066E+02  0.94877016516E+02  0.00000000000E+00 0.  1.
</event>
<event>
12    1  0.8724767E-002  0.2253105E+03  0.7818608E-02  0.1130331E+00
         21   -1    0    0  503  502  0.00000000000E+00  0.00000000000E+00  0.39817063299E+02  0.39817063299E+02  0.00000000000E+00 0. -1.
         21   -1    0    0  501  503 -0.00000000000E+00 -0.00000000000E+00 -0.12846573906E+04  0.12846573906E+04  0.00000000000E+00 0.  1.
          6    2    1    2  501    0  0.10052312631E+03 -0.10723454562E+03 -0.70343716613E+03  0.73805974697E+03  0.16823851136E+03 0.  0.
         24    2    3    3    0    0  0.13255305605E+02 -0.56505625207E+02 -0.51369935431E+03  0.52309085822E+03  0.79802446861E+02 0.  0.
         -6    2    1    2    0  502 -0.10052312631E+03  0.10723454562E+03 -0.54140316119E+03  0.58641470695E+03  0.17076498143E+03 0.  0.
        -24    2    5    5    0    0 -0.31930107916E+02  0.51354544877E+02 -0.12196259251E+03  0.15771894384E+03  0.79646532897E+02 0.  0.
          5    1    3    3  501    0  0.87267820705E+02 -0.50728920414E+02 -0.18973781182E+03  0.21496888875E+03  0.47000000000E+01 0. -1.
        -11    1    4    4    0    0 -0.91405557769E+00  0.13499227574E+02 -0.23485204756E+03  0.23524146931E+03  0.00000000000E+00 0.  1.
         12    1    4    4    0    0  0.14169361182E+02 -0.70004852781E+02 -0.27884730675E+03  0.28784938890E+03  0.00000000000E+00 0. -1.
         -5    1    5    5    0  502 -0.68593018394E+02  0.55880000745E+02 -0.41944056868E+03  0.42869576311E+03  0.47000000000E+01 0.  1.
         11    1    6    6    0    0 -0.26183443905E+02 -0.11864583505E+02 -0.12857523702E+02  0.31490585771E+02  0.00000000000E+00 0. -1.
        -12    1    6    6    0    0 -0.57466640111E+01  0.63219128382E+02 -0.10910506881E+03  0.12622835807E+03  0.00000000000E+00 0.  1.
</event>
<event>
12    1  0.8724767E-002  0.2084555E+03  0.7818608E-02  0.1143262E+00
         21   -1    0    0  501  502  0.00000000000E+00  0.00000000000E+00  0.73756498248E+02  0.73756498248E+02  0.00000000000E+00 0. -1.
         21   -1    0    0  502  503 -0.00000000000E+00 -0.00000000000E+00 -0.86120677596E+03  0.86120677596E+03  0.00000000000E+00 0. -1.
         -6    2    1    2    0  503  0.21890856134E+02  0.11267872834E+03 -0.65812242708E+03  0.68964842304E+03  0.17121364717E+03 0.  0.
        -24    2    3    3    0    0  0.58086390321E+02  0.46021780429E+02 -0.52509085136E+03  0.53644021328E+03  0.80967074981E+02 0.  0.
          6    2    1    2  501    0 -0.21890856134E+02 -0.11267872834E+03 -0.12932785063E+03  0.24531485116E+03  0.17400568339E+03 0.  0.
         24    2    5    5    0    0 -0.56552533044E+02 -0.17937754309E+02 -0.87784854327E+02  0.13611231206E+03  0.85442546899E+02 0.  0.
          5    1    5    5  501    0  0.34661676909E+02 -0.94740974026E+02 -0.41542996303E+02  0.10920253911E+03  0.47000000000E+01 0. -1.
        -11    1    6    6    0    0 -0.57810940773E+02  0.23117724319E+02 -0.45142547707E+02  0.76905030162E+02  0.00000000000E+00 0.  1.
         12    1    6    6    0    0  0.12584077292E+01 -0.41055478628E+02 -0.42642306620E+02  0.59207281893E+02  0.00000000000E+00 0. -1.
         -5    1    3    3    0  503 -0.36195534186E+02  0.66656947906E+02 -0.13303157572E+03  0.15320820976E+03  0.47000000000E+01 0.  1.
         13    1    4    4    0    0  0.12918130875E+02  0.38412784886E+02 -0.41806308004E+03  0.42002280776E+03  0.00000000000E+00 0. -1.
        -14    1    4    4    0    0  0.45168259446E+02  0.76089955434E+01 -0.10702777132E+03  0.11641740552E+03  0.00000000000E+00 0.  1.
</event>
<event>
12    1  0.8724767E-002  0.2680255E+03  0.7818608E-02  0.1102442E+00
         21   -1    0    0  501  502  0.00000000000E+00  0.00000000000E+00  0.26858929137E+03  0.26858929137E+03  0.00000000000E+00 0.  1.
         21   -1    0    0  502  503 -0.00000000000E+00 -0.00000000000E+00 -0.54693903194E+03  0.54693903194E+03  0.00000000000E+00 0. -1.
         -6    2    1    2    0  503 -0.57789506748E+02 -0.19732144642E+03 -0.43077812124E+03  0.50735339592E+03  0.17193690210E+03 0.  0.
        -24    2    3    3    0    0 -0.54852762049E+02 -0.15198053800E+03 -0.18803874809E+03  0.26035356652E+03  0.79488989049E+02 0.  0.
          6    2    1    2  501    0  0.57789506748E+02  0.19732144642E+03  0.15242838067E+03  0.30817492740E+03  0.17164496594E+03 0.  0.
         24    2    5    5    0    0 -0.18889181628E+00  0.10420050431E+03  0.15114131036E+02  0.13236168070E+03  0.80208458301E+02 0.  0.
          5    1    5    5  501    0  0.57978398564E+02  0.93120942112E+02  0.13731424964E+03  0.17581324669E+03  0.47000000000E+01 0. -1.
        -11    1    6    6    0    0  0.26126361562E+02  0.23303059195E+01  0.15370028259E+01  0.26275073203E+02  0.00000000000E+00 0.  1.
         12    1    6    6    0    0 -0.26315253378E+02  0.10187019839E+03  0.13577128210E+02  0.10608660750E+03  0.00000000000E+00 0. -1.
         -5    1    3    3    0  503 -0.29367446987E+01 -0.45340908415E+02 -0.24273937315E+03  0.24699982940E+03  0.47000000000E+01 0.  1.
         11    1    4    4    0    0 -0.55652264018E+01 -0.94193385415E+01 -0.64382082842E+02  0.65305040192E+02  0.00000000000E+00 0. -1.
        -12    1    4    4    0    0 -0.49287535647E+02 -0.14256119946E+03 -0.12365666525E+03  0.19504852633E+03  0.00000000000E+00 0.  1.
</event>
<event>
12    1  0.8724767E-002  0.1788540E+03  0.7818608E-02  0.1169268E+00
         21   -1    0    0  501  502  0.00000000000E+00  0.00000000000E+00  0.85926053547E+02  0.85926053547E+02  0.00000000000E+00 0. -1.
         21   -1    0    0  502  503 -0.00000000000E+00 -0.00000000000E+00 -0.53347572222E+03  0.53347572222E+03  0.00000000000E+00 0. -1.
         -6    2    1    2    0  503  0.10255295320E+02 -0.49538236646E+02 -0.39495497584E+03  0.43297495896E+03  0.17005491516E+03 0.  0.
        -24    2    3    3    0    0  0.54536244972E+01 -0.95176034784E+02 -0.22574776995E+03  0.25759242509E+03  0.79395101901E+02 0.  0.
          6    2    1    2  501    0 -0.10255295320E+02  0.49538236646E+02 -0.52594692830E+02  0.18642681681E+03  0.17155042506E+03 0.  0.
         24    2    5    5    0    0 -0.29989569409E+01  0.75923036054E+02 -0.88629816691E+02  0.14093580409E+03  0.78957933875E+02 0.  0.
          5    1    5    5  501    0 -0.72563383792E+01 -0.26384799408E+02  0.36035123861E+02  0.45491012718E+02  0.47000000000E+01 0. -1.
        -13    1    6    6    0    0  0.19302184340E+02 -0.96181260727E+00  0.26701016188E+01  0.19509711593E+02  0.00000000000E+00 0.  1.
         14    1    6    6    0    0 -0.22301141281E+02  0.76884848661E+02 -0.91299918310E+02  0.12142609250E+03  0.00000000000E+00 0. -1.
         -5    1    3    3    0  503  0.48016708229E+01  0.45637798139E+02 -0.16920720589E+03  0.17538253387E+03  0.47000000000E+01 0.  1.
         11    1    4    4    0    0 -0.14525914384E+02 -0.56595718068E+02 -0.19703257995E+03  0.20551378312E+03  0.00000000000E+00 0. -1.
        -12    1    4    4    0    0  0.19979538881E+02 -0.38580316716E+02 -0.28715190005E+02  0.52078641964E+02  0.00000000000E+00 0.  1.
</event>
<event>
12    1  0.8724767E-002  0.1925913E+03  0.7818608E-02  0.1157814E+00
         21   -1    0    0  503  502  0.00000000000E+00  0.00000000000E+00  0.38424531178E+03  0.38424531178E+03  0.00000000000E+00 0. -1.
         21   -1    0    0  501  503 -0.00000000000E+00 -0.00000000000E+00 -0.15412028305E+03  0.15412028305E+03  0.00000000000E+00 0. -1.
          6    2    1    2  501    0  0.58588972012E+02  0.38662257797E+02 -0.53262638380E+02  0.19982075765E+03  0.17934321487E+03 0.  0.
         24    2    3    3    0    0  0.54020779225E+02  0.23748051991E+02  0.38379165575E+02  0.10674223084E+03  0.80241690743E+02 0.  0.
         -6    2    1    2    0  502 -0.58588972012E+02 -0.38662257797E+02  0.28338766711E+03  0.33854483718E+03  0.17139602999E+03 0.  0.
        -24    2    5    5    0    0  0.33713374624E+02 -0.27879897309E+02  0.16037903396E+03  0.18430736988E+03  0.79585750952E+02 0.  0.
          5    1    3    3  501    0  0.45681927866E+01  0.14914205806E+02 -0.91641803955E+02  0.93078526806E+02  0.47000000000E+01 0. -1.
        -11    1    4    4    0    0 -0.26349361779E+01 -0.16904550851E+02 -0.11842803745E+02  0.20807660336E+02  0.00000000000E+00 0.  1.
         12    1    4    4    0    0  0.56655715403E+02  0.40652602841E+02  0.50221969320E+02  0.85934570505E+02  0.00000000000E+00 0. -1.
         -5    1    5    5    0  502 -0.92302346636E+02 -0.10782360488E+02  0.12300863315E+03  0.15423746731E+03  0.47000000000E+01 0.  1.
         11    1    6    6    0    0 -0.13945369089E+02 -0.53517358785E+00  0.10630084799E+03  0.10721301233E+03  0.00000000000E+00 0. -1.
        -12    1    6    6    0    0  0.47658743713E+02 -0.27344723721E+02  0.54078185974E+02  0.77094357549E+02  0.00000000000E+00 0.  1.
</event>
<event>
12    1  0.8724767E-002  0.2314270E+03  0.7818608E-02  0.1126681E+00
         21   -1    0    0  501  502  0.00000000000E+00  0.00000000000E+00  0.78036336830E+03  0.78036336830E+03  0.00000000000E+00 0.  1.
         21   -1    0    0  502  503 -0.00000000000E+00 -0.00000000000E+00 -0.69295179976E+02  0.69295179976E+02  0.00000000000E+00 0.  1.
         -6    2    1    2    0  503 -0.14435196013E+03  0.19182339408E+02  0.43011670952E+03  0.48566376471E+03  0.17223082767E+03 0.  0.
        -24    2    3    3    0    0 -0.11527302007E+03 -0.38022488714E+02  0.37030620676E+03  0.39781523964E+03  0.79979368095E+02 0.  0.
          6    2    1    2  501    0  0.14435196013E+03 -0.19182339408E+02  0.28095147880E+03  0.36399478357E+03  0.17986944845E+03 0.  0.
         24    2    5    5    0    0  0.11033047502E+03 -0.40574294793E+02  0.86098425781E+02  0.16498503638E+03  0.77382402341E+02 0.  0.
          5    1    5    5  501    0  0.34021485117E+02  0.21391955386E+02  0.19485305302E+03  0.19900974719E+03  0.47000000000E+01 0. -1.
        -11    1    6    6    0    0  0.10461820299E+03 -0.34419046059E+02  0.99989313163E+02  0.14875315753E+03  0.00000000000E+00 0.  1.
         12    1    6    6    0    0  0.57122720224E+01 -0.61552487346E+01 -0.13890887382E+02  0.16231878847E+02  0.00000000000E+00 0. -1.
         -5    1    3    3    0  503 -0.29078940064E+02  0.57204828122E+02  0.59810502765E+02  0.87848525069E+02  0.47000000000E+01 0.  1.
         13    1    4    4    0    0 -0.40958782776E+02 -0.16049136400E+02  0.25577167801E+03  0.25952716223E+03  0.00000000000E+00 0. -1.
        -14    1    4    4    0    0 -0.74314237293E+02 -0.21973352315E+02  0.11453452875E+03  0.13828807740E+03  0.00000000000E+00 0.  1.
</event>
<event>
12    1  0.8724767E-002  0.1791843E+03  0.7818608E-02  0.1169305E+00
         21   -1    0    0  501  502  0.00000000000E+00  0.00000000000E+00  0.91059076421E+02  0.91059076421E+02  0.00000000000E+00 0. -1.
         21   -1    0    0  502  503 -0.00000000000E+00 -0.00000000000E+00 -0.45535640979E+03  0.45535640979E+03  0.00000000000E+00 0. -1.
         -6    2    1    2    0  503 -0.23975049773E+02 -0.14469152872E+02 -0.31433499486E+03  0.36039604613E+03  0.17405361724E+03 0.  0.
        -24    2    3    3    0    0  0.11382330705E+02 -0.11997149579E+02 -0.54478106332E+02  0.98090980087E+02  0.79877952243E+02 0.  0.
          6    2    1    2  501    0  0.23975049773E+02  0.14469152872E+02 -0.49962338510E+02  0.18601944009E+03  0.17698259074E+03 0.  0.
         24    2    5    5    0    0  0.81965728933E+02  0.22714267888E+02 -0.51339196204E+02  0.12724115729E+03  0.79500190926E+02 0.  0.
          5    1    5    5  501    0 -0.57990679160E+02 -0.82451150154E+01  0.13768576943E+01  0.58778282793E+02  0.47000000000E+01 0. -1.
        -13    1    6    6    0    0  0.24781533755E+02  0.42470222566E+02 -0.20669868211E+01  0.49215004364E+02  0.00000000000E+00 0.  1.
         14    1    6    6    0    0  0.57184195178E+02 -0.19755954678E+02 -0.49272209383E+02  0.78026152929E+02  0.00000000000E+00 0. -1.
         -5    1    3    3    0  503 -0.35357380478E+02 -0.24720032928E+01 -0.25985688853E+03  0.26230506604E+03  0.47000000000E+01 0.  1.
         13    1    4    4    0    0 -0.26286589507E+02  0.11095771272E+02 -0.44391365645E+02  0.52770202500E+02  0.00000000000E+00 0. -1.
        -14    1    4    4    0    0  0.37668920212E+02 -0.23092920851E+02 -0.10086740687E+02  0.45320777587E+02  0.00000000000E+00 0.  1.
</event>
<event>
12    1  0.8724767E-002  0.1793394E+03  0.7818608E-02  0.1168578E+00
         21   -1    0    0  501  502  0.00000000000E+00  0.00000000000E+00  0.72275827119E+02  0.72275827119E+02  0.00000000000E+00 0. -1.
         21   -1    0    0  502  503 -0.00000000000E+00 -0.00000000000E+00 -0.44822308726E+03  0.44822308726E+03  0.00000000000E+00 0. -1.
         -6    2    1    2    0  503  0.24152781677E+02  0.41205295784E+02 -0.16133904650E+03  0.24082174647E+03  0.17228926949E+03 0.  0.
        -24    2    3    3    0    0 -0.38773642878E+02  0.37120729515E+02 -0.14746683722E+03  0.17608422428E+03  0.79861392542E+02 0.  0.
          6    2    1    2  501    0 -0.24152781677E+02 -0.41205295784E+02 -0.21460821364E+03  0.27967716791E+03  0.17286237191E+03 0.  0.
         24    2    5    5    0    0 -0.33332443009E+01  0.42164751390E+02 -0.13809549779E+03  0.16452377634E+03  0.78795492860E+02 0.  0.
          5    1    5    5  501    0 -0.20819537376E+02 -0.83370047174E+02 -0.76512715853E+02  0.11515339157E+03  0.47000000000E+01 0. -1.
        -11    1    6    6    0    0  0.22615711688E+02 -0.39395663429E+00 -0.60956496338E+01  0.23426108542E+02  0.00000000000E+00 0.  1.
         12    1    6    6    0    0 -0.25948955989E+02  0.42558708024E+02 -0.13199984815E+03  0.14109766780E+03  0.00000000000E+00 0. -1.
         -5    1    3    3    0  503  0.62926424555E+02  0.40845662691E+01 -0.13872209280E+02  0.64737522189E+02  0.47000000000E+01 0.  1.
         11    1    4    4    0    0  0.74395190729E+01  0.21046668363E+02 -0.17721506916E+01  0.22393061678E+02  0.00000000000E+00 0. -1.
        -12    1    4    4    0    0 -0.46213161951E+02  0.16074061152E+02 -0.14569468653E+03  0.15369116260E+03  0.00000000000E+00 0.  1.
</event>
<event>
12    1  0.8724767E-002  0.1849824E+03  0.7818608E-02  0.1163141E+00
         21   -1    0    0  503  502  0.00000000000E+00  0.00000000000E+00  0.46518451780E+02  0.46518451780E+02  0.00000000000E+00 0. -1.
         21   -1    0    0  501  503 -0.00000000000E+00 -0.00000000000E+00 -0.73960056829E+03  0.73960056829E+03  0.00000000000E+00 0.  1.
          6    2    1    2  501    0 -0.67236627367E+02  0.62579521583E+01 -0.38003513369E+03  0.42266441705E+03  0.17221666754E+03 0.  0.
         24    2    3    3    0    0  0.19054224918E+02  0.39189041410E+02 -0.22934460582E+03  0.24585861110E+03  0.77127582490E+02 0.  0.
         -6    2    1    2    0  502  0.67236627367E+02 -0.62579521583E+01 -0.31304698282E+03  0.36345460302E+03  0.17187468975E+03 0.  0.
        -24    2    5    5    0    0 -0.12836402186E+02 -0.47470386961E+02 -0.18031291397E+03  0.20298473707E+03  0.79194985194E+02 0.  0.
          5    1    3    3  501    0 -0.86290852285E+02 -0.32931089251E+02 -0.15069052787E+03  0.17680580595E+03  0.47000000000E+01 0. -1.
        -11    1    4    4    0    0 -0.24502386125E+02  0.32485042933E+02 -0.14620193627E+03  0.15175852895E+03  0.00000000000E+00 0.  1.
         12    1    4    4    0    0  0.43556611043E+02  0.67039984762E+01 -0.83142669553E+02  0.94100082155E+02  0.00000000000E+00 0. -1.
         -5    1    5    5    0  502  0.80073029552E+02  0.41212434803E+02 -0.13273406885E+03  0.16046986595E+03  0.47000000000E+01 0.  1.
         11    1    6    6    0    0 -0.25275125938E+02 -0.25761142494E+02 -0.21073919956E+02  0.41792087243E+02  0.00000000000E+00 0. -1.
        -12    1    6    6    0    0  0.12438723752E+02 -0.21709244467E+02 -0.15923899401E+03  0.16119264983E+03  0.00000000000E+00 0.  1.
</event>
<event>
12    1  0.8724767E-002  0.2075163E+03  0.7818608E-02  0.1143966E+00
         21   -1    0    0  501  502  0.00000000000E+00  0.00000000000E+00  0.18824428662E+03  0.18824428662E+03  0.00000000000E+00 0.  1.
         21   -1    0    0  502  503 -0.00000000000E+00 -0.00000000000E+00 -0.43765385271E+03  0.43765385271E+03  0.00000000000E+00 0.  1.
         -6    2    1    2    0  503 -0.10660671971E+03  0.14644288740E+02 -0.34176061799E+03  0.39876004092E+03  0.17501372045E+03 0.  0.
        -24    2    3    3    0    0 -0.10579533045E+02 -0.81582948729E+01 -0.63725208281E+02  0.10368893517E+03  0.80697018602E+02 0.  0.
          6    2    1    2  501    0  0.10660671971E+03 -0.14644288740E+02  0.92351051897E+02  0.22713809841E+03  0.17743604786E+03 0.  0.
         24    2    5    5    0    0  0.13859040526E+03 -0.37962716625E+02  0.58532079643E+02  0.17486460508E+03  0.80642156960E+02 0.  0.
          5    1    5    5  501    0 -0.31983685549E+02  0.23318427885E+02  0.33818972254E+02  0.52273493327E+02  0.47000000000E+01 0. -1.
        -13    1    6    6    0    0  0.29716090862E+02 -0.24298326027E+02 -0.16660057078E+02  0.41845097750E+02  0.00000000000E+00 0.  1.
         14    1    6    6    0    0  0.10887431440E+03 -0.13664390598E+02  0.75192136721E+02  0.13301950733E+03  0.00000000000E+00 0. -1.
         -5    1    3    3    0  503 -0.96027186663E+02  0.22802583613E+02 -0.27803540971E+03  0.29507110575E+03  0.47000000000E+01 0.  1.
         11    1    4    4    0    0  0.42559686575E+01 -0.42401007835E+02 -0.22899403378E+02  0.48377075249E+02  0.00000000000E+00 0. -1.
        -12    1    4    4    0    0 -0.14835501703E+02  0.34242712962E+02 -0.40825804903E+02  0.55311859920E+02  0.00000000000E+00 0.  1.
</event>
<event>
12    1  0.8724767E-002  0.2037607E+03  0.7818608E-02  0.1146798E+00
         21   -1    0    0  503  502  0.00000000000E+00  0.00000000000E+00  0.46196416810E+03  0.46196416810E+03  0.00000000000E+00 0. -1.
         21   -1    0    0  501  503 -0.00000000000E+00 -0.00000000000E+00 -0.89554995648E+02  0.89554995648E+02  0.00000000000E+00 0. -1.
          6    2    1    2  501    0 -0.32541757914E+02 -0.10302794204E+03  0.19556297638E+03  0.28242400681E+03  0.17275624170E+03 0.  0.
         24    2    3    3    0    0  0.13854121957E+02 -0.61847280040E+02  0.19559833050E+03  0.22021053688E+03  0.78847643690E+02 0.  0.
         -6    2    1    2    0  502  0.32541757914E+02  0.10302794204E+03  0.17684619607E+03  0.26909515693E+03  0.17165052745E+03 0.  0.
        -24    2    5    5    0    0  0.83756233246E+01  0.81467661627E+02  0.19854488939E+03  0.22982976449E+03  0.81820025564E+02 0.  0.
          5    1    3    3  501    0 -0.46395879871E+02 -0.41180661995E+02 -0.35354116761E-01  0.62213469934E+02  0.47000000000E+01 0. -1.
        -13    1    4    4    0    0 -0.26277907097E+02 -0.51634491752E+02  0.93001995946E+02  0.10957198725E+03  0.00000000000E+00 0.  1.
         14    1    4    4    0    0  0.40132029055E+02 -0.10212788288E+02  0.10259633455E+03  0.11063854963E+03  0.00000000000E+00 0. -1.
         -5    1    5    5    0  502  0.24166134589E+02  0.21560280408E+02 -0.21698693321E+02  0.39265392448E+02  0.47000000000E+01 0.  1.
         11    1    6    6    0    0  0.22909397557E+01 -0.75869836449E+01  0.85145427387E+02  0.85513475725E+02  0.00000000000E+00 0. -1.
        -12    1    6    6    0    0  0.60846835689E+01  0.89054645272E+02  0.11339946200E+03  0.14431628876E+03  0.00000000000E+00 0.  1.
</event>
<event>
12    1  0.8724767E-002  0.2027050E+03  0.7818608E-02  0.1147881E+00
         21   -1    0    0  501  502  0.00000000000E+00  0.00000000000E+00  0.49965152292E+03  0.49965152292E+03  0.00000000000E+00 0.  1.
         21   -1    0    0  502  503 -0.00000000000E+00 -0.00000000000E+00 -0.11639562005E+03  0.11639562005E+03  0.00000000000E+00 0.  1.
         -6    2    1    2    0  503 -0.95979224903E+02 -0.54895901301E+01  0.36104537879E+03  0.41405688161E+03  0.17845780580E+03 0.  0.
        -24    2    3    3    0    0 -0.13529499877E+02  0.47647057495E+02  0.22328433348E+03  0.24487752092E+03  0.87497526941E+02 0.  0.
          6    2    1    2  501    0  0.95979224903E+02  0.54895901301E+01  0.22210524073E+02  0.20199026136E+03  0.17625155628E+03 0.  0.
         24    2    5    5    0    0  0.37300664056E+01 -0.35821806561E+01 -0.41315277956E+02  0.89518834802E+02  0.79245972630E+02 0.  0.
          5    1    5    5  501    0  0.92249158497E+02  0.90717707862E+01  0.63525802028E+02  0.11247142656E+03  0.47000000000E+01 0. -1.
        -11    1    6    6    0    0 -0.13500418187E+01  0.88178566914E+01 -0.63216783383E+02  0.63843080367E+02  0.00000000000E+00 0.  1.
         12    1    6    6    0    0  0.50801082243E+01 -0.12400037347E+02  0.21901505427E+02  0.25675754434E+02  0.00000000000E+00 0. -1.
         -5    1    3    3    0  503 -0.82449725026E+02 -0.53136647625E+02  0.13776104532E+03  0.16917936069E+03  0.47000000000E+01 0.  1.
         13    1    4    4    0    0 -0.38143372146E+02  0.40572954198E+02  0.69903383131E+02  0.89373175082E+02  0.00000000000E+00 0. -1.
        -14    1    4    4    0    0  0.24613872269E+02  0.70741032966E+01  0.15338095034E+03  0.15550434584E+03  0.00000000000E+00 0.  1.
</event>
<event>
12    1  0.8724767E-002  0.2499551E+03  0.7818608E-02  0.1113715E+00
         21   -1    0    0  503  502  0.00000000000E+00  0.00000000000E+00  0.20830694697E+03  0.20830694697E+03  0.00000000000E+00 0.  1.
         21   -1    0    0  501  503 -0.00000000000E+00 -0.00000000000E+00 -0.29711699290E+03  0.29711699290E+03  0.00000000000E+00 0. -1.
          6    2    1    2  501    0 -0.11486229169E+03 -0.14022451301E+03 -0.40421270768E+02  0.25082812221E+03  0.16859598944E+03 0.  0.
         24    2    3    3    0    0 -0.11266745426E+03 -0.10913931607E+03  0.20797090546E+02  0.18197404068E+03  0.89870389714E+02 0.  0.
         -6    2    1    2    0  502  0.11486229169E+03  0.14022451301E+03 -0.48388775164E+02  0.25459581766E+03  0.17210838650E+03 0.  0.
        -24    2    5    5    0    0  0.26917725734E+01  0.53634275440E+02  0.12513816110E+02  0.10028667915E+03  0.83767184981E+02 0.  0.
          5    1    3    3  501    0 -0.21948374390E+01 -0.31085196942E+02 -0.61218361314E+02  0.68854081522E+02  0.47000000000E+01 0. -1.
        -13    1    4    4    0    0 -0.72275807543E+02 -0.10438189726E+03 -0.14933386771E+02  0.12783731408E+03  0.00000000000E+00 0.  1.
         14    1    4    4    0    0 -0.40391646713E+02 -0.47574188098E+01  0.35730477317E+02  0.54136726602E+02  0.00000000000E+00 0. -1.
         -5    1    5    5    0  502  0.11217051912E+03  0.86590237571E+02 -0.60902591274E+02  0.15430913851E+03  0.47000000000E+01 0.  1.
         11    1    6    6    0    0  0.18570470156E+02 -0.18155994446E+02  0.37643704412E+01  0.26242579541E+02  0.00000000000E+00 0. -1.
        -12    1    6    6    0    0 -0.15878697583E+02  0.71790269887E+02  0.87494456685E+01  0.74044099608E+02  0.00000000000E+00 0.  1.
</event>
<event>
12    1  0.8724767E-002  0.1970949E+03  0.7818608E-02  0.1152622E+00
         21   -1    0    0  501  502  0.00000000000E+00  0.00000000000E+00  0.77229218289E+02  0.77229218289E+02  0.00000000000E+00 0. -1.
         21   -1    0    0  502  503 -0.00000000000E+00 -0.00000000000E+00 -0.58344620774E+03  0.58344620774E+03  0.00000000000E+00 0. -1.
         -6    2    1    2    0  503  0.63659849330E+02 -0.68691404155E+02 -0.37834511981E+03  0.42573372807E+03  0.17126906350E+03 0.  0.
        -24    2    3    3    0    0  0.10395657959E+03 -0.44319106172E+02 -0.33140528701E+03  0.35907584570E+03  0.79591740142E+02 0.  0.
          6    2    1    2  501    0 -0.63659849330E+02  0.68691404155E+02 -0.12787186964E+03  0.23494169796E+03  0.17342231971E+03 0.  0.
         24    2    5    5    0    0 -0.10326812526E+03  0.43482010564E+02 -0.12784408379E+03  0.18775674464E+03  0.79708810447E+02 0.  0.
          5    1    5    5  501    0  0.39608275927E+02  0.25209393591E+02 -0.27785851551E-01  0.47184953313E+02  0.47000000000E+01 0. -1.
        -11    1    6    6    0    0  0.71512292183E+01  0.24110531267E+02 -0.19158086555E+02  0.31614712995E+02  0.00000000000E+00 0.  1.
         12    1    6    6    0    0 -0.11041935448E+03  0.19371479297E+02 -0.10868599723E+03  0.15614203165E+03  0.00000000000E+00 0. -1.
         -5    1    3    3    0  503 -0.40296730256E+02 -0.24372297983E+02 -0.46939832801E+02  0.66657882367E+02  0.47000000000E+01 0.  1.
         11    1    4    4    0    0  0.77325604779E+02 -0.24545793916E+01 -0.26574231705E+03  0.27677473365E+03  0.00000000000E+00 0. -1.
        -12    1    4    4    0    0  0.26630974806E+02 -0.41864526780E+02 -0.65662969954E+02  0.82301112051E+02  0.00000000000E+00 0.  1.
</event>
<event>
12    1  0.8724767E-002  0.2309526E+03  0.7818608E-02  0.1127844E+00
         21   -1    0    0  503  502  0.00000000000E+00  0.00000000000E+00  0.39078597122E+03  0.39078597122E+03  0.00000000000E+00 0. -1.
         21   -1    0    0  501  503 -0.00000000000E+00 -0.00000000000E+00 -0.27069402265E+03  0.27069402265E+03  0.00000000000E+00 0. -1.
          6    2    1    2  501    0 -0.34827979807E+02 -0.13365768312E+03 -0.17870356607E+03  0.28383220239E+03  0.17189645182E+03 0.  0.
         24    2    3    3    0    0 -0.12231130919E+01 -0.15919127866E+03 -0.14523566268E+03  0.22976333773E+03  0.79714706574E+02 0.  0.
         -6    2    1    2    0  502  0.34827979807E+02  0.13365768312E+03  0.29879551464E+03  0.37764779149E+03  0.18509924476E+03 0.  0.
        -24    2    5    5    0    0  0.95456817744E+02  0.78762720376E+02  0.16716960921E+03  0.22260979000E+03  0.79333915732E+02 0.  0.
          5    1    3    3  501    0 -0.33604866715E+02  0.25533595535E+02 -0.33467903388E+02  0.54068864655E+02  0.47000000000E+01 0. -1.
        -13    1    4    4    0    0  0.34482670037E+02 -0.37123271669E+02 -0.46211958781E+02  0.68576504480E+02  0.00000000000E+00 0.  1.
         14    1    4    4    0    0 -0.35705783129E+02 -0.12206800699E+03 -0.99023703903E+02  0.16118683325E+03  0.00000000000E+00 0. -1.
         -5    1    5    5    0  502 -0.60628837937E+02  0.54894962747E+02  0.13162590543E+03  0.15503800149E+03  0.47000000000E+01 0.  1.
         11    1    6    6    0    0  0.48046234359E+02  0.54314269554E+02  0.35899124833E+02  0.80914941000E+02  0.00000000000E+00 0. -1.
        -12    1    6    6    0    0  0.47410583386E+02  0.24448450821E+02  0.13127048437E+03  0.14169484900E+03  0.00000000000E+00 0.  1.
</event>
<event>
12    1  0.8724767E-002  0.1911109E+03  0.7818608E-02  0.1157553E+00
         21   -1    0    0  503  502  0.00000000000E+00  0.00000000000E+00  0.38659168793E+02  0.38659168793E+02  0.00000000000E+00 0.  1.
         21   -1    0    0  501  503 -0.00000000000E+00 -0.00000000000E+00 -0.10958104379E+04  0.10958104379E+04  0.00000000000E+00 0.  1.
          6    2    1    2  501    0 -0.62550308433E+01  0.83704264623E+02 -0.74007339883E+03  0.76425107075E+03  0.17124699753E+03 0.  0.
         24    2    3    3    0    0  0.15417187196E+02  0.12178241611E+03 -0.54580454594E+03  0.56504738640E+03  0.79418511570E+02 0.  0.
         -6    2    1    2    0  502  0.62550308433E+01 -0.83704264623E+02 -0.31707787023E+03  0.37021853589E+03  0.17169117392E+03 0.  0.
        -24    2    5    5    0    0 -0.38592300694E+02 -0.34144303542E+02 -0.27528227327E+03  0.29124743477E+03  0.79934592897E+02 0.  0.
          5    1    3    3  501    0 -0.21672218039E+02 -0.38078151482E+02 -0.19426885289E+03  0.19920368435E+03  0.47000000000E+01 0. -1.
        -11    1    4    4    0    0  0.12857756848E+02  0.17642144693E+02 -0.25885830109E+03  0.25977718765E+03  0.00000000000E+00 0.  1.
         12    1    4    4    0    0  0.25594303483E+01  0.10414027141E+03 -0.28694624485E+03  0.30527019875E+03  0.00000000000E+00 0. -1.
         -5    1    5    5    0  502  0.44847331537E+02 -0.49559961081E+02 -0.41795596959E+02  0.78971101129E+02  0.47000000000E+01 0.  1.
         13    1    6    6    0    0  0.19472742847E+02 -0.27610161129E+02 -0.13744146489E+03  0.14153326458E+03  0.00000000000E+00 0. -1.
        -14    1    6    6    0    0 -0.58065043541E+02 -0.65341424132E+01 -0.13784080839E+03  0.14971417019E+03  0.00000000000E+00 0.  1.
</event>
<event>
12    1  0.8724767E-002  0.2139676E+03  0.7818608E-02  0.1138625E+00
         21   -1    0    0  501  502  0.00000000000E+00  0.00000000000E+00  0.93309430927E+03  0.93309430927E+03  0.00000000000E+00 0. -1.
         21   -1    0    0  502  503 -0.00000000000E+00 -0.00000000000E+00 -0.99402709154E+02  0.99402709154E+02  0.00000000000E+00 0.  1.
         -6    2    1    2    0  503 -0.51693471672E+02  0.11484673233E+03  0.48365147697E+02  0.21854383415E+03  0.17193089597E+03 0.  0.
        -24    2    3    3    0    0 -0.16900944892E+02 -0.98410399714E+01  0.49263063540E+01  0.81918128587E+02  0.79396620148E+02 0.  0.
          6    2    1    2  501    0  0.51693471672E+02 -0.11484673233E+03  0.78532645242E+03  0.81395318428E+03  0.17297445587E+03 0.  0.
         24    2    5    5    0    0 -0.13624586253E+02 -0.10688392191E+02  0.43872365792E+03  0.44616112935E+03  0.79255499786E+02 0.  0.
          5    1    5    5  501    0  0.65318057924E+02 -0.10415834014E+03  0.34660279449E+03  0.36779205492E+03  0.47000000000E+01 0. -1.
        -11    1    6    6    0    0 -0.10920519743E+02 -0.18963242052E+02  0.28925265477E+02  0.36270280996E+02  0.00000000000E+00 0.  1.
         12    1    6    6    0    0 -0.27040665092E+01  0.82748498609E+01  0.40979839245E+03  0.40989084836E+03  0.00000000000E+00 0. -1.
         -5    1    3    3    0  503 -0.34792526780E+02  0.12468777231E+03  0.43438841343E+02  0.13662570556E+03  0.47000000000E+01 0.  1.
         13    1    4    4    0    0 -0.26840347986E+02 -0.40329963181E+02 -0.40597970916E+01  0.48614731951E+02  0.00000000000E+00 0. -1.
        -14    1    4    4    0    0  0.99394030941E+01  0.30488923210E+02  0.89861034456E+01  0.33303396636E+02  0.00000000000E+00 0.  1.
</event>
<event>
12    1  0.8724767E-002  0.2058163E+03  0.7818608E-02  0.1145221E+00
         21   -1    0    0  503  502  0.00000000000E+00  0.00000000000E+00  0.41667400335E+03  0.41667400335E+03  0.00000000000E+00 0.  1.
         21   -1    0    0  501  503 -0.00000000000E+00 -0.00000000000E+00 -0.12722799269E+03  0.12722799269E+03  0.00000000000E+00 0.  1.
          6    2    1    2  501    0  0.64298840503E+02  0.90998985246E+02  0.26874678334E+03  0.33850433115E+03  0.17304679263E+03 0.  0.
         24    2    3    3    0    0  0.66234314014E+02  0.44846607425E+01  0.82618354820E+02  0.13318907037E+03  0.80662502927E+02 0.  0.
         -6    2    1    2    0  502 -0.64298840503E+02 -0.90998985246E+02  0.20699227317E+02  0.20539766489E+03  0.17130261681E+03 0.  0.
        -24    2    5    5    0    0 -0.78517981518E+02 -0.14720224562E+01 -0.13557900529E+02  0.10837755437E+03  0.73448195027E+02 0.  0.
          5    1    3    3  501    0 -0.19354735113E+01  0.86514324503E+02  0.18612842852E+03  0.20531526077E+03  0.47000000000E+01 0. -1.
        -13    1    4    4    0    0  0.56040607613E+02  0.89682779368E+01  0.98566286470E+02  0.11373782370E+03  0.00000000000E+00 0.  1.
         14    1    4    4    0    0  0.10193706401E+02 -0.44836171943E+01 -0.15947931650E+02  0.19451246675E+02  0.00000000000E+00 0. -1.
         -5    1    5    5    0  502  0.14219141016E+02 -0.89526962789E+02  0.34257127846E+02  0.97020110522E+02  0.47000000000E+01 0.  1.
         13    1    6    6    0    0 -0.38281160831E+02 -0.49209897983E+01  0.30070355240E+02  0.48927391913E+02  0.00000000000E+00 0. -1.
        -14    1    6    6    0    0 -0.40236820687E+02  0.34489673421E+01 -0.43628255769E+02  0.59450162457E+02  0.00000000000E+00 0.  1.
</event>
<event>
12    1  0.8724767E-002  0.1834209E+03  0.7818608E-02  0.1165414E+00
         21   -1    0    0  501  502  0.00000000000E+00  0.00000000000E+00  0.48643681270E+03  0.48643681270E+03  0.00000000000E+00 0. -1.
         21   -1    0    0  502  503 -0.00000000000E+00 -0.00000000000E+00 -0.79165856697E+02  0.79165856697E+02  0.00000000000E+00 0. -1.
         -6    2    1    2    0  503 -0.59009605585E+02 -0.69253156902E+01  0.94610061316E+02  0.20311119102E+03  0.16962605539E+03 0.  0.
        -24    2    3    3    0    0 -0.78888774172E+02  0.43754615649E+02  0.86425164642E+02  0.14785977187E+03  0.79090441731E+02 0.  0.
          6    2    1    2  501    0  0.59009605585E+02  0.69253156902E+01  0.31266089469E+03  0.36249147838E+03  0.17353138990E+03 0.  0.
         24    2    5    5    0    0 -0.12598119681E+02  0.54222200601E+02  0.19728515119E+03  0.21862239265E+03  0.75997105418E+02 0.  0.
          5    1    5    5  501    0  0.71607725266E+02 -0.47296884911E+02  0.11537574351E+03  0.14386908573E+03  0.47000000000E+01 0. -1.
        -11    1    6    6    0    0  0.77356781965E+01  0.59578547020E+02  0.83248611416E+02  0.10266340772E+03  0.00000000000E+00 0.  1.
         12    1    6    6    0    0 -0.20333797878E+02 -0.53563464189E+01  0.11403653977E+03  0.11595898493E+03  0.00000000000E+00 0. -1.
         -5    1    3    3    0  503  0.19879168587E+02 -0.50679931339E+02  0.81848966741E+01  0.55251419148E+02  0.47000000000E+01 0.  1.
         13    1    4    4    0    0 -0.17466318736E+02 -0.22668025169E+02  0.28781996379E+02  0.40587128142E+02  0.00000000000E+00 0. -1.
        -14    1    4    4    0    0 -0.61422455436E+02  0.66422640818E+02  0.57643168263E+02  0.10727264373E+03  0.00000000000E+00 0.  1.
</event>
<event>
12    1  0.8724767E-002  0.2552185E+03  0.7818608E-02  0.1110066E+00
         21   -1    0    0  501  502  0.00000000000E+00  0.00000000000E+00  0.20382182398E+04  0.20382182398E+04  0.00000000000E+00 0.  1.
         21   -1    0    0  502  503 -0.00000000000E+00 -0.00000000000E+00 -0.40518272506E+02  0.40518272506E+02  0.00000000000E+00 0.  1.
         -6    2    1    2    0  503 -0.18417601197E+03  0.38640773022E+02  0.52060549458E+03  0.57975534230E+03  0.17225638803E+03 0.  0.
        -24    2    3    3    0    0 -0.99368312997E+02  0.88255028351E+02  0.35736317179E+03  0.38916660683E+03  0.77969222571E+02 0.  0.
          6    2    1    2  501    0  0.18417601197E+03 -0.38640773022E+02  0.14770944727E+04  0.14989811700E+04  0.17240230269E+03 0.  0.
         24    2    5    5    0    0  0.39477428118E+02 -0.94770406535E+01  0.30126042768E+03  0.31390902245E+03  0.78311860251E+02 0.  0.
          5    1    5    5  501    0  0.14469858385E+03 -0.29163732368E+02  0.11758340450E+04  0.11850721475E+04  0.47000000000E+01 0. -1.
        -13    1    6    6    0    0  0.20833755423E+02 -0.43567590945E+02  0.19069328121E+03  0.19671326301E+03  0.00000000000E+00 0.  1.
         14    1    6    6    0    0  0.18643672695E+02  0.34090550292E+02  0.11056714647E+03  0.11719575944E+03  0.00000000000E+00 0. -1.
         -5    1    3    3    0  503 -0.84807698972E+02 -0.49614255330E+02  0.16324232279E+03  0.19058873547E+03  0.47000000000E+01 0.  1.
         11    1    4    4    0    0 -0.15025993181E+02  0.61238149650E+02  0.18377315024E+03  0.19428963480E+03  0.00000000000E+00 0. -1.
        -12    1    4    4    0    0 -0.84342319816E+02  0.27016878702E+02  0.17359002155E+03  0.19487697203E+03  0.00000000000E+00 0.  1.
</event>
<event>
12    1  0.8724767E-002  0.2134726E+03  0.7818608E-02  0.1139428E+00
         21   -1    0    0  501  502  0.00000000000E+00  0.00000000000E+00  0.11210328788E+04  0.11210328788E+04  0.00000000000E+00 0. -1.
         21   -1    0    0  502  503 -0.00000000000E+00 -0.00000000000E+00 -0.40948985806E+02  0.40948985806E+02  0.00000000000E+00 0. -1.
         -6    2    1    2    0  503  0.11640161450E+03 -0.21821506596E+01  0.45932958789E+03  0.50651182330E+03  0.17893143713E+03 0.  0.
        -24    2    3    3    0    0  0.12613771800E+03 -0.12709917200E+01  0.46882388613E+03  0.49209469387E+03  0.80305742015E+02 0.  0.
          6    2    1    2  501    0 -0.11640161450E+03  0.21821506596E+01  0.62075430509E+03  0.65547004129E+03  0.17535954523E+03 0.  0.
         24    2    5    5    0    0 -0.12861438384E+03 -0.47074523323E+02  0.44669068397E+03  0.47409858305E+03  0.80493657058E+02 0.  0.
          5    1    5    5  501    0  0.12212769345E+02  0.49256673983E+02  0.17406362112E+03  0.18137145824E+03  0.47000000000E+01 0. -1.
        -13    1    6    6    0    0 -0.44424059025E+02 -0.50261902536E+02  0.27204524004E+03  0.28019344835E+03  0.00000000000E+00 0.  1.
         14    1    6    6    0    0 -0.84190324820E+02  0.31873792129E+01  0.17464544393E+03  0.19390513470E+03  0.00000000000E+00 0. -1.
         -5    1    3    3    0  503 -0.97361034992E+01 -0.91115893955E+00 -0.94942982443E+01  0.14417129434E+02  0.47000000000E+01 0.  1.
         11    1    4    4    0    0  0.97607204455E+02 -0.28852741218E+02  0.25395994258E+03  0.27359696539E+03  0.00000000000E+00 0. -1.
        -12    1    4    4    0    0  0.28530513544E+02  0.27581749498E+02  0.21486394356E+03  0.21849772847E+03  0.00000000000E+00 0.  1.
</event>
<event>
12    1  0.8724767E-002  0.1794836E+03  0.7818608E-02  0.1168364E+00
         21   -1    0    0  503  502  0.00000000000E+00  0.00000000000E+00  0.40551855434E+03  0.40551855434E+03  0.00000000000E+00 0. -1.
         21   -1    0    0  501  503 -0.00000000000E+00 -0.00000000000E+00 -0.79398036499E+02  0.79398036499E+02  0.00000000000E+00 0. -1.
          6    2    1    2  501    0  0.52931240360E+02 -0.64395168495E+01  0.17026461576E+03  0.24739519902E+03  0.17138016669E+03 0.  0.
         24    2    3    3    0    0  0.84511848535E+02 -0.32594211541E+02  0.70758078844E+02  0.13966849037E+03  0.79346999389E+02 0.  0.
         -6    2    1    2    0  502 -0.52931240360E+02  0.64395168495E+01  0.15585590208E+03  0.23752139182E+03  0.17112032543E+03 0.  0.
        -24    2    5    5    0    0 -0.49531529131E+02 -0.89004431180E+01  0.18309611070E+03  0.20572530127E+03  0.79158850185E+02 0.  0.
          5    1    3    3  501    0 -0.31580608175E+02  0.26154694691E+02  0.99506536915E+02  0.10772670865E+03  0.47000000000E+01 0. -1.
        -13    1    4    4    0    0  0.17583496321E+02 -0.28097492936E+02  0.64222575176E+02  0.72271623853E+02  0.00000000000E+00 0.  1.
         14    1    4    4    0    0  0.66928352213E+02 -0.44967186050E+01  0.65355036685E+01  0.67396866518E+02  0.00000000000E+00 0. -1.
         -5    1    5    5    0  502 -0.33997112291E+01  0.15339959968E+02 -0.27240208624E+02  0.31796090548E+02  0.47000000000E+01 0.  1.
         11    1    6    6    0    0 -0.31311945543E+02 -0.35774383755E+02  0.51104732002E+02  0.69799270052E+02  0.00000000000E+00 0. -1.
        -12    1    6    6    0    0 -0.18219583587E+02  0.26873940637E+02  0.13199137870E+03  0.13592603122E+03  0.00000000000E+00 0.  1.
</event>
<event>
12    1  0.8724767E-002  0.1749002E+03  0.7818608E-02  0.1176297E+00
         21   -1    0    0  503  502  0.00000000000E+00  0.00000000000E+00  0.33942924517E+03  0.33942924517E+03  0.00000000000E+00 0.  1.
         21   -1    0    0  501  503 -0.00000000000E+00 -0.00000000000E+00 -0.17802615791E+03  0.17802615791E+03  0.00000000000E+00 0.  1.
          6    2    1    2  501    0  0.22844438965E+02  0.22803841488E+02 -0.10930930213E+03  0.19515853015E+03  0.15841857461E+03 0.  0.
         24    2    3    3    0    0  0.10199118345E+02  0.44604935138E+02 -0.91291255295E+01  0.91749876735E+02  0.79000485405E+02 0.  0.
         -6    2    1    2    0  502 -0.22844438965E+02 -0.22803841488E+02  0.27071238939E+03  0.32229687293E+03  0.17189587823E+03 0.  0.
        -24    2    5    5    0    0  0.11989038517E+02 -0.28693964539E+02  0.42710585636E+02  0.91526473575E+02  0.74738347548E+02 0.  0.
          5    1    3    3  501    0  0.12645320620E+02 -0.21801093649E+02 -0.10018017660E+03  0.10340865341E+03  0.47000000000E+01 0. -1.
        -11    1    4    4    0    0  0.33123939518E+02  0.45774159897E+02 -0.27035661116E+02  0.62637018251E+02  0.00000000000E+00 0.  1.
         12    1    4    4    0    0 -0.22924821173E+02 -0.11692247588E+01  0.17906535587E+02  0.29112858484E+02  0.00000000000E+00 0. -1.
         -5    1    5    5    0  502 -0.34833477482E+02  0.58901230502E+01  0.22800180375E+03  0.23077039935E+03  0.47000000000E+01 0.  1.
         13    1    6    6    0    0 -0.21515149335E+02 -0.34563427966E+02  0.40521801184E+02  0.57441697180E+02  0.00000000000E+00 0. -1.
        -14    1    6    6    0    0  0.33504187852E+02  0.58694634278E+01  0.21887844525E+01  0.34084776395E+02  0.00000000000E+00 0.  1.
</event>
<event>
12    1  0.8724767E-002  0.1812013E+03  0.7818608E-02  0.1168656E+00
         21   -1    0    0  501  502  0.00000000000E+00  0.00000000000E+00  0.12298551619E+03  0.12298551619E+03  0.00000000000E+00 0.  1.
         21   -1    0    0  502  503 -0.00000000000E+00 -0.00000000000E+00 -0.29221224018E+03  0.29221224018E+03  0.00000000000E+00 0.  1.
         -6    2    1    2    0  503  0.11204197976E+02 -0.11429049171E+02 -0.16032160557E+03  0.24194403749E+03  0.18049305485E+03 0.  0.
        -24    2    3    3    0    0 -0.15715378538E+02  0.31190754254E+02 -0.11541154541E+01  0.74918616816E+02  0.66269381237E+02 0.  0.
          6    2    1    2  501    0 -0.11204197976E+02  0.11429049171E+02 -0.89051184256E+01  0.17325371888E+03  0.17228288584E+03 0.  0.
         24    2    5    5    0    0  0.39510566182E+02 -0.40136692364E+02 -0.17350820854E+00  0.10025136261E+03  0.82935316277E+02 0.  0.
          5    1    5    5  501    0 -0.50714764158E+02  0.51565741535E+02 -0.87316102170E+01  0.73002356268E+02  0.47000000000E+01 0. -1.
        -13    1    6    6    0    0  0.31109039245E+02 -0.53449210015E+02  0.28071242642E+02  0.67916014588E+02  0.00000000000E+00 0.  1.
         14    1    6    6    0    0  0.84015269364E+01  0.13312517651E+02 -0.28244750850E+02  0.32335348022E+02  0.00000000000E+00 0. -1.
         -5    1    3    3    0  503  0.26919576515E+02 -0.42619803426E+02 -0.15916749011E+03  0.16702542068E+03  0.47000000000E+01 0.  1.
         13    1    4    4    0    0  0.80571882530E+01 -0.16854020704E+02  0.83774697969E+01  0.20473355773E+02  0.00000000000E+00 0. -1.
        -14    1    4    4    0    0 -0.23772566791E+02  0.48044774958E+02 -0.95315852510E+01  0.54445261043E+02  0.00000000000E+00 0.  1.
</event>
<event>
12    1  0.8724767E-002  0.1792623E+03  0.7818608E-02  0.1171712E+00
         21   -1    0    0  503  502  0.00000000000E+00  0.00000000000E+00  0.22720751210E+03  0.22720751210E+03  0.00000000000E+00 0.  1.
         21   -1    0    0  501  503 -0.00000000000E+00 -0.00000000000E+00 -0.13770099988E+03  0.13770099988E+03  0.00000000000E+00 0.  1.
          6    2    1    2  501    0  0.82240575317E+01  0.46570799075E+02  0.81412964560E+02  0.18546356252E+03  0.15978794627E+03 0.  0.
         24    2    3    3    0    0 -0.10173167190E+02  0.49825384679E+02 -0.10870866037E+02  0.91190312894E+02  0.74909513070E+02 0.  0.
         -6    2    1    2    0  502 -0.82240575317E+01 -0.46570799075E+02  0.80935476653E+01  0.17944494946E+03  0.17291185594E+03 0.  0.
        -24    2    5    5    0    0 -0.29508612624E+02 -0.93050761445E+02  0.17019230610E+02  0.12733758911E+03  0.79975027128E+02 0.  0.
          5    1    3    3  501    0  0.18397224721E+02 -0.32545856042E+01  0.92283830597E+02  0.94273249623E+02  0.47000000000E+01 0. -1.
        -11    1    4    4    0    0  0.29648516466E+02  0.39504868706E+02 -0.65956006008E+01  0.49831427106E+02  0.00000000000E+00 0.  1.
         12    1    4    4    0    0 -0.39821683656E+02  0.10320515973E+02 -0.42752654365E+01  0.41358885789E+02  0.00000000000E+00 0. -1.
         -5    1    5    5    0  502  0.21284555093E+02  0.46479962370E+02 -0.89256829444E+01  0.52107360358E+02  0.47000000000E+01 0.  1.
         11    1    6    6    0    0  0.11272529506E+02  0.36273827266E+01 -0.13600877678E+02  0.18033626938E+02  0.00000000000E+00 0. -1.
        -12    1    6    6    0    0 -0.40781142131E+02 -0.96678144172E+02  0.30620108288E+02  0.10930396217E+03  0.00000000000E+00 0.  1.
</event>
<event>
12    1  0.8724767E-002  0.2190512E+03  0.7818608E-02  0.1135358E+00
         21   -1    0    0  501  502  0.00000000000E+00  0.00000000000E+00  0.29503226168E+03  0.29503226168E+03  0.00000000000E+00 0. -1.
         21   -1    0    0  502  503 -0.00000000000E+00 -0.00000000000E+00 -0.46386031480E+03  0.46386031480E+03  0.00000000000E+00 0. -1.
         -6    2    1    2    0  503  0.10096738704E+03 -0.86263178953E+02 -0.39142613916E+03  0.44658929218E+03  0.16909117122E+03 0.  0.
        -24    2    3    3    0    0  0.11489873951E+03 -0.71018186508E+02 -0.39576588216E+03  0.42496949233E+03  0.75651389791E+02 0.  0.
          6    2    1    2  501    0 -0.10096738704E+03  0.86263178953E+02  0.22259808604E+03  0.31230328429E+03  0.17420586725E+03 0.  0.
         24    2    5    5    0    0 -0.25366722073E+02 -0.17766499666E+02  0.61943886718E+02  0.10646476425E+03  0.80861497791E+02 0.  0.
          5    1    5    5  501    0 -0.75600664967E+02  0.10402967862E+03  0.16065419932E+03  0.20583852005E+03  0.47000000000E+01 0. -1.
        -13    1    6    6    0    0 -0.25713778233E+02  0.21268192625E+02  0.14566913862E+00  0.33369980942E+02  0.00000000000E+00 0.  1.
         14    1    6    6    0    0  0.34705616032E+00 -0.39034692291E+02  0.61798217579E+02  0.73094783304E+02  0.00000000000E+00 0. -1.
         -5    1    3    3    0  503 -0.13931352475E+02 -0.15244992445E+02  0.43397429911E+01  0.21619799852E+02  0.47000000000E+01 0.  1.
         11    1    4    4    0    0  0.10234049515E+02 -0.28285837440E+02 -0.16820670754E+03  0.17087516154E+03  0.00000000000E+00 0. -1.
        -12    1    4    4    0    0  0.10466469000E+03 -0.42732349067E+02 -0.22755917461E+03  0.25409433079E+03  0.00000000000E+00 0.  1.
</event>
<event>
12    1  0.8724767E-002  0.2026130E+03  0.7818608E-02  0.1147713E+00
         21   -1    0    0  501  502  0.00000000000E+00  0.00000000000E+00  0.30101494100E+03  0.30101494100E+03  0.00000000000E+00 0. -1.
         21   -1    0    0  502  503 -0.00000000000E+00 -0.00000000000E+00 -0.18165824108E+03  0.18165824108E+03  0.00000000000E+00 0.  1.
         -6    2    1    2    0  503  0.10546422513E+03 -0.16342089955E+02 -0.61411887609E+02  0.21171550529E+03  0.17222737458E+03 0.  0.
        -24    2    3    3    0    0  0.31685290139E+02 -0.69240973393E+02 -0.44720135914E+02  0.11929079165E+03  0.80200576112E+02 0.  0.
          6    2    1    2  501    0 -0.10546422513E+03  0.16342089955E+02  0.18076858753E+03  0.27095767679E+03  0.17132137545E+03 0.  0.
         24    2    5    5    0    0 -0.47461050093E+02  0.20457766536E+02  0.18955094478E+03  0.21196168618E+03  0.79543222549E+02 0.  0.
          5    1    5    5  501    0 -0.58003175040E+02 -0.41156765810E+01 -0.87823572518E+01  0.58995990604E+02  0.47000000000E+01 0. -1.
        -11    1    6    6    0    0 -0.19049978683E+02  0.46395860708E+02  0.14318006176E+03  0.15171027541E+03  0.00000000000E+00 0.  1.
         12    1    6    6    0    0 -0.28411071410E+02 -0.25938094172E+02  0.46370883019E+02  0.60251410771E+02  0.00000000000E+00 0. -1.
         -5    1    3    3    0  503  0.73778934993E+02  0.52898883438E+02 -0.16691751695E+02  0.92424713645E+02  0.47000000000E+01 0.  1.
         13    1    4    4    0    0 -0.74511829913E+01 -0.11827407937E+02  0.19955776350E+02  0.24364743303E+02  0.00000000000E+00 0. -1.
        -14    1    4    4    0    0  0.39136473131E+02 -0.57413565456E+02 -0.64675912265E+02  0.94926048347E+02  0.00000000000E+00 0.  1.
</event>
<event>
12    1  0.8724767E-002  0.2340005E+03  0.7818608E-02  0.1123882E+00
         21   -1    0    0  501  502  0.00000000000E+00  0.00000000000E+00  0.29920971720E+03  0.29920971720E+03  0.00000000000E+00 0. -1.
         21   -1    0    0  502  503 -0.00000000000E+00 -0.00000000000E+00 -0.18447025277E+03  0.18447025277E+03  0.00000000000E+00 0.  1.
         -6    2    1    2    0  503  0.15403904221E+03 -0.37402628425E+02  0.34941491753E+02  0.23659487561E+03  0.17213147353E+03 0.  0.
        -24    2    3    3    0    0  0.10665276448E+03  0.14604490022E+02  0.77890963288E+02  0.15403007202E+03  0.77911216295E+02 0.  0.
          6    2    1    2  501    0 -0.15403904221E+03  0.37402628425E+02  0.79797972684E+02  0.24708509436E+03  0.17191958665E+03 0.  0.
         24    2    5    5    0    0 -0.14080943982E+03  0.67440977549E+02  0.10642673398E+03  0.20455856469E+03  0.78370739991E+02 0.  0.
          5    1    5    5  501    0 -0.13229602385E+02 -0.30038349124E+02 -0.26628761298E+02  0.42526529668E+02  0.47000000000E+01 0. -1.
        -11    1    6    6    0    0 -0.25350492604E+02  0.43872702068E+02  0.85802814331E+01  0.51391465161E+02  0.00000000000E+00 0.  1.
         12    1    6    6    0    0 -0.11545894722E+03  0.23568275481E+02  0.97846452550E+02  0.15316709953E+03  0.00000000000E+00 0. -1.
         -5    1    3    3    0  503  0.47386277734E+02 -0.52007118447E+02 -0.42949471535E+02  0.82564803590E+02  0.47000000000E+01 0.  1.
         13    1    4    4    0    0  0.22952722548E+01  0.26452535097E+02  0.24859017730E+02  0.36372732235E+02  0.00000000000E+00 0. -1.
        -14    1    4    4    0    0  0.10435749222E+03 -0.11848045076E+02  0.53031945558E+02  0.11765733978E+03  0.00000000000E+00 0.  1.
</event>
<event>
12    1  0.8724767E-002  0.2227193E+03  0.7818608E-02  0.1131872E+00
         21   -1    0    0  503  502  0.00000000000E+00  0.00000000000E+00  0.15058990622E+03  0.15058990622E+03  0.00000000000E+00 0. -1.
         21   -1    0    0  501  503 -0.00000000000E+00 -0.00000000000E+00 -0.40444244905E+03  0.40444244905E+03  0.00000000000E+00 0. -1.
          6    2    1    2  501    0  0.67080291612E+01 -0.14157530434E+03 -0.73816400768E+01  0.22283993232E+03  0.17179808606E+03 0.  0.
         24    2    3    3    0    0 -0.45328929106E+02 -0.21139443976E+02 -0.31174953777E+01  0.91489582427E+02  0.76544346687E+02 0.  0.
         -6    2    1    2    0  502 -0.67080291612E+01  0.14157530434E+03 -0.24647090276E+03  0.33219242294E+03  0.17180027794E+03 0.  0.
        -24    2    5    5    0    0 -0.35143786238E+02  0.15799884057E+03 -0.16432573951E+03  0.24360211497E+03  0.78360209409E+02 0.  0.
          5    1    3    3  501    0  0.52036958267E+02 -0.12043586037E+03 -0.42641446992E+01  0.13135034990E+03  0.47000000000E+01 0. -1.
        -13    1    4    4    0    0 -0.98580064084E+01 -0.33929528138E+02  0.25984501855E+02  0.43858722128E+02  0.00000000000E+00 0.  1.
         14    1    4    4    0    0 -0.35470922698E+02  0.12790084162E+02 -0.29101997233E+02  0.47630860299E+02  0.00000000000E+00 0. -1.
         -5    1    5    5    0  502  0.28435757077E+02 -0.16423536227E+02 -0.82145163243E+02  0.88590307974E+02  0.47000000000E+01 0.  1.
         13    1    6    6    0    0  0.18734018331E+02  0.88076668702E+02 -0.98726122814E+02  0.13362376412E+03  0.00000000000E+00 0. -1.
        -14    1    6    6    0    0 -0.53877804569E+02  0.69922171867E+02 -0.65599616698E+02  0.10997835085E+03  0.00000000000E+00 0.  1.
</event>
<event>
12    1  0.8724767E-002  0.1866010E+03  0.7818608E-02  0.1161685E+00
         21   -1    0    0  503  502  0.00000000000E+00  0.00000000000E+00  0.12022533118E+03  0.12022533118E+03  0.00000000000E+00 0.  1.
         21   -1    0    0  501  503 -0.00000000000E+00 -0.00000000000E+00 -0.67096619639E+03  0.67096619639E+03  0.00000000000E+00 0.  1.
          6    2    1    2  501    0 -0.10527108586E+02 -0.72361117415E+02 -0.57375793660E+03  0.60317628479E+03  0.17110379715E+03 0.  0.
         24    2    3    3    0    0  0.36195806549E+02 -0.72625853485E+01 -0.42719647150E+03  0.43607391280E+03  0.79377267522E+02 0.  0.
         -6    2    1    2    0  502  0.10527108586E+02  0.72361117415E+02  0.23017071390E+02  0.18801524278E+03  0.17167700666E+03 0.  0.
        -24    2    5    5    0    0 -0.53271831907E+02  0.36487248345E+02 -0.18498762554E+02  0.10373657551E+03  0.79056090945E+02 0.  0.
          5    1    3    3  501    0 -0.46722915135E+02 -0.65098532066E+02 -0.14656146509E+03  0.16710237199E+03  0.47000000000E+01 0. -1.
        -13    1    4    4    0    0  0.57459318896E+02 -0.20492848988E+02 -0.33641649166E+03  0.34190288979E+03  0.00000000000E+00 0.  1.
         14    1    4    4    0    0 -0.21263512347E+02  0.13230263640E+02 -0.90779979842E+02  0.94171023003E+02  0.00000000000E+00 0. -1.
         -5    1    5    5    0  502  0.63798940492E+02  0.35873869070E+02  0.41515833943E+02  0.84278667277E+02  0.47000000000E+01 0.  1.
         13    1    6    6    0    0 -0.24672230888E+02 -0.13096585580E+02  0.20348376958E+02  0.34558587582E+02  0.00000000000E+00 0. -1.
        -14    1    6    6    0    0 -0.28599601018E+02  0.49583833925E+02 -0.38847139512E+02  0.69177987925E+02  0.00000000000E+00 0.  1.
</event>
<event>
12    1  0.8724767E-002  0.2007498E+03  0.7818608E-02  0.1149128E+00
         21   -1    0    0  503  502  0.00000000000E+00  0.00000000000E+00  0.33238331426E+04  0.33238331426E+04  0.00000000000E+00 0.  1.
         21   -1    0    0  501  503 -0.00000000000E+00 -0.00000000000E+00 -0.33086960002E+02  0.33086960002E+02  0.00000000000E+00 0.  1.
          6    2    1    2  501    0 -0.59887585444E+02 -0.85242469282E+02  0.30934788337E+03  0.36877715616E+03  0.17160325317E+03 0.  0.
         24    2    3    3    0    0 -0.50205787409E+02 -0.93383452906E+02  0.10176752101E+03  0.16075862414E+03  0.65158395741E+02 0.  0.
         -6    2    1    2    0  502  0.59887585444E+02  0.85242469282E+02  0.29813982993E+04  0.29881429465E+04  0.17149241466E+03 0.  0.
        -24    2    5    5    0    0  0.28165837061E+02  0.10487863788E+03  0.27808845932E+04  0.27841339154E+04  0.79307598594E+02 0.  0.
          5    1    3    3  501    0 -0.96817980348E+01  0.81409836238E+01  0.20758036236E+03  0.20801853202E+03  0.47000000000E+01 0. -1.
        -11    1    4    4    0    0  0.25562622885E+01 -0.51694945223E+02  0.21498785302E+02  0.56045513718E+02  0.00000000000E+00 0.  1.
         12    1    4    4    0    0 -0.52762049698E+02 -0.41688507684E+02  0.80268735709E+02  0.10471311042E+03  0.00000000000E+00 0. -1.
         -5    1    5    5    0  502  0.31721748383E+02 -0.19636168602E+02  0.20051370611E+03  0.20400903112E+03  0.47000000000E+01 0.  1.
         11    1    6    6    0    0  0.57282263987E+00  0.19555989948E+02  0.10879880831E+03  0.11054386260E+03  0.00000000000E+00 0. -1.
        -12    1    6    6    0    0  0.27593014421E+02  0.85322647936E+02  0.26720857848E+04  0.26735900528E+04  0.00000000000E+00 0.  1.
</event>
<event>
12    1  0.8724767E-002  0.1747786E+03  0.7818608E-02  0.1173258E+00
         21   -1    0    0  503  502  0.00000000000E+00  0.00000000000E+00  0.91743258312E+02  0.91743258312E+02  0.00000000000E+00 0.  1.
         21   -1    0    0  501  503 -0.00000000000E+00 -0.00000000000E+00 -0.34219865148E+03  0.34219865148E+03  0.00000000000E+00 0.  1.
          6    2    1    2  501    0  0.25313314244E+02 -0.15126414110E+02 -0.85000292717E+02  0.19327005925E+03  0.17105172831E+03 0.  0.
         24    2    3    3    0    0  0.65615533196E+02 -0.47634323308E+02 -0.81869308270E+02  0.14118430231E+03  0.81584291548E+02 0.  0.
         -6    2    1    2    0  502 -0.25313314244E+02  0.15126414110E+02 -0.16545510045E+03  0.24067185054E+03  0.17227297262E+03 0.  0.
        -24    2    5    5    0    0 -0.68240485846E+02  0.14714188742E+02 -0.16626731707E+03  0.19747854449E+03  0.80496481604E+02 0.  0.
          5    1    3    3  501    0 -0.40302218952E+02  0.32507909198E+02 -0.31309844471E+01  0.52085756945E+02  0.47000000000E+01 0. -1.
        -11    1    4    4    0    0  0.40114224339E+02  0.59493544908E+01 -0.69651729664E+02  0.80597203788E+02  0.00000000000E+00 0.  1.
         12    1    4    4    0    0  0.25501308857E+02 -0.53583677798E+02 -0.12217578606E+02  0.60587098518E+02  0.00000000000E+00 0. -1.
         -5    1    5    5    0  502  0.42927171602E+02  0.41222536715E+00  0.81221662004E+00  0.43193306047E+02  0.47000000000E+01 0.  1.
         13    1    6    6    0    0 -0.55006791170E+01  0.24801288954E+01  0.90469550731E+01  0.10874553149E+02  0.00000000000E+00 0. -1.
        -14    1    6    6    0    0 -0.62739806729E+02  0.12234059847E+02 -0.17531427214E+03  0.18660399134E+03  0.00000000000E+00 0.  1.
</event>
<event>
12    1  0.8724767E-002  0.1761094E+03  0.7818608E-02  0.1172056E+00
         21   -1    0    0  501  502  0.00000000000E+00  0.00000000000E+00  0.11765295783E+04  0.11765295783E+04  0.00000000000E+00 0. -1.
         21   -1    0    0  502  503 -0.00000000000E+00 -0.00000000000E+00 -0.46981723003E+02  0.46981723003E+02  0.00000000000E+00 0. -1.
         -6    2    1    2    0  503  0.32731672305E+02 -0.15512802427E+02  0.15850449814E+03  0.23693497814E+03  0.17234412820E+03 0.  0.
        -24    2    3    3    0    0 -0.10243655226E+02 -0.25751102690E+02  0.13103354519E+02  0.84897863803E+02  0.79170055050E+02 0.  0.
          6    2    1    2  501    0 -0.32731672305E+02  0.15512802427E+02  0.97104335711E+03  0.98657632312E+03  0.17057441350E+03 0.  0.
         24    2    5    5    0    0  0.45670284400E+02  0.18929092288E+02  0.44892749391E+03  0.45857480564E+03  0.79440998042E+02 0.  0.
          5    1    5    5  501    0 -0.78401956705E+02 -0.34162898605E+01  0.52211586320E+03  0.52800151748E+03  0.47000000000E+01 0. -1.
        -11    1    6    6    0    0  0.49488471492E+01  0.32662041760E+02  0.72135085206E+02  0.79339590229E+02  0.00000000000E+00 0.  1.
         12    1    6    6    0    0  0.40721437251E+02 -0.13732949472E+02  0.37679240870E+03  0.37923521541E+03  0.00000000000E+00 0. -1.
         -5    1    3    3    0  503  0.42975327531E+02  0.10238300263E+02  0.14540114362E+03  0.15203711433E+03  0.47000000000E+01 0.  1.
         13    1    4    4    0    0  0.26860884191E+02 -0.29509200057E+02 -0.98560735234E+01  0.41102824390E+02  0.00000000000E+00 0. -1.
        -14    1    4    4    0    0 -0.37104539417E+02  0.37580973672E+01  0.22959428042E+02  0.43795039413E+02  0.00000000000E+00 0.  1.
</event>
<event>
12    1  0.8724767E-002  0.1986199E+03  0.7818608E-02  0.1152526E+00
         21   -1    0    0  503  502  0.00000000000E+00  0.00000000000E+00  0.69979815987E+03  0.69979815987E+03  0.00000000000E+00 0.  1.
         21   -1    0    0  501  503 -0.00000000000E+00 -0.00000000000E+00 -0.56369456805E+02  0.56369456805E+02  0.00000000000E+00 0. -1.
          6    2    1    2  501    0  0.27161128097E+02  0.92352028695E+02  0.40040814134E+03  0.44696369076E+03  0.17373323550E+03 0.  0.
         24    2    3    3    0    0  0.62475867197E+02  0.44313596702E+02  0.35540274149E+03  0.37211452402E+03  0.79316968477E+02 0.  0.
         -6    2    1    2    0  502 -0.27161128097E+02 -0.92352028695E+02  0.24302056173E+03  0.30920392592E+03  0.16517097293E+03 0.  0.
        -24    2    5    5    0    0 -0.62371733098E+02 -0.54184053442E+02  0.98165987067E+02  0.15525094986E+03  0.87407961178E+02 0.  0.
          5    1    3    3  501    0 -0.35314739100E+02  0.48038431993E+02  0.45005399847E+02  0.74849166739E+02  0.47000000000E+01 0. -1.
        -11    1    4    4    0    0  0.62673035386E+02  0.25811015235E+02  0.13621149688E+03  0.15214364842E+03  0.00000000000E+00 0.  1.
         12    1    4    4    0    0 -0.19716818887E+00  0.18502581467E+02  0.21919124461E+03  0.21997087559E+03  0.00000000000E+00 0. -1.
         -5    1    5    5    0  502  0.35210605002E+02 -0.38167975254E+02  0.14485457466E+03  0.15395297607E+03  0.47000000000E+01 0.  1.
         11    1    6    6    0    0 -0.30404814105E+01  0.50888431987E+01 -0.13997215303E+02  0.15200752895E+02  0.00000000000E+00 0. -1.
        -12    1    6    6    0    0 -0.59331251688E+02 -0.59272896640E+02  0.11216320237E+03  0.14005019696E+03  0.00000000000E+00 0.  1.
</event>
<event>
12    1  0.8724767E-002  0.1886639E+03  0.7818608E-02  0.1160037E+00
         21   -1    0    0  501  502  0.00000000000E+00  0.00000000000E+00  0.15880345721E+03  0.15880345721E+03  0.00000000000E+00 0. -1.
         21   -1    0    0  502  503 -0.00000000000E+00 -0.00000000000E+00 -0.22950521438E+03  0.22950521438E+03  0.00000000000E+00 0. -1.
         -6    2    1    2    0  503 -0.32224653862E+01 -0.72746365073E+02 -0.70020600609E+02  0.20123858710E+03  0.17404501290E+03 0.  0.
        -24    2    3    3    0    0  0.58810471064E+02 -0.41861705556E+02 -0.85728588081E+01  0.10850314420E+03  0.80550384819E+02 0.  0.
          6    2    1    2  501    0  0.32224653862E+01  0.72746365073E+02 -0.68115656105E+00  0.18707008449E+03  0.17231463845E+03 0.  0.
         24    2    5    5    0    0 -0.53559347472E+02  0.30058834251E+02 -0.38960542060E+02  0.10623815446E+03  0.77436970542E+02 0.  0.
          5    1    5    5  501    0  0.56781812858E+02  0.42687530822E+02  0.38279385499E+02  0.80831930036E+02  0.47000000000E+01 0. -1.
        -11    1    6    6    0    0 -0.24368848595E+01 -0.16103624381E+01 -0.45638280600E+02  0.45731655679E+02  0.00000000000E+00 0.  1.
         12    1    6    6    0    0 -0.51122462612E+02  0.31669196689E+02  0.66777385396E+01  0.60506498779E+02  0.00000000000E+00 0. -1.
         -5    1    3    3    0  503 -0.62032936450E+02 -0.30884659517E+02 -0.61447741801E+02  0.92735442904E+02  0.47000000000E+01 0.  1.
         13    1    4    4    0    0 -0.10004028468E+02 -0.32020853176E+02 -0.18456988409E+02  0.38289372479E+02  0.00000000000E+00 0. -1.
        -14    1    4    4    0    0  0.68814499531E+02 -0.98408523797E+01  0.98841296013E+01  0.70213771721E+02  0.00000000000E+00 0.  1.
</event>
<event>
12    1  0.8724767E-002  0.2272762E+03  0.7818608E-02  0.1130265E+00
         21   -1    0    0  501  502  0.00000000000E+00  0.00000000000E+00  0.83892383670E+03  0.83892383670E+03  0.00000000000E+00 0. -1.
         21   -1    0    0  502  503 -0.00000000000E+00 -0.00000000000E+00 -0.10535002340E+03  0.10535002340E+03  0.00000000000E+00 0. -1.
         -6    2    1    2    0  503 -0.11866771022E+03 -0.60111035719E+02  0.58233962126E+02  0.23461817041E+03  0.18428003005E+03 0.  0.
        -24    2    3    3    0    0 -0.14101246494E+03 -0.38953515883E+02  0.90175067097E+02  0.19001712899E+03  0.81074502244E+02 0.  0.
          6    2    1    2  501    0  0.11866771022E+03  0.60111035719E+02  0.67533985118E+03  0.70965568969E+03  0.17271919773E+03 0.  0.
         24    2    5    5    0    0  0.82116981251E+02  0.38158154616E+02  0.20784652415E+03  0.24019857174E+03  0.79346914839E+02 0.  0.
          5    1    5    5  501    0  0.36550728970E+02  0.21952881104E+02  0.46749332703E+03  0.46945711795E+03  0.47000000000E+01 0. -1.
        -13    1    6    6    0    0  0.66104311156E+02 -0.12466414875E+02  0.11350344458E+03  0.13194022656E+03  0.00000000000E+00 0.  1.
         14    1    6    6    0    0  0.16012670094E+02  0.50624569491E+02  0.94343079565E+02  0.10825834518E+03  0.00000000000E+00 0. -1.
         -5    1    3    3    0  503  0.22344754719E+02 -0.21157519836E+02 -0.31941104971E+02  0.44601041421E+02  0.47000000000E+01 0.  1.
         13    1    4    4    0    0 -0.62507646837E+02 -0.37259949091E+02  0.84168337948E+02  0.11126463424E+03  0.00000000000E+00 0. -1.
        -14    1    4    4    0    0 -0.78504818103E+02 -0.16935667919E+01  0.60067291488E+01  0.78752494748E+02  0.00000000000E+00 0.  1.
</event>
<event>
12    1  0.8724767E-002  0.1787728E+03  0.7818608E-02  0.1170221E+00
         21   -1    0    0  501  502  0.00000000000E+00  0.00000000000E+00  0.27479683099E+02  0.27479683099E+02  0.00000000000E+00 0. -1.
         21   -1    0    0  502  503 -0.00000000000E+00 -0.00000000000E+00 -0.11422266698E+04  0.11422266698E+04  0.00000000000E+00 0. -1.
         -6    2    1    2    0  503  0.48229510291E+02  0.20023936089E+00 -0.62282650072E+03  0.64797574503E+03  0.17214409773E+03 0.  0.
        -24    2    3    3    0    0 -0.11273569157E+02 -0.34961540011E+01 -0.54005609434E+03  0.54586154445E+03  0.78517031383E+02 0.  0.
          6    2    1    2  501    0 -0.48229510291E+02 -0.20023936089E+00 -0.49192048595E+03  0.52173060785E+03  0.16700579901E+03 0.  0.
         24    2    5    5    0    0  0.10437323896E+02  0.19821943885E+02 -0.12911691411E+03  0.15363930531E+03  0.80199821941E+02 0.  0.
          5    1    5    5  501    0 -0.58666834187E+02 -0.20022183246E+02 -0.36280357185E+03  0.36809130253E+03  0.47000000000E+01 0. -1.
        -13    1    6    6    0    0  0.97696199981E+01 -0.30323253633E+02 -0.63590059355E+02  0.71124122733E+02  0.00000000000E+00 0.  1.
         14    1    6    6    0    0  0.66770389816E+00  0.50145197518E+02 -0.65526854753E+02  0.82515182581E+02  0.00000000000E+00 0. -1.
         -5    1    3    3    0  503  0.59503079448E+02  0.36963933620E+01 -0.82770406381E+02  0.10211420058E+03  0.47000000000E+01 0.  1.
         11    1    4    4    0    0  0.31185380582E+02 -0.14169550169E+02 -0.28822785775E+03  0.29025609743E+03  0.00000000000E+00 0. -1.
        -12    1    4    4    0    0 -0.42458949739E+02  0.10673396168E+02 -0.25182823660E+03  0.25560544702E+03  0.00000000000E+00 0.  1.
</event>
<event>
12    1  0.8724767E-002  0.3151242E+03  0.7818608E-02  0.1078066E+00
         21   -1    0    0  501  502  0.00000000000E+00  0.00000000000E+00  0.56403383366E+03  0.56403383366E+03  0.00000000000E+00 0.  1.
         21   -1    0    0  502  503 -0.00000000000E+00 -0.00000000000E+00 -0.18547615459E+03  0.18547615459E+03  0.00000000000E+00 0.  1.
         -6    2    1    2    0  503 -0.21834282285E+02  0.26158735102E+03  0.10132493343E+03  0.32979432283E+03  0.17202579790E+03 0.  0.
        -24    2    3    3    0    0 -0.53396245820E+02  0.16577502325E+03  0.12245657305E+03  0.22662070272E+03  0.77645432686E+02 0.  0.
          6    2    1    2  501    0  0.21834282285E+02 -0.26158735102E+03  0.27723274564E+03  0.41971566542E+03  0.17435184669E+03 0.  0.
         24    2    5    5    0    0 -0.32865376735E+02 -0.62044148389E+02  0.75391512442E+02  0.13062828099E+03  0.80313500173E+02 0.  0.
          5    1    5    5  501    0  0.54699659021E+02 -0.19954320263E+03  0.20184123320E+03  0.28908738442E+03  0.47000000000E+01 0. -1.
        -11    1    6    6    0    0  0.26504638860E+01 -0.55106165637E+02  0.76625319973E+02  0.94420093789E+02  0.00000000000E+00 0.  1.
         12    1    6    6    0    0 -0.35515840621E+02 -0.69379827519E+01 -0.12338075319E+01  0.36208187206E+02  0.00000000000E+00 0. -1.
         -5    1    3    3    0  503  0.31561963535E+02  0.95812327769E+02 -0.21131639619E+02  0.10317362011E+03  0.47000000000E+01 0.  1.
         13    1    4    4    0    0 -0.31555199813E+02  0.37004216207E+02  0.71394577228E+02  0.86384190162E+02  0.00000000000E+00 0. -1.
        -14    1    4    4    0    0 -0.21841046007E+02  0.12877080704E+03  0.51061995818E+02  0.14023651255E+03  0.00000000000E+00 0.  1.
</event>
<event>
12    1  0.8724767E-002  0.1814126E+03  0.7818608E-02  0.1167611E+00
         21   -1    0    0  503  502  0.00000000000E+00  0.00000000000E+00  0.26625315445E+03  0.26625315445E+03  0.00000000000E+00 0.  1.
         21   -1    0    0  501  503 -0.00000000000E+00 -0.00000000000E+00 -0.17289505370E+03  0.17289505370E+03  0.00000000000E+00 0.  1.
          6    2    1    2  501    0  0.43153429639E+02 -0.36906531327E+02  0.16815344161E+03  0.24735827730E+03  0.17229691487E+03 0.  0.
         24    2    3    3    0    0 -0.31885663374E+02 -0.29377621503E+02  0.14091738434E+03  0.16703740343E+03  0.78511430758E+02 0.  0.
         -6    2    1    2    0  502 -0.43153429639E+02  0.36906531327E+02 -0.74795340868E+02  0.19178993086E+03  0.16722656493E+03 0.  0.
        -24    2    5    5    0    0 -0.62346210283E+02  0.58110859444E+02 -0.53306629835E+01  0.11652096093E+03  0.79276708100E+02 0.  0.
          5    1    3    3  501    0  0.75039093014E+02 -0.75289098241E+01  0.27236057274E+02  0.80320873870E+02  0.47000000000E+01 0. -1.
        -13    1    4    4    0    0 -0.42458235545E+02 -0.23114320884E+02  0.33254950516E+02  0.58675934840E+02  0.00000000000E+00 0.  1.
         14    1    4    4    0    0  0.10572572171E+02 -0.62633006188E+01  0.10766243382E+03  0.10836146859E+03  0.00000000000E+00 0. -1.
         -5    1    5    5    0  502  0.19192780644E+02 -0.21204328118E+02 -0.69464677884E+02  0.75268969923E+02  0.47000000000E+01 0.  1.
         11    1    6    6    0    0 -0.82602255939E+00  0.41158454325E+02  0.22487134289E+02  0.46908121730E+02  0.00000000000E+00 0. -1.
        -12    1    6    6    0    0 -0.61520187724E+02  0.16952405119E+02 -0.27817797273E+02  0.69612839204E+02  0.00000000000E+00 0.  1.
</event>
<event>
12    1  0.8724767E-002  0.1929493E+03  0.7818608E-02  0.1156279E+00
         21   -1    0    0  503  502  0.00000000000E+00  0.00000000000E+00  0.22571187447E+03  0.22571187447E+03  0.00000000000E+00 0.  1.
         21   -1    0    0  501  503 -0.00000000000E+00 -0.00000000000E+00 -0.58127215762E+03  0.58127215762E+03  0.00000000000E+00 0. -1.
          6    2    1    2  501    0  0.10965091982E+02 -0.86379665954E+02 -0.52023099223E+03  0.55486009862E+03  0.17218526023E+03 0.  0.
         24    2    3    3    0    0 -0.33447814590E+02  0.76187401875E+01 -0.26443727466E+03  0.27870665836E+03  0.81077294461E+02 0.  0.
         -6    2    1    2    0  502 -0.10965091982E+02  0.86379665954E+02  0.16467070907E+03  0.25212393347E+03  0.16990690236E+03 0.  0.
        -24    2    5    5    0    0  0.31237542019E+02  0.10660533226E+03  0.90146158158E+02  0.16399823584E+03  0.80178617031E+02 0.  0.
          5    1    3    3  501    0  0.44412906572E+02 -0.93998406141E+02 -0.25579371756E+03  0.27615344027E+03  0.47000000000E+01 0. -1.
        -11    1    4    4    0    0 -0.19599682270E+02 -0.11337778263E+02 -0.12866766673E+02  0.26043165046E+02  0.00000000000E+00 0.  1.
         12    1    4    4    0    0 -0.13848132320E+02  0.18956518450E+02 -0.25157050799E+03  0.25266349331E+03  0.00000000000E+00 0. -1.
         -5    1    5    5    0  502 -0.42202634001E+02 -0.20225666310E+02  0.74524550917E+02  0.88125697635E+02  0.47000000000E+01 0.  1.
         11    1    6    6    0    0 -0.79375174062E+01  0.56885193442E+02  0.46561212128E+01  0.57624724557E+02  0.00000000000E+00 0. -1.
        -12    1    6    6    0    0  0.39175059425E+02  0.49720138821E+02  0.85490036945E+02  0.10637351128E+03  0.00000000000E+00 0.  1.
</event>
<event>
12    1  0.8724767E-002  0.1897307E+03  0.7818608E-02  0.1158733E+00
         21   -1    0    0  501  502  0.00000000000E+00  0.00000000000E+00  0.62760407763E+03  0.62760407763E+03  0.00000000000E+00 0.  1.
         21   -1    0    0  502  503 -0.00000000000E+00 -0.00000000000E+00 -0.11565236988E+03  0.11565236988E+03  0.00000000000E+00 0.  1.
         -6    2    1    2    0  503 -0.64229573089E+02 -0.49838895979E+02 -0.79125497786E+01  0.18989564548E+03  0.17143043521E+03 0.  0.
        -24    2    3    3    0    0 -0.42974971569E+02 -0.98201516615E+02  0.94207408418E+01  0.13409928248E+03  0.80021754271E+02 0.  0.
          6    2    1    2  501    0  0.64229573089E+02  0.49838895979E+02  0.51986425752E+03  0.55336080203E+03  0.17128916299E+03 0.  0.
         24    2    5    5    0    0  0.28068875767E+02  0.97304406146E+02  0.34680781735E+03  0.37024555916E+03  0.80932704500E+02 0.  0.
          5    1    5    5  501    0  0.36160697322E+02 -0.47465510167E+02  0.17305644017E+03  0.18311524287E+03  0.47000000000E+01 0. -1.
        -13    1    6    6    0    0  0.50891171201E+02  0.92219525011E+02  0.26511202813E+03  0.28526959101E+03  0.00000000000E+00 0.  1.
         14    1    6    6    0    0 -0.22822295434E+02  0.50848811350E+01  0.81695789225E+02  0.84975968145E+02  0.00000000000E+00 0. -1.
         -5    1    3    3    0  503 -0.21254601520E+02  0.48362620636E+02 -0.17333290620E+02  0.55796363002E+02  0.47000000000E+01 0.  1.
         11    1    4    4    0    0  0.39639779790E+01  0.10856594626E+02 -0.80576395965E+01  0.14089156261E+02  0.00000000000E+00 0. -1.
        -12    1    4    4    0    0 -0.46938949548E+02 -0.10905811124E+03  0.17478380438E+02  0.12001012622E+03  0.00000000000E+00 0.  1.
</event>
<event>
12    1  0.8724767E-002  0.1922305E+03  0.7818608E-02  0.1156501E+00
         21   -1    0    0  503  502  0.00000000000E+00  0.00000000000E+00  0.27200412696E+03  0.27200412696E+03  0.00000000000E+00 0.  1.
         21   -1    0    0  501  503 -0.00000000000E+00 -0.00000000000E+00 -0.15697128128E+03  0.15697128128E+03  0.00000000000E+00 0.  1.
          6    2    1    2  501    0  0.30330967416E+01  0.87023329797E+02 -0.21391449033E+02  0.19325486989E+03  0.17119459992E+03 0.  0.
         24    2    3    3    0    0 -0.39511823787E+02  0.89623790648E+02 -0.61860577763E+02  0.13429155045E+03  0.67925557574E+02 0.  0.
         -6    2    1    2    0  502 -0.30330967416E+01 -0.87023329797E+02  0.13642429471E+03  0.23572053835E+03  0.17137772436E+03 0.  0.
        -24    2    5    5    0    0 -0.16900954682E+02 -0.23147561604E+02 -0.44571047833E-01  0.84332716620E+02  0.79313007940E+02 0.  0.
          5    1    3    3  501    0  0.42544920529E+02 -0.26004608514E+01  0.40469128730E+02  0.58963319442E+02  0.47000000000E+01 0. -1.
        -13    1    4    4    0    0 -0.24182204142E+02  0.98507003782E+02 -0.51318679509E+02  0.11367504413E+03  0.00000000000E+00 0.  1.
         14    1    4    4    0    0 -0.15329619645E+02 -0.88832131338E+01 -0.10541898254E+02  0.20616506320E+02  0.00000000000E+00 0. -1.
         -5    1    5    5    0  502  0.13867857941E+02 -0.63875768193E+02  0.13646886576E+03  0.15138782173E+03  0.47000000000E+01 0.  1.
         11    1    6    6    0    0 -0.36392293530E+02  0.44612486045E+00  0.25524645495E+02  0.44453409132E+02  0.00000000000E+00 0. -1.
        -12    1    6    6    0    0  0.19491338848E+02 -0.23593686465E+02 -0.25569216543E+02  0.39879307488E+02  0.00000000000E+00 0.  1.
</event>
<event>
12    1  0.8724767E-002  0.1920654E+03  0.7818608E-02  0.1157082E+00
         21   -1    0    0  501  502  0.00000000000E+00  0.00000000000E+00  0.43529391481E+02  0.43529391481E+02  0.00000000000E+00 0. -1.
         21   -1    0    0  502  503 -0.00000000000E+00 -0.00000000000E+00 -0.89070468977E+03  0.89070468977E+03  0.00000000000E+00 0.  1.
         -6    2    1    2    0  503  0.59669062789E+02 -0.55432658444E+02 -0.53480932190E+03  0.56754397205E+03  0.17161577067E+03 0.  0.
        -24    2    3    3    0    0 -0.20843512258E+02  0.10663923186E+02 -0.15437934678E+03  0.17308220101E+03  0.74674589605E+02 0.  0.
          6    2    1    2  501    0 -0.59669062789E+02  0.55432658444E+02 -0.31236597639E+03  0.36669010920E+03  0.17394239364E+03 0.  0.
         24    2    5    5    0    0  0.16882599788E+02  0.37026666035E+02 -0.13086983598E+03  0.16879651005E+03  0.98536042460E+02 0.  0.
          5    1    5    5  501    0 -0.76551662577E+02  0.18405992409E+02 -0.18149614041E+03  0.19789359915E+03  0.47000000000E+01 0. -1.
        -11    1    6    6    0    0  0.31424133838E+02 -0.70320298492E+01 -0.11552421630E+03  0.11992818760E+03  0.00000000000E+00 0.  1.
         12    1    6    6    0    0 -0.14541534049E+02  0.44058695885E+02 -0.15345619684E+02  0.48868322450E+02  0.00000000000E+00 0. -1.
         -5    1    3    3    0  503  0.80512575047E+02 -0.66096581630E+02 -0.38042997512E+03  0.39446177104E+03  0.47000000000E+01 0.  1.
         11    1    4    4    0    0  0.24401244141E+02  0.16913669328E+02 -0.39179126502E+02  0.49157877082E+02  0.00000000000E+00 0. -1.
        -12    1    4    4    0    0 -0.45244756399E+02 -0.62497461423E+01 -0.11520022028E+03  0.12392432393E+03  0.00000000000E+00 0.  1.
</event>
<event>
12    1  0.8724767E-002  0.2409859E+03  0.7818608E-02  0.1120037E+00
         21   -1    0    0  503  502  0.00000000000E+00  0.00000000000E+00  0.60353626287E+02  0.60353626287E+02  0.00000000000E+00 0. -1.
         21   -1    0    0  501  503 -0.00000000000E+00 -0.00000000000E+00 -0.10413910569E+04  0.10413910569E+04  0.00000000000E+00 0. -1.
          6    2    1    2  501    0 -0.16068963756E+03 -0.79743325642E+01 -0.66659764231E+03  0.70882059311E+03  0.17941423266E+03 0.  0.
         24    2    3    3    0    0 -0.18894567971E+02  0.39203601887E+02 -0.27250223276E+03  0.28731747202E+03  0.79999598557E+02 0.  0.
         -6    2    1    2    0  502  0.16068963756E+03  0.79743325642E+01 -0.31443978827E+03  0.39292409005E+03  0.17214008973E+03 0.  0.
        -24    2    5    5    0    0  0.68501138030E+02 -0.48121707006E+02 -0.22444271257E+03  0.25232875322E+03  0.79291638156E+02 0.  0.
          5    1    3    3  501    0 -0.14179506959E+03 -0.47177934451E+02 -0.39409540955E+03  0.42150312108E+03  0.47000000000E+01 0. -1.
        -11    1    4    4    0    0 -0.81076848537E+01 -0.24762968198E+02 -0.70957120510E+02  0.75590026450E+02  0.00000000000E+00 0.  1.
         12    1    4    4    0    0 -0.10786883118E+02  0.63966570085E+02 -0.20154511225E+03  0.21172744557E+03  0.00000000000E+00 0. -1.
         -5    1    5    5    0  502  0.92188499531E+02  0.56096039571E+02 -0.89997075706E+02  0.14059533683E+03  0.47000000000E+01 0.  1.
         13    1    6    6    0    0  0.69699755380E+02 -0.75932278255E+01 -0.10556691563E+03  0.12672839731E+03  0.00000000000E+00 0. -1.
        -14    1    6    6    0    0 -0.11986173493E+01 -0.40528479181E+02 -0.11887579693E+03  0.12560035591E+03  0.00000000000E+00 0.  1.
</event>
<event>
12    1  0.8724767E-002  0.2161129E+03  0.7818608E-02  0.1137404E+00
         21   -1    0    0  503  502  0.00000000000E+00  0.00000000000E+00  0.27191858753E+03  0.27191858753E+03  0.00000000000E+00 0. -1.
         21   -1    0    0  501  503 -0.00000000000E+00 -0.00000000000E+00 -0.24826634899E+03  0.24826634899E+03  0.00000000000E+00 0. -1.
          6    2    1    2  501    0 -0.48322014250E+02  0.11590628197E+03 -0.13488639028E+03  0.25215644098E+03  0.17210243805E+03 0.  0.
         24    2    3    3    0    0  0.22327592790E+02  0.62335298433E+02 -0.12561935365E+03  0.16288614793E+03  0.79796393064E+02 0.  0.
         -6    2    1    2    0  502  0.48322014250E+02 -0.11590628197E+03  0.15853862881E+03  0.26802849554E+03  0.17588488945E+03 0.  0.
        -24    2    5    5    0    0  0.73517431677E+02 -0.86092368242E+02  0.17685732553E+03  0.22465404269E+03  0.79838691575E+02 0.  0.
          5    1    3    3  501    0 -0.70649607040E+02  0.53570983536E+02 -0.92670366256E+01  0.89270293042E+02  0.47000000000E+01 0. -1.
        -13    1    4    4    0    0 -0.25505915812E+02  0.42042270052E+01 -0.49413095454E+02  0.55766309439E+02  0.00000000000E+00 0.  1.
         14    1    4    4    0    0  0.47833508601E+02  0.58131071427E+02 -0.76206258198E+02  0.10711983849E+03  0.00000000000E+00 0. -1.
         -5    1    5    5    0  502 -0.25195417426E+02 -0.29813913727E+02 -0.18318696721E+02  0.43374452856E+02  0.47000000000E+01 0.  1.
         13    1    6    6    0    0  0.25027169038E+02 -0.50527408389E+02  0.25685232740E+02  0.61960546878E+02  0.00000000000E+00 0. -1.
        -14    1    6    6    0    0  0.48490262639E+02 -0.35564959853E+02  0.15117209279E+03  0.16269349581E+03  0.00000000000E+00 0.  1.
</event>
<event>
12    1  0.8724767E-002  0.2891298E+03  0.7818608E-02  0.1091133E+00
         21   -1    0    0  503  502  0.00000000000E+00  0.00000000000E+00  0.87669333935E+02  0.87669333935E+02  0.00000000000E+00 0.  1.
         21   -1    0    0  501  503 -0.00000000000E+00 -0.00000000000E+00 -0.10778311754E+04  0.10778311754E+04  0.00000000000E+00 0. -1.
          6    2    1    2  501    0  0.13049928488E+03 -0.18990438671E+03 -0.69752872130E+03  0.75412454137E+03  0.17048098842E+03 0.  0.
         24    2    3    3    0    0  0.69503131566E+02 -0.19219100933E+03 -0.47288212171E+03  0.52128566130E+03  0.79706776905E+02 0.  0.
         -6    2    1    2    0  502 -0.13049928488E+03  0.18990438671E+03 -0.29263312019E+03  0.41137596799E+03  0.17464908978E+03 0.  0.
        -24    2    5    5    0    0 -0.41027049983E+01  0.56402211848E+02 -0.14224484601E+03  0.17380987380E+03  0.82330032933E+02 0.  0.
          5    1    3    3  501    0  0.60996153316E+02  0.22866226254E+01 -0.22464659959E+03  0.23283888007E+03  0.47000000000E+01 0. -1.
        -11    1    4    4    0    0 -0.15617099395E+02 -0.59958001594E+02 -0.12522374373E+03  0.13971342721E+03  0.00000000000E+00 0.  1.
         12    1    4    4    0    0  0.85120230961E+02 -0.13223300774E+03 -0.34765837797E+03  0.38157223409E+03  0.00000000000E+00 0. -1.
         -5    1    5    5    0  502 -0.12639657988E+03  0.13350217486E+03 -0.15038827418E+03  0.23756609419E+03  0.47000000000E+01 0.  1.
         11    1    6    6    0    0 -0.30015559321E+02  0.61330565089E+02 -0.12457541537E+03  0.14206127597E+03  0.00000000000E+00 0. -1.
        -12    1    6    6    0    0  0.25912854322E+02 -0.49283532406E+01 -0.17669430641E+02  0.31748597827E+02  0.00000000000E+00 0.  1.
</event>
<event>
12    1  0.8724767E-002  0.2204773E+03  0.7818608E-02  0.1133676E+00
         21   -1    0    0  503  502  0.00000000000E+00  0.00000000000E+00  0.97945304067E+02  0.97945304067E+02  0.00000000000E+00 0.  1.
         21   -1    0    0  501  503 -0.00000000000E+00 -0.00000000000E+00 -0.75385341412E+03  0.75385341412E+03  0.00000000000E+00 0.  1.
          6    2    1    2  501    0 -0.24303038516E+02 -0.13552491978E+03 -0.57737026541E+03  0.61775076734E+03  0.17117811077E+03 0.  0.
         24    2    3    3    0    0 -0.40640227568E+02 -0.86931490107E+02 -0.19637013954E+03  0.23328827103E+03  0.81568827559E+02 0.  0.
         -6    2    1    2    0  502  0.24303038516E+02  0.13552491978E+03 -0.78537844644E+02  0.23404795085E+03  0.17219932837E+03 0.  0.
        -24    2    5    5    0    0  0.71034632155E+02  0.43298285779E+02 -0.12753518153E+02  0.11141328415E+03  0.73004158400E+02 0.  0.
          5    1    3    3  501    0  0.16337189053E+02 -0.48593429674E+02 -0.38100012587E+03  0.38446249631E+03  0.47000000000E+01 0. -1.
        -13    1    4    4    0    0 -0.36036473461E+02 -0.89368097515E+02 -0.20308727651E+03  0.22478818064E+03  0.00000000000E+00 0.  1.
         14    1    4    4    0    0 -0.46037541078E+01  0.24366074076E+01  0.67171369753E+01  0.85000903930E+01  0.00000000000E+00 0. -1.
         -5    1    5    5    0  502 -0.46731593639E+02  0.92226634003E+02 -0.65784326491E+02  0.12263466670E+03  0.47000000000E+01 0.  1.
         11    1    6    6    0    0  0.26224415057E+02  0.15214750160E+02 -0.41365076374E+02  0.51286237052E+02  0.00000000000E+00 0. -1.
        -12    1    6    6    0    0  0.44810217098E+02  0.28083535619E+02  0.28611558221E+02  0.60127047101E+02  0.00000000000E+00 0.  1.
</event>
<event>
12    1  0.8724767E-002  0.3687659E+03  0.7818608E-02  0.1055653E+00
         21   -1    0    0  503  502  0.00000000000E+00  0.00000000000E+00  0.13399394003E+03  0.13399394003E+03  0.00000000000E+00 0.  1.
         21   -1    0    0  501  503 -0.00000000000E+00 -0.00000000000E+00 -0.10011115994E+04  0.10011115994E+04  0.00000000000E+00 0. -1.
          6    2    1    2  501    0  0.32383640394E+03  0.27439906813E+02 -0.43340461244E+03  0.56905872456E+03  0.17425644580E+03 0.  0.
         24    2    3    3    0    0  0.14471551569E+03  0.25306408151E+01 -0.10595977363E+03  0.19496384809E+03  0.76383530991E+02 0.  0.
         -6    2    1    2    0  502 -0.32383640394E+03 -0.27439906813E+02 -0.43371304696E+03  0.56604681490E+03  0.16333714994E+03 0.  0.
        -24    2    5    5    0    0 -0.14938168590E+03  0.17801634480E+02 -0.28602527025E+03  0.33299099520E+03  0.80254354344E+02 0.  0.
          5    1    3    3  501    0  0.17912088825E+03  0.24909265998E+02 -0.32744483881E+03  0.37409487647E+03  0.47000000000E+01 0. -1.
        -11    1    4    4    0    0  0.62486325413E+02 -0.50526193226E+01 -0.27040883384E+01  0.62748561094E+02  0.00000000000E+00 0.  1.
         12    1    4    4    0    0  0.82229190280E+02  0.75832601378E+01 -0.10325568530E+03  0.13221528699E+03  0.00000000000E+00 0. -1.
         -5    1    5    5    0  502 -0.17445471804E+03 -0.45241541293E+02 -0.14768777671E+03  0.23305581969E+03  0.47000000000E+01 0.  1.
         11    1    6    6    0    0 -0.14600104479E+03  0.18017139156E+02 -0.20730207263E+03  0.25419494822E+03  0.00000000000E+00 0. -1.
        -12    1    6    6    0    0 -0.33806411099E+01 -0.21550467589E+00 -0.78723197618E+02  0.78796046981E+02  0.00000000000E+00 0.  1.
</event>
<event>
12    1  0.8724767E-002  0.1858873E+03  0.7818608E-02  0.1162277E+00
         21   -1    0    0  503  502  0.00000000000E+00  0.00000000000E+00  0.56423295726E+02  0.56423295726E+02  0.00000000000E+00 0.  1.
         21   -1    0    0  501  503 -0.00000000000E+00 -0.00000000000E+00 -0.11283552694E+04  0.11283552694E+04  0.00000000000E+00 0.  1.
          6    2    1    2  501    0  0.42839690738E+02  0.64313656154E+02 -0.93665746467E+03  0.95488014163E+03  0.16881170957E+03 0.  0.
         24    2    3    3    0    0  0.32463583917E+02 -0.27205147990E+02 -0.56716833416E+03  0.57405516521E+03  0.77880736167E+02 0.  0.
         -6    2    1    2    0  502 -0.42839690738E+02 -0.64313656154E+02 -0.13527450901E+03  0.22989842351E+03  0.16906391357E+03 0.  0.
        -24    2    5    5    0    0  0.35349714250E+02 -0.54325037541E+02 -0.10157974766E+03  0.14404516208E+03  0.78928775381E+02 0.  0.
          5    1    3    3  501    0  0.10376106822E+02  0.91518804144E+02 -0.36948913050E+03  0.38082497642E+03  0.47000000000E+01 0. -1.
        -11    1    4    4    0    0  0.13320460719E+02 -0.19846690015E+02 -0.53725550713E+03  0.53778695198E+03  0.00000000000E+00 0.  1.
         12    1    4    4    0    0  0.19143123198E+02 -0.73584579754E+01 -0.29912827030E+02  0.36268213224E+02  0.00000000000E+00 0. -1.
         -5    1    5    5    0  502 -0.78189404988E+02 -0.99886186138E+01 -0.33694761351E+02  0.85853261422E+02  0.47000000000E+01 0.  1.
         11    1    6    6    0    0  0.13614529652E+02  0.68695095223E+01 -0.70354481419E+02  0.71988183992E+02  0.00000000000E+00 0. -1.
        -12    1    6    6    0    0  0.21735184598E+02 -0.61194547063E+02 -0.31225266245E+02  0.72056978093E+02  0.00000000000E+00 0.  1.
</event>
<event>
12    1  0.8724767E-002  0.2248829E+03  0.7818608E-02  0.1130640E+00
         21   -1    0    0  501  502  0.00000000000E+00  0.00000000000E+00  0.28315148800E+03  0.28315148800E+03  0.00000000000E+00 0.  1.
         21   -1    0    0  502  503 -0.00000000000E+00 -0.00000000000E+00 -0.31384404130E+03  0.31384404130E+03  0.00000000000E+00 0. -1.
         -6    2    1    2    0  503 -0.93282390533E+02  0.10646192654E+03 -0.21234076531E+03  0.30791351158E+03  0.17229737031E+03 0.  0.
        -24    2    3    3    0    0 -0.11550552203E+03  0.70965732345E+02 -0.21442108999E+03  0.26572032343E+03  0.79077339754E+02 0.  0.
          6    2    1    2  501    0  0.93282390533E+02 -0.10646192654E+03  0.18164821201E+03  0.28908201772E+03  0.17474722847E+03 0.  0.
         24    2    5    5    0    0  0.74771341420E+02  0.70777743985E+01  0.10197408352E+03  0.14906780637E+03  0.78623462144E+02 0.  0.
          5    1    5    5  501    0  0.18511049113E+02 -0.11353970094E+03  0.79674128492E+02  0.14001421135E+03  0.47000000000E+01 0. -1.
        -11    1    6    6    0    0  0.90234529359E+02  0.93712631622E+01  0.96642266591E+02  0.13255119220E+03  0.00000000000E+00 0.  1.
         12    1    6    6    0    0 -0.15463187939E+02 -0.22934887638E+01  0.53318169239E+01  0.16516614171E+02  0.00000000000E+00 0. -1.
         -5    1    3    3    0  503  0.22223131501E+02  0.35496194195E+02  0.20803246779E+01  0.42193188156E+02  0.47000000000E+01 0.  1.
         13    1    4    4    0    0 -0.80117470318E+02  0.14261655943E+02 -0.16008209687E+03  0.17957862239E+03  0.00000000000E+00 0. -1.
        -14    1    4    4    0    0 -0.35388051716E+02  0.56704076402E+02 -0.54338993121E+02  0.86141701041E+02  0.00000000000E+00 0.  1.
</event>
<event>
12    1  0.8724767E-002  0.1806858E+03  0.7818608E-02  0.1167447E+00
         21   -1    0    0  503  502  0.00000000000E+00  0.00000000000E+00  0.73654063364E+03  0.73654063364E+03  0.00000000000E+00 0.  1.
         21   -1    0    0  501  503 -0.00000000000E+00 -0.00000000000E+00 -0.46428941272E+02  0.46428941272E+02  0.00000000000E+00 0.  1.
          6    2    1    2  501    0 -0.49571720697E+02  0.44539109833E+01  0.25694946114E+03  0.31411844887E+03  0.17369565776E+03 0.  0.
         24    2    3    3    0    0 -0.79980982259E+02  0.57689971157E+02  0.18698147383E+03  0.22097119695E+03  0.64351441561E+02 0.  0.
         -6    2    1    2    0  502  0.49571720697E+02 -0.44539109833E+01  0.43316223123E+03  0.46885112605E+03  0.17237942747E+03 0.  0.
        -24    2    5    5    0    0  0.28712911051E+02  0.40873503975E+02  0.12481844915E+03  0.15646091744E+03  0.80033110957E+02 0.  0.
          5    1    3    3  501    0  0.30409261562E+02 -0.53236060173E+02  0.69967987313E+02  0.93147251920E+02  0.47000000000E+01 0. -1.
        -11    1    4    4    0    0 -0.16428319846E+02  0.38206496505E+02  0.11826864329E+03  0.12536785095E+03  0.00000000000E+00 0.  1.
         12    1    4    4    0    0 -0.63552662413E+02  0.19483474651E+02  0.68712830541E+02  0.95603345994E+02  0.00000000000E+00 0. -1.
         -5    1    5    5    0  502  0.20858809646E+02 -0.45327414958E+02  0.30834378208E+03  0.31239020861E+03  0.47000000000E+01 0.  1.
         13    1    6    6    0    0  0.76729510158E+01  0.33034540301E+02  0.46716896845E+01  0.34234189266E+02  0.00000000000E+00 0. -1.
        -14    1    6    6    0    0  0.21039960035E+02  0.78389636733E+01  0.12014675947E+03  0.12222672817E+03  0.00000000000E+00 0.  1.
</event>
<event>
12    1  0.8724767E-002  0.2053187E+03  0.7818608E-02  0.1145414E+00
         21   -1    0    0  501  502  0.00000000000E+00  0.00000000000E+00  0.32467882436E+03  0.32467882436E+03  0.00000000000E+00 0.  1.
         21   -1    0    0  502  503 -0.00000000000E+00 -0.00000000000E+00 -0.13911503396E+03  0.13911503396E+03  0.00000000000E+00 0.  1.
         -6    2    1    2    0  503 -0.25230383406E+02  0.10884073773E+03  0.32127881461E+02  0.20781719856E+03  0.17225826197E+03 0.  0.
        -24    2    3    3    0    0  0.28059873849E+02  0.17986329859E+01  0.59598709995E+01  0.85323449836E+02  0.80336663041E+02 0.  0.
          6    2    1    2  501    0  0.25230383406E+02 -0.10884073773E+03  0.15343590894E+03  0.25597665975E+03  0.17175154657E+03 0.  0.
         24    2    5    5    0    0 -0.28040827803E+02 -0.11775278347E+03  0.13551673544E+03  0.19887645588E+03  0.80839675167E+02 0.  0.
          5    1    5    5  501    0  0.53271211209E+02  0.89120457414E+01  0.17919173495E+02  0.57100203868E+02  0.47000000000E+01 0. -1.
        -13    1    6    6    0    0  0.17644404991E+02 -0.76247598202E+02  0.10223450300E+03  0.12875136839E+03  0.00000000000E+00 0.  1.
         14    1    6    6    0    0 -0.45685232794E+02 -0.41505185266E+02  0.33282232445E+02  0.70125087493E+02  0.00000000000E+00 0. -1.
         -5    1    3    3    0  503 -0.53290257255E+02  0.10704210474E+03  0.26168010461E+02  0.12249374873E+03  0.47000000000E+01 0.  1.
         11    1    4    4    0    0  0.49420006267E+02 -0.12610814337E+00 -0.18521248020E+02  0.52776789888E+02  0.00000000000E+00 0. -1.
        -12    1    4    4    0    0 -0.21360132418E+02  0.19247411292E+01  0.24481119019E+02  0.32546659948E+02  0.00000000000E+00 0.  1.
</event>
<event>
12    1  0.8724767E-002  0.1819352E+03  0.7818608E-02  0.1167114E+00
         21   -1    0    0  503  502  0.00000000000E+00  0.00000000000E+00  0.76284835153E+02  0.76284835153E+02  0.00000000000E+00 0. -1.
         21   -1    0    0  501  503 -0.00000000000E+00 -0.00000000000E+00 -0.70063274515E+03  0.70063274515E+03  0.00000000000E+00 0. -1.
          6    2    1    2  501    0 -0.37054099161E+02  0.45589911972E+02 -0.55947235721E+03  0.58831092461E+03  0.17218878939E+03 0.  0.
         24    2    3    3    0    0 -0.33812302962E+02  0.85018157048E+02 -0.51187502783E+03  0.52624087131E+03  0.80882950365E+02 0.  0.
         -6    2    1    2    0  502  0.37054099161E+02 -0.45589911972E+02 -0.64875552791E+02  0.18860665570E+03  0.16706940739E+03 0.  0.
        -24    2    5    5    0    0  0.10027377927E+02 -0.27717536088E+02 -0.10861766098E+03  0.13396850503E+03  0.72670172344E+02 0.  0.
          5    1    3    3  501    0 -0.32417961985E+01 -0.39428245076E+02 -0.47597329376E+02  0.62070053295E+02  0.47000000000E+01 0. -1.
        -13    1    4    4    0    0  0.10270760263E+02 -0.11479430456E+02 -0.84688119674E+02  0.86077543261E+02  0.00000000000E+00 0.  1.
         14    1    4    4    0    0 -0.44083063225E+02  0.96497587504E+02 -0.42718690816E+03  0.44016332805E+03  0.00000000000E+00 0. -1.
         -5    1    5    5    0  502  0.27026721234E+02 -0.17872375885E+02  0.43742108184E+02  0.54638150672E+02  0.47000000000E+01 0.  1.
         11    1    6    6    0    0  0.41237585977E+02 -0.20759409965E+02 -0.69623813541E+02  0.83540211942E+02  0.00000000000E+00 0. -1.
        -12    1    6    6    0    0 -0.31210208051E+02 -0.69581261231E+01 -0.38993847435E+02  0.50428293085E+02  0.00000000000E+00 0.  1.
</event>
<event>
12    1  0.8724767E-002  0.1946046E+03  0.7818608E-02  0.1155183E+00
         21   -1    0    0  503  502  0.00000000000E+00  0.00000000000E+00  0.84521519879E+03  0.84521519879E+03  0.00000000000E+00 0. -1.
         21   -1    0    0  501  503 -0.00000000000E+00 -0.00000000000E+00 -0.14249646788E+03  0.14249646788E+03  0.00000000000E+00 0. -1.
          6    2    1    2  501    0 -0.87559282167E+02 -0.24789023182E+02 -0.60330948168E+02  0.20023736519E+03  0.16785128998E+03 0.  0.
         24    2    3    3    0    0  0.65407589205E+01 -0.44137998976E+02 -0.27951660431E+02  0.98749883841E+02  0.83542203448E+02 0.  0.
         -6    2    1    2    0  502  0.87559282167E+02  0.24789023182E+02  0.76304967908E+03  0.78747430147E+03  0.17201697351E+03 0.  0.
        -24    2    5    5    0    0  0.72010466739E+02  0.69318091232E+02  0.35220147923E+03  0.37390092602E+03  0.75930991155E+02 0.  0.
          5    1    3    3  501    0 -0.94100041087E+02  0.19348975794E+02 -0.32379287737E+02  0.10148748135E+03  0.47000000000E+01 0. -1.
        -11    1    4    4    0    0  0.29940087504E+02  0.72223256058E+01 -0.28996277316E+02  0.42300767429E+02  0.00000000000E+00 0.  1.
         12    1    4    4    0    0 -0.23399328584E+02 -0.51360324581E+02  0.10446168852E+01  0.56449116412E+02  0.00000000000E+00 0. -1.
         -5    1    5    5    0  502  0.15548815428E+02 -0.44529068050E+02  0.41084819985E+03  0.41357337545E+03  0.47000000000E+01 0.  1.
         11    1    6    6    0    0  0.63320359251E+02  0.75767668390E+02  0.34887445381E+03  0.36257908378E+03  0.00000000000E+00 0. -1.
        -12    1    6    6    0    0  0.86901074885E+01 -0.64495771579E+01  0.33270254118E+01  0.11321842243E+02  0.00000000000E+00 0.  1.
</event>
<event>
12    1  0.8724767E-002  0.1868780E+03  0.7818608E-02  0.1162669E+00
         21   -1    0    0  503  502  0.00000000000E+00  0.00000000000E+00  0.79771661944E+02  0.79771661944E+02  0.00000000000E+00 0.  1.
         21   -1    0    0  501  503 -0.00000000000E+00 -0.00000000000E+00 -0.42817039398E+03  0.42817039398E+03  0.00000000000E+00 0.  1.
          6    2    1    2  501    0 -0.72232407962E+02  0.17144688544E+02 -0.20111802501E+03  0.27453933850E+03  0.17149905916E+03 0.  0.
         24    2    3    3    0    0  0.11240096707E+02  0.18864039122E+02 -0.16124715791E+03  0.18189814223E+03  0.81265592157E+02 0.  0.
         -6    2    1    2    0  502  0.72232407962E+02 -0.17144688544E+02 -0.14728070702E+03  0.23340271742E+03  0.16514769370E+03 0.  0.
        -24    2    5    5    0    0  0.21386356028E+02  0.56785677029E+01 -0.98775818905E+01  0.85052015305E+02  0.81527028207E+02 0.  0.
          5    1    3    3  501    0 -0.83472504668E+02 -0.17193505782E+01 -0.39870867108E+02  0.92641196268E+02  0.47000000000E+01 0. -1.
        -11    1    4    4    0    0 -0.24518293461E+02 -0.71682698467E+01 -0.11539947365E+03  0.11819293264E+03  0.00000000000E+00 0.  1.
         12    1    4    4    0    0  0.35758390168E+02  0.26032308969E+02 -0.45847684252E+02  0.63705209590E+02  0.00000000000E+00 0. -1.
         -5    1    5    5    0  502  0.50846051934E+02 -0.22823256247E+02 -0.13740312513E+03  0.14835070212E+03  0.47000000000E+01 0.  1.
         13    1    6    6    0    0  0.21539631432E+02 -0.22726079108E+02 -0.35120103678E+02  0.47051589518E+02  0.00000000000E+00 0. -1.
        -14    1    6    6    0    0 -0.15327540434E+00  0.28404646811E+02  0.25242521787E+02  0.38000425787E+02  0.00000000000E+00 0.  1.
</event>
<event>
12    1  0.8724767E-002  0.1895952E+03  0.7818608E-02  0.1159375E+00
         21   -1    0    0  501  502  0.00000000000E+00  0.00000000000E+00  0.14656389654E+04  0.14656389654E+04  0.00000000000E+00 0.  1.
         21   -1    0    0  502  503 -0.00000000000E+00 -0.00000000000E+00 -0.37962701845E+02  0.37962701845E+02  0.00000000000E+00 0.  1.
         -6    2    1    2    0  503  0.26415166854E+02  0.62771867814E+02  0.26434688432E+03  0.32530851279E+03  0.17694147285E+03 0.  0.
        -24    2    3    3    0    0  0.55056167519E+02  0.10178891186E+03  0.17401757952E+03  0.22272142807E+03  0.77010079726E+02 0.  0.
          6    2    1    2  501    0 -0.26415166854E+02 -0.62771867814E+02  0.11633293793E+04  0.11782931545E+04  0.17436010101E+03 0.  0.
         24    2    5    5    0    0  0.26298400425E+02 -0.93842069652E+02  0.75130119790E+03  0.76171976376E+03  0.79155345027E+02 0.  0.
          5    1    5    5  501    0 -0.52713567279E+02  0.31070201838E+02  0.41202818136E+03  0.41657339072E+03  0.47000000000E+01 0. -1.
        -13    1    6    6    0    0 -0.27704549846E+02 -0.23911219070E+02  0.25545054544E+03  0.25805865544E+03  0.00000000000E+00 0.  1.
         14    1    6    6    0    0  0.54002950271E+02 -0.69930850582E+02  0.49585065245E+03  0.50366110833E+03  0.00000000000E+00 0. -1.
         -5    1    3    3    0  503 -0.28641000666E+02 -0.39017044047E+02  0.90329304797E+02  0.10258708471E+03  0.47000000000E+01 0.  1.
         11    1    4    4    0    0  0.18682219203E+02  0.93106746576E+02  0.15228988028E+03  0.17947172259E+03  0.00000000000E+00 0. -1.
        -12    1    4    4    0    0  0.36373948316E+02  0.86821652851E+01  0.21727699242E+02  0.43249705484E+02  0.00000000000E+00 0.  1.
</event>
<event>
12    1  0.8724767E-002  0.2461149E+03  0.7818608E-02  0.1115985E+00
         21   -1    0    0  501  502  0.00000000000E+00  0.00000000000E+00  0.17851719870E+04  0.17851719870E+04  0.00000000000E+00 0.  1.
         21   -1    0    0  502  503 -0.00000000000E+00 -0.00000000000E+00 -0.34040119605E+02  0.34040119605E+02  0.00000000000E+00 0. -1.
         -6    2    1    2    0  503 -0.94112886585E+02  0.14658536769E+03  0.79099471801E+03  0.82803307201E+03  0.17210932278E+03 0.  0.
        -24    2    3    3    0    0 -0.99785963991E+02  0.12783157157E+03  0.43043724759E+03  0.46691305298E+03  0.80208638099E+02 0.  0.
          6    2    1    2  501    0  0.94112886585E+02 -0.14658536769E+03  0.96013714943E+03  0.99117903463E+03  0.17386209347E+03 0.  0.
         24    2    5    5    0    0  0.12072024245E+02 -0.72900473793E+02  0.70371904372E+03  0.71201510140E+03  0.79276725997E+02 0.  0.
          5    1    5    5  501    0  0.82040862340E+02 -0.73684893894E+02  0.25641810571E+03  0.27916393323E+03  0.47000000000E+01 0. -1.
        -11    1    6    6    0    0  0.15482486962E+02 -0.70037392056E+02  0.70391287144E+03  0.70755796531E+03  0.00000000000E+00 0.  1.
         12    1    6    6    0    0 -0.34104627170E+01 -0.28630817374E+01 -0.19382772401E+00  0.44571360946E+01  0.00000000000E+00 0. -1.
         -5    1    3    3    0  503  0.56730774058E+01  0.18753796122E+02  0.36055747042E+03  0.36112001904E+03  0.47000000000E+01 0.  1.
         13    1    4    4    0    0  0.81237287261E+01 -0.29818596244E+01  0.83100235131E+01  0.11997622515E+02  0.00000000000E+00 0. -1.
        -14    1    4    4    0    0 -0.10790969272E+03  0.13081343119E+03  0.42212722408E+03  0.45491543046E+03  0.00000000000E+00 0.  1.
</event>
<event>
12    1  0.8724767E-002  0.1930537E+03  0.7818608E-02  0.1155898E+00
         21   -1    0    0  501  502  0.00000000000E+00  0.00000000000E+00  0.56181638134E+03  0.56181638134E+03  0.00000000000E+00 0. -1.
         21   -1    0    0  502  503 -0.00000000000E+00 -0.00000000000E+00 -0.78655416599E+02  0.78655416599E+02  0.00000000000E+00 0. -1.
         -6    2    1    2    0  503 -0.87282416626E+02  0.10035338824E+01  0.11395112512E+03  0.22417532046E+03  0.17219317076E+03 0.  0.
        -24    2    3    3    0    0 -0.53654480066E+02 -0.84522379139E+01 -0.67365962375E+01  0.98445984889E+02  0.81829008640E+02 0.  0.
          6    2    1    2  501    0  0.87282416626E+02 -0.10035338824E+01  0.36920983962E+03  0.41629647748E+03  0.17136984610E+03 0.  0.
         24    2    5    5    0    0 -0.47718491501E+01 -0.20045453451E+02  0.90652857177E+02  0.12226813698E+03  0.79416409243E+02 0.  0.
          5    1    5    5  501    0  0.92054265776E+02  0.19041919569E+02  0.27855698245E+03  0.29402834050E+03  0.47000000000E+01 0. -1.
        -11    1    6    6    0    0 -0.32673266640E+02 -0.30095945792E+02  0.78542599764E+02  0.90234407427E+02  0.00000000000E+00 0.  1.
         12    1    6    6    0    0  0.27901417490E+02  0.10050492341E+02  0.12110257412E+02  0.32033729549E+02  0.00000000000E+00 0. -1.
         -5    1    3    3    0  503 -0.33627936560E+02  0.94557717962E+01  0.12068772136E+03  0.12572933557E+03  0.47000000000E+01 0.  1.
         13    1    4    4    0    0 -0.73891517568E+02  0.47411254551E+01 -0.57920318102E+01  0.74269659159E+02  0.00000000000E+00 0. -1.
        -14    1    4    4    0    0  0.20237037502E+02 -0.13193363369E+02 -0.94456442730E+00  0.24176325730E+02  0.00000000000E+00 0.  1.
</event>
<event>
12    1  0.8724767E-002  0.1752727E+03  0.7818608E-02  0.1173991E+00
         21   -1    0    0  503  502  0.00000000000E+00  0.00000000000E+00  0.11178291122E+03  0.11178291122E+03  0.00000000000E+00 0. -1.
         21   -1    0    0  501  503 -0.00000000000E+00 -0.00000000000E+00 -0.27381585765E+03  0.27381585765E+03  0.00000000000E+00 0. -1.
          6    2    1    2  501    0 -0.66676709831E-01 -0.13557648520E+02 -0.11600387570E+03  0.21018425682E+03  0.17474755609E+03 0.  0.
         24    2    3    3    0    0 -0.61576150768E+02 -0.39485793248E+00 -0.10682703882E+03  0.14644275707E+03  0.79004345579E+02 0.  0.
         -6    2    1    2    0  502  0.66676709831E-01  0.13557648520E+02 -0.46029070726E+02  0.17541451205E+03  0.16872392067E+03 0.  0.
        -24    2    5    5    0    0 -0.61198967204E+01  0.58001981102E+02  0.13914410967E+02  0.10038862727E+03  0.80514487551E+02 0.  0.
          5    1    3    3  501    0  0.61509474058E+02 -0.13162790587E+02 -0.91768368789E+01  0.63741499747E+02  0.47000000000E+01 0. -1.
        -13    1    4    4    0    0 -0.44183659722E+02  0.62608588552E+01 -0.73361760975E+01  0.45224038074E+02  0.00000000000E+00 0.  1.
         14    1    4    4    0    0 -0.17392491046E+02 -0.66557167877E+01 -0.99490862723E+02  0.10121871900E+03  0.00000000000E+00 0. -1.
         -5    1    5    5    0  502  0.61865734302E+01 -0.44444332582E+02 -0.59943481692E+02  0.75025884779E+02  0.47000000000E+01 0.  1.
         11    1    6    6    0    0 -0.19729084301E+02 -0.12047990369E+02  0.17415803845E+02  0.28943065886E+02  0.00000000000E+00 0. -1.
        -12    1    6    6    0    0  0.13609187581E+02  0.70049971472E+02 -0.35013928784E+01  0.71445561387E+02  0.00000000000E+00 0.  1.
</event>
<event>
12    1  0.8724767E-002  0.1748266E+03  0.7818608E-02  0.1173060E+00
         21   -1    0    0  501  502  0.00000000000E+00  0.00000000000E+00  0.10342091552E+04  0.10342091552E+04  0.00000000000E+00 0. -1.
         21   -1    0    0  502  503 -0.00000000000E+00 -0.00000000000E+00 -0.39709082937E+02  0.39709082937E+02  0.00000000000E+00 0. -1.
         -6    2    1    2    0  503 -0.20978004711E+02 -0.20493281173E+02  0.22496793145E+03  0.28491209089E+03  0.17234929097E+03 0.  0.
        -24    2    3    3    0    0 -0.43021779346E+02 -0.52190729892E+00  0.45295255148E+02  0.10273321071E+03  0.81555542782E+02 0.  0.
          6    2    1    2  501    0  0.20978004711E+02  0.20493281173E+02  0.76953214078E+03  0.78900614721E+03  0.17172924442E+03 0.  0.
         24    2    5    5    0    0  0.24564170225E+02 -0.37996699151E+02  0.64117465074E+03  0.64782656784E+03  0.80790975032E+02 0.  0.
          5    1    5    5  501    0 -0.35861655138E+01  0.58489980325E+02  0.12835749004E+03  0.14117957937E+03  0.47000000000E+01 0. -1.
        -11    1    6    6    0    0  0.21201462362E+02 -0.46397443406E+02  0.19505547684E+03  0.20161563383E+03  0.00000000000E+00 0.  1.
         12    1    6    6    0    0  0.33627078632E+01  0.84007442552E+01  0.44611917390E+03  0.44621093401E+03  0.00000000000E+00 0. -1.
         -5    1    3    3    0  503  0.22043774634E+02 -0.19971373874E+02  0.17967267630E+03  0.18217888018E+03  0.47000000000E+01 0.  1.
         11    1    4    4    0    0 -0.36666396585E+02  0.37433282840E+02  0.17435987361E+02  0.55223988972E+02  0.00000000000E+00 0. -1.
        -12    1    4    4    0    0 -0.63553827611E+01 -0.37955190139E+02  0.27859267787E+02  0.47509221738E+02  0.00000000000E+00 0.  1.
</event>
<event>
12    1  0.8724767E-002  0.1907332E+03  0.7818608E-02  0.1159534E+00
         21   -1    0    0  501  502  0.00000000000E+00  0.00000000000E+00  0.30290486956E+02  0.30290486956E+02  0.00000000000E+00 0. -1.
         21   -1    0    0  502  503 -0.00000000000E+00 -0.00000000000E+00 -0.12474963945E+04  0.12474963945E+04  0.00000000000E+00 0.  1.
         -6    2    1    2    0  503  0.65527780312E+02  0.62041015047E+02 -0.79494122195E+03  0.81750272864E+03  0.16803626822E+03 0.  0.
        -24    2    3    3    0    0 -0.16588444567E+01  0.98032877289E+02 -0.54411476166E+03  0.55530917442E+03  0.51905765944E+02 0.  0.
          6    2    1    2  501    0 -0.65527780312E+02 -0.62041015047E+02 -0.42226468564E+03  0.46028415286E+03  0.15940846620E+03 0.  0.
         24    2    5    5    0    0 -0.79949882195E+02 -0.92988071181E+02 -0.31494204295E+03  0.34756344962E+03  0.81074632580E+02 0.  0.
          5    1    5    5  501    0  0.14422101883E+02  0.30947056134E+02 -0.10732264269E+03  0.11272070324E+03  0.47000000000E+01 0. -1.
        -13    1    6    6    0    0 -0.42417347675E+01 -0.63948177253E+02 -0.16667471569E+03  0.17857161739E+03  0.00000000000E+00 0.  1.
         14    1    6    6    0    0 -0.75708147428E+02 -0.29039893928E+02 -0.14826732726E+03  0.16899183223E+03  0.00000000000E+00 0. -1.
         -5    1    3    3    0  503  0.67186624769E+02 -0.35991862242E+02 -0.25082646028E+03  0.26219355422E+03  0.47000000000E+01 0.  1.
         13    1    4    4    0    0 -0.39693095797E+01  0.48760339215E+01 -0.45607647747E+01  0.77673483682E+01  0.00000000000E+00 0. -1.
        -14    1    4    4    0    0  0.23104651230E+01  0.93156843367E+02 -0.53955399689E+03  0.54754182605E+03  0.00000000000E+00 0.  1.
</event>
<event>
12    1  0.8724767E-002  0.3148745E+03  0.7818608E-02  0.1078051E+00
         21   -1    0    0  503  502  0.00000000000E+00  0.00000000000E+00  0.11669786818E+04  0.11669786818E+04  0.00000000000E+00 0.  1.
         21   -1    0    0  501  503 -0.00000000000E+00 -0.00000000000E+00 -0.11390093717E+03  0.11390093717E+03  0.00000000000E+00 0.  1.
          6    2    1    2  501    0 -0.14910981371E+02  0.26300835136E+03  0.84950907470E+03  0.90593138049E+03  0.17219253153E+03 0.  0.
         24    2    3    3    0    0 -0.11911889114E+02  0.21831134059E+03  0.47517450184E+03  0.52889652831E+03  0.78351744854E+02 0.  0.
         -6    2    1    2    0  502  0.14910981371E+02 -0.26300835136E+03  0.20356866995E+03  0.37494823851E+03  0.17248260179E+03 0.  0.
        -24    2    5    5    0    0 -0.16202605689E+02 -0.48292102763E+02  0.69968413994E+02  0.12011056251E+03  0.83284552292E+02 0.  0.
          5    1    3    3  501    0 -0.29990922565E+01  0.44697010768E+02  0.37433457286E+03  0.37703485218E+03  0.47000000000E+01 0. -1.
        -13    1    4    4    0    0 -0.27714404899E+02  0.76502170732E+02  0.10990723366E+03  0.13674893190E+03  0.00000000000E+00 0.  1.
         14    1    4    4    0    0  0.15802515785E+02  0.14180916986E+03  0.36526726818E+03  0.39214759640E+03  0.00000000000E+00 0. -1.
         -5    1    5    5    0  502  0.31113587060E+02 -0.21471624860E+03  0.13360025596E+03  0.25483767599E+03  0.47000000000E+01 0.  1.
         13    1    6    6    0    0 -0.34970659195E+02 -0.62679073510E+02  0.62880874011E+02  0.95423359703E+02  0.00000000000E+00 0. -1.
        -14    1    6    6    0    0  0.18768053506E+02  0.14386970747E+02  0.70875399827E+01  0.24687202812E+02  0.00000000000E+00 0.  1.
</event>
<event>
12    1  0.8724767E-002  0.3358417E+03  0.7818608E-02  0.1068595E+00
         21   -1    0    0  503  502  0.00000000000E+00  0.00000000000E+00  0.48676549481E+03  0.48676549481E+03  0.00000000000E+00 0. -1.
         21   -1    0    0  501  503 -0.00000000000E+00 -0.00000000000E+00 -0.57580372359E+03  0.57580372359E+03  0.00000000000E+00 0.  1.
          6    2    1    2  501    0  0.62204806329E+02  0.28030579531E+03 -0.45527014611E+03  0.56566334234E+03  0.17396359999E+03 0.  0.
         24    2    3    3    0    0  0.10511139059E+03  0.24465681106E+03 -0.35675975668E+03  0.45235750897E+03  0.80277221601E+02 0.  0.
         -6    2    1    2    0  502 -0.62204806329E+02 -0.28030579531E+03  0.36623191733E+03  0.49690587606E+03  0.17420922930E+03 0.  0.
        -24    2    5    5    0    0 -0.20783171122E+02 -0.28196788580E+03  0.32690403147E+03  0.43957100870E+03  0.80116147418E+02 0.  0.
          5    1    3    3  501    0 -0.42906584258E+02  0.35648984246E+02 -0.98510389428E+02  0.11330583337E+03  0.47000000000E+01 0. -1.
        -11    1    4    4    0    0  0.76320601045E+02  0.19526996447E+03 -0.32557334900E+03  0.38723790975E+03  0.00000000000E+00 0.  1.
         12    1    4    4    0    0  0.28790789541E+02  0.49386846595E+02 -0.31186407674E+02  0.65119599221E+02  0.00000000000E+00 0. -1.
         -5    1    5    5    0  502 -0.41421635207E+02  0.16620904933E+01  0.39327885863E+02  0.57334867353E+02  0.47000000000E+01 0.  1.
         13    1    6    6    0    0 -0.33189662287E+02 -0.13169340241E+03  0.20384325326E+03  0.24494239695E+03  0.00000000000E+00 0. -1.
        -14    1    6    6    0    0  0.12406491165E+02 -0.15027448339E+03  0.12306077820E+03  0.19462861176E+03  0.00000000000E+00 0.  1.
</event>
<event>
12    1  0.8724767E-002  0.1756228E+03  0.7818608E-02  0.1172489E+00
         21   -1    0    0  501  502  0.00000000000E+00  0.00000000000E+00  0.11846676123E+03  0.11846676123E+03  0.00000000000E+00 0. -1.
         21   -1    0    0  502  503 -0.00000000000E+00 -0.00000000000E+00 -0.11408443320E+04  0.11408443320E+04  0.00000000000E+00 0. -1.
         -6    2    1    2    0  503 -0.27438939213E+02  0.24271437997E+02 -0.10645520351E+04  0.10786953119E+04  0.17020735102E+03 0.  0.
        -24    2    3    3    0    0 -0.19506114944E+02 -0.72710858526E+01 -0.10197635391E+04  0.10231438953E+04  0.80451212377E+02 0.  0.
          6    2    1    2  501    0  0.27438939213E+02 -0.24271437997E+02  0.42174464332E+02  0.18061578135E+03  0.17175964876E+03 0.  0.
         24    2    5    5    0    0  0.50160600210E+02 -0.53791600110E+02  0.74345336413E+02  0.13117117739E+03  0.79177185329E+02 0.  0.
          5    1    5    5  501    0 -0.22721660997E+02  0.29520162113E+02 -0.32170872081E+02  0.49444603953E+02  0.47000000000E+01 0. -1.
        -11    1    6    6    0    0  0.15465232616E+02 -0.18878798860E+02 -0.15369633696E+02  0.28841083652E+02  0.00000000000E+00 0.  1.
         12    1    6    6    0    0  0.34695367594E+02 -0.34912801250E+02  0.89714970109E+02  0.10233009374E+03  0.00000000000E+00 0. -1.
         -5    1    3    3    0  503 -0.79328242691E+01  0.31542523849E+02 -0.44788496023E+02  0.55551416613E+02  0.47000000000E+01 0.  1.
         13    1    4    4    0    0  0.15642742806E+02  0.13485978504E+02 -0.75228482093E+03  0.75256828183E+03  0.00000000000E+00 0. -1.
        -14    1    4    4    0    0 -0.35148857749E+02 -0.20757064356E+02 -0.26747871819E+03  0.27057561347E+03  0.00000000000E+00 0.  1.
</event>
<event>
12    1  0.8724767E-002  0.2085363E+03  0.7818608E-02  0.1143425E+00
         21   -1    0    0  501  502  0.00000000000E+00  0.00000000000E+00  0.31286866938E+03  0.31286866938E+03  0.00000000000E+00 0.  1.
         21   -1    0    0  502  503 -0.00000000000E+00 -0.00000000000E+00 -0.22189520719E+03  0.22189520719E+03  0.00000000000E+00 0.  1.
         -6    2    1    2    0  503  0.14235214029E+02 -0.11104972933E+03 -0.12041394901E+03  0.23782614869E+03  0.17183443829E+03 0.  0.
        -24    2    3    3    0    0  0.75729324650E+02 -0.80141498134E+02 -0.72859055846E+02  0.15403830792E+03  0.79131333580E+02 0.  0.
          6    2    1    2  501    0 -0.14235214029E+02  0.11104972933E+03  0.21138741119E+03  0.29693772788E+03  0.17593377425E+03 0.  0.
         24    2    5    5    0    0  0.25964883452E+02  0.34869789135E+01  0.42623981679E+02  0.92758937950E+02  0.78109426836E+02 0.  0.
          5    1    5    5  501    0 -0.40200097481E+02  0.10756275042E+03  0.16876342951E+03  0.20417878993E+03  0.47000000000E+01 0. -1.
        -13    1    6    6    0    0 -0.10295731000E+02  0.15784700941E+02  0.50294120063E+02  0.53709006447E+02  0.00000000000E+00 0.  1.
         14    1    6    6    0    0  0.36260614452E+02 -0.12297722028E+02 -0.76701383839E+01  0.39049931503E+02  0.00000000000E+00 0. -1.
         -5    1    3    3    0  503 -0.61494110621E+02 -0.30908231200E+02 -0.47554893159E+02  0.83787840767E+02  0.47000000000E+01 0.  1.
         13    1    4    4    0    0 -0.45325965165E+01 -0.14603154037E+02  0.12529453928E+02  0.19768251181E+02  0.00000000000E+00 0. -1.
        -14    1    4    4    0    0  0.80261921167E+02 -0.65538344096E+02 -0.85388509774E+02  0.13427005674E+03  0.00000000000E+00 0.  1.
</event>
<event>
12    1  0.8724767E-002  0.2095159E+03  0.7818608E-02  0.1142524E+00
         21   -1    0    0  501  502  0.00000000000E+00  0.00000000000E+00  0.53667091576E+02  0.53667091576E+02  0.00000000000E+00 0.  1.
         21   -1    0    0  502  503 -0.00000000000E+00 -0.00000000000E+00 -0.83932380089E+03  0.83932380089E+03  0.00000000000E+00 0.  1.
         -6    2    1    2    0  503 -0.19360841037E+02 -0.11296660876E+03 -0.30231318866E+03  0.36619123350E+03  0.17194899999E+03 0.  0.
        -24    2    3    3    0    0 -0.32946822097E+02 -0.15731895840E+02 -0.11838234545E+03  0.15764432424E+03  0.97490346286E+02 0.  0.
          6    2    1    2  501    0  0.19360841037E+02  0.11296660876E+03 -0.48334352066E+03  0.52679965897E+03  0.17538707154E+03 0.  0.
         24    2    5    5    0    0  0.61587755272E+02  0.12883324184E+02 -0.21530548496E+03  0.23754846239E+03  0.78190718692E+02 0.  0.
          5    1    5    5  501    0 -0.42226914235E+02  0.10008328458E+03 -0.26803803570E+03  0.28925119657E+03  0.47000000000E+01 0. -1.
        -11    1    6    6    0    0  0.60948257045E+02  0.34802917776E+02 -0.19650785186E+03  0.20866544746E+03  0.00000000000E+00 0.  1.
         12    1    6    6    0    0  0.63949822749E+00 -0.21919593592E+02 -0.18797633099E+02  0.28883014928E+02  0.00000000000E+00 0. -1.
         -5    1    3    3    0  503  0.13585981060E+02 -0.97234712921E+02 -0.18393084320E+03  0.20854690926E+03  0.47000000000E+01 0.  1.
         11    1    4    4    0    0  0.28860454703E+02  0.50309435876E+01 -0.71700135938E+02  0.77454152456E+02  0.00000000000E+00 0. -1.
        -12    1    4    4    0    0 -0.61807276800E+02 -0.20762839428E+02 -0.46682209513E+02  0.80190171789E+02  0.00000000000E+00 0.  1.
</event>
<event>
12    1  0.8724767E-002  0.2055409E+03  0.7818608E-02  0.1145265E+00
         21   -1    0    0  501  502  0.00000000000E+00  0.00000000000E+00  0.31242291526E+02  0.31242291526E+02  0.00000000000E+00 0. -1.
         21   -1    0    0  502  503 -0.00000000000E+00 -0.00000000000E+00 -0.15680799758E+04  0.15680799758E+04  0.00000000000E+00 0. -1.
         -6    2    1    2    0  503  0.39516912027E+01  0.11158862598E+03 -0.47005636482E+03  0.51303024662E+03  0.17256711891E+03 0.  0.
        -24    2    3    3    0    0  0.14059696498E+02  0.10717497033E+03 -0.47971097534E+03  0.49763694835E+03  0.76392166930E+02 0.  0.
          6    2    1    2  501    0 -0.39516912027E+01 -0.11158862598E+03 -0.10667813194E+04  0.10862920207E+04  0.17187301534E+03 0.  0.
         24    2    5    5    0    0 -0.27134564901E+01 -0.80534229256E+02 -0.32930863223E+03  0.34814978294E+03  0.79189463746E+02 0.  0.
          5    1    5    5  501    0 -0.12382347126E+01 -0.31054396725E+02 -0.73747268718E+03  0.73814223772E+03  0.47000000000E+01 0. -1.
        -11    1    6    6    0    0  0.57407147508E+00 -0.22269198081E+02 -0.11580682373E+02  0.25106950143E+02  0.00000000000E+00 0.  1.
         12    1    6    6    0    0 -0.32875279652E+01 -0.58265031174E+02 -0.31772794986E+03  0.32304283280E+03  0.00000000000E+00 0. -1.
         -5    1    3    3    0  503 -0.10108005295E+02  0.44136556548E+01  0.96546105233E+01  0.15393298271E+02  0.47000000000E+01 0.  1.
         13    1    4    4    0    0  0.39519228066E+02  0.33859746120E+02 -0.14530522281E+03  0.15434331722E+03  0.00000000000E+00 0. -1.
        -14    1    4    4    0    0 -0.25459531568E+02  0.73315224205E+02 -0.33440575253E+03  0.34329363113E+03  0.00000000000E+00 0.  1.
</event>
<event>
12    1  0.8724767E-002  0.1863708E+03  0.7818608E-02  0.1163201E+00
         21   -1    0    0  503  502  0.00000000000E+00  0.00000000000E+00  0.84379784698E+02  0.84379784698E+02  0.00000000000E+00 0. -1.
         21   -1    0    0  501  503 -0.00000000000E+00 -0.00000000000E+00 -0.58926264258E+03  0.58926264258E+03  0.00000000000E+00 0. -1.
          6    2    1    2  501    0  0.41541180495E+02 -0.32106785227E+02 -0.63573056135E+02  0.19691523414E+03  0.17882270727E+03 0.  0.
         24    2    3    3    0    0  0.35591974253E-02 -0.64847206127E+02 -0.90446456368E+01  0.12080513826E+03  0.10152298094E+03 0.  0.
         -6    2    1    2    0  502 -0.41541180495E+02  0.32106785227E+02 -0.44130980175E+03  0.47672719314E+03  0.17250495710E+03 0.  0.
        -24    2    5    5    0    0  0.38068505987E+02  0.39325496731E+02 -0.19271758757E+03  0.21555676807E+03  0.79554672167E+02 0.  0.
          5    1    3    3  501    0  0.41537621297E+02  0.32740420900E+02 -0.54528410499E+02  0.76110095882E+02  0.47000000000E+01 0. -1.
        -11    1    4    4    0    0  0.48520856018E+02 -0.18225863756E+02 -0.12886668449E+02  0.53409004878E+02  0.00000000000E+00 0.  1.
         12    1    4    4    0    0 -0.48517296821E+02 -0.46621342372E+02  0.38420228118E+01  0.67396133380E+02  0.00000000000E+00 0. -1.
         -5    1    5    5    0  502 -0.79609686481E+02 -0.72187115039E+01 -0.24859221418E+03  0.26117042507E+03  0.47000000000E+01 0.  1.
         13    1    6    6    0    0  0.81904787924E+01  0.16690686556E+02 -0.17145953029E+03  0.17246458619E+03  0.00000000000E+00 0. -1.
        -14    1    6    6    0    0  0.29878027194E+02  0.22634810175E+02 -0.21258057274E+02  0.43092181887E+02  0.00000000000E+00 0.  1.
</event>
<event>
12    1  0.8724767E-002  0.1878345E+03  0.7818608E-02  0.1160745E+00
         21   -1    0    0  503  502  0.00000000000E+00  0.00000000000E+00  0.42954786031E+03  0.42954786031E+03  0.00000000000E+00 0.  1.
         21   -1    0    0  501  503 -0.00000000000E+00 -0.00000000000E+00 -0.96429421084E+02  0.96429421084E+02  0.00000000000E+00 0.  1.
          6    2    1    2  501    0 -0.50615732023E+02 -0.54686075931E+02  0.27042788035E+03  0.32926135662E+03  0.17242181783E+03 0.  0.
         24    2    3    3    0    0 -0.90109862204E+02 -0.39789475622E+02  0.12518269894E+03  0.17793406978E+03  0.79289567014E+02 0.  0.
         -6    2    1    2    0  502  0.50615732023E+02  0.54686075931E+02  0.62690558876E+02  0.19671592478E+03  0.17092258382E+03 0.  0.
        -24    2    5    5    0    0 -0.60715722118E+01  0.59051216289E+02  0.97320659908E+02  0.12997883757E+03  0.62444192969E+02 0.  0.
          5    1    3    3  501    0  0.39494130181E+02 -0.14896600309E+02  0.14524518141E+03  0.15132728684E+03  0.47000000000E+01 0. -1.
        -13    1    4    4    0    0 -0.74349700258E+02 -0.62478798572E+02  0.10870269957E+03  0.14576609720E+03  0.00000000000E+00 0.  1.
         14    1    4    4    0    0 -0.15760161947E+02  0.22689322951E+02  0.16479999373E+02  0.32167972579E+02  0.00000000000E+00 0. -1.
         -5    1    5    5    0  502  0.56687304235E+02 -0.43651403579E+01 -0.34630101032E+02  0.66737087210E+02  0.47000000000E+01 0.  1.
         13    1    6    6    0    0 -0.33391978060E+02  0.21904967941E+02  0.48467261321E+02  0.62800694575E+02  0.00000000000E+00 0. -1.
        -14    1    6    6    0    0  0.27320405848E+02  0.37146248348E+02  0.48853398588E+02  0.67178142990E+02  0.00000000000E+00 0.  1.
</event>
<event>
12    1  0.8724767E-002  0.3127282E+03  0.7818608E-02  0.1079053E+00
         21   -1    0    0  501  502  0.00000000000E+00  0.00000000000E+00  0.10793894839E+04  0.10793894839E+04  0.00000000000E+00 0. -1.
         21   -1    0    0  502  503 -0.00000000000E+00 -0.00000000000E+00 -0.12437170246E+03  0.12437170246E+03  0.00000000000E+00 0.  1.
         -6    2    1    2    0  503 -0.25478535688E+03  0.55579687726E+02  0.16378289648E+03  0.35296653188E+03  0.17249885705E+03 0.  0.
        -24    2    3    3    0    0 -0.24204517938E+03  0.78192823808E+02  0.10202647108E+03  0.28581288624E+03  0.81114848083E+02 0.  0.
          6    2    1    2  501    0  0.25478535688E+03 -0.55579687726E+02  0.79123488500E+03  0.85079465451E+03  0.17261002616E+03 0.  0.
         24    2    5    5    0    0  0.25985569566E+03 -0.82628251559E+02  0.69599785990E+03  0.75154993631E+03  0.77858045553E+02 0.  0.
          5    1    5    5  501    0 -0.50703387789E+01  0.27048563833E+02  0.95237025100E+02  0.99244718201E+02  0.47000000000E+01 0. -1.
        -11    1    6    6    0    0  0.35457173042E+02  0.22191817879E+00  0.17082881890E+03  0.17446989923E+03  0.00000000000E+00 0.  1.
         12    1    6    6    0    0  0.22439852261E+03 -0.82850169737E+02  0.52516904100E+03  0.57708003708E+03  0.00000000000E+00 0. -1.
         -5    1    3    3    0  503 -0.12740177494E+02 -0.22613136081E+02  0.61756425395E+02  0.67153645646E+02  0.47000000000E+01 0.  1.
         13    1    4    4    0    0 -0.22999215918E+02  0.61084706469E+01  0.40781325092E+02  0.47216457118E+02  0.00000000000E+00 0. -1.
        -14    1    4    4    0    0 -0.21904596346E+03  0.72084353161E+02  0.61245145993E+02  0.23859642912E+03  0.00000000000E+00 0.  1.
</event>
<event>
12    1  0.8724767E-002  0.2484867E+03  0.7818608E-02  0.1114276E+00
         21   -1    0    0  503  502  0.00000000000E+00  0.00000000000E+00  0.45278462219E+02  0.45278462219E+02  0.00000000000E+00 0.  1.
         21   -1    0    0  501  503 -0.00000000000E+00 -0.00000000000E+00 -0.13634584533E+04  0.13634584533E+04  0.00000000000E+00 0. -1.
          6    2    1    2  501    0 -0.10827231240E+03 -0.14339407826E+03 -0.65152055720E+03  0.69729814124E+03  0.17164179562E+03 0.  0.
         24    2    3    3    0    0 -0.13490598216E+03 -0.13460868683E+03 -0.46877143559E+03  0.51234985950E+03  0.80228405888E+02 0.  0.
         -6    2    1    2    0  502  0.10827231240E+03  0.14339407826E+03 -0.66665943392E+03  0.71143877432E+03  0.17153883951E+03 0.  0.
        -24    2    5    5    0    0  0.13499267742E+03  0.92112746985E+02 -0.56839408613E+03  0.59732514051E+03  0.83771744801E+02 0.  0.
          5    1    3    3  501    0  0.26633669762E+02 -0.87853914261E+01 -0.18274912161E+03  0.18494828173E+03  0.47000000000E+01 0. -1.
        -13    1    4    4    0    0 -0.10045002777E+03 -0.60576853367E+02 -0.20454363040E+03  0.23579198456E+03  0.00000000000E+00 0.  1.
         14    1    4    4    0    0 -0.34455954391E+02 -0.74031833468E+02 -0.26422780518E+03  0.27655787494E+03  0.00000000000E+00 0. -1.
         -5    1    5    5    0  502 -0.26720365024E+02  0.51281331276E+02 -0.98265347794E+02  0.11411363381E+03  0.47000000000E+01 0.  1.
         13    1    6    6    0    0  0.26269843342E+02  0.24084900539E+02 -0.27265358037E+03  0.27497302048E+03  0.00000000000E+00 0. -1.
        -14    1    6    6    0    0  0.10872283408E+03  0.68027846446E+02 -0.29574050575E+03  0.32235212003E+03  0.00000000000E+00 0.  1.
</event>
<event>
12    1  0.8724767E-002  0.1767516E+03  0.7818608E-02  0.1170991E+00
         21   -1    0    0  503  502  0.00000000000E+00  0.00000000000E+00  0.14004552869E+03  0.14004552869E+03  0.00000000000E+00 0.  1.
         21   -1    0    0  501  503 -0.00000000000E+00 -0.00000000000E+00 -0.24322634481E+03  0.24322634481E+03  0.00000000000E+00 0. -1.
          6    2    1    2  501    0  0.26325153770E+02  0.31281232591E+02  0.36167760853E+01  0.17676072707E+03  0.17192947488E+03 0.  0.
         24    2    3    3    0    0  0.72225421512E+02  0.17602727416E+02  0.38351410030E+02  0.11740989828E+03  0.82388628088E+02 0.  0.
         -6    2    1    2    0  502 -0.26325153770E+02 -0.31281232591E+02 -0.10679759220E+03  0.20651114643E+03  0.17195813056E+03 0.  0.
        -24    2    5    5    0    0 -0.22770987902E+02 -0.12605779800E+02 -0.14236662814E+03  0.16590756346E+03  0.81114975378E+02 0.  0.
          5    1    3    3  501    0 -0.45900267742E+02  0.13678505174E+02 -0.34734633945E+02  0.59350828789E+02  0.47000000000E+01 0. -1.
        -13    1    4    4    0    0  0.72235616297E+02  0.21487382050E+01 -0.39485204091E+01  0.72375355966E+02  0.00000000000E+00 0.  1.
         14    1    4    4    0    0 -0.10194785644E-01  0.15453989211E+02  0.42299930439E+02  0.45034542316E+02  0.00000000000E+00 0. -1.
         -5    1    5    5    0  502 -0.35541658672E+01 -0.18675452790E+02  0.35569035939E+02  0.40603582965E+02  0.47000000000E+01 0.  1.
         13    1    6    6    0    0 -0.48348809323E+02  0.11711529502E+02 -0.88072194710E+02  0.10115077245E+03  0.00000000000E+00 0. -1.
        -14    1    6    6    0    0  0.25577821420E+02 -0.24317309303E+02 -0.54294433434E+02  0.64756791013E+02  0.00000000000E+00 0.  1.
</event>
<event>
12    1  0.8724767E-002  0.2187572E+03  0.7818608E-02  0.1134870E+00
         21   -1    0    0  501  502  0.00000000000E+00  0.00000000000E+00  0.12832172982E+03  0.12832172982E+03  0.00000000000E+00 0.  1.
         21   -1    0    0  502  503 -0.00000000000E+00 -0.00000000000E+00 -0.12614458674E+04  0.12614458674E+04  0.00000000000E+00 0.  1.
         -6    2    1    2    0  503 -0.13361856157E+03 -0.12895700548E+02 -0.11498067619E+04  0.11703752349E+04  0.17234378892E+03 0.  0.
        -24    2    3    3    0    0 -0.38501995161E+02 -0.57354621328E+02 -0.71811698918E+03  0.72607589127E+03  0.81989228078E+02 0.  0.
          6    2    1    2  501    0  0.13361856157E+03  0.12895700548E+02  0.16682624366E+02  0.21939236232E+03  0.17272660363E+03 0.  0.
         24    2    5    5    0    0  0.96777232469E+02 -0.77459311990E+01  0.76050012700E+02  0.14638594282E+03  0.78863221145E+02 0.  0.
          5    1    5    5  501    0  0.36841329097E+02  0.20641631747E+02 -0.59367388334E+02  0.73006419502E+02  0.47000000000E+01 0. -1.
        -13    1    6    6    0    0  0.64379098146E+02  0.11251657052E+02  0.85539063021E+02  0.10764849914E+03  0.00000000000E+00 0.  1.
         14    1    6    6    0    0  0.32398134322E+02 -0.18997588251E+02 -0.94890503205E+01  0.38737443681E+02  0.00000000000E+00 0. -1.
         -5    1    3    3    0  503 -0.95116566405E+02  0.44458920780E+02 -0.43168977273E+03  0.44429934360E+03  0.47000000000E+01 0.  1.
         11    1    4    4    0    0 -0.21838464893E+01 -0.25517147858E+02 -0.49646764231E+02  0.55863183036E+02  0.00000000000E+00 0. -1.
        -12    1    4    4    0    0 -0.36318148672E+02 -0.31837473470E+02 -0.66847022494E+03  0.67021270823E+03  0.00000000000E+00 0.  1.
</event>
<event>
12    1  0.8724767E-002  0.1933643E+03  0.7818608E-02  0.1156197E+00
         21   -1    0    0  503  502  0.00000000000E+00  0.00000000000E+00  0.30761803813E+04  0.30761803813E+04  0.00000000000E+00 0.  1.
         21   -1    0    0  501  503 -0.00000000000E+00 -0.00000000000E+00 -0.20749936486E+02  0.20749936486E+02  0.00000000000E+00 0. -1.
          6    2    1    2  501    0  0.21325668175E+02 -0.83034207831E+02  0.52678694682E+03  0.56115438830E+03  0.17332136736E+03 0.  0.
         24    2    3    3    0    0 -0.33262116640E+02 -0.95801351815E+01  0.35218827084E+03  0.36396890534E+03  0.85080188890E+02 0.  0.
         -6    2    1    2    0  502 -0.21325668175E+02  0.83034207831E+02  0.25286434980E+04  0.25357759295E+04  0.16962358560E+03 0.  0.
        -24    2    5    5    0    0  0.49132074853E+02  0.31594949145E+02  0.15315280157E+04  0.15348405340E+04  0.82129168733E+02 0.  0.
          5    1    3    3  501    0  0.54587784815E+02 -0.73454072650E+02  0.17459867598E+03  0.19718548296E+03  0.47000000000E+01 0. -1.
        -11    1    4    4    0    0  0.17068407358E+02 -0.34089106615E+01  0.24253538284E+03  0.24315913129E+03  0.00000000000E+00 0.  1.
         12    1    4    4    0    0 -0.50330523999E+02 -0.61712245200E+01  0.10965288801E+03  0.12080977405E+03  0.00000000000E+00 0. -1.
         -5    1    5    5    0  502 -0.70457743028E+02  0.51439258686E+02  0.99711548236E+03  0.10009353955E+04  0.47000000000E+01 0.  1.
         11    1    6    6    0    0  0.12915221067E+02  0.42514402229E+02  0.36429262651E+03  0.36699236376E+03  0.00000000000E+00 0. -1.
        -12    1    6    6    0    0  0.36216853787E+02 -0.10919453083E+02  0.11672353891E+04  0.11678481702E+04  0.00000000000E+00 0.  1.
</event>
<event>
12    1  0.8724767E-002  0.2207387E+03  0.7818608E-02  0.1133750E+00
         21   -1    0    0  501  502  0.00000000000E+00  0.00000000000E+00  0.60584840911E+03  0.60584840911E+03  0.00000000000E+00 0. -1.
         21   -1    0    0  502  503 -0.00000000000E+00 -0.00000000000E+00 -0.89253280169E+02  0.89253280169E+02  0.00000000000E+00 0.  1.
         -6    2    1    2    0  503 -0.10180673642E+03 -0.93909569458E+02  0.14291354776E+03  0.26109304625E+03  0.16900200546E+03 0.  0.
        -24    2    3    3    0    0  0.20889704592E+01 -0.58260674864E+01  0.73438124152E+02  0.10811610121E+03  0.79105160405E+02 0.  0.
          6    2    1    2  501    0  0.10180673642E+03  0.93909569458E+02  0.37368158118E+03  0.43400864303E+03  0.17187774519E+03 0.  0.
         24    2    5    5    0    0  0.13437148860E+03  0.47921947827E+02  0.26299947101E+03  0.30971888504E+03  0.80030344057E+02 0.  0.
          5    1    5    5  501    0 -0.32564752179E+02  0.45987621631E+02  0.11068211017E+03  0.12428975799E+03  0.47000000000E+01 0. -1.
        -11    1    6    6    0    0  0.10583450787E+03  0.69670995865E+02  0.21820682931E+03  0.25232758683E+03  0.00000000000E+00 0.  1.
         12    1    6    6    0    0  0.28536980727E+02 -0.21749048038E+02  0.44792641703E+02  0.57391298210E+02  0.00000000000E+00 0. -1.
         -5    1    3    3    0  503 -0.10389570688E+03 -0.88083501972E+02  0.69475423611E+02  0.15297694504E+03  0.47000000000E+01 0.  1.
         13    1    4    4    0    0  0.28899504917E+02 -0.30143509472E+02  0.49304953011E+02  0.64612622135E+02  0.00000000000E+00 0. -1.
        -14    1    4    4    0    0 -0.26810534458E+02  0.24317441985E+02  0.24133171140E+02  0.43503479078E+02  0.00000000000E+00 0.  1.
</event>
<event>
12    1  0.8724767E-002  0.1743333E+03  0.7818608E-02  0.1173973E+00
         21   -1    0    0  501  502  0.00000000000E+00  0.00000000000E+00  0.71989587261E+03  0.71989587261E+03  0.00000000000E+00 0. -1.
         21   -1    0    0  502  503 -0.00000000000E+00 -0.00000000000E+00 -0.51402363700E+02  0.51402363700E+02  0.00000000000E+00 0. -1.
         -6    2    1    2    0  503  0.18546905353E+02 -0.56472217198E+01  0.16824478933E+03  0.24227757397E+03  0.17325194054E+03 0.  0.
        -24    2    3    3    0    0  0.54184608636E+02 -0.56808392290E+02  0.11021325203E+03  0.15697071264E+03  0.79559276361E+02 0.  0.
          6    2    1    2  501    0 -0.18546905353E+02  0.56472217198E+01  0.50024871958E+03  0.52902066234E+03  0.17099181538E+03 0.  0.
         24    2    5    5    0    0 -0.39743893986E+02 -0.46973724718E+02  0.20700065819E+03  0.23029873171E+03  0.80013282713E+02 0.  0.
          5    1    5    5  501    0  0.21196988633E+02  0.52620946438E+02  0.29324806139E+03  0.29872193063E+03  0.47000000000E+01 0. -1.
        -11    1    6    6    0    0 -0.56668146025E+02 -0.43884512568E+02  0.19863138260E+03  0.21116712663E+03  0.00000000000E+00 0.  1.
         12    1    6    6    0    0  0.16924252039E+02 -0.30892121500E+01  0.83692755966E+01  0.19131605077E+02  0.00000000000E+00 0. -1.
         -5    1    3    3    0  503 -0.35637703284E+02  0.51161170571E+02  0.58031537296E+02  0.85306861333E+02  0.47000000000E+01 0.  1.
         13    1    4    4    0    0  0.10117600631E+02 -0.65506213498E+02  0.73365580473E+02  0.98873344474E+02  0.00000000000E+00 0. -1.
        -14    1    4    4    0    0  0.44067008005E+02  0.86978212074E+01  0.36847671557E+02  0.58097368163E+02  0.00000000000E+00 0.  1.
</event>
<event>
12    1  0.8724767E-002  0.2090434E+03  0.7818608E-02  0.1145245E+00
         21   -1    0    0  503  502  0.00000000000E+00  0.00000000000E+00  0.47843861718E+03  0.47843861718E+03  0.00000000000E+00 0. -1.
         21   -1    0    0  501  503 -0.00000000000E+00 -0.00000000000E+00 -0.96410408939E+02  0.96410408939E+02  0.00000000000E+00 0.  1.
          6    2    1    2  501    0 -0.99801636270E+01 -0.91444462868E+02  0.99274877243E+02  0.23141878004E+03  0.18771642722E+03 0.  0.
         24    2    3    3    0    0  0.22017585126E+02 -0.77999962312E+02 -0.11160789804E+02  0.11556224342E+03  0.81616791781E+02 0.  0.
         -6    2    1    2    0  502  0.99801636270E+01  0.91444462868E+02  0.28275333099E+03  0.34343024608E+03  0.17185224548E+03 0.  0.
        -24    2    5    5    0    0 -0.13519144757E+02 -0.13731529215E+02  0.16821033820E+03  0.18608859869E+03  0.77219987787E+02 0.  0.
          5    1    3    3  501    0 -0.31997748753E+02 -0.13444500557E+02  0.11043566705E+03  0.11585653662E+03  0.47000000000E+01 0. -1.
        -11    1    4    4    0    0  0.51986490580E+02 -0.58340971325E+02 -0.14816376401E+02  0.79534829776E+02  0.00000000000E+00 0.  1.
         12    1    4    4    0    0 -0.29968905454E+02 -0.19658990987E+02  0.36555865971E+01  0.36027413647E+02  0.00000000000E+00 0. -1.
         -5    1    5    5    0  502  0.23499308384E+02  0.10517599208E+03  0.11454299279E+03  0.15734164739E+03  0.47000000000E+01 0.  1.
         13    1    6    6    0    0 -0.27174550403E+02 -0.12296265798E+02  0.16967809724E+03  0.17227974642E+03  0.00000000000E+00 0. -1.
        -14    1    6    6    0    0  0.13655405646E+02 -0.14352634172E+01 -0.14677590386E+01  0.13808852271E+02  0.00000000000E+00 0.  1.
</event>
<event>
12    1  0.8724767E-002  0.2471015E+03  0.7818608E-02  0.1115279E+00
         21   -1    0    0  501  502  0.00000000000E+00  0.00000000000E+00  0.14466519511E+03  0.14466519511E+03  0.00000000000E+00 0.  1.
         21   -1    0    0  502  503 -0.00000000000E+00 -0.00000000000E+00 -0.50772777472E+03  0.50772777472E+03  0.00000000000E+00 0.  1.
         -6    2    1    2    0  503 -0.12285399581E+03 -0.12847141143E+03 -0.46246396533E+02  0.25060740148E+03  0.17049144449E+03 0.  0.
        -24    2    3    3    0    0 -0.13044711581E+03 -0.12849195135E+03 -0.79885560893E+02  0.21580310186E+03  0.81625022823E+02 0.  0.
          6    2    1    2  501    0  0.12285399581E+03  0.12847141143E+03 -0.31681618307E+03  0.40178556835E+03  0.17164248087E+03 0.  0.
         24    2    5    5    0    0  0.63949155502E+02  0.83332824118E+02 -0.81243589531E+02  0.15475559223E+03  0.79466460983E+02 0.  0.
          5    1    5    5  501    0  0.58904840306E+02  0.45138587308E+02 -0.23557259354E+03  0.24702997612E+03  0.47000000000E+01 0. -1.
        -13    1    6    6    0    0  0.43819316200E+02  0.73166601273E+01 -0.57399984440E+02  0.72583911450E+02  0.00000000000E+00 0.  1.
         14    1    6    6    0    0  0.20129839301E+02  0.76016163991E+02 -0.23843605091E+02  0.82171680778E+02  0.00000000000E+00 0. -1.
         -5    1    3    3    0  503  0.75931200007E+01  0.20539919461E-01  0.33639164360E+02  0.34804299621E+02  0.47000000000E+01 0.  1.
         11    1    4    4    0    0 -0.15907989230E+02 -0.10390423854E+02  0.16467338431E+02  0.25143553134E+02  0.00000000000E+00 0. -1.
        -12    1    4    4    0    0 -0.11453912658E+03 -0.11810152749E+03 -0.96352899323E+02  0.19065954873E+03  0.00000000000E+00 0.  1.
</event>
<event>
12    1  0.8724767E-002  0.1779458E+03  0.7818608E-02  0.1169861E+00
         21   -1    0    0  501  502  0.00000000000E+00  0.00000000000E+00  0.24582328989E+03  0.24582328989E+03  0.00000000000E+00 0. -1.
         21   -1    0    0  502  503 -0.00000000000E+00 -0.00000000000E+00 -0.14101992843E+03  0.14101992843E+03  0.00000000000E+00 0. -1.
         -6    2    1    2    0  503 -0.28632106200E+02 -0.34178122209E+02 -0.49160202249E+01  0.17779050520E+03  0.17203881813E+03 0.  0.
        -24    2    3    3    0    0 -0.47826663014E+02 -0.24899825966E+02 -0.64743040712E+02  0.11410471265E+03  0.76946949913E+02 0.  0.
          6    2    1    2  501    0  0.28632106200E+02  0.34178122209E+02  0.10971938168E+03  0.20905271312E+03  0.17226941865E+03 0.  0.
         24    2    5    5    0    0 -0.40159061498E+02  0.54001404989E+02  0.52554089728E+02  0.11731859789E+03  0.80453832115E+02 0.  0.
          5    1    5    5  501    0  0.68791167698E+02 -0.19823282780E+02  0.57165291951E+02  0.91734115231E+02  0.47000000000E+01 0. -1.
        -13    1    6    6    0    0  0.21477577576E+02  0.25911174835E+02  0.38162251334E+01  0.33870915165E+02  0.00000000000E+00 0.  1.
         14    1    6    6    0    0 -0.61636639074E+02  0.28090230154E+02  0.48737864595E+02  0.83447682723E+02  0.00000000000E+00 0. -1.
         -5    1    3    3    0  503  0.19194556813E+02 -0.92782962438E+01  0.59827020487E+02  0.63685792551E+02  0.47000000000E+01 0.  1.
         11    1    4    4    0    0  0.18767832393E+01 -0.24974976428E+02 -0.58968605108E+02  0.64066903713E+02  0.00000000000E+00 0. -1.
        -12    1    4    4    0    0 -0.49703446253E+02  0.75150462711E-01 -0.57744356036E+01  0.50037808940E+02  0.00000000000E+00 0.  1.
</event>
<event>
12    1  0.8724767E-002  0.1852302E+03  0.7818608E-02  0.1163198E+00
         21   -1    0    0  501  502  0.00000000000E+00  0.00000000000E+00  0.96236070993E+03  0.96236070993E+03  0.00000000000E+00 0. -1.
         21   -1    0    0  502  503 -0.00000000000E+00 -0.00000000000E+00 -0.59590630829E+02  0.59590630829E+02  0.00000000000E+00 0. -1.
         -6    2    1    2    0  503 -0.16175194309E+02 -0.60817284570E+02  0.12664226725E+03  0.22438473180E+03  0.17421212643E+03 0.  0.
        -24    2    3    3    0    0  0.11359970160E+02 -0.55102088205E+02  0.15468677970E+03  0.18439181455E+03  0.83108678322E+02 0.  0.
          6    2    1    2  501    0  0.16175194309E+02  0.60817284570E+02  0.77612781185E+03  0.79756660896E+03  0.17256226814E+03 0.  0.
         24    2    5    5    0    0  0.44515424025E+02  0.10680010875E+03  0.60244054585E+03  0.61561346908E+03  0.51550420253E+02 0.  0.
          5    1    5    5  501    0 -0.28340229716E+02 -0.45982824181E+02  0.17368726600E+03  0.18195313987E+03  0.47000000000E+01 0. -1.
        -13    1    6    6    0    0 -0.29145940123E+01  0.72785218574E+01  0.86469311748E+01  0.11672238750E+02  0.00000000000E+00 0.  1.
         14    1    6    6    0    0  0.47430018037E+02  0.99521586893E+02  0.59379361468E+03  0.60394123033E+03  0.00000000000E+00 0. -1.
         -5    1    3    3    0  503 -0.27535164469E+02 -0.57151963643E+01 -0.28044512447E+02  0.39992917251E+02  0.47000000000E+01 0.  1.
         11    1    4    4    0    0  0.21724685110E+01 -0.36258559378E+02  0.92917399223E+01  0.37493188426E+02  0.00000000000E+00 0. -1.
        -12    1    4    4    0    0  0.91875016494E+01 -0.18843528827E+02  0.14539503977E+03  0.14689862612E+03  0.00000000000E+00 0.  1.
</event>
<event>
12    1  0.8724767E-002  0.2994499E+03  0.7818608E-02  0.1085688E+00
         21   -1    0    0  501  502  0.00000000000E+00  0.00000000000E+00  0.28742329785E+03  0.28742329785E+03  0.00000000000E+00 0.  1.
         21   -1    0    0  502  503 -0.00000000000E+00 -0.00000000000E+00 -0.36413867542E+03  0.36413867542E+03  0.00000000000E+00 0. -1.
         -6    2    1    2    0  503 -0.19019471857E+03 -0.15398963822E+03  0.86539295930E+02  0.31170383558E+03  0.17257865373E+03 0.  0.
        -24    2    3    3    0    0 -0.20652591428E+03 -0.12654166456E+03  0.45125047274E+02  0.25919355846E+03  0.80494004240E+02 0.  0.
          6    2    1    2  501    0  0.19019471857E+03  0.15398963822E+03 -0.16325467350E+03  0.33985813769E+03  0.17018996941E+03 0.  0.
         24    2    5    5    0    0  0.71089308723E+02  0.56534648633E+01 -0.57506087576E+02  0.12215519236E+03  0.80804018672E+02 0.  0.
          5    1    5    5  501    0  0.11910540985E+03  0.14833617335E+03 -0.10574858592E+03  0.21770294533E+03  0.47000000000E+01 0. -1.
        -11    1    6    6    0    0  0.22789052199E+02  0.40409370099E+02 -0.36574183291E+02  0.59075620821E+02  0.00000000000E+00 0.  1.
         12    1    6    6    0    0  0.48300256524E+02 -0.34755905236E+02 -0.20931904284E+02  0.63079571543E+02  0.00000000000E+00 0. -1.
         -5    1    3    3    0  503  0.16331195707E+02 -0.27447973653E+02  0.41414248656E+02  0.52510277114E+02  0.47000000000E+01 0.  1.
         13    1    4    4    0    0  0.20964640266E+01 -0.16641401220E+02 -0.61835762424E+01  0.17876465286E+02  0.00000000000E+00 0. -1.
        -14    1    4    4    0    0 -0.20862237831E+03 -0.10990026334E+03  0.51308623516E+02  0.24131709318E+03  0.00000000000E+00 0.  1.
</event>
<event>
12    1  0.8724767E-002  0.1941407E+03  0.7818608E-02  0.1154903E+00
         21   -1    0    0  501  502  0.00000000000E+00  0.00000000000E+00  0.10624178136E+03  0.10624178136E+03  0.00000000000E+00 0. -1.
         21   -1    0    0  502  503 -0.00000000000E+00 -0.00000000000E+00 -0.36652356408E+03  0.36652356408E+03  0.00000000000E+00 0. -1.
         -6    2    1    2    0  503 -0.61725009184E+02 -0.64239029765E+02 -0.17448287014E+03  0.26102659966E+03  0.17249343192E+03 0.  0.
        -24    2    3    3    0    0 -0.10488458693E+03 -0.32318157834E+02 -0.14565735959E+03  0.19991447914E+03  0.81880966437E+02 0.  0.
          6    2    1    2  501    0  0.61725009184E+02  0.64239029765E+02 -0.85798912579E+02  0.21173874577E+03  0.17185811985E+03 0.  0.
         24    2    5    5    0    0  0.85387625109E+02 -0.10265214484E+02 -0.52436527405E+02  0.12661565520E+03  0.76717101003E+02 0.  0.
          5    1    5    5  501    0 -0.23662615925E+02  0.74504244249E+02 -0.33362385174E+02  0.85123090569E+02  0.47000000000E+01 0. -1.
        -11    1    6    6    0    0  0.18432637186E+02 -0.31208281163E+02  0.41533335148E+01  0.36482449288E+02  0.00000000000E+00 0.  1.
         12    1    6    6    0    0  0.66954987923E+02  0.20943066679E+02 -0.56589860920E+02  0.90133205916E+02  0.00000000000E+00 0. -1.
         -5    1    3    3    0  503  0.43159577749E+02 -0.31920871932E+02 -0.28825510554E+02  0.61112120525E+02  0.47000000000E+01 0.  1.
         13    1    4    4    0    0 -0.45230381020E+02  0.22508324701E+02 -0.30182477098E+02  0.58850607234E+02  0.00000000000E+00 0. -1.
        -14    1    4    4    0    0 -0.59654205913E+02 -0.54826482534E+02 -0.11547488249E+03  0.14106387190E+03  0.00000000000E+00 0.  1.
</event>
<event>
12    1  0.8724767E-002  0.1832021E+03  0.7818608E-02  0.1166869E+00
         21   -1    0    0  501  502  0.00000000000E+00  0.00000000000E+00  0.10060275055E+03  0.10060275055E+03  0.00000000000E+00 0. -1.
         21   -1    0    0  502  503 -0.00000000000E+00 -0.00000000000E+00 -0.32249075984E+03  0.32249075984E+03  0.00000000000E+00 0. -1.
         -6    2    1    2    0  503  0.40673594757E+02 -0.24930532289E+02 -0.88209628340E+02  0.20333215442E+03  0.17688175073E+03 0.  0.
        -24    2    3    3    0    0  0.33604767421E+01  0.52247662058E+02 -0.64822112500E+02  0.11435008682E+03  0.78312994395E+02 0.  0.
          6    2    1    2  501    0 -0.40673594757E+02  0.24930532289E+02 -0.13367838095E+03  0.21976135596E+03  0.16777744571E+03 0.  0.
         24    2    5    5    0    0 -0.84880486659E+02  0.23199822568E+02 -0.36189332636E+02  0.11260049935E+03  0.60218567525E+02 0.  0.
          5    1    5    5  501    0  0.44206891903E+02  0.17307097212E+01 -0.97489048316E+02  0.10716085661E+03  0.47000000000E+01 0. -1.
        -13    1    6    6    0    0 -0.35049832641E+02 -0.10773579554E+02  0.83744423269E+01  0.37612392490E+02  0.00000000000E+00 0.  1.
         14    1    6    6    0    0 -0.49830654018E+02  0.33973402121E+02 -0.44563774963E+02  0.74988106861E+02  0.00000000000E+00 0. -1.
         -5    1    3    3    0  503  0.37313118014E+02 -0.77178194347E+02 -0.23387515840E+02  0.88982067608E+02  0.47000000000E+01 0.  1.
         11    1    4    4    0    0 -0.21693664963E+02 -0.12021437013E+02 -0.12513682934E+02  0.27779890352E+02  0.00000000000E+00 0. -1.
        -12    1    4    4    0    0  0.25054141705E+02  0.64269099071E+02 -0.52308429566E+02  0.86570196463E+02  0.00000000000E+00 0.  1.
</event>
<event>
12    1  0.8724767E-002  0.1937418E+03  0.7818608E-02  0.1161744E+00
         21   -1    0    0  501  502  0.00000000000E+00  0.00000000000E+00  0.70666614317E+02  0.70666614317E+02  0.00000000000E+00 0. -1.
         21   -1    0    0  502  503 -0.00000000000E+00 -0.00000000000E+00 -0.45854583866E+03  0.45854583866E+03  0.00000000000E+00 0. -1.
         -6    2    1    2    0  503  0.17207309177E+02 -0.32206941042E+01 -0.18902956407E+03  0.25158489888E+03  0.16509488452E+03 0.  0.
        -24    2    3    3    0    0  0.54900873232E+02 -0.45938278425E+02 -0.13330673227E+03  0.17175557617E+03  0.81270300664E+02 0.  0.
          6    2    1    2  501    0 -0.17207309177E+02  0.32206941042E+01 -0.19884966028E+03  0.27762755410E+03  0.19294923437E+03 0.  0.
         24    2    5    5    0    0  0.67408528254E+02  0.19744305409E+02 -0.12203400514E+03  0.16206110331E+03  0.80235624982E+02 0.  0.
          5    1    5    5  501    0 -0.84615837431E+02 -0.16523611305E+02 -0.76815655137E+02  0.11556645079E+03  0.47000000000E+01 0. -1.
        -13    1    6    6    0    0  0.55344021289E+02 -0.24629748645E+02 -0.72376009876E+02  0.94381523702E+02  0.00000000000E+00 0.  1.
         14    1    6    6    0    0  0.12064506965E+02  0.44374054054E+02 -0.49657995269E+02  0.67679579606E+02  0.00000000000E+00 0. -1.
         -5    1    3    3    0  503 -0.37693564055E+02  0.42717584321E+02 -0.55722831799E+02  0.79829322715E+02  0.47000000000E+01 0.  1.
         11    1    4    4    0    0 -0.39248784477E+01 -0.47493724302E+02 -0.75388850323E+02  0.89188212629E+02  0.00000000000E+00 0. -1.
        -12    1    4    4    0    0  0.58825751680E+02  0.15554458772E+01 -0.57917881943E+02  0.82567363536E+02  0.00000000000E+00 0.  1.
</event>
<event>
12    1  0.8724767E-002  0.1731604E+03  0.7818608E-02  0.1174820E+00
         21   -1    0    0  503  502  0.00000000000E+00  0.00000000000E+00  0.43706755749E+02  0.43706755749E+02  0.00000000000E+00 0.  1.
         21   -1    0    0  501  503 -0.00000000000E+00 -0.00000000000E+00 -0.83468483793E+03  0.83468483793E+03  0.00000000000E+00 0.  1.
          6    2    1    2  501    0  0.15631026839E+02  0.59820171735E+01 -0.20711028486E+03  0.26938736970E+03  0.17144903419E+03 0.  0.
         24    2    3    3    0    0  0.74033044971E+02  0.14434320113E+02 -0.11008098854E+03  0.15572554017E+03  0.80270657639E+02 0.  0.
         -6    2    1    2    0  502 -0.15631026839E+02 -0.59820171735E+01 -0.58386779731E+03  0.60900422398E+03  0.17234972166E+03 0.  0.
        -24    2    5    5    0    0  0.34835821970E+02  0.27783792015E+02 -0.48113014406E+03  0.48957161497E+03  0.78795158924E+02 0.  0.
          5    1    3    3  501    0 -0.58402018132E+02 -0.84523029396E+01 -0.97029296321E+02  0.11366182953E+03  0.47000000000E+01 0. -1.
        -13    1    4    4    0    0  0.44575296767E+02  0.43245808297E+02 -0.38321903951E+02  0.72977567372E+02  0.00000000000E+00 0.  1.
         14    1    4    4    0    0  0.29457748204E+02 -0.28811488184E+02 -0.71759084592E+02  0.82747972798E+02  0.00000000000E+00 0. -1.
         -5    1    5    5    0  502 -0.50466848810E+02 -0.33765809188E+02 -0.10273765326E+03  0.11943260901E+03  0.47000000000E+01 0.  1.
         13    1    6    6    0    0  0.51788089311E+02  0.29285345156E+01 -0.19210181113E+03  0.19898162817E+03  0.00000000000E+00 0. -1.
        -14    1    6    6    0    0 -0.16952267341E+02  0.24855257499E+02 -0.28902833292E+03  0.29058998679E+03  0.00000000000E+00 0.  1.
</event>
<event>
12    1  0.8724767E-002  0.1739611E+03  0.7818608E-02  0.1173793E+00
         21   -1    0    0  503  502  0.00000000000E+00  0.00000000000E+00  0.62518592632E+02  0.62518592632E+02  0.00000000000E+00 0. -1.
         21   -1    0    0  501  503 -0.00000000000E+00 -0.00000000000E+00 -0.54807958558E+03  0.54807958558E+03  0.00000000000E+00 0. -1.
          6    2    1    2  501    0 -0.10533218206E+02 -0.22912538021E+02 -0.34721982504E+03  0.38833537123E+03  0.17206632605E+03 0.  0.
         24    2    3    3    0    0  0.71258834055E+01  0.41113843929E+02 -0.27912482355E+03  0.29309756002E+03  0.79084677350E+02 0.  0.
         -6    2    1    2    0  502  0.10533218206E+02  0.22912538021E+02 -0.13834116790E+03  0.22226280698E+03  0.17212362867E+03 0.  0.
        -24    2    5    5    0    0  0.62015147256E+02 -0.23381848911E+02 -0.74114678606E+02  0.12770757864E+03  0.80147680620E+02 0.  0.
          5    1    3    3  501    0 -0.17659101612E+02 -0.64026381950E+02 -0.68095001496E+02  0.95237811210E+02  0.47000000000E+01 0. -1.
        -13    1    4    4    0    0  0.26707537844E+02  0.52091689903E+02 -0.13374999660E+03  0.14599965179E+03  0.00000000000E+00 0.  1.
         14    1    4    4    0    0 -0.19581654438E+02 -0.10977845974E+02 -0.14537482695E+03  0.14709790822E+03  0.00000000000E+00 0. -1.
         -5    1    5    5    0  502 -0.51481929050E+02  0.46294386931E+02 -0.64226489298E+02  0.94555228346E+02  0.47000000000E+01 0.  1.
         13    1    6    6    0    0  0.41989341784E+02  0.22912518870E+02 -0.57070489668E+02  0.74465623850E+02  0.00000000000E+00 0. -1.
        -14    1    6    6    0    0  0.20025805472E+02 -0.46294367780E+02 -0.17044188938E+02  0.53241954787E+02  0.00000000000E+00 0.  1.
</event>
<event>
12    1  0.8724767E-002  0.2237524E+03  0.7818608E-02  0.1131461E+00
         21   -1    0    0  503  502  0.00000000000E+00  0.00000000000E+00  0.15298979954E+04  0.15298979954E+04  0.00000000000E+00 0. -1.
         21   -1    0    0  501  503 -0.00000000000E+00 -0.00000000000E+00 -0.32513533454E+02  0.32513533454E+02  0.00000000000E+00 0. -1.
          6    2    1    2  501    0 -0.14059039885E+03 -0.65737480000E+00  0.78006817625E+03  0.81100764457E+03  0.17164191672E+03 0.  0.
         24    2    3    3    0    0 -0.47704423041E+02 -0.93178830409E+01  0.60818486217E+03  0.61538358531E+03  0.80284466583E+02 0.  0.
         -6    2    1    2    0  502  0.14059039885E+03  0.65737480000E+00  0.71731628566E+03  0.75140388424E+03  0.17406622645E+03 0.  0.
        -24    2    5    5    0    0  0.17253663368E+03 -0.65244249464E+01  0.59124517712E+03  0.62106526918E+03  0.79622553549E+02 0.  0.
          5    1    3    3  501    0 -0.92885975808E+02  0.86605082408E+01  0.17188331407E+03  0.19562405926E+03  0.47000000000E+01 0. -1.
        -13    1    4    4    0    0  0.99467717770E+01  0.22246851087E+02  0.25280566266E+03  0.25397748665E+03  0.00000000000E+00 0.  1.
         14    1    4    4    0    0 -0.57651194818E+02 -0.31564734128E+02  0.35537919951E+03  0.36140609866E+03  0.00000000000E+00 0. -1.
         -5    1    5    5    0  502 -0.31946234829E+02  0.71817997464E+01  0.12607110855E+03  0.13033861507E+03  0.47000000000E+01 0.  1.
         11    1    6    6    0    0  0.47359638431E+01 -0.60719758694E+00  0.13203729210E+03  0.13212359573E+03  0.00000000000E+00 0. -1.
        -12    1    6    6    0    0  0.16780066983E+03 -0.59172273594E+01  0.45920788502E+03  0.48894167345E+03  0.00000000000E+00 0.  1.
</event>
<event>
12    1  0.8724767E-002  0.1901820E+03  0.7818608E-02  0.1158320E+00
         21   -1    0    0  501  502  0.00000000000E+00  0.00000000000E+00  0.16974922876E+03  0.16974922876E+03  0.00000000000E+00 0.  1.
         21   -1    0    0  502  503 -0.00000000000E+00 -0.00000000000E+00 -0.31548881172E+03  0.31548881172E+03  0.00000000000E+00 0.  1.
         -6    2    1    2    0  503  0.44965764408E+02  0.68984415463E+02 -0.21119194028E+03  0.28420277948E+03  0.17143049518E+03 0.  0.
        -24    2    3    3    0    0  0.57133583734E+02  0.63559519594E+02 -0.23104264302E+03  0.25983834389E+03  0.82651092791E+02 0.  0.
          6    2    1    2  501    0 -0.44965764408E+02 -0.68984415463E+02  0.65452357324E+02  0.20103526100E+03  0.17131957139E+03 0.  0.
         24    2    5    5    0    0 -0.22191202578E+02 -0.59484373358E+02  0.11011118964E+03  0.14979628394E+03  0.79269240272E+02 0.  0.
          5    1    5    5  501    0 -0.22774561830E+02 -0.95000421050E+01 -0.44658832315E+02  0.51238977062E+02  0.47000000000E+01 0. -1.
        -13    1    6    6    0    0 -0.10814134458E+02 -0.74496273395E+02  0.60004641332E+02  0.96266282961E+02  0.00000000000E+00 0.  1.
         14    1    6    6    0    0 -0.11377068120E+02  0.15011900037E+02  0.50106548307E+02  0.53530000980E+02  0.00000000000E+00 0. -1.
         -5    1    3    3    0  503 -0.12167819326E+02  0.54248958691E+01  0.19850702740E+02  0.24364435590E+02  0.47000000000E+01 0.  1.
         11    1    4    4    0    0  0.21213733359E+02 -0.15732946173E+02 -0.25902450209E+02  0.36993039956E+02  0.00000000000E+00 0. -1.
        -12    1    4    4    0    0  0.35919850375E+02  0.79292465767E+02 -0.20514019281E+03  0.22284530393E+03  0.00000000000E+00 0.  1.
</event>
<event>
12    1  0.8724767E-002  0.1800453E+03  0.7818608E-02  0.1167908E+00
         21   -1    0    0  501  502  0.00000000000E+00  0.00000000000E+00  0.13225954617E+04  0.13225954617E+04  0.00000000000E+00 0.  1.
         21   -1    0    0  502  503 -0.00000000000E+00 -0.00000000000E+00 -0.24455706900E+02  0.24455706900E+02  0.00000000000E+00 0.  1.
         -6    2    1    2    0  503  0.51024195670E+02 -0.95059212166E+01  0.67145873470E+03  0.69501939895E+03  0.17175942891E+03 0.  0.
        -24    2    3    3    0    0  0.83856284653E+02  0.16530244477E+01  0.63111544423E+03  0.64161397580E+03  0.79543579437E+02 0.  0.
          6    2    1    2  501    0 -0.51024195670E+02  0.95059212166E+01  0.62668102010E+03  0.65203176966E+03  0.17240213632E+03 0.  0.
         24    2    5    5    0    0 -0.73565035432E+02  0.40373743989E+02  0.27606328036E+03  0.29930552827E+03  0.79567649524E+02 0.  0.
          5    1    5    5  501    0  0.22540839762E+02 -0.30867822773E+02  0.35061773974E+03  0.35272624138E+03  0.47000000000E+01 0. -1.
        -11    1    6    6    0    0 -0.43184308693E+02  0.29376736873E+02  0.25599918849E+03  0.26127277259E+03  0.00000000000E+00 0.  1.
         12    1    6    6    0    0 -0.30380726739E+02  0.10997007116E+02  0.20064091868E+02  0.38032755688E+02  0.00000000000E+00 0. -1.
         -5    1    3    3    0  503 -0.32832088983E+02 -0.11158945664E+02  0.40343290478E+02  0.53405423150E+02  0.47000000000E+01 0.  1.
         13    1    4    4    0    0 -0.15713015577E+02 -0.18108139013E+01  0.75922481042E+02  0.77552569480E+02  0.00000000000E+00 0. -1.
        -14    1    4    4    0    0  0.99569300230E+02  0.34638383491E+01  0.55519296319E+03  0.56406140632E+03  0.00000000000E+00 0.  1.
</event>
<event>
12    1  0.8724767E-002  0.2381987E+03  0.7818608E-02  0.1121195E+00
         21   -1    0    0  501  502  0.00000000000E+00  0.00000000000E+00  0.37560634335E+03  0.37560634335E+03  0.00000000000E+00 0.  1.
         21   -1    0    0  502  503 -0.00000000000E+00 -0.00000000000E+00 -0.31097850031E+03  0.31097850031E+03  0.00000000000E+00 0.  1.
         -6    2    1    2    0  503  0.18708391106E+02  0.16246398595E+03 -0.21447083155E+03  0.31965886842E+03  0.17157943917E+03 0.  0.
        -24    2    3    3    0    0  0.21082300850E+02  0.84110605620E+02 -0.21009594745E+03  0.24100699453E+03  0.80156140684E+02 0.  0.
          6    2    1    2  501    0 -0.18708391106E+02 -0.16246398595E+03  0.27909867458E+03  0.36692597524E+03  0.17318790524E+03 0.  0.
         24    2    5    5    0    0 -0.20380100621E+02 -0.13398191635E+03  0.29469295538E+03  0.33407335746E+03  0.79966041567E+02 0.  0.
          5    1    5    5  501    0  0.16717095144E+01 -0.28482069596E+02 -0.15594280798E+02  0.32852617777E+02  0.47000000000E+01 0. -1.
        -11    1    6    6    0    0  0.37118568595E+01 -0.10262569509E+03  0.13535637914E+03  0.16990338592E+03  0.00000000000E+00 0.  1.
         12    1    6    6    0    0 -0.24091957480E+02 -0.31356221264E+02  0.15933657624E+03  0.16416997154E+03  0.00000000000E+00 0. -1.
         -5    1    3    3    0  503 -0.23739097431E+01  0.78353380330E+02 -0.43748841038E+01  0.78651873898E+02  0.47000000000E+01 0.  1.
         11    1    4    4    0    0  0.12597782564E+02  0.28861568175E+02 -0.96848495727E+01  0.32946783671E+02  0.00000000000E+00 0. -1.
        -12    1    4    4    0    0  0.84845182854E+01  0.55249037445E+02 -0.20041109787E+03  0.20806021085E+03  0.00000000000E+00 0.  1.
</event>
<event>
12    1  0.8724767E-002  0.2331375E+03  0.7818608E-02  0.1124962E+00
         21   -1    0    0  501  502  0.00000000000E+00  0.00000000000E+00  0.45981915756E+03  0.45981915756E+03  0.00000000000E+00 0.  1.
         21   -1    0    0  502  503 -0.00000000000E+00 -0.00000000000E+00 -0.13193517664E+03  0.13193517664E+03  0.00000000000E+00 0. -1.
         -6    2    1    2    0  503 -0.14296260114E+03  0.54045628131E+02  0.62545174718E+02  0.23854363907E+03  0.17213928551E+03 0.  0.
        -24    2    3    3    0    0 -0.11834620638E+02  0.29495712568E+02  0.59605755230E+02  0.10502219580E+03  0.80416169079E+02 0.  0.
          6    2    1    2  501    0  0.14296260114E+03 -0.54045628131E+02  0.26533880620E+03  0.35321069513E+03  0.17605078197E+03 0.  0.
         24    2    5    5    0    0  0.79308243090E+02 -0.84155509099E+02  0.96642257317E+02  0.17034709067E+03  0.79413212162E+02 0.  0.
          5    1    5    5  501    0  0.63654358046E+02  0.30109880968E+02  0.16869654889E+03  0.18286360446E+03  0.47000000000E+01 0. -1.
        -11    1    6    6    0    0 -0.21586429390E+01 -0.24996860809E+02  0.56754293101E+02  0.62052820847E+02  0.00000000000E+00 0.  1.
         12    1    6    6    0    0  0.81466886029E+02 -0.59158648290E+02  0.39887964215E+02  0.10829426982E+03  0.00000000000E+00 0. -1.
         -5    1    3    3    0  503 -0.13112798050E+03  0.24549915563E+02  0.29394194876E+01  0.13352144326E+03  0.47000000000E+01 0.  1.
         11    1    4    4    0    0  0.27396487364E+02 -0.95123472577E+01  0.98858542062E+01  0.30639555865E+02  0.00000000000E+00 0. -1.
        -12    1    4    4    0    0 -0.39231108002E+02  0.39008059825E+02  0.49719901024E+02  0.74382639939E+02  0.00000000000E+00 0.  1.
</event>
<event>
12    1  0.8724767E-002  0.1767391E+03  0.7818608E-02  0.1172085E+00
         21   -1    0    0  503  502  0.00000000000E+00  0.00000000000E+00  0.31262765502E+03  0.31262765502E+03  0.00000000000E+00 0. -1.
         21   -1    0    0  501  503 -0.00000000000E+00 -0.00000000000E+00 -0.99166987020E+02  0.99166987020E+02  0.00000000000E+00 0. -1.
          6    2    1    2  501    0  0.38045369062E+02 -0.14302454045E+02  0.78583818080E+02  0.18946949642E+03  0.16754480986E+03 0.  0.
         24    2    3    3    0    0 -0.16385288758E+02  0.10837191838E+02  0.97029000749E+02  0.12656470273E+03  0.78854768889E+02 0.  0.
         -6    2    1    2    0  502 -0.38045369062E+02  0.14302454045E+02  0.13487684992E+03  0.22232514562E+03  0.17200202159E+03 0.  0.
        -24    2    5    5    0    0 -0.41317294696E+02  0.49099004925E+02  0.15164698707E+03  0.18327603615E+03  0.80470277838E+02 0.  0.
          5    1    3    3  501    0  0.54430657820E+02 -0.25139645883E+02 -0.18445182668E+02  0.62904793693E+02  0.47000000000E+01 0. -1.
        -13    1    4    4    0    0 -0.15584132726E+01  0.35844514521E+02  0.13862647434E+02  0.38463370459E+02  0.00000000000E+00 0.  1.
         14    1    4    4    0    0 -0.14826875485E+02 -0.25007322683E+02  0.83166353315E+02  0.88101332272E+02  0.00000000000E+00 0. -1.
         -5    1    5    5    0  502  0.32719256338E+01 -0.34796550880E+02 -0.16770137143E+02  0.39049109469E+02  0.47000000000E+01 0.  1.
         13    1    6    6    0    0 -0.27369919237E+02  0.60180845126E+02  0.15168008581E+03  0.16546206523E+03  0.00000000000E+00 0. -1.
        -14    1    6    6    0    0 -0.13947375459E+02 -0.11081840200E+02 -0.33098743973E-01  0.17813970920E+02  0.00000000000E+00 0.  1.
</event>
<event>
12    1  0.8724767E-002  0.1793047E+03  0.7818608E-02  0.1168680E+00
         21   -1    0    0  503  502  0.00000000000E+00  0.00000000000E+00  0.49908351748E+02  0.49908351748E+02  0.00000000000E+00 0.  1.
         21   -1    0    0  501  503 -0.00000000000E+00 -0.00000000000E+00 -0.12879304354E+04  0.12879304354E+04  0.00000000000E+00 0.  1.
          6    2    1    2  501    0 -0.10589383736E+02  0.45868023029E+02 -0.10937348778E+04  0.11083348556E+04  0.17301490849E+03 0.  0.
         24    2    3    3    0    0 -0.40669987002E+02 -0.14818595816E+01 -0.31828150434E+03  0.33084088228E+03  0.80599811637E+02 0.  0.
         -6    2    1    2    0  502  0.10589383736E+02 -0.45868023029E+02 -0.14428720578E+03  0.22950393151E+03  0.17215471601E+03 0.  0.
        -24    2    5    5    0    0  0.11899165852E+02  0.16329803096E+02 -0.14561827122E+03  0.16710083192E+03  0.79433963117E+02 0.  0.
          5    1    3    3  501    0  0.30080603266E+02  0.47349882610E+02 -0.77545337350E+03  0.77749397332E+03  0.47000000000E+01 0. -1.
        -11    1    4    4    0    0 -0.21384257237E+02 -0.21482976797E+02 -0.28858718946E+03  0.29017472438E+03  0.00000000000E+00 0.  1.
         12    1    4    4    0    0 -0.19285729765E+02  0.20001117216E+02 -0.29694314880E+02  0.40666157904E+02  0.00000000000E+00 0. -1.
         -5    1    5    5    0  502 -0.13097821154E+01 -0.62197826125E+02  0.13310654418E+01  0.62403099595E+02  0.47000000000E+01 0.  1.
         11    1    6    6    0    0 -0.34043322198E+02  0.44930654443E+01 -0.66688938786E+02  0.75010332486E+02  0.00000000000E+00 0. -1.
        -12    1    6    6    0    0  0.45942488050E+02  0.11836737652E+02 -0.78929332436E+02  0.92090499429E+02  0.00000000000E+00 0.  1.
</event>
<event>
12    1  0.8724767E-002  0.1794054E+03  0.7818608E-02  0.1168463E+00
         21   -1    0    0  501  502  0.00000000000E+00  0.00000000000E+00  0.57056603785E+03  0.57056603785E+03  0.00000000000E+00 0. -1.
         21   -1    0    0  502  503 -0.00000000000E+00 -0.00000000000E+00 -0.75080930655E+02  0.75080930655E+02  0.00000000000E+00 0. -1.
         -6    2    1    2    0  503 -0.48268511175E+02 -0.34390467156E+00  0.86476583180E+02  0.19915951620E+03  0.17278988979E+03 0.  0.
        -24    2    3    3    0    0 -0.53868554969E+01  0.57711352890E+02  0.33909967567E+02  0.10974705398E+03  0.86803867952E+02 0.  0.
          6    2    1    2  501    0  0.48268511175E+02  0.34390467156E+00  0.40900852402E+03  0.44648745231E+03  0.17243289972E+03 0.  0.
         24    2    5    5    0    0  0.73003092507E+01 -0.41830578145E+02  0.35542912270E+03  0.36680104936E+03  0.80062830082E+02 0.  0.
          5    1    5    5  501    0  0.40968201924E+02  0.42174482816E+02  0.53579401316E+02  0.79686402950E+02  0.47000000000E+01 0. -1.
        -11    1    6    6    0    0 -0.24541265720E+02  0.12534036558E+02  0.11472151324E+03  0.11798475069E+03  0.00000000000E+00 0.  1.
         12    1    6    6    0    0  0.31841574971E+02 -0.54364614703E+02  0.24070760946E+03  0.24881629866E+03  0.00000000000E+00 0. -1.
         -5    1    3    3    0  503 -0.42881655678E+02 -0.58055257561E+02  0.52566615613E+02  0.89412462225E+02  0.47000000000E+01 0.  1.
         11    1    4    4    0    0 -0.18676676426E+02  0.71153470223E+02  0.46506743517E+02  0.87031671015E+02  0.00000000000E+00 0. -1.
        -12    1    4    4    0    0  0.13289820929E+02 -0.13442117333E+02 -0.12596775950E+02  0.22715382961E+02  0.00000000000E+00 0.  1.
</event>
<event>
12    1  0.8724767E-002  0.1979585E+03  0.7818608E-02  0.1151878E+00
         21   -1    0    0  501  502  0.00000000000E+00  0.00000000000E+00  0.57728251746E+03  0.57728251746E+03  0.00000000000E+00 0.  1.
         21   -1    0    0  502  503 -0.00000000000E+00 -0.00000000000E+00 -0.77162518637E+02  0.77162518637E+02  0.00000000000E+00 0.  1.
         -6    2    1    2    0  503  0.88676780228E+02 -0.27510358537E+02  0.13374707272E+03  0.23890548691E+03  0.17483466771E+03 0.  0.
        -24    2    3    3    0    0  0.62432659766E+02  0.52750434708E+02  0.88267822072E+02  0.14287944340E+03  0.77090087342E+02 0.  0.
          6    2    1    2  501    0 -0.88676780228E+02  0.27510358537E+02  0.36637292610E+03  0.41553954919E+03  0.17269512091E+03 0.  0.
         24    2    5    5    0    0 -0.91224564740E+02 -0.28364113729E+02  0.31626597337E+03  0.34029830672E+03  0.81561801630E+02 0.  0.
          5    1    5    5  501    0  0.25477845119E+01  0.55874472266E+02  0.50106952733E+02  0.75241242475E+02  0.47000000000E+01 0. -1.
        -11    1    6    6    0    0 -0.86847397394E+02  0.82619431163E+01  0.19685343621E+03  0.21531838167E+03  0.00000000000E+00 0.  1.
         12    1    6    6    0    0 -0.43771673460E+01 -0.36626056845E+02  0.11941253716E+03  0.12497992504E+03  0.00000000000E+00 0. -1.
         -5    1    3    3    0  503  0.26244120461E+02 -0.80260793245E+02  0.45479250651E+02  0.96026043503E+02  0.47000000000E+01 0.  1.
         13    1    4    4    0    0  0.16747615019E+02  0.22440838754E+01  0.70500228728E+02  0.72496901809E+02  0.00000000000E+00 0. -1.
        -14    1    4    4    0    0  0.45685044748E+02  0.50506350832E+02  0.17767593345E+02  0.70382541594E+02  0.00000000000E+00 0.  1.
</event>
<event>
12    1  0.8724767E-002  0.1877228E+03  0.7818608E-02  0.1160861E+00
         21   -1    0    0  501  502  0.00000000000E+00  0.00000000000E+00  0.16556040122E+04  0.16556040122E+04  0.00000000000E+00 0.  1.
         21   -1    0    0  502  503 -0.00000000000E+00 -0.00000000000E+00 -0.23110085533E+02  0.23110085533E+02  0.00000000000E+00 0.  1.
         -6    2    1    2    0  503 -0.22795915280E+02  0.65734367789E+02  0.56727235445E+03  0.59707791036E+03  0.17281043385E+03 0.  0.
        -24    2    3    3    0    0 -0.58670431040E+02  0.16857888534E+02  0.19690237653E+03  0.22174885252E+03  0.81704344004E+02 0.  0.
          6    2    1    2  501    0  0.22795915280E+02 -0.65734367789E+02  0.10652215722E+04  0.10816361873E+04  0.17435361501E+03 0.  0.
         24    2    5    5    0    0  0.63308104178E+02 -0.58159135598E+02  0.45137877980E+03  0.46639340164E+03  0.79934980688E+02 0.  0.
          5    1    5    5  501    0 -0.40512188898E+02 -0.75752321907E+01  0.61384279237E+03  0.61524278569E+03  0.47000000000E+01 0. -1.
        -13    1    6    6    0    0  0.63052749158E+01 -0.47364590888E+02  0.30860754575E+03  0.31228477109E+03  0.00000000000E+00 0.  1.
         14    1    6    6    0    0  0.57002829262E+02 -0.10794544710E+02  0.14277123405E+03  0.15410863055E+03  0.00000000000E+00 0. -1.
         -5    1    3    3    0  503  0.35874515760E+02  0.48876479255E+02  0.37036997793E+03  0.37532905783E+03  0.47000000000E+01 0.  1.
         13    1    4    4    0    0 -0.79143430604E+01 -0.49515182322E+01  0.14702310938E+03  0.14731920801E+03  0.00000000000E+00 0. -1.
        -14    1    4    4    0    0 -0.50756087980E+02  0.21809406766E+02  0.49879267151E+02  0.74429644511E+02  0.00000000000E+00 0.  1.
</event>
<event>
12    1  0.8724767E-002  0.3266116E+03  0.7818608E-02  0.1072802E+00
         21   -1    0    0  503  502  0.00000000000E+00  0.00000000000E+00  0.62964038414E+03  0.62964038414E+03  0.00000000000E+00 0.  1.
         21   -1    0    0  501  503 -0.00000000000E+00 -0.00000000000E+00 -0.33016818293E+03  0.33016818293E+03  0.00000000000E+00 0. -1.
          6    2    1    2  501    0 -0.24795718298E+03 -0.11961938891E+03 -0.18603158226E+03  0.37466838317E+03  0.17313891809E+03 0.  0.
         24    2    3    3    0    0 -0.68906765529E+02 -0.74372279235E+00 -0.91105016014E+02  0.13967132157E+03  0.80369513288E+02 0.  0.
         -6    2    1    2    0  502  0.24795718298E+03  0.11961938891E+03  0.48550378347E+03  0.58514018389E+03  0.17573715670E+03 0.  0.
        -24    2    5    5    0    0  0.52261369332E+02  0.15927673386E+02  0.21430551470E+03  0.23496963354E+03  0.79365821056E+02 0.  0.
          5    1    3    3  501    0 -0.17905041745E+03 -0.11887566612E+03 -0.94926566244E+02  0.23499706161E+03  0.47000000000E+01 0. -1.
        -11    1    4    4    0    0  0.70007906713E+01 -0.66407309124E+01  0.94755096509E+01  0.13523892199E+02  0.00000000000E+00 0.  1.
         12    1    4    4    0    0 -0.75907556201E+02  0.58970081200E+01 -0.10058052567E+03  0.12614742937E+03  0.00000000000E+00 0. -1.
         -5    1    5    5    0  502  0.19569581365E+03  0.10369171553E+03  0.27119826877E+03  0.35017055035E+03  0.47000000000E+01 0.  1.
         11    1    6    6    0    0  0.17869412288E+02  0.42564637939E+02  0.66915857884E+02  0.81294503718E+02  0.00000000000E+00 0. -1.
        -12    1    6    6    0    0  0.34391957044E+02 -0.26636964553E+02  0.14738965682E+03  0.15367512983E+03  0.00000000000E+00 0.  1.
</event>
<event>
12    1  0.8724767E-002  0.3482130E+03  0.7818608E-02  0.1063372E+00
         21   -1    0    0  503  502  0.00000000000E+00  0.00000000000E+00  0.13404602919E+03  0.13404602919E+03  0.00000000000E+00 0. -1.
         21   -1    0    0  501  503 -0.00000000000E+00 -0.00000000000E+00 -0.90842507205E+03  0.90842507205E+03  0.00000000000E+00 0.  1.
          6    2    1    2  501    0 -0.28539553464E+03  0.10113297288E+03 -0.35105031937E+03  0.49445788466E+03  0.17197029854E+03 0.  0.
         24    2    3    3    0    0 -0.15283376253E+03  0.53015855577E+02 -0.94286486022E+02  0.20147727692E+03  0.74392955003E+02 0.  0.
         -6    2    1    2    0  502  0.28539553464E+03 -0.10113297288E+03 -0.42332872349E+03  0.54801321658E+03  0.17155986715E+03 0.  0.
        -24    2    5    5    0    0  0.13388255678E+03  0.88570715187E+01 -0.24188234093E+03  0.28724728308E+03  0.77465786385E+02 0.  0.
          5    1    3    3  501    0 -0.13256177211E+03  0.48117117298E+02 -0.25676383334E+03  0.29298060775E+03  0.47000000000E+01 0. -1.
        -13    1    4    4    0    0 -0.13740298350E+03  0.19337170884E+02 -0.60625675770E+02  0.15142317727E+03  0.00000000000E+00 0.  1.
         14    1    4    4    0    0 -0.15430779033E+02  0.33678684693E+02 -0.33660810252E+02  0.50054099643E+02  0.00000000000E+00 0. -1.
         -5    1    5    5    0  502  0.15151297787E+03 -0.10999004439E+03 -0.18144638256E+03  0.26076593350E+03  0.47000000000E+01 0.  1.
         13    1    6    6    0    0  0.15249209083E+02 -0.25040216266E+02 -0.29267582490E+02  0.41426346606E+02  0.00000000000E+00 0. -1.
        -14    1    6    6    0    0  0.11863334769E+03  0.33897287785E+02 -0.21261475844E+03  0.24582093648E+03  0.00000000000E+00 0.  1.
</event>
<event>
12    1  0.8724767E-002  0.2052420E+03  0.7818608E-02  0.1145514E+00
         21   -1    0    0  501  502  0.00000000000E+00  0.00000000000E+00  0.35291022440E+03  0.35291022440E+03  0.00000000000E+00 0. -1.
         21   -1    0    0  502  503 -0.00000000000E+00 -0.00000000000E+00 -0.13616578405E+03  0.13616578405E+03  0.00000000000E+00 0. -1.
         -6    2    1    2    0  503 -0.11177623377E+03 -0.99830269555E+00  0.21715825524E+02  0.20638763860E+03  0.17213180195E+03 0.  0.
        -24    2    3    3    0    0 -0.11684806245E+03 -0.19396393667E+02  0.65896351978E+02  0.15803247222E+03  0.81254189352E+02 0.  0.
          6    2    1    2  501    0  0.11177623377E+03  0.99830269555E+00  0.19502861483E+03  0.28268836986E+03  0.17141070796E+03 0.  0.
         24    2    5    5    0    0  0.40360322906E+02  0.55615270237E+02  0.62618764125E+02  0.12257058811E+03  0.79877565683E+02 0.  0.
          5    1    5    5  501    0  0.71415910867E+02 -0.54616967542E+02  0.13240985071E+03  0.16011778175E+03  0.47000000000E+01 0. -1.
        -11    1    6    6    0    0  0.30444006484E+02 -0.23946499534E+01 -0.70808597073E+01  0.31348212922E+02  0.00000000000E+00 0.  1.
         12    1    6    6    0    0  0.99163164221E+01  0.58009920191E+02  0.69699623832E+02  0.91222375184E+02  0.00000000000E+00 0. -1.
         -5    1    3    3    0  503  0.50718286726E+01  0.18398090971E+02 -0.44180526454E+02  0.48355166376E+02  0.47000000000E+01 0.  1.
         13    1    4    4    0    0 -0.85210833441E+02 -0.18367906229E+02  0.25357027594E+01  0.87204907565E+02  0.00000000000E+00 0. -1.
        -14    1    4    4    0    0 -0.31637229005E+02 -0.10284874373E+01  0.63360649219E+02  0.70827564655E+02  0.00000000000E+00 0.  1.
</event>
<event>
12    1  0.8724767E-002  0.2135606E+03  0.7818608E-02  0.1139037E+00
         21   -1    0    0  503  502  0.00000000000E+00  0.00000000000E+00  0.28830755225E+03  0.28830755225E+03  0.00000000000E+00 0.  1.
         21   -1    0    0  501  503 -0.00000000000E+00 -0.00000000000E+00 -0.17037597935E+03  0.17037597935E+03  0.00000000000E+00 0. -1.
          6    2    1    2  501    0 -0.78440973054E+02 -0.98694350619E+02  0.12256821630E+03  0.24507256233E+03  0.17071623256E+03 0.  0.
         24    2    3    3    0    0 -0.21530975011E+02 -0.29970041060E+02  0.12798824110E+03  0.15555583054E+03  0.80342020804E+02 0.  0.
         -6    2    1    2    0  502  0.78440973054E+02  0.98694350619E+02 -0.46366433902E+01  0.21361096927E+03  0.17237919432E+03 0.  0.
        -24    2    5    5    0    0  0.53465627099E+02  0.95285373917E+02  0.57411710290E+02  0.14647322116E+03  0.78869666376E+02 0.  0.
          5    1    3    3  501    0 -0.56909998043E+02 -0.68724309559E+02 -0.54200248061E+01  0.89516731791E+02  0.47000000000E+01 0. -1.
        -13    1    4    4    0    0 -0.15217991418E+02  0.21282633301E+02  0.83139707658E+02  0.87159329578E+02  0.00000000000E+00 0.  1.
         14    1    4    4    0    0 -0.63129835936E+01 -0.51252674362E+02  0.44848533446E+02  0.68396500958E+02  0.00000000000E+00 0. -1.
         -5    1    5    5    0  502  0.24975345955E+02  0.34089767023E+01 -0.62048353680E+02  0.67137748116E+02  0.47000000000E+01 0.  1.
         13    1    6    6    0    0  0.44570147968E+02  0.91950636578E+02  0.15323082123E+02  0.10332576882E+03  0.00000000000E+00 0. -1.
        -14    1    6    6    0    0  0.88954791311E+01  0.33347373392E+01  0.42088628166E+02  0.43147452335E+02  0.00000000000E+00 0.  1.
</event>
<event>
12    1  0.8724767E-002  0.1844803E+03  0.7818608E-02  0.1164172E+00
         21   -1    0    0  503  502  0.00000000000E+00  0.00000000000E+00  0.18382206156E+04  0.18382206156E+04  0.00000000000E+00 0. -1.
         21   -1    0    0  501  503 -0.00000000000E+00 -0.00000000000E+00 -0.24300692985E+02  0.24300692985E+02  0.00000000000E+00 0. -1.
          6    2    1    2  501    0  0.29607397767E+02 -0.52200874631E+02  0.43708473739E+03  0.47338196956E+03  0.17159805399E+03 0.  0.
         24    2    3    3    0    0 -0.28890916943E+02  0.14261267944E+02  0.13803777336E+03  0.16146780522E+03  0.77326298275E+02 0.  0.
         -6    2    1    2    0  502 -0.29607397767E+02  0.52200874631E+02  0.13768351852E+04  0.13891393390E+04  0.17444611382E+03 0.  0.
        -24    2    5    5    0    0 -0.42724664422E+02 -0.20759536353E+02  0.45714315828E+03  0.46645261067E+03  0.79635516797E+02 0.  0.
          5    1    3    3  501    0  0.58498314710E+02 -0.66462142575E+02  0.29904696403E+03  0.31191416434E+03  0.47000000000E+01 0. -1.
        -11    1    4    4    0    0 -0.51934819785E+02 -0.67134386769E+01  0.92384270330E+02  0.10619392247E+03  0.00000000000E+00 0.  1.
         12    1    4    4    0    0  0.23043902842E+02  0.20974706621E+02  0.45653503028E+02  0.55273882754E+02  0.00000000000E+00 0. -1.
         -5    1    5    5    0  502  0.13117266655E+02  0.72960410983E+02  0.91969202691E+03  0.92268672832E+03  0.47000000000E+01 0.  1.
         11    1    6    6    0    0 -0.30100167328E+02  0.15922912547E+02  0.36350357718E+03  0.36509506960E+03  0.00000000000E+00 0. -1.
        -12    1    6    6    0    0 -0.12624497095E+02 -0.36682448900E+02  0.93639581099E+02  0.10135754107E+03  0.00000000000E+00 0.  1.
</event>
<event>
12    1  0.8724767E-002  0.1840599E+03  0.7818608E-02  0.1165318E+00
         21   -1    0    0  501  502  0.00000000000E+00  0.00000000000E+00  0.29356688396E+03  0.29356688396E+03  0.00000000000E+00 0. -1.
         21   -1    0    0  502  503 -0.00000000000E+00 -0.00000000000E+00 -0.11685209436E+03  0.11685209436E+03  0.00000000000E+00 0. -1.
         -6    2    1    2    0  503  0.46540144188E+02  0.17720002327E+02  0.13241238123E+03  0.22674011884E+03  0.17719497533E+03 0.  0.
        -24    2    3    3    0    0  0.93168688195E+02  0.18573497709E+02  0.12856049236E+03  0.17970952647E+03  0.82111719201E+02 0.  0.
          6    2    1    2  501    0 -0.46540144188E+02 -0.17720002327E+02  0.44302408368E+02  0.18367885949E+03  0.17115851288E+03 0.  0.
         24    2    5    5    0    0 -0.10296679902E+02  0.52860915449E+02  0.38608705735E+02  0.10399345990E+03  0.80148047669E+02 0.  0.
          5    1    5    5  501    0 -0.36243464286E+02 -0.70580917775E+02  0.56937026335E+01  0.79685399586E+02  0.47000000000E+01 0. -1.
        -13    1    6    6    0    0  0.30313915156E+02  0.26604155486E+02  0.38318796122E+02  0.55633125721E+02  0.00000000000E+00 0.  1.
         14    1    6    6    0    0 -0.40610595058E+02  0.26256759963E+02  0.28990961301E+00  0.48360334183E+02  0.00000000000E+00 0. -1.
         -5    1    3    3    0  503 -0.46628544007E+02 -0.85349538241E+00  0.38518888711E+01  0.47030592368E+02  0.47000000000E+01 0.  1.
         11    1    4    4    0    0  0.28708520426E+02 -0.65011359662E+01 -0.44701073858E+01  0.29772903351E+02  0.00000000000E+00 0. -1.
        -12    1    4    4    0    0  0.64460167769E+02  0.25074633675E+02  0.13303059975E+03  0.14993662312E+03  0.00000000000E+00 0.  1.
</event>
<event>
12    1  0.8724767E-002  0.2872529E+03  0.7818608E-02  0.1091925E+00
         21   -1    0    0  503  502  0.00000000000E+00  0.00000000000E+00  0.31969396651E+03  0.31969396651E+03  0.00000000000E+00 0.  1.
         21   -1    0    0  501  503 -0.00000000000E+00 -0.00000000000E+00 -0.37559485615E+03  0.37559485615E+03  0.00000000000E+00 0.  1.
          6    2    1    2  501    0 -0.19707089465E+03  0.11654187919E+03 -0.22309813901E+03  0.36291978860E+03  0.17181107709E+03 0.  0.
         24    2    3    3    0    0 -0.70394075388E+02  0.21656299384E+01 -0.12533097551E+03  0.16617261280E+03  0.83339474552E+02 0.  0.
         -6    2    1    2    0  502  0.19707089465E+03 -0.11654187919E+03  0.16719724936E+03  0.33236903406E+03  0.17347999159E+03 0.  0.
        -24    2    5    5    0    0  0.22066435518E+03 -0.11198343833E+03  0.13751658015E+03  0.29389225031E+03  0.78922727177E+02 0.  0.
          5    1    3    3  501    0 -0.12667681926E+03  0.11437624925E+03 -0.97767163496E+02  0.19674717581E+03  0.47000000000E+01 0. -1.
        -13    1    4    4    0    0 -0.71626584126E+02  0.16101659252E+02 -0.13171627426E+03  0.15079392524E+03  0.00000000000E+00 0.  1.
         14    1    4    4    0    0  0.12325087380E+01 -0.13936029314E+02  0.63852987503E+01  0.15378687557E+02  0.00000000000E+00 0. -1.
         -5    1    5    5    0  502 -0.23593460535E+02 -0.45584408548E+01  0.29680669205E+02  0.38476783747E+02  0.47000000000E+01 0.  1.
         11    1    6    6    0    0  0.38308188303E+02 -0.10320320481E+02 -0.65764420011E+01  0.40215368894E+02  0.00000000000E+00 0. -1.
        -12    1    6    6    0    0  0.18235616688E+03 -0.10166311785E+03  0.14409302215E+03  0.25367688141E+03  0.00000000000E+00 0.  1.
</event>
<event>
12    1  0.8724767E-002  0.3141355E+03  0.7818608E-02  0.1078403E+00
         21   -1    0    0  501  502  0.00000000000E+00  0.00000000000E+00  0.73638859316E+02  0.73638859316E+02  0.00000000000E+00 0. -1.
         21   -1    0    0  502  503 -0.00000000000E+00 -0.00000000000E+00 -0.16363130524E+04  0.16363130524E+04  0.00000000000E+00 0.  1.
         -6    2    1    2    0  503 -0.23571350189E+03 -0.11533721197E+03 -0.11458196803E+04  0.11881009538E+04  0.17267776123E+03 0.  0.
        -24    2    3    3    0    0 -0.14853540592E+03 -0.14257196596E+03 -0.74253459225E+03  0.77457622119E+03  0.78874390337E+02 0.  0.
          6    2    1    2  501    0  0.23571350189E+03  0.11533721197E+03 -0.41685451278E+03  0.52185095791E+03  0.17232878463E+03 0.  0.
         24    2    5    5    0    0  0.70592364056E+02 -0.30463204530E+01 -0.85796874269E+02  0.13339130631E+03  0.73753474716E+02 0.  0.
          5    1    5    5  501    0  0.16512113783E+03  0.11838353242E+03 -0.33105763851E+03  0.38845965160E+03  0.47000000000E+01 0. -1.
        -13    1    6    6    0    0 -0.12729837435E+02 -0.89070700726E+01 -0.27317977814E+02  0.31427003839E+02  0.00000000000E+00 0.  1.
         14    1    6    6    0    0  0.83322201491E+02  0.58607496196E+01 -0.58478896455E+02  0.10196430247E+03  0.00000000000E+00 0. -1.
         -5    1    3    3    0  503 -0.87178095969E+02  0.27234753987E+02 -0.40328508803E+03  0.41352473260E+03  0.47000000000E+01 0.  1.
         11    1    4    4    0    0 -0.13237246337E+03 -0.98045684071E+02 -0.47184136239E+03  0.49976964343E+03  0.00000000000E+00 0. -1.
        -12    1    4    4    0    0 -0.16162942545E+02 -0.44526281886E+02 -0.27069322986E+03  0.27480657776E+03  0.00000000000E+00 0.  1.
</event>
<event>
12    1  0.8724767E-002  0.2133560E+03  0.7818608E-02  0.1138944E+00
         21   -1    0    0  501  502  0.00000000000E+00  0.00000000000E+00  0.56023638371E+03  0.56023638371E+03  0.00000000000E+00 0. -1.
         21   -1    0    0  502  503 -0.00000000000E+00 -0.00000000000E+00 -0.11653260655E+03  0.11653260655E+03  0.00000000000E+00 0.  1.
         -6    2    1    2    0  503  0.24367024117E+02 -0.12465266200E+03  0.35637695805E+02  0.21631191324E+03  0.17143150364E+03 0.  0.
        -24    2    3    3    0    0 -0.24666178228E+02 -0.29443338647E+02 -0.27326125047E+02  0.91991348082E+02  0.78995952256E+02 0.  0.
          6    2    1    2  501    0 -0.24367024117E+02  0.12465266200E+03  0.40806608135E+03  0.46045707702E+03  0.17137898069E+03 0.  0.
         24    2    5    5    0    0 -0.77395428642E+02  0.88312504459E+02  0.32799241944E+03  0.35766359440E+03  0.80963378972E+02 0.  0.
          5    1    5    5  501    0  0.53028404525E+02  0.36340157543E+02  0.80073661917E+02  0.10279348262E+03  0.47000000000E+01 0. -1.
        -11    1    6    6    0    0 -0.10763564033E+02  0.56850285020E+02  0.78515109590E+02  0.97531695625E+02  0.00000000000E+00 0.  1.
         12    1    6    6    0    0 -0.66631864609E+02  0.31462219439E+02  0.24947730984E+03  0.26013189878E+03  0.00000000000E+00 0. -1.
         -5    1    3    3    0  503  0.49033202345E+02 -0.95209323355E+02  0.62963820851E+02  0.12432056516E+03  0.47000000000E+01 0.  1.
         11    1    4    4    0    0 -0.28095944291E+02  0.72907923096E+01  0.17531976965E+02  0.33910292750E+02  0.00000000000E+00 0. -1.
        -12    1    4    4    0    0  0.34297660624E+01 -0.36734130956E+02 -0.44858102012E+02  0.58081055332E+02  0.00000000000E+00 0.  1.
</event>
<event>
12    1  0.8724767E-002  0.1928679E+03  0.7818608E-02  0.1156157E+00
         21   -1    0    0  501  502  0.00000000000E+00  0.00000000000E+00  0.36257893274E+03  0.36257893274E+03  0.00000000000E+00 0.  1.
         21   -1    0    0  502  503 -0.00000000000E+00 -0.00000000000E+00 -0.11069034836E+03  0.11069034836E+03  0.00000000000E+00 0.  1.
         -6    2    1    2    0  503  0.63853861879E+02  0.54808085424E+02  0.59208045492E+02  0.20064536458E+03  0.17225483382E+03 0.  0.
        -24    2    3    3    0    0  0.50620670588E+02  0.45902772837E+02  0.10677534738E+03  0.15025528468E+03  0.80660764458E+02 0.  0.
          6    2    1    2  501    0 -0.63853861879E+02 -0.54808085424E+02  0.19268053889E+03  0.27262391652E+03  0.17354183324E+03 0.  0.
         24    2    5    5    0    0 -0.37362594532E+02  0.25274563161E+02  0.14729589135E+03  0.17672358241E+03  0.86604722485E+02 0.  0.
          5    1    5    5  501    0 -0.26491267346E+02 -0.80082648584E+02  0.45384647539E+02  0.95900334109E+02  0.47000000000E+01 0. -1.
        -11    1    6    6    0    0 -0.36420027692E+02  0.42125738825E+02  0.41141714947E+02  0.69236096059E+02  0.00000000000E+00 0.  1.
         12    1    6    6    0    0 -0.94256684038E+00 -0.16851175665E+02  0.10615417640E+03  0.10748748635E+03  0.00000000000E+00 0. -1.
         -5    1    3    3    0  503  0.13233191291E+02  0.89053125862E+01 -0.47567301884E+02  0.50390079902E+02  0.47000000000E+01 0.  1.
         11    1    4    4    0    0  0.33807218550E+02  0.62883842659E+02  0.45949921096E+02  0.84904069056E+02  0.00000000000E+00 0. -1.
        -12    1    4    4    0    0  0.16813452038E+02 -0.16981069822E+02  0.60825426280E+02  0.65351215626E+02  0.00000000000E+00 0.  1.
</event>
<event>
12    1  0.8724767E-002  0.1938049E+03  0.7818608E-02  0.1158861E+00
         21   -1    0    0  503  502  0.00000000000E+00  0.00000000000E+00  0.18324739678E+03  0.18324739678E+03  0.00000000000E+00 0.  1.
         21   -1    0    0  501  503 -0.00000000000E+00 -0.00000000000E+00 -0.20195934600E+03  0.20195934600E+03  0.00000000000E+00 0. -1.
          6    2    1    2  501    0 -0.54075678482E+02 -0.73636221260E+02 -0.59642729098E+02  0.18712682089E+03  0.15202868110E+03 0.  0.
         24    2    3    3    0    0 -0.24939609829E+02 -0.16148798790E+02 -0.82082336613E+02  0.11872111774E+03  0.80463817781E+02 0.  0.
         -6    2    1    2    0  502  0.54075678482E+02  0.73636221260E+02  0.40930779880E+02  0.19807992188E+03  0.17092060914E+03 0.  0.
        -24    2    5    5    0    0  0.96144852461E+02  0.57892929460E+02  0.54862239538E+00  0.13749547438E+03  0.79430979806E+02 0.  0.
          5    1    3    3  501    0 -0.29136068653E+02 -0.57487422471E+02  0.22439607515E+02  0.68405703156E+02  0.47000000000E+01 0. -1.
        -13    1    4    4    0    0  0.27095143445E+02  0.79070835636E+01 -0.23133684517E+02  0.36494330082E+02  0.00000000000E+00 0.  1.
         14    1    4    4    0    0 -0.52034753274E+02 -0.24055882353E+02 -0.58948652096E+02  0.82226787654E+02  0.00000000000E+00 0. -1.
         -5    1    5    5    0  502 -0.42069173979E+02  0.15743291801E+02  0.40382157484E+02  0.60584447502E+02  0.47000000000E+01 0.  1.
         11    1    6    6    0    0  0.15230352688E+02  0.42723690543E+02  0.24772642097E+02  0.51681342601E+02  0.00000000000E+00 0. -1.
        -12    1    6    6    0    0  0.80914499773E+02  0.15169238917E+02 -0.24224019701E+02  0.85814131781E+02  0.00000000000E+00 0.  1.
</event>
<event>
12    1  0.8724767E-002  0.1743332E+03  0.7818608E-02  0.1174516E+00
         21   -1    0    0  503  502  0.00000000000E+00  0.00000000000E+00  0.10339649353E+03  0.10339649353E+03  0.00000000000E+00 0. -1.
         21   -1    0    0  501  503 -0.00000000000E+00 -0.00000000000E+00 -0.41784408142E+03  0.41784408142E+03  0.00000000000E+00 0. -1.
          6    2    1    2  501    0  0.21481994976E+02  0.31931944880E+01 -0.30461604971E+03  0.35097438265E+03  0.17297516277E+03 0.  0.
         24    2    3    3    0    0 -0.61271580912E+01  0.66576414254E+02 -0.16899097727E+03  0.19867222195E+03  0.80266682825E+02 0.  0.
         -6    2    1    2    0  502 -0.21481994976E+02 -0.31931944880E+01 -0.98315381798E+01  0.17026619230E+03  0.16858898095E+03 0.  0.
        -24    2    5    5    0    0  0.38001537879E+02  0.38672406071E+02 -0.34514485938E+01  0.97096425764E+02  0.80474415352E+02 0.  0.
          5    1    3    3  501    0  0.27609153068E+02 -0.63383219766E+02 -0.13562507244E+03  0.15230216070E+03  0.47000000000E+01 0. -1.
        -11    1    4    4    0    0  0.21637156313E+01  0.34792891699E+02 -0.99182795185E+01  0.36243609736E+02  0.00000000000E+00 0.  1.
         12    1    4    4    0    0 -0.82908737225E+01  0.31783522555E+02 -0.15907269776E+03  0.16242861221E+03  0.00000000000E+00 0. -1.
         -5    1    5    5    0  502 -0.59483532856E+02 -0.41865600559E+02 -0.63800895860E+01  0.73169766531E+02  0.47000000000E+01 0.  1.
         13    1    6    6    0    0  0.14363706012E+02  0.15854511278E+02  0.38359340978E+02  0.43921755641E+02  0.00000000000E+00 0. -1.
        -14    1    6    6    0    0  0.23637831867E+02  0.22817894792E+02 -0.41810789572E+02  0.53174670124E+02  0.00000000000E+00 0.  1.
</event>
<event>
12    1  0.8724767E-002  0.1837796E+03  0.7818608E-02  0.1164249E+00
         21   -1    0    0  503  502  0.00000000000E+00  0.00000000000E+00  0.41777212340E+03  0.41777212340E+03  0.00000000000E+00 0.  1.
         21   -1    0    0  501  503 -0.00000000000E+00 -0.00000000000E+00 -0.18064303670E+03  0.18064303670E+03  0.00000000000E+00 0.  1.
          6    2    1    2  501    0  0.63551261281E+02  0.76602467840E+01 -0.10397462623E+03  0.21095332248E+03  0.17202656531E+03 0.  0.
         24    2    3    3    0    0 -0.27570579885E+02 -0.15001526133E+02 -0.71228259891E+02  0.11139851146E+03  0.79693040385E+02 0.  0.
         -6    2    1    2    0  502 -0.63551261281E+02 -0.76602467840E+01  0.34110371293E+03  0.38746183762E+03  0.17227156019E+03 0.  0.
        -24    2    5    5    0    0 -0.34523072151E+02  0.59392842776E+02  0.15884239240E+03  0.19104383554E+03  0.80916556948E+02 0.  0.
          5    1    3    3  501    0  0.91121841167E+02  0.22661772917E+02 -0.32746366338E+02  0.99554811022E+02  0.47000000000E+01 0. -1.
        -11    1    4    4    0    0 -0.32961330763E+02  0.16268048357E+01 -0.83669619874E+02  0.89942765743E+02  0.00000000000E+00 0.  1.
         12    1    4    4    0    0  0.53907508772E+01 -0.16628330969E+02  0.12441359983E+02  0.21455745712E+02  0.00000000000E+00 0. -1.
         -5    1    5    5    0  502 -0.29028189130E+02 -0.67053089560E+02  0.18226132052E+03  0.19641800209E+03  0.47000000000E+01 0.  1.
         13    1    6    6    0    0 -0.74895073066E+01  0.91416516875E+01 -0.82923003885E+01  0.14436923530E+02  0.00000000000E+00 0. -1.
        -14    1    6    6    0    0 -0.27033564845E+02  0.50251191088E+02  0.16713469279E+03  0.17660691201E+03  0.00000000000E+00 0.  1.
</event>
<event>
12    1  0.8724767E-002  0.1847863E+03  0.7818608E-02  0.1163269E+00
         21   -1    0    0  503  502  0.00000000000E+00  0.00000000000E+00  0.64977662764E+02  0.64977662764E+02  0.00000000000E+00 0. -1.
         21   -1    0    0  501  503 -0.00000000000E+00 -0.00000000000E+00 -0.53589068917E+03  0.53589068917E+03  0.00000000000E+00 0. -1.
          6    2    1    2  501    0  0.44479477147E+02 -0.49644749244E+02 -0.27781956858E+03  0.33366104173E+03  0.17234544691E+03 0.  0.
         24    2    3    3    0    0 -0.15207677180E+02 -0.32875257669E+02 -0.57059977477E+02  0.10431270556E+03  0.79455921745E+02 0.  0.
         -6    2    1    2    0  502 -0.44479477147E+02  0.49644749244E+02 -0.19309345783E+03  0.26720731021E+03  0.17225457369E+03 0.  0.
        -24    2    5    5    0    0 -0.13716638873E+02  0.97767498965E+02 -0.12468008237E+03  0.17796252772E+03  0.79868068067E+02 0.  0.
          5    1    3    3  501    0  0.59687154327E+02 -0.16769491575E+02 -0.22075959110E+03  0.22934833617E+03  0.47000000000E+01 0. -1.
        -13    1    4    4    0    0 -0.77885901539E+01  0.21393861756E+02  0.30718491599E+01  0.22973804968E+02  0.00000000000E+00 0.  1.
         14    1    4    4    0    0 -0.74190870262E+01 -0.54269119425E+02 -0.60131826636E+02  0.81338900596E+02  0.00000000000E+00 0. -1.
         -5    1    5    5    0  502 -0.30762838274E+02 -0.48122749721E+02 -0.68413375458E+02  0.89244782486E+02  0.47000000000E+01 0.  1.
         13    1    6    6    0    0  0.64006569392E+00  0.26247726094E+02  0.72241433527E+01  0.27231251465E+02  0.00000000000E+00 0. -1.
        -14    1    6    6    0    0 -0.14356704567E+02  0.71519772871E+02 -0.13190422573E+03  0.15073127626E+03  0.00000000000E+00 0.  1.
</event>
<event>
12    1  0.8724767E-002  0.1777442E+03  0.7818608E-02  0.1170368E+00
         21   -1    0    0  501  502  0.00000000000E+00  0.00000000000E+00  0.14438228892E+04  0.14438228892E+04  0.00000000000E+00 0.  1.
         21   -1    0    0  502  503 -0.00000000000E+00 -0.00000000000E+00 -0.35058860091E+02  0.35058860091E+02  0.00000000000E+00 0.  1.
         -6    2    1    2    0  503  0.33343869207E+02 -0.14586186970E+02  0.24613491310E+03  0.30274423776E+03  0.17247349822E+03 0.  0.
        -24    2    3    3    0    0 -0.31027191713E+02 -0.29897939233E+02  0.69841967817E+02  0.11438453985E+03  0.79682802987E+02 0.  0.
          6    2    1    2  501    0 -0.33343869207E+02  0.14586186970E+02  0.11626291160E+04  0.11761375116E+04  0.17397820028E+03 0.  0.
         24    2    5    5    0    0 -0.52631673617E+02  0.66100893923E+02  0.62934355185E+03  0.64000192479E+03  0.79935825703E+02 0.  0.
          5    1    5    5  501    0  0.19287804410E+02 -0.51514706952E+02  0.53328556420E+03  0.53613558678E+03  0.47000000000E+01 0. -1.
        -13    1    6    6    0    0 -0.34902936120E+02  0.20442141455E+02  0.50099415287E+03  0.50262435010E+03  0.00000000000E+00 0.  1.
         14    1    6    6    0    0 -0.17728737497E+02  0.45658752468E+02  0.12834939898E+03  0.13737757469E+03  0.00000000000E+00 0. -1.
         -5    1    3    3    0  503  0.64371060919E+02  0.15311752262E+02  0.17629294528E+03  0.18835969791E+03  0.47000000000E+01 0.  1.
         13    1    4    4    0    0  0.69527979855E+01 -0.33224597360E+02  0.68250863532E+02  0.76225951240E+02  0.00000000000E+00 0. -1.
        -14    1    4    4    0    0 -0.37979989698E+02  0.33266581276E+01  0.15911042856E+01  0.38158588609E+02  0.00000000000E+00 0.  1.
</event>
<event>
12    1  0.8724767E-002  0.2097877E+03  0.7818608E-02  0.1141833E+00
         21   -1    0    0  503  502  0.00000000000E+00  0.00000000000E+00  0.25971187195E+03  0.25971187195E+03  0.00000000000E+00 0. -1.
         21   -1    0    0  501  503 -0.00000000000E+00 -0.00000000000E+00 -0.17276031051E+03  0.17276031051E+03  0.00000000000E+00 0. -1.
          6    2    1    2  501    0 -0.93580580719E+02 -0.71046736509E+02  0.11779118193E+02  0.20962298677E+03  0.17319955283E+03 0.  0.
         24    2    3    3    0    0 -0.98318883620E+01 -0.22617492308E+02 -0.47961869259E+02  0.95823554664E+02  0.79206033474E+02 0.  0.
         -6    2    1    2    0  502  0.93580580719E+02  0.71046736509E+02  0.75172443246E+02  0.22284919570E+03  0.17379845783E+03 0.  0.
        -24    2    5    5    0    0 -0.55092457277E+01 -0.11462766804E+02  0.39963316033E+02  0.89101730372E+02  0.78614915351E+02 0.  0.
          5    1    3    3  501    0 -0.83748692357E+02 -0.48429244201E+02  0.59740987452E+02  0.11379943210E+03  0.47000000000E+01 0. -1.
        -13    1    4    4    0    0 -0.24458465358E+02  0.13440762562E+02  0.67238172509E+01  0.28706799618E+02  0.00000000000E+00 0.  1.
         14    1    4    4    0    0  0.14626576996E+02 -0.36058254870E+02 -0.54685686510E+02  0.67116755046E+02  0.00000000000E+00 0. -1.
         -5    1    5    5    0  502  0.99089826447E+02  0.82509503313E+02  0.35209127213E+02  0.13374746533E+03  0.47000000000E+01 0.  1.
         13    1    6    6    0    0  0.33056892412E+02  0.10960301057E+02  0.14405311005E+02  0.37688185422E+02  0.00000000000E+00 0. -1.
        -14    1    6    6    0    0 -0.38566138140E+02 -0.22423067861E+02  0.25558005027E+02  0.51413544950E+02  0.00000000000E+00 0.  1.
</event>
<event>
12    1  0.8724767E-002  0.2034290E+03  0.7818608E-02  0.1146991E+00
         21   -1    0    0  503  502  0.00000000000E+00  0.00000000000E+00  0.67065370808E+02  0.67065370808E+02  0.00000000000E+00 0. -1.
         21   -1    0    0  501  503 -0.00000000000E+00 -0.00000000000E+00 -0.69124939555E+03  0.69124939555E+03  0.00000000000E+00 0. -1.
          6    2    1    2  501    0 -0.73567148727E+01 -0.10733106921E+03 -0.43807118326E+03  0.48300072627E+03  0.17265358467E+03 0.  0.
         24    2    3    3    0    0 -0.63646627825E+01 -0.12919326945E+03 -0.43507450033E+03  0.46041732361E+03  0.77219694647E+02 0.  0.
         -6    2    1    2    0  502  0.73567148727E+01  0.10733106921E+03 -0.18611284148E+03  0.27531404009E+03  0.17200509072E+03 0.  0.
        -24    2    5    5    0    0 -0.11962431691E+02  0.14657121354E+03 -0.13852735293E+03  0.21051059055E+03  0.59149478569E+02 0.  0.
          5    1    3    3  501    0 -0.99205209015E+00  0.21862200242E+02 -0.29966829301E+01  0.22583402652E+02  0.47000000000E+01 0. -1.
        -11    1    4    4    0    0  0.28046515172E+02 -0.22986956559E+02 -0.14851987073E+03  0.15288282830E+03  0.00000000000E+00 0.  1.
         12    1    4    4    0    0 -0.34411177954E+02 -0.10620631289E+03 -0.28655462960E+03  0.30753449532E+03  0.00000000000E+00 0. -1.
         -5    1    5    5    0  502  0.19319146563E+02 -0.39240144331E+02 -0.47585488551E+02  0.64803449535E+02  0.47000000000E+01 0.  1.
         11    1    6    6    0    0  0.23905299882E+02  0.48886678200E+02 -0.45680150088E+02  0.71049607880E+02  0.00000000000E+00 0. -1.
        -12    1    6    6    0    0 -0.35867731572E+02  0.97684535342E+02 -0.92847202838E+02  0.13946098267E+03  0.00000000000E+00 0.  1.
</event>
<event>
12    1  0.8724767E-002  0.2456516E+03  0.7818608E-02  0.1116258E+00
         21   -1    0    0  501  502  0.00000000000E+00  0.00000000000E+00  0.69945126091E+03  0.69945126091E+03  0.00000000000E+00 0.  1.
         21   -1    0    0  502  503 -0.00000000000E+00 -0.00000000000E+00 -0.54319957113E+03  0.54319957113E+03  0.00000000000E+00 0. -1.
         -6    2    1    2    0  503  0.16881129915E+03 -0.46114875222E+02 -0.49198817216E+03  0.54942675484E+03  0.17086123302E+03 0.  0.
        -24    2    3    3    0    0  0.12238532539E+03 -0.48849294546E+02 -0.47499646886E+03  0.49969089183E+03  0.81883578922E+02 0.  0.
          6    2    1    2  501    0 -0.16881129915E+03  0.46114875222E+02  0.64823986194E+03  0.69322407720E+03  0.17239740766E+03 0.  0.
         24    2    5    5    0    0 -0.31990698182E+02  0.46061118424E+01  0.37490697410E+03  0.38471830439E+03  0.80051942283E+02 0.  0.
          5    1    5    5  501    0 -0.13682060097E+03  0.41508763380E+02  0.27333288783E+03  0.30850577281E+03  0.47000000000E+01 0. -1.
        -11    1    6    6    0    0 -0.11565256414E+01  0.34958369911E+02  0.25204865679E+03  0.25446404573E+03  0.00000000000E+00 0.  1.
         12    1    6    6    0    0 -0.30834172540E+02 -0.30352258068E+02  0.12285831731E+03  0.13025425866E+03  0.00000000000E+00 0. -1.
         -5    1    3    3    0  503  0.46425973755E+02  0.27344193236E+01 -0.16991703296E+02  0.49735863007E+02  0.47000000000E+01 0.  1.
         11    1    4    4    0    0  0.12826358802E+03 -0.33188508532E+02 -0.36239705109E+03  0.38585573437E+03  0.00000000000E+00 0. -1.
        -12    1    4    4    0    0 -0.58782626306E+01 -0.15660786014E+02 -0.11259941778E+03  0.11383515746E+03  0.00000000000E+00 0.  1.
</event>
<event>
12    1  0.8724767E-002  0.1805289E+03  0.7818608E-02  0.1168739E+00
         21   -1    0    0  501  502  0.00000000000E+00  0.00000000000E+00  0.11124479482E+03  0.11124479482E+03  0.00000000000E+00 0.  1.
         21   -1    0    0  502  503 -0.00000000000E+00 -0.00000000000E+00 -0.29740638317E+03  0.29740638317E+03  0.00000000000E+00 0.  1.
         -6    2    1    2    0  503  0.46418868297E+02 -0.25492168774E+02 -0.13877724157E+03  0.22770548873E+03  0.17258651400E+03 0.  0.
        -24    2    3    3    0    0  0.63038037605E+02 -0.66035945983E+02 -0.54369728147E+02  0.13248619981E+03  0.79132707871E+02 0.  0.
          6    2    1    2  501    0 -0.46418868297E+02  0.25492168774E+02 -0.47384346778E+02  0.18094568927E+03  0.16640764448E+03 0.  0.
         24    2    5    5    0    0 -0.65805132884E+02  0.64543864270E+02 -0.14893237059E+02  0.12636891411E+03  0.85153203195E+02 0.  0.
          5    1    5    5  501    0  0.19386264587E+02 -0.39051695496E+02 -0.32491109719E+02  0.54576775157E+02  0.47000000000E+01 0. -1.
        -13    1    6    6    0    0 -0.48018456337E+02  0.61489126205E+02  0.25539685845E+02  0.82091170922E+02  0.00000000000E+00 0.  1.
         14    1    6    6    0    0 -0.17786676548E+02  0.30547380658E+01 -0.40432922904E+02  0.44277743188E+02  0.00000000000E+00 0. -1.
         -5    1    3    3    0  503 -0.16619169308E+02  0.40543777209E+02 -0.84407513423E+02  0.95219288913E+02  0.47000000000E+01 0.  1.
         11    1    4    4    0    0 -0.16370612489E+02  0.84387315164E+00 -0.12174909767E+02  0.20419047554E+02  0.00000000000E+00 0. -1.
        -12    1    4    4    0    0  0.79408650094E+02 -0.66879819135E+02 -0.42194818380E+02  0.11206715226E+03  0.00000000000E+00 0.  1.
</event>
<event>
12    1  0.8724767E-002  0.1809057E+03  0.7818608E-02  0.1167841E+00
         21   -1    0    0  501  502  0.00000000000E+00  0.00000000000E+00  0.21045875279E+03  0.21045875279E+03  0.00000000000E+00 0. -1.
         21   -1    0    0  502  503 -0.00000000000E+00 -0.00000000000E+00 -0.15273920547E+03  0.15273920547E+03  0.00000000000E+00 0.  1.
         -6    2    1    2    0  503 -0.47648663284E+02  0.24544795833E+02  0.19361315451E+02  0.18193879423E+03  0.17278316525E+03 0.  0.
        -24    2    3    3    0    0 -0.96834069984E+02  0.12726423301E+02  0.35744039240E+02  0.12855938059E+03  0.75571681445E+02 0.  0.
          6    2    1    2  501    0  0.47648663284E+02 -0.24544795833E+02  0.38358231873E+02  0.18125916404E+03  0.16885108374E+03 0.  0.
         24    2    5    5    0    0 -0.41525404866E+01  0.11252474777E+02  0.73411876306E+02  0.10903965640E+03  0.79727544198E+02 0.  0.
          5    1    5    5  501    0  0.51801203771E+02 -0.35797270610E+02 -0.35053644433E+02  0.72219507637E+02  0.47000000000E+01 0. -1.
        -13    1    6    6    0    0 -0.16333821466E+02  0.39375713965E+02  0.19176448163E+02  0.46743734747E+02  0.00000000000E+00 0.  1.
         14    1    6    6    0    0  0.12181280979E+02 -0.28123239188E+02  0.54235428143E+02  0.62295921653E+02  0.00000000000E+00 0. -1.
         -5    1    3    3    0  503  0.49185406700E+02  0.11818372532E+02 -0.16382723789E+02  0.53379413638E+02  0.47000000000E+01 0.  1.
         11    1    4    4    0    0 -0.11812488502E+02 -0.14272068603E+02 -0.16816982404E+02  0.25020745872E+02  0.00000000000E+00 0. -1.
        -12    1    4    4    0    0 -0.85021581483E+02  0.26998491903E+02  0.52561021644E+02  0.10353863472E+03  0.00000000000E+00 0.  1.
</event>
<event>
12    1  0.8724767E-002  0.1849863E+03  0.7818608E-02  0.1163157E+00
         21   -1    0    0  503  502  0.00000000000E+00  0.00000000000E+00  0.11745631198E+03  0.11745631198E+03  0.00000000000E+00 0.  1.
         21   -1    0    0  501  503 -0.00000000000E+00 -0.00000000000E+00 -0.35169400471E+03  0.35169400471E+03  0.00000000000E+00 0.  1.
          6    2    1    2  501    0  0.18136499571E+02 -0.66049538579E+02 -0.21490725086E+03  0.28355785319E+03  0.17183845747E+03 0.  0.
         24    2    3    3    0    0  0.48562212474E+02 -0.11574759093E+02 -0.19754534571E+03  0.21862133529E+03  0.79239264914E+02 0.  0.
         -6    2    1    2    0  502 -0.18136499571E+02  0.66049538579E+02 -0.19330441858E+02  0.18559246351E+03  0.17140426589E+03 0.  0.
        -24    2    5    5    0    0 -0.77701640446E+02  0.44712244516E+02 -0.20770487120E+02  0.12213027117E+03  0.80297324137E+02 0.  0.
          5    1    3    3  501    0 -0.30425712904E+02 -0.54474779485E+02 -0.17361905151E+02  0.64936517894E+02  0.47000000000E+01 0. -1.
        -11    1    4    4    0    0 -0.29352382133E+01  0.28298920570E+02 -0.56130282064E+02  0.62928952743E+02  0.00000000000E+00 0.  1.
         12    1    4    4    0    0  0.51497450688E+02 -0.39873679663E+02 -0.14141506365E+03  0.15569238255E+03  0.00000000000E+00 0. -1.
         -5    1    5    5    0  502  0.59565140875E+02  0.21337294062E+02  0.14400452616E+01  0.63462192333E+02  0.47000000000E+01 0.  1.
         13    1    6    6    0    0 -0.48041248967E+01  0.89652401783E+01 -0.37824344014E+02  0.39168050087E+02  0.00000000000E+00 0. -1.
        -14    1    6    6    0    0 -0.72897515549E+02  0.35747004338E+02  0.17053856894E+02  0.82962221085E+02  0.00000000000E+00 0.  1.
</event>
<event>
12    1  0.8724767E-002  0.3184020E+03  0.7818608E-02  0.1076410E+00
         21   -1    0    0  501  502  0.00000000000E+00  0.00000000000E+00  0.13293258399E+03  0.13293258399E+03  0.00000000000E+00 0. -1.
         21   -1    0    0  502  503 -0.00000000000E+00 -0.00000000000E+00 -0.95052005986E+03  0.95052005986E+03  0.00000000000E+00 0.  1.
         -6    2    1    2    0  503 -0.16997805442E+03  0.20688855232E+03 -0.65004924091E+03  0.72383966041E+03  0.17229168964E+03 0.  0.
        -24    2    3    3    0    0 -0.88660541499E+02  0.98504426862E+02 -0.19721059247E+03  0.25114040288E+03  0.81336771785E+02 0.  0.
          6    2    1    2  501    0  0.16997805442E+03 -0.20688855232E+03 -0.16753823497E+03  0.35961298344E+03  0.17192156821E+03 0.  0.
         24    2    5    5    0    0  0.10309447270E+03 -0.13693353518E+03 -0.31266576732E+02  0.19240301733E+03  0.81621436519E+02 0.  0.
          5    1    5    5  501    0  0.66883581714E+02 -0.69955017139E+02 -0.13627165824E+03  0.16720996610E+03  0.47000000000E+01 0. -1.
        -13    1    6    6    0    0  0.46095641471E+02 -0.14805729086E+02 -0.31258121120E+02  0.57628880888E+02  0.00000000000E+00 0.  1.
         14    1    6    6    0    0  0.56998831234E+02 -0.12212780609E+03 -0.84556118626E-02  0.13477413645E+03  0.00000000000E+00 0. -1.
         -5    1    3    3    0  503 -0.81317512920E+02  0.10838412546E+03 -0.45283864844E+03  0.47269925754E+03  0.47000000000E+01 0.  1.
         11    1    4    4    0    0 -0.74918475570E+01  0.52857374760E+02 -0.11553938681E+03  0.12727678402E+03  0.00000000000E+00 0. -1.
        -12    1    4    4    0    0 -0.81168693942E+02  0.45647052101E+02 -0.81671205657E+02  0.12386361885E+03  0.00000000000E+00 0.  1.
</event>
<event>
12    1  0.8724767E-002  0.1933982E+03  0.7818608E-02  0.1155808E+00
         21   -1    0    0  503  502  0.00000000000E+00  0.00000000000E+00  0.21644244003E+03  0.21644244003E+03  0.00000000000E+00 0.  1.
         21   -1    0    0  501  503 -0.00000000000E+00 -0.00000000000E+00 -0.19658921477E+03  0.19658921477E+03  0.00000000000E+00 0.  1.
          6    2    1    2  501    0 -0.77129422526E+02  0.29415177187E+02 -0.64190265321E+02  0.20216158652E+03  0.17301652070E+03 0.  0.
         24    2    3    3    0    0 -0.75082736316E+02 -0.18797597035E+02 -0.93638321422E+02  0.14543470991E+03  0.79952189838E+02 0.  0.
         -6    2    1    2    0  502  0.77129422526E+02 -0.29415177187E+02  0.84043490577E+02  0.21087006827E+03  0.17489618897E+03 0.  0.
        -24    2    5    5    0    0  0.33970198442E+01 -0.69793587360E+02  0.35686760837E+02  0.11377554462E+03  0.82393234389E+02 0.  0.
          5    1    3    3  501    0 -0.20466862097E+01  0.48212774221E+02  0.29448056101E+02  0.56726876617E+02  0.47000000000E+01 0. -1.
        -13    1    4    4    0    0 -0.91678960272E+02 -0.92889362245E+01 -0.77078769305E+02  0.12013514378E+03  0.00000000000E+00 0.  1.
         14    1    4    4    0    0  0.16596223956E+02 -0.95086608101E+01 -0.16559552117E+02  0.25299566129E+02  0.00000000000E+00 0. -1.
         -5    1    5    5    0  502  0.73732402681E+02  0.40378410174E+02  0.48356729739E+02  0.97094523658E+02  0.47000000000E+01 0.  1.
         13    1    6    6    0    0 -0.15230442466E+02 -0.17419250380E+02  0.51096080798E+02  0.56091052178E+02  0.00000000000E+00 0. -1.
        -14    1    6    6    0    0  0.18627462310E+02 -0.52374336980E+02 -0.15409319960E+02  0.57684492438E+02  0.00000000000E+00 0.  1.
</event>
<event>
12    1  0.8724767E-002  0.1755835E+03  0.7818608E-02  0.1172599E+00
         21   -1    0    0  503  502  0.00000000000E+00  0.00000000000E+00  0.10159494830E+03  0.10159494830E+03  0.00000000000E+00 0. -1.
         21   -1    0    0  501  503 -0.00000000000E+00 -0.00000000000E+00 -0.50527194135E+03  0.50527194135E+03  0.00000000000E+00 0. -1.
          6    2    1    2  501    0  0.90795281681E+01  0.15843763667E+02 -0.39445567579E+03  0.43104145623E+03  0.17282359257E+03 0.  0.
         24    2    3    3    0    0  0.44546485471E+02  0.64025184684E+02 -0.28676714317E+03  0.30776021496E+03  0.79983384959E+02 0.  0.
         -6    2    1    2    0  502 -0.90795281681E+01 -0.15843763667E+02 -0.92213172670E+01  0.17582543342E+03  0.17463129063E+03 0.  0.
        -24    2    5    5    0    0 -0.45613299808E+02 -0.61998533606E+02  0.12676159669E+02  0.11284473198E+03  0.81540525030E+02 0.  0.
          5    1    3    3  501    0 -0.35466957302E+02 -0.48181421017E+02 -0.10768853262E+03  0.12328124127E+03  0.47000000000E+01 0. -1.
        -11    1    4    4    0    0  0.53314462255E+02  0.26035257161E+02 -0.94515857088E+02  0.11159531237E+03  0.00000000000E+00 0.  1.
         12    1    4    4    0    0 -0.87679767846E+01  0.37989927524E+02 -0.19225128608E+03  0.19616490259E+03  0.00000000000E+00 0. -1.
         -5    1    5    5    0  502  0.36533771639E+02  0.46154769939E+02 -0.21897476936E+02  0.62980701445E+02  0.47000000000E+01 0.  1.
         11    1    6    6    0    0  0.12004896150E+02  0.12705448526E+02  0.50479018706E+01  0.18194154752E+02  0.00000000000E+00 0. -1.
        -12    1    6    6    0    0 -0.57618195958E+02 -0.74703982132E+02  0.76282577984E+01  0.94650577224E+02  0.00000000000E+00 0.  1.
</event>
<event>
12    1  0.8724767E-002  0.2883287E+03  0.7818608E-02  0.1091444E+00
         21   -1    0    0  501  502  0.00000000000E+00  0.00000000000E+00  0.78355180008E+03  0.78355180008E+03  0.00000000000E+00 0.  1.
         21   -1    0    0  502  503 -0.00000000000E+00 -0.00000000000E+00 -0.13354294118E+03  0.13354294118E+03  0.00000000000E+00 0.  1.
         -6    2    1    2    0  503 -0.19190162996E+03  0.12553546789E+03  0.11557604161E+03  0.31063038475E+03  0.17477993379E+03 0.  0.
        -24    2    3    3    0    0 -0.22645441318E+02  0.14482803099E+02  0.17038035807E+02  0.85436733998E+02  0.79287913669E+02 0.  0.
          6    2    1    2  501    0  0.19190162996E+03 -0.12553546789E+03  0.53443281729E+03  0.60646435650E+03  0.17203252669E+03 0.  0.
         24    2    5    5    0    0  0.12543382287E+03 -0.21431630509E+02  0.20236477533E+03  0.25213844322E+03  0.80183125088E+02 0.  0.
          5    1    5    5  501    0  0.66467807094E+02 -0.10410383738E+03  0.33206804196E+03  0.35432591329E+03  0.47000000000E+01 0. -1.
        -13    1    6    6    0    0  0.42070706204E+02 -0.45434876158E+02  0.65837836706E+02  0.90381928692E+02  0.00000000000E+00 0.  1.
         14    1    6    6    0    0  0.83363116662E+02  0.24003245650E+02  0.13652693862E+03  0.16175651452E+03  0.00000000000E+00 0. -1.
         -5    1    3    3    0  503 -0.16925618864E+03  0.11105266479E+03  0.98538005804E+02  0.22519365075E+03  0.47000000000E+01 0.  1.
         13    1    4    4    0    0 -0.99038859844E+01 -0.11668464361E+02  0.43498546152E+02  0.46112509533E+02  0.00000000000E+00 0. -1.
        -14    1    4    4    0    0 -0.12741555333E+02  0.26151267460E+02 -0.26460510344E+02  0.39324224465E+02  0.00000000000E+00 0.  1.
</event>
<event>
12    1  0.8724767E-002  0.1947301E+03  0.7818608E-02  0.1154300E+00
         21   -1    0    0  503  502  0.00000000000E+00  0.00000000000E+00  0.54779277941E+02  0.54779277941E+02  0.00000000000E+00 0.  1.
         21   -1    0    0  501  503 -0.00000000000E+00 -0.00000000000E+00 -0.69174165870E+03  0.69174165870E+03  0.00000000000E+00 0.  1.
          6    2    1    2  501    0 -0.52430154603E+01  0.92389388595E+02 -0.31350687840E+03  0.36897190167E+03  0.17114442172E+03 0.  0.
         24    2    3    3    0    0 -0.47652588960E+02  0.31460508262E+02 -0.25674216454E+03  0.27540255240E+03  0.81666970095E+02 0.  0.
         -6    2    1    2    0  502  0.52430154603E+01 -0.92389388595E+02 -0.32345550237E+03  0.37754903497E+03  0.17133745493E+03 0.  0.
        -24    2    5    5    0    0  0.81399025635E+01  0.20871690034E+01 -0.66690930091E+02  0.10389898936E+03  0.79225662160E+02 0.  0.
          5    1    3    3  501    0  0.42409573500E+02  0.60928880333E+02 -0.56764713862E+02  0.93569349270E+02  0.47000000000E+01 0. -1.
        -11    1    4    4    0    0 -0.51529069499E+02  0.35283902563E+02 -0.95738588760E+02  0.11430693838E+03  0.00000000000E+00 0.  1.
         12    1    4    4    0    0  0.38764805389E+01 -0.38233943015E+01 -0.16100357578E+03  0.16109561402E+03  0.00000000000E+00 0. -1.
         -5    1    5    5    0  502 -0.28968871033E+01 -0.94476557598E+02 -0.25676457227E+03  0.27365004562E+03  0.47000000000E+01 0.  1.
         13    1    6    6    0    0 -0.17771774328E+02 -0.32147457776E+02 -0.31134097165E+02  0.48152123635E+02  0.00000000000E+00 0. -1.
        -14    1    6    6    0    0  0.25911676892E+02  0.34234626779E+02 -0.35556832925E+02  0.55746865721E+02  0.00000000000E+00 0.  1.
</event>
<event>
12    1  0.8724767E-002  0.1859636E+03  0.7818608E-02  0.1162455E+00
         21   -1    0    0  501  502  0.00000000000E+00  0.00000000000E+00  0.45346596109E+02  0.45346596109E+02  0.00000000000E+00 0. -1.
         21   -1    0    0  502  503 -0.00000000000E+00 -0.00000000000E+00 -0.90163026298E+03  0.90163026298E+03  0.00000000000E+00 0.  1.
         -6    2    1    2    0  503  0.65819659604E+02 -0.17859527570E+02 -0.61631127833E+03  0.64338306165E+03  0.17161288387E+03 0.  0.
        -24    2    3    3    0    0  0.52895898256E+02 -0.59749390736E+02 -0.24821857127E+03  0.27265928950E+03  0.79766304200E+02 0.  0.
          6    2    1    2  501    0 -0.65819659604E+02  0.17859527570E+02 -0.23997238854E+03  0.30359379744E+03  0.17300652087E+03 0.  0.
         24    2    5    5    0    0  0.20197847632E+02  0.31310134211E+02 -0.15711844749E+03  0.18331580312E+03  0.86776722549E+02 0.  0.
          5    1    5    5  501    0 -0.86017507237E+02 -0.13450606641E+02 -0.82853941050E+02  0.12027799432E+03  0.47000000000E+01 0. -1.
        -13    1    6    6    0    0 -0.21694064623E+02  0.26797594390E+01 -0.11589939680E+03  0.11794271376E+03  0.00000000000E+00 0.  1.
         14    1    6    6    0    0  0.41891912256E+02  0.28630374772E+02 -0.41219050695E+02  0.65373089358E+02  0.00000000000E+00 0. -1.
         -5    1    3    3    0  503  0.12923761348E+02  0.41889863166E+02 -0.36809270706E+03  0.37072377215E+03  0.47000000000E+01 0.  1.
         13    1    4    4    0    0 -0.14450282144E+02 -0.27480823480E+02 -0.35233833059E+02  0.46961998522E+02  0.00000000000E+00 0. -1.
        -14    1    4    4    0    0  0.67346180400E+02 -0.32268567256E+02 -0.21298473821E+03  0.22569729098E+03  0.00000000000E+00 0.  1.
</event>
<event>
12    1  0.8724767E-002  0.2147986E+03  0.7818608E-02  0.1137883E+00
         21   -1    0    0  503  502  0.00000000000E+00  0.00000000000E+00  0.92165971899E+02  0.92165971899E+02  0.00000000000E+00 0.  1.
         21   -1    0    0  501  503 -0.00000000000E+00 -0.00000000000E+00 -0.50978145766E+03  0.50978145766E+03  0.00000000000E+00 0.  1.
          6    2    1    2  501    0  0.63492447926E+02 -0.11133815248E+03 -0.25066215288E+03  0.32989622995E+03  0.17196666104E+03 0.  0.
         24    2    3    3    0    0  0.11867528861E+02  0.99066905874E+01 -0.96418425325E+02  0.12697096852E+03  0.81154995804E+02 0.  0.
         -6    2    1    2    0  502 -0.63492447926E+02  0.11133815248E+03 -0.16695333289E+03  0.27205119962E+03  0.17236868831E+03 0.  0.
        -24    2    5    5    0    0  0.32216089534E+02  0.63792099515E+02 -0.76616835453E+02  0.13203861424E+03  0.80353890945E+02 0.  0.
          5    1    3    3  501    0  0.51624919065E+02 -0.12124484306E+03 -0.15424372755E+03  0.20292526143E+03  0.47000000000E+01 0. -1.
        -13    1    4    4    0    0  0.97129013707E+01 -0.25597445808E+02 -0.36540930211E+01  0.27621044164E+02  0.00000000000E+00 0.  1.
         14    1    4    4    0    0  0.21546274902E+01  0.35504136395E+02 -0.92764332304E+02  0.99349924351E+02  0.00000000000E+00 0. -1.
         -5    1    5    5    0  502 -0.95708537460E+02  0.47546052961E+02 -0.90336497437E+02  0.14001258538E+03  0.47000000000E+01 0.  1.
         11    1    6    6    0    0 -0.20743106342E+02 -0.55786567978E+00 -0.30206504475E+02  0.36647245291E+02  0.00000000000E+00 0. -1.
        -12    1    6    6    0    0  0.52959195876E+02  0.64349965195E+02 -0.46410330978E+02  0.95391368948E+02  0.00000000000E+00 0.  1.
</event>
<event>
12    1  0.8724767E-002  0.2388225E+03  0.7818608E-02  0.1120634E+00
         21   -1    0    0  501  502  0.00000000000E+00  0.00000000000E+00  0.68982290326E+03  0.68982290326E+03  0.00000000000E+00 0. -1.
         21   -1    0    0  502  503 -0.00000000000E+00 -0.00000000000E+00 -0.17279726406E+03  0.17279726406E+03  0.00000000000E+00 0.  1.
         -6    2    1    2    0  503 -0.14673504432E+01  0.16557704539E+03 -0.53069471060E+02  0.24464780219E+03  0.17209958536E+03 0.  0.
        -24    2    3    3    0    0  0.62979189177E+00  0.14810530959E+02  0.91983040176E+01  0.81447600929E+02  0.79557239992E+02 0.  0.
          6    2    1    2  501    0  0.14673504432E+01 -0.16557704539E+03  0.57009511026E+03  0.61797236513E+03  0.17164934675E+03 0.  0.
         24    2    5    5    0    0  0.41359583843E+01 -0.61762632448E+02  0.12627979062E+03  0.16214489585E+03  0.80701008736E+02 0.  0.
          5    1    5    5  501    0 -0.26686079411E+01 -0.10381441294E+03  0.44381531964E+03  0.45582746928E+03  0.47000000000E+01 0. -1.
        -11    1    6    6    0    0 -0.37551672830E+02 -0.37860596121E+02  0.59898942180E+02  0.80196235231E+02  0.00000000000E+00 0.  1.
         12    1    6    6    0    0  0.41687631215E+02 -0.23902036327E+02  0.66380848442E+02  0.81948660616E+02  0.00000000000E+00 0. -1.
         -5    1    3    3    0  503 -0.20971423350E+01  0.15076651443E+03 -0.62267775077E+02  0.16320020127E+03  0.47000000000E+01 0.  1.
         13    1    4    4    0    0  0.24741366503E+02  0.32545144941E+02  0.24675526206E+02  0.47751474000E+02  0.00000000000E+00 0. -1.
        -14    1    4    4    0    0 -0.24111574611E+02 -0.17734613982E+02 -0.15477222189E+02  0.33696126929E+02  0.00000000000E+00 0.  1.
</event>
<event>
12    1  0.8724767E-002  0.1737937E+03  0.7818608E-02  0.1174722E+00
         21   -1    0    0  501  502  0.00000000000E+00  0.00000000000E+00  0.11790308075E+04  0.11790308075E+04  0.00000000000E+00 0.  1.
         21   -1    0    0  502  503 -0.00000000000E+00 -0.00000000000E+00 -0.66512838162E+02  0.66512838162E+02  0.00000000000E+00 0.  1.
         -6    2    1    2    0  503  0.10620990374E+02 -0.13782227741E+02  0.67143567108E+02  0.18631294728E+03  0.17292050336E+03 0.  0.
        -24    2    3    3    0    0 -0.26989749050E+02  0.38769606613E+02  0.76992397804E+02  0.12077400862E+03  0.80168590412E+02 0.  0.
          6    2    1    2  501    0 -0.10620990374E+02  0.13782227741E+02  0.10453744022E+04  0.10592306984E+04  0.16988018226E+03 0.  0.
         24    2    5    5    0    0 -0.71254576998E+02  0.19271491841E+02  0.73518835379E+03  0.74309142766E+03  0.78957894935E+02 0.  0.
          5    1    5    5  501    0  0.60633586624E+02 -0.54892641000E+01  0.31018604843E+03  0.31613927071E+03  0.47000000000E+01 0. -1.
        -11    1    6    6    0    0 -0.18514594124E+02 -0.21922981197E+02  0.41464934425E+03  0.41564105426E+03  0.00000000000E+00 0.  1.
         12    1    6    6    0    0 -0.52739982874E+02  0.41194473038E+02  0.32053900954E+03  0.32745037340E+03  0.00000000000E+00 0. -1.
         -5    1    3    3    0  503  0.37610739424E+02 -0.52551834354E+02 -0.98488306956E+01  0.65538938655E+02  0.47000000000E+01 0.  1.
         11    1    4    4    0    0 -0.26551837561E+02 -0.11510219850E+02  0.61811411310E+02  0.68250537046E+02  0.00000000000E+00 0. -1.
        -12    1    4    4    0    0 -0.43791148867E+00  0.50279826463E+02  0.15180986493E+02  0.52523471577E+02  0.00000000000E+00 0.  1.
</event>
<event>
12    1  0.8724767E-002  0.2146984E+03  0.7818608E-02  0.1138011E+00
         21   -1    0    0  501  502  0.00000000000E+00  0.00000000000E+00  0.56935112634E+03  0.56935112634E+03  0.00000000000E+00 0. -1.
         21   -1    0    0  502  503 -0.00000000000E+00 -0.00000000000E+00 -0.16468639338E+03  0.16468639338E+03  0.00000000000E+00 0. -1.
         -6    2    1    2    0  503  0.73945173507E+02  0.10349785280E+03 -0.59835161180E+02  0.22231928500E+03  0.17223798580E+03 0.  0.
        -24    2    3    3    0    0  0.62811749106E+02  0.29331687971E+02 -0.99061894727E+02  0.13755254761E+03  0.65587960949E+02 0.  0.
          6    2    1    2  501    0 -0.73945173507E+02 -0.10349785280E+03  0.46449989415E+03  0.51171823471E+03  0.17296157336E+03 0.  0.
         24    2    5    5    0    0  0.16592112528E+02 -0.31073218770E+02  0.12068975679E+03  0.14885486053E+03  0.79692590535E+02 0.  0.
          5    1    5    5  501    0 -0.90537286035E+02 -0.72424634028E+02  0.34381013735E+03  0.36286337418E+03  0.47000000000E+01 0. -1.
        -11    1    6    6    0    0 -0.23827879116E+02 -0.24588234175E+02  0.18827939376E+02  0.39074804979E+02  0.00000000000E+00 0.  1.
         12    1    6    6    0    0  0.40419991643E+02 -0.64849845951E+01  0.10186181742E+03  0.10978005555E+03  0.00000000000E+00 0. -1.
         -5    1    3    3    0  503  0.11133424401E+02  0.74166164827E+02  0.39226733547E+02  0.84766737396E+02  0.47000000000E+01 0.  1.
         13    1    4    4    0    0  0.44487902951E+02  0.47465807885E+02 -0.88154592616E+02  0.10956006858E+03  0.00000000000E+00 0. -1.
        -14    1    4    4    0    0  0.18323846156E+02 -0.18134119914E+02 -0.10907302111E+02  0.27992479032E+02  0.00000000000E+00 0.  1.
</event>
<event>
12    1  0.8724767E-002  0.1920738E+03  0.7818608E-02  0.1157122E+00
         21   -1    0    0  503  502  0.00000000000E+00  0.00000000000E+00  0.32031833682E+03  0.32031833682E+03  0.00000000000E+00 0.  1.
         21   -1    0    0  501  503 -0.00000000000E+00 -0.00000000000E+00 -0.25764431269E+03  0.25764431269E+03  0.00000000000E+00 0.  1.
          6    2    1    2  501    0  0.83081830067E+02  0.50326904349E+00 -0.18451060154E+03  0.26633907135E+03  0.17317475300E+03 0.  0.
         24    2    3    3    0    0  0.10125863652E+03  0.14568328497E+02 -0.20020261401E+03  0.23811582834E+03  0.78437958834E+02 0.  0.
         -6    2    1    2    0  502 -0.83081830067E+02 -0.50326904349E+00  0.24718462568E+03  0.31162357817E+03  0.17060530921E+03 0.  0.
        -24    2    5    5    0    0 -0.90780668707E+02  0.25738371537E+01  0.26520297414E+03  0.29123996758E+03  0.78995865552E+02 0.  0.
          5    1    3    3  501    0 -0.18176806456E+02 -0.14065059453E+02  0.15692012467E+02  0.28223243003E+02  0.47000000000E+01 0. -1.
        -13    1    4    4    0    0  0.43319119817E+01  0.28539741213E+02 -0.29214241031E+02  0.41070112842E+02  0.00000000000E+00 0.  1.
         14    1    4    4    0    0  0.96926724541E+02 -0.13971412716E+02 -0.17098837298E+03  0.19704571550E+03  0.00000000000E+00 0. -1.
         -5    1    5    5    0  502  0.76988386396E+01 -0.30771061972E+01 -0.18018348467E+02  0.20383610583E+02  0.47000000000E+01 0.  1.
         11    1    6    6    0    0  0.11975956135E+02 -0.11428518544E+02  0.32455463997E+02  0.36433387225E+02  0.00000000000E+00 0. -1.
        -12    1    6    6    0    0 -0.10275662484E+03  0.14002355697E+02  0.23274751015E+03  0.25480658036E+03  0.00000000000E+00 0.  1.
</event>
<event>
12    1  0.8724767E-002  0.2047250E+03  0.7818608E-02  0.1145956E+00
         21   -1    0    0  503  502  0.00000000000E+00  0.00000000000E+00  0.66685879223E+03  0.66685879223E+03  0.00000000000E+00 0.  1.
         21   -1    0    0  501  503 -0.00000000000E+00 -0.00000000000E+00 -0.81412451174E+02  0.81412451174E+02  0.00000000000E+00 0.  1.
          6    2    1    2  501    0  0.93011581571E+02  0.61136987773E+02  0.11266571475E+03  0.23306852010E+03  0.17099264955E+03 0.  0.
         24    2    3    3    0    0  0.12259655172E+03  0.44033620970E+02  0.12290329254E+03  0.19708666893E+03  0.82274306350E+02 0.  0.
         -6    2    1    2    0  502 -0.93011581571E+02 -0.61136987773E+02  0.47278062630E+03  0.51520272330E+03  0.17182386304E+03 0.  0.
        -24    2    5    5    0    0 -0.46522853836E+01 -0.19890547253E+02  0.34289170975E+03  0.35271624780E+03  0.80104614201E+02 0.  0.
          5    1    3    3  501    0 -0.29584970144E+02  0.17103366802E+02 -0.10237577791E+02  0.35981851167E+02  0.47000000000E+01 0. -1.
        -11    1    4    4    0    0  0.25653565004E+02  0.14667800716E+02 -0.88951486231E+01  0.30860548347E+02  0.00000000000E+00 0.  1.
         12    1    4    4    0    0  0.96942986711E+02  0.29365820255E+02  0.13179844116E+03  0.16622612059E+03  0.00000000000E+00 0. -1.
         -5    1    5    5    0  502 -0.88359296188E+02 -0.41246440519E+02  0.12988891656E+03  0.16248647551E+03  0.47000000000E+01 0.  1.
         11    1    6    6    0    0 -0.12224429922E+02  0.27515927857E+02  0.19271281212E+03  0.19505073937E+03  0.00000000000E+00 0. -1.
        -12    1    6    6    0    0  0.75721445379E+01 -0.47406475110E+02  0.15017889763E+03  0.15766550843E+03  0.00000000000E+00 0.  1.
</event>
<event>
12    1  0.8724767E-002  0.3075009E+03  0.7818608E-02  0.1081792E+00
         21   -1    0    0  503  502  0.00000000000E+00  0.00000000000E+00  0.73338296084E+02  0.73338296084E+02  0.00000000000E+00 0.  1.
         21   -1    0    0  501  503 -0.00000000000E+00 -0.00000000000E+00 -0.13727260181E+04  0.13727260181E+04  0.00000000000E+00 0. -1.
          6    2    1    2  501    0  0.22663721675E+03 -0.11077863101E+03 -0.83465211503E+03  0.88880674651E+03  0.17232801980E+03 0.  0.
         24    2    3    3    0    0  0.51647413779E+02 -0.83032886704E+02 -0.27906363757E+03  0.30563275553E+03  0.77284874411E+02 0.  0.
         -6    2    1    2    0  502 -0.22663721675E+03  0.11077863101E+03 -0.46473560700E+03  0.55725756769E+03  0.17584219980E+03 0.  0.
        -24    2    5    5    0    0 -0.73886214157E+02  0.10709486524E+03 -0.26397781656E+03  0.30492401989E+03  0.79786511817E+02 0.  0.
          5    1    3    3  501    0  0.17498980297E+03 -0.27745744306E+02 -0.55558847745E+03  0.58317399098E+03  0.47000000000E+01 0. -1.
        -13    1    4    4    0    0  0.46618930244E+02 -0.91148371528E+02 -0.18798740797E+03  0.21405750593E+03  0.00000000000E+00 0.  1.
         14    1    4    4    0    0  0.50284835352E+01  0.81154848246E+01 -0.91076229606E+02  0.91575249603E+02  0.00000000000E+00 0. -1.
         -5    1    5    5    0  502 -0.15275100259E+03  0.36837657729E+01 -0.20075779044E+03  0.25233354780E+03  0.47000000000E+01 0.  1.
         13    1    6    6    0    0  0.59771844960E+01  0.21004282837E+02 -0.10518123540E+03  0.10742438695E+03  0.00000000000E+00 0. -1.
        -14    1    6    6    0    0 -0.79863398653E+02  0.86090582400E+02 -0.15879658116E+03  0.19749963294E+03  0.00000000000E+00 0.  1.
</event>
<event>
12    1  0.8724767E-002  0.1889021E+03  0.7818608E-02  0.1160649E+00
         21   -1    0    0  503  502  0.00000000000E+00  0.00000000000E+00  0.20371560183E+03  0.20371560183E+03  0.00000000000E+00 0.  1.
         21   -1    0    0  501  503 -0.00000000000E+00 -0.00000000000E+00 -0.17112690635E+03  0.17112690635E+03  0.00000000000E+00 0.  1.
          6    2    1    2  501    0 -0.11865274182E+02 -0.62155990662E+02  0.38319373257E+01  0.18376413230E+03  0.17248310257E+03 0.  0.
         24    2    3    3    0    0  0.61595956873E+02 -0.37698552427E+02 -0.17889079164E+02  0.10321221544E+03  0.71536700404E+02 0.  0.
         -6    2    1    2    0  502  0.11865274182E+02  0.62155990662E+02  0.28756758149E+02  0.19107837588E+03  0.17798832176E+03 0.  0.
        -24    2    5    5    0    0 -0.24977260502E+02  0.96432099421E+02  0.48806770563E+02  0.13670635190E+03  0.79896886395E+02 0.  0.
          5    1    3    3  501    0 -0.73461231055E+02 -0.24457438235E+02  0.21721016490E+02  0.80551916864E+02  0.47000000000E+01 0. -1.
        -13    1    4    4    0    0  0.50567430941E+00 -0.19024130442E+02  0.21067169999E+02  0.28390119714E+02  0.00000000000E+00 0.  1.
         14    1    4    4    0    0  0.61090282564E+02 -0.18674421985E+02 -0.38956249163E+02  0.74822095727E+02  0.00000000000E+00 0. -1.
         -5    1    5    5    0  502  0.36842534683E+02 -0.34276108759E+02 -0.20050012414E+02  0.54372023977E+02  0.47000000000E+01 0.  1.
         13    1    6    6    0    0  0.18700794843E+02 -0.46348097505E+00 -0.21638839542E+01  0.18831275479E+02  0.00000000000E+00 0. -1.
        -14    1    6    6    0    0 -0.43678055345E+02  0.96895580396E+02  0.50970654517E+02  0.11787507642E+03  0.00000000000E+00 0.  1.
</event>
<event>
12    1  0.8724767E-002  0.1945646E+03  0.7818608E-02  0.1154447E+00
         21   -1    0    0  501  502  0.00000000000E+00  0.00000000000E+00  0.36804439480E+03  0.36804439480E+03  0.00000000000E+00 0. -1.
         21   -1    0    0  502  503 -0.00000000000E+00 -0.00000000000E+00 -0.11062677397E+03  0.11062677397E+03  0.00000000000E+00 0. -1.
         -6    2    1    2    0  503  0.69133785790E+02 -0.58579584078E+02  0.64829177070E+02  0.20490908800E+03  0.17197053276E+03 0.  0.
        -24    2    3    3    0    0 -0.13245097760E+02 -0.74208537711E+02  0.61098029868E+02  0.12084627752E+03  0.72031339381E+02 0.  0.
          6    2    1    2  501    0 -0.69133785790E+02  0.58579584078E+02  0.19258844376E+03  0.27376208077E+03  0.17217526010E+03 0.  0.
         24    2    5    5    0    0 -0.53930994206E+02  0.10344017117E+03  0.11189913311E+03  0.18007936092E+03  0.79364595949E+02 0.  0.
          5    1    5    5  501    0 -0.15202791584E+02 -0.44860587096E+02  0.80689310644E+02  0.93682719851E+02  0.47000000000E+01 0. -1.
        -13    1    6    6    0    0 -0.20995926544E+02  0.34079326383E+01 -0.58936003500E+01  0.22072096896E+02  0.00000000000E+00 0.  1.
         14    1    6    6    0    0 -0.32935067662E+02  0.10003223854E+03  0.11779273346E+03  0.15800726403E+03  0.00000000000E+00 0. -1.
         -5    1    3    3    0  503  0.82378883550E+02  0.15628953633E+02  0.37311472019E+01  0.84062810481E+02  0.47000000000E+01 0.  1.
         13    1    4    4    0    0  0.25310121096E+02 -0.47103967381E+02  0.16500991645E+02  0.55961314300E+02  0.00000000000E+00 0. -1.
        -14    1    4    4    0    0 -0.38555218857E+02 -0.27104570329E+02  0.44597038223E+02  0.64884963220E+02  0.00000000000E+00 0.  1.
</event>
<event>
12    1  0.8724767E-002  0.2035103E+03  0.7818608E-02  0.1148261E+00
         21   -1    0    0  503  502  0.00000000000E+00  0.00000000000E+00  0.23741297811E+03  0.23741297811E+03  0.00000000000E+00 0. -1.
         21   -1    0    0  501  503 -0.00000000000E+00 -0.00000000000E+00 -0.19919142194E+03  0.19919142194E+03  0.00000000000E+00 0. -1.
          6    2    1    2  501    0  0.37141620121E+01  0.95816495745E+02 -0.66177504029E+02  0.21399980700E+03  0.17950448324E+03 0.  0.
         24    2    3    3    0    0 -0.20066589711E+02 -0.19616484552E+02 -0.72204121123E+01  0.82135005863E+02  0.76854084785E+02 0.  0.
         -6    2    1    2    0  502 -0.37141620121E+01 -0.95816495745E+02  0.10439906020E+03  0.22260459305E+03  0.17163637499E+03 0.  0.
        -24    2    5    5    0    0  0.58171396251E+02 -0.62327435588E+02  0.96602432598E+02  0.15165237762E+03  0.79986205596E+02 0.  0.
          5    1    3    3  501    0  0.23780751723E+02  0.11543298030E+03 -0.58957091916E+02  0.13186480114E+03  0.47000000000E+01 0. -1.
        -13    1    4    4    0    0  0.48133288445E+01  0.21980575141E+02  0.16760121402E+02  0.28057360665E+02  0.00000000000E+00 0.  1.
         14    1    4    4    0    0 -0.24879918555E+02 -0.41597059694E+02 -0.23980533514E+02  0.54077645197E+02  0.00000000000E+00 0. -1.
         -5    1    5    5    0  502 -0.61885558263E+02 -0.33489060158E+02  0.77966275985E+01  0.70952215425E+02  0.47000000000E+01 0.  1.
         11    1    6    6    0    0  0.22706311086E+02 -0.61075555225E+02  0.21546365109E+02  0.68629773849E+02  0.00000000000E+00 0. -1.
        -12    1    6    6    0    0  0.35465085166E+02 -0.12518803632E+01  0.75056067489E+02  0.83022603773E+02  0.00000000000E+00 0.  1.
</event>
<event>
12    1  0.8724767E-002  0.1874575E+03  0.7818608E-02  0.1161822E+00
         21   -1    0    0  501  502  0.00000000000E+00  0.00000000000E+00  0.44356601915E+03  0.44356601915E+03  0.00000000000E+00 0.  1.
         21   -1    0    0  502  503 -0.00000000000E+00 -0.00000000000E+00 -0.87831369641E+02  0.87831369641E+02  0.00000000000E+00 0. -1.
         -6    2    1    2    0  503 -0.70810031880E+02  0.30289066847E+01  0.27163946496E+03  0.33004292396E+03  0.17354278388E+03 0.  0.
        -24    2    3    3    0    0 -0.54933986160E+02  0.21788110221E+02  0.58145103062E+02  0.11508737249E+03  0.79823465931E+02 0.  0.
          6    2    1    2  501    0  0.70810031880E+02 -0.30289066847E+01  0.84095184545E+02  0.20135446483E+03  0.16866649209E+03 0.  0.
         24    2    5    5    0    0  0.37477157747E+01  0.41935609233E+02  0.48834557843E+01  0.88147795831E+02  0.77288712463E+02 0.  0.
          5    1    5    5  501    0  0.67062316105E+02 -0.44964515918E+02  0.79211728761E+02  0.11320666900E+03  0.47000000000E+01 0. -1.
        -13    1    6    6    0    0  0.21846333388E+02  0.51344496379E+02  0.23486672341E+02  0.60540427555E+02  0.00000000000E+00 0.  1.
         14    1    6    6    0    0 -0.18098617613E+02 -0.94088871458E+01 -0.18603216557E+02  0.27607368275E+02  0.00000000000E+00 0. -1.
         -5    1    3    3    0  503 -0.15876045721E+02 -0.18759203536E+02  0.21349436190E+03  0.21495555147E+03  0.47000000000E+01 0.  1.
         13    1    4    4    0    0 -0.53706356266E+02 -0.20102699485E+02  0.31535588575E+02  0.65444515253E+02  0.00000000000E+00 0. -1.
        -14    1    4    4    0    0 -0.12276298939E+01  0.41890809706E+02  0.26609514487E+02  0.49642857232E+02  0.00000000000E+00 0.  1.
</event>
<event>
12    1  0.8724767E-002  0.1838924E+03  0.7818608E-02  0.1164393E+00
         21   -1    0    0  503  502  0.00000000000E+00  0.00000000000E+00  0.11379374096E+04  0.11379374096E+04  0.00000000000E+00 0.  1.
         21   -1    0    0  501  503 -0.00000000000E+00 -0.00000000000E+00 -0.38543668279E+02  0.38543668279E+02  0.00000000000E+00 0.  1.
          6    2    1    2  501    0  0.43596430594E+02 -0.46260210239E+02  0.83597450209E+03  0.85596131820E+03  0.17255652491E+03 0.  0.
         24    2    3    3    0    0 -0.37979844278E+02 -0.26286077736E+01  0.52960484354E+03  0.53589435171E+03  0.72471289086E+02 0.  0.
         -6    2    1    2    0  502 -0.43596430594E+02  0.46260210239E+02  0.26341923926E+03  0.32051975972E+03  0.17117991980E+03 0.  0.
        -24    2    5    5    0    0 -0.60386553377E+02 -0.25108697727E+02  0.18910699908E+03  0.21602177750E+03  0.81406195841E+02 0.  0.
          5    1    3    3  501    0  0.81576274872E+02 -0.43631602465E+02  0.30636965855E+03  0.32006696649E+03  0.47000000000E+01 0. -1.
        -11    1    4    4    0    0 -0.51087184844E+01 -0.17212396066E+02  0.42312844565E+03  0.42350920545E+03  0.00000000000E+00 0.  1.
         12    1    4    4    0    0 -0.32871125793E+02  0.14583788292E+02  0.10647639789E+03  0.11238514626E+03  0.00000000000E+00 0. -1.
         -5    1    5    5    0  502  0.16790122783E+02  0.71368907965E+02  0.74312240182E+02  0.10449798222E+03  0.47000000000E+01 0.  1.
         13    1    6    6    0    0 -0.44920448227E+02 -0.63187536596E+00  0.18021985920E+03  0.18573487444E+03  0.00000000000E+00 0. -1.
        -14    1    6    6    0    0 -0.15466105151E+02 -0.24476822361E+02  0.88871398865E+01  0.30286903057E+02  0.00000000000E+00 0.  1.
</event>
<event>
12    1  0.8724767E-002  0.2635396E+03  0.7818608E-02  0.1105169E+00
         21   -1    0    0  503  502  0.00000000000E+00  0.00000000000E+00  0.58069298706E+03  0.58069298706E+03  0.00000000000E+00 0. -1.
         21   -1    0    0  501  503 -0.00000000000E+00 -0.00000000000E+00 -0.28498708969E+03  0.28498708969E+03  0.00000000000E+00 0.  1.
          6    2    1    2  501    0  0.11290893498E+03 -0.16420456340E+03 -0.18218190945E+03  0.32038006769E+03  0.17245745389E+03 0.  0.
         24    2    3    3    0    0  0.13528743669E+03 -0.83354923180E+02 -0.14103178113E+03  0.22682321479E+03  0.79423382795E+02 0.  0.
         -6    2    1    2    0  502 -0.11290893498E+03  0.16420456340E+03  0.47788780682E+03  0.54530000906E+03  0.17106658860E+03 0.  0.
        -24    2    5    5    0    0 -0.10000232514E+03  0.17810809409E+03  0.32914553608E+03  0.39527920435E+03  0.78650538816E+02 0.  0.
          5    1    3    3  501    0 -0.22378501717E+02 -0.80849640224E+02 -0.41150128315E+02  0.93556852896E+02  0.47000000000E+01 0. -1.
        -13    1    4    4    0    0  0.10057657683E+03 -0.48708395457E+02 -0.47932650274E+02  0.12159644138E+03  0.00000000000E+00 0.  1.
         14    1    4    4    0    0  0.34710859864E+02 -0.34646527723E+02 -0.93099130861E+02  0.10522677341E+03  0.00000000000E+00 0. -1.
         -5    1    5    5    0  502 -0.12906609835E+02 -0.13903530681E+02  0.14874227073E+03  0.15002080471E+03  0.47000000000E+01 0.  1.
         13    1    6    6    0    0  0.17923049093E+01  0.34376122271E+02  0.10324254597E+03  0.10882992896E+03  0.00000000000E+00 0. -1.
        -14    1    6    6    0    0 -0.10179463005E+03  0.14373197181E+03  0.22590299011E+03  0.28644927539E+03  0.00000000000E+00 0.  1.
</event>
<event>
12    1  0.8724767E-002  0.2324511E+03  0.7818608E-02  0.1125434E+00
         21   -1    0    0  501  502  0.00000000000E+00  0.00000000000E+00  0.46366936589E+03  0.46366936589E+03  0.00000000000E+00 0.  1.
         21   -1    0    0  502  503 -0.00000000000E+00 -0.00000000000E+00 -0.28101549230E+03  0.28101549230E+03  0.00000000000E+00 0.  1.
         -6    2    1    2    0  503 -0.12654606331E+03 -0.92398856134E+02 -0.19455314992E+03  0.30312447297E+03  0.17170341644E+03 0.  0.
        -24    2    3    3    0    0 -0.49068416083E+02  0.11179279337E+02 -0.42699226488E+02  0.10359272104E+03  0.79846992219E+02 0.  0.
          6    2    1    2  501    0  0.12654606331E+03  0.92398856134E+02  0.37720702351E+03  0.44156038522E+03  0.16774677481E+03 0.  0.
         24    2    5    5    0    0  0.12672104079E+03  0.17176954560E+02  0.26642484416E+03  0.30757103358E+03  0.85231878787E+02 0.  0.
          5    1    5    5  501    0 -0.17497747834E+00  0.75221901573E+02  0.11078217934E+03  0.13398935164E+03  0.47000000000E+01 0. -1.
        -13    1    6    6    0    0  0.91571955375E+02 -0.11595548055E+01  0.96318516329E+02  0.13290607272E+03  0.00000000000E+00 0.  1.
         14    1    6    6    0    0  0.35149085415E+02  0.18336509366E+02  0.17010632784E+03  0.17466496086E+03  0.00000000000E+00 0. -1.
         -5    1    3    3    0  503 -0.77477647228E+02 -0.10357813547E+03 -0.15185392343E+03  0.19953175193E+03  0.47000000000E+01 0.  1.
         11    1    4    4    0    0 -0.50644518119E+02  0.38566045487E+02 -0.41784110786E+02  0.76145380649E+02  0.00000000000E+00 0. -1.
        -12    1    4    4    0    0  0.15761020360E+01 -0.27386766150E+02 -0.91511570164E+00  0.27447340391E+02  0.00000000000E+00 0.  1.
</event>
<event>
12    1  0.8724767E-002  0.1758105E+03  0.7818608E-02  0.1172559E+00
         21   -1    0    0  503  502  0.00000000000E+00  0.00000000000E+00  0.11997436891E+04  0.11997436891E+04  0.00000000000E+00 0. -1.
         21   -1    0    0  501  503 -0.00000000000E+00 -0.00000000000E+00 -0.31560602228E+02  0.31560602228E+02  0.00000000000E+00 0. -1.
          6    2    1    2  501    0  0.32043147485E+02  0.20043127280E+02  0.30851201624E+03  0.35383993566E+03  0.16909921837E+03 0.  0.
         24    2    3    3    0    0  0.83113990517E+00  0.32131608182E+02  0.30853458139E+03  0.32004036026E+03  0.78734447644E+02 0.  0.
         -6    2    1    2    0  502 -0.32043147485E+02 -0.20043127280E+02  0.85967107067E+03  0.87746435570E+03  0.17169989963E+03 0.  0.
        -24    2    5    5    0    0 -0.47277079373E+02  0.28693434912E+02  0.77269696186E+03  0.77649945696E+03  0.53220074680E+02 0.  0.
          5    1    3    3  501    0  0.31212007580E+02 -0.12088480902E+02 -0.22565153287E-01  0.33799575395E+02  0.47000000000E+01 0. -1.
        -13    1    4    4    0    0  0.10347549504E+02 -0.17609513807E+02  0.26306992804E+02  0.33305024060E+02  0.00000000000E+00 0.  1.
         14    1    4    4    0    0 -0.95164095988E+01  0.49741121989E+02  0.28222758859E+03  0.28673533620E+03  0.00000000000E+00 0. -1.
         -5    1    5    5    0  502  0.15233931887E+02 -0.48736562192E+02  0.86974108804E+02  0.10096489874E+03  0.47000000000E+01 0.  1.
         13    1    6    6    0    0 -0.20085226962E+02 -0.19338572728E+01  0.52901051488E+03  0.52939520304E+03  0.00000000000E+00 0. -1.
        -14    1    6    6    0    0 -0.27191852411E+02  0.30627292185E+02  0.24368644698E+03  0.24710425392E+03  0.00000000000E+00 0.  1.
</event>
<event>
12    1  0.8724767E-002  0.1720584E+03  0.7818608E-02  0.1181053E+00
         21   -1    0    0  503  502  0.00000000000E+00  0.00000000000E+00  0.17868810619E+03  0.17868810619E+03  0.00000000000E+00 0.  1.
         21   -1    0    0  501  503 -0.00000000000E+00 -0.00000000000E+00 -0.23104868045E+03  0.23104868045E+03  0.00000000000E+00 0.  1.
          6    2    1    2  501    0  0.14972380794E+00  0.12735887258E+02 -0.15028639803E+03  0.22845153982E+03  0.17158636127E+03 0.  0.
         24    2    3    3    0    0  0.12696855163E+02  0.59991377323E+02 -0.14538343749E+03  0.17908919720E+03  0.84713760250E+02 0.  0.
         -6    2    1    2    0  502 -0.14972380794E+00 -0.12735887258E+02  0.97925823764E+02  0.18128524682E+03  0.15202844639E+03 0.  0.
        -24    2    5    5    0    0 -0.50925799194E+02 -0.17413192157E+02  0.84867785503E+02  0.12843934465E+03  0.79984173142E+02 0.  0.
          5    1    3    3  501    0 -0.12547131356E+02 -0.47255490065E+02 -0.49029605427E+01  0.49362342617E+02  0.47000000000E+01 0. -1.
        -11    1    4    4    0    0 -0.24560089819E+02  0.16378338557E+02 -0.10465874140E+03  0.10874235668E+03  0.00000000000E+00 0.  1.
         12    1    4    4    0    0  0.37256944982E+02  0.43613038766E+02 -0.40724696087E+02  0.70346840520E+02  0.00000000000E+00 0. -1.
         -5    1    5    5    0  502  0.50776075386E+02  0.46773048996E+01  0.13058038261E+02  0.52845902168E+02  0.47000000000E+01 0.  1.
         13    1    6    6    0    0 -0.60115727950E+02 -0.39145443231E+02  0.55109605238E+02  0.90461787856E+02  0.00000000000E+00 0. -1.
        -14    1    6    6    0    0  0.91899287561E+01  0.21732251074E+02  0.29758180265E+02  0.37977556793E+02  0.00000000000E+00 0.  1.
</event>
<event>
12    1  0.8724767E-002  0.1773496E+03  0.7818608E-02  0.1170544E+00
         21   -1    0    0  503  502  0.00000000000E+00  0.00000000000E+00  0.50309429014E+02  0.50309429014E+02  0.00000000000E+00 0.  1.
         21   -1    0    0  501  503 -0.00000000000E+00 -0.00000000000E+00 -0.12663095763E+04  0.12663095763E+04  0.00000000000E+00 0.  1.
          6    2    1    2  501    0 -0.35661788362E+02  0.26722058800E+02 -0.10777141869E+04  0.10922091120E+04  0.17165967538E+03 0.  0.
         24    2    3    3    0    0  0.38474218000E+02 -0.16826023423E+02 -0.57775035648E+03  0.58488426083E+03  0.80813016515E+02 0.  0.
         -6    2    1    2    0  502  0.35661788362E+02 -0.26722058800E+02 -0.13828596041E+03  0.22440989332E+03  0.17102912558E+03 0.  0.
        -24    2    5    5    0    0  0.72936804534E+02 -0.22555360480E+02 -0.14986871438E+03  0.18487461293E+03  0.76742877282E+02 0.  0.
          5    1    3    3  501    0 -0.74136006362E+02  0.43548082223E+02 -0.49996383037E+03  0.50732485114E+03  0.47000000000E+01 0. -1.
        -13    1    4    4    0    0 -0.69634903502E+00 -0.43126650852E+02 -0.31377208665E+03  0.31672277353E+03  0.00000000000E+00 0.  1.
         14    1    4    4    0    0  0.39170567035E+02  0.26300627429E+02 -0.26397826983E+03  0.26816148730E+03  0.00000000000E+00 0. -1.
         -5    1    5    5    0  502 -0.37275016172E+02 -0.41666983199E+01  0.11582753976E+02  0.39535280386E+02  0.47000000000E+01 0.  1.
         13    1    6    6    0    0  0.47918613760E+02  0.14819319714E+02 -0.12214162450E+03  0.13203932073E+03  0.00000000000E+00 0. -1.
        -14    1    6    6    0    0  0.25018190774E+02 -0.37374680194E+02 -0.27727089881E+02  0.52835292206E+02  0.00000000000E+00 0.  1.
</event>
<event>
12    1  0.8724767E-002  0.1787912E+03  0.7818608E-02  0.1169999E+00
         21   -1    0    0  503  502  0.00000000000E+00  0.00000000000E+00  0.12315072837E+03  0.12315072837E+03  0.00000000000E+00 0. -1.
         21   -1    0    0  501  503 -0.00000000000E+00 -0.00000000000E+00 -0.53571490326E+03  0.53571490326E+03  0.00000000000E+00 0. -1.
          6    2    1    2  501    0  0.38757954516E+02  0.12988486850E+02 -0.44647565317E+03  0.48094367396E+03  0.17405582097E+03 0.  0.
         24    2    3    3    0    0 -0.44004868162E+02  0.17076018567E+02 -0.18996380871E+03  0.21133876102E+03  0.79685660285E+02 0.  0.
         -6    2    1    2    0  502 -0.38757954516E+02 -0.12988486850E+02  0.33911478285E+02  0.17792195768E+03  0.16980976072E+03 0.  0.
        -24    2    5    5    0    0 -0.10939844238E+02 -0.34805930249E+02  0.80335058615E+02  0.11938063119E+03  0.80416916685E+02 0.  0.
          5    1    3    3  501    0  0.82762822678E+02 -0.40875317173E+01 -0.25651184446E+03  0.26960491294E+03  0.47000000000E+01 0. -1.
        -13    1    4    4    0    0 -0.27100558863E+02 -0.30847399829E+02 -0.98296576312E+02  0.10652802111E+03  0.00000000000E+00 0.  1.
         14    1    4    4    0    0 -0.16904309298E+02  0.47923418396E+02 -0.91667232401E+02  0.10481073991E+03  0.00000000000E+00 0. -1.
         -5    1    5    5    0  502 -0.27818110278E+02  0.21817443399E+02 -0.46423580331E+02  0.58541326485E+02  0.47000000000E+01 0.  1.
         13    1    6    6    0    0 -0.25243606047E+02 -0.56686716715E+02  0.59223866241E+02  0.85779308873E+02  0.00000000000E+00 0. -1.
        -14    1    6    6    0    0  0.14303761808E+02  0.21880786466E+02  0.21111192374E+02  0.33601322321E+02  0.00000000000E+00 0.  1.
</event>
<event>
12    1  0.8724767E-002  0.2061411E+03  0.7818608E-02  0.1146221E+00
         21   -1    0    0  503  502  0.00000000000E+00  0.00000000000E+00  0.21418310917E+03  0.21418310917E+03  0.00000000000E+00 0. -1.
         21   -1    0    0  501  503 -0.00000000000E+00 -0.00000000000E+00 -0.23788692563E+03  0.23788692563E+03  0.00000000000E+00 0. -1.
          6    2    1    2  501    0 -0.45050515967E+02 -0.90654385088E+02 -0.11179351979E+03  0.22789611529E+03  0.17085397792E+03 0.  0.
         24    2    3    3    0    0 -0.45700402452E+02 -0.10201335190E+03 -0.25051076768E+02  0.14028452986E+03  0.80974947483E+02 0.  0.
         -6    2    1    2    0  502  0.45050515967E+02  0.90654385088E+02  0.88089703327E+02  0.22417391951E+03  0.17957278143E+03 0.  0.
        -24    2    5    5    0    0 -0.27437354663E+02  0.83251426297E+02  0.92262026462E+02  0.15103847347E+03  0.81343288166E+02 0.  0.
          5    1    3    3  501    0  0.64988648435E+00  0.11358966816E+02 -0.86742443024E+02  0.87611585428E+02  0.47000000000E+01 0. -1.
        -13    1    4    4    0    0 -0.42521152819E+01 -0.40515191611E+00 -0.30128940723E+02  0.30430210344E+02  0.00000000000E+00 0.  1.
         14    1    4    4    0    0 -0.41448287170E+02 -0.10160819999E+03  0.50778639559E+01  0.10985431952E+03  0.00000000000E+00 0. -1.
         -5    1    5    5    0  502  0.72487870630E+02  0.74029587909E+01 -0.41723231350E+01  0.73135446041E+02  0.47000000000E+01 0.  1.
         13    1    6    6    0    0 -0.25049436324E+02  0.20803571356E+02 -0.74109194772E+01  0.33394379300E+02  0.00000000000E+00 0. -1.
        -14    1    6    6    0    0 -0.23879183383E+01  0.62447854940E+02  0.99672945939E+02  0.11764409417E+03  0.00000000000E+00 0.  1.
</event>
<event>
12    1  0.8724767E-002  0.1763916E+03  0.7818608E-02  0.1171670E+00
         21   -1    0    0  501  502  0.00000000000E+00  0.00000000000E+00  0.10568705047E+03  0.10568705047E+03  0.00000000000E+00 0. -1.
         21   -1    0    0  502  503 -0.00000000000E+00 -0.00000000000E+00 -0.82277589157E+03  0.82277589157E+03  0.00000000000E+00 0. -1.
         -6    2    1    2    0  503 -0.20217148720E+02 -0.29654222082E+02 -0.73085793311E+03  0.75153474750E+03  0.17135650648E+03 0.  0.
        -24    2    3    3    0    0  0.49346356682E+02 -0.32696320687E+02 -0.51941569828E+03  0.52887302129E+03  0.80061805632E+02 0.  0.
          6    2    1    2  501    0  0.20217148720E+02  0.29654222082E+02  0.13769092008E+02  0.17692819454E+03  0.17270174330E+03 0.  0.
         24    2    5    5    0    0 -0.41145878835E+02  0.38543613180E+02  0.45167778835E+02  0.10726895280E+03  0.79296321029E+02 0.  0.
          5    1    5    5  501    0  0.61363027555E+02 -0.88893910982E+01 -0.31398686827E+02  0.69659241737E+02  0.47000000000E+01 0. -1.
        -11    1    6    6    0    0 -0.35104684421E+02  0.58993656938E+01 -0.14937994109E+02  0.38604210287E+02  0.00000000000E+00 0.  1.
         12    1    6    6    0    0 -0.60411944144E+01  0.32644247486E+02  0.60105772943E+02  0.68664742517E+02  0.00000000000E+00 0. -1.
         -5    1    3    3    0  503 -0.69563505403E+02  0.30420986057E+01 -0.21144223483E+03  0.22266172621E+03  0.47000000000E+01 0.  1.
         11    1    4    4    0    0  0.29720331927E+02 -0.30448684436E+02 -0.49770406174E+03  0.49951952273E+03  0.00000000000E+00 0. -1.
        -12    1    4    4    0    0  0.19626024755E+02 -0.22476362512E+01 -0.21711636540E+02  0.29353498558E+02  0.00000000000E+00 0.  1.
</event>
<event>
12    1  0.8724767E-002  0.1976298E+03  0.7818608E-02  0.1151927E+00
         21   -1    0    0  501  502  0.00000000000E+00  0.00000000000E+00  0.18552321349E+02  0.18552321349E+02  0.00000000000E+00 0.  1.
         21   -1    0    0  502  503 -0.00000000000E+00 -0.00000000000E+00 -0.23640742575E+04  0.23640742575E+04  0.00000000000E+00 0.  1.
         -6    2    1    2    0  503  0.80970213258E+02 -0.54882969259E+02 -0.15755319321E+04  0.15878785858E+04  0.17172425091E+03 0.  0.
        -24    2    3    3    0    0  0.20486661520E+02 -0.33191836155E+02 -0.13596225309E+04  0.13625616427E+04  0.80494735789E+02 0.  0.
          6    2    1    2  501    0 -0.80970213258E+02  0.54882969259E+02 -0.76999000403E+03  0.79474799305E+03  0.17079651754E+03 0.  0.
         24    2    5    5    0    0 -0.10454657790E+03  0.85823839952E+02 -0.59123698642E+03  0.61175096096E+03  0.79889584252E+02 0.  0.
          5    1    5    5  501    0  0.23576364640E+02 -0.30940870694E+02 -0.17875301762E+03  0.18299703210E+03  0.47000000000E+01 0. -1.
        -11    1    6    6    0    0 -0.68245178326E+02  0.58483428722E+01 -0.22942463767E+03  0.23943114219E+03  0.00000000000E+00 0.  1.
         12    1    6    6    0    0 -0.36301399572E+02  0.79975497080E+02 -0.36181234874E+03  0.37231981876E+03  0.00000000000E+00 0. -1.
         -5    1    3    3    0  503  0.60483551738E+02 -0.21691133104E+02 -0.21590940121E+03  0.22531694303E+03  0.47000000000E+01 0.  1.
         11    1    4    4    0    0 -0.31222626844E+01 -0.52028234889E+02 -0.57484109955E+03  0.57719925111E+03  0.00000000000E+00 0. -1.
        -12    1    4    4    0    0  0.23608924205E+02  0.18836398734E+02 -0.78478143133E+03  0.78536239163E+03  0.00000000000E+00 0.  1.
</event>
<event>
12    1  0.8724767E-002  0.1908238E+03  0.7818608E-02  0.1157985E+00
         21   -1    0    0  503  502  0.00000000000E+00  0.00000000000E+00  0.14670795585E+03  0.14670795585E+03  0.00000000000E+00 0. -1.
         21   -1    0    0  501  503 -0.00000000000E+00 -0.00000000000E+00 -0.26511338522E+03  0.26511338522E+03  0.00000000000E+00 0. -1.
          6    2    1    2  501    0 -0.25779559674E+02 -0.77131153922E+02 -0.11333010014E+03  0.22093008566E+03  0.17132597745E+03 0.  0.
         24    2    3    3    0    0 -0.82454378405E+02 -0.54837580456E+02 -0.63853137145E+02  0.14232284449E+03  0.79829093646E+02 0.  0.
         -6    2    1    2    0  502  0.25779559674E+02  0.77131153922E+02 -0.50753292231E+01  0.19089125541E+03  0.17262650962E+03 0.  0.
        -24    2    5    5    0    0  0.18417485185E+02  0.36070237159E+02 -0.69591632935E+02  0.11391955626E+03  0.80587866050E+02 0.  0.
          5    1    3    3  501    0  0.56674818731E+02 -0.22293573466E+02 -0.49476963000E+02  0.78607241167E+02  0.47000000000E+01 0. -1.
        -11    1    4    4    0    0 -0.69329678727E+02 -0.13547709127E+02 -0.68932185308E+02  0.98700511378E+02  0.00000000000E+00 0.  1.
         12    1    4    4    0    0 -0.13124699678E+02 -0.41289871329E+02  0.50790481631E+01  0.43622333113E+02  0.00000000000E+00 0. -1.
         -5    1    5    5    0  502  0.73620744891E+01  0.41060916763E+02  0.64516303711E+02  0.76971699155E+02  0.47000000000E+01 0.  1.
         13    1    6    6    0    0 -0.28197610011E+02  0.32691903614E+02 -0.28923317419E+02  0.51965604612E+02  0.00000000000E+00 0. -1.
        -14    1    6    6    0    0  0.46615095196E+02  0.33783335451E+01 -0.40668315516E+02  0.61953951646E+02  0.00000000000E+00 0.  1.
</event>
<event>
12    1  0.8724767E-002  0.4319193E+03  0.7818608E-02  0.1033283E+00
         21   -1    0    0  503  502  0.00000000000E+00  0.00000000000E+00  0.26892038312E+03  0.26892038312E+03  0.00000000000E+00 0.  1.
         21   -1    0    0  501  503 -0.00000000000E+00 -0.00000000000E+00 -0.13887603563E+04  0.13887603563E+04  0.00000000000E+00 0. -1.
          6    2    1    2  501    0 -0.34727911789E+03 -0.19031745967E+03 -0.11464010398E+04  0.12249455107E+04  0.17155943256E+03 0.  0.
         24    2    3    3    0    0 -0.12458644405E+03 -0.13687983761E+03 -0.50292148852E+03  0.54191137584E+03  0.80498718432E+02 0.  0.
         -6    2    1    2    0  502  0.34727911789E+03  0.19031745967E+03  0.26561066594E+02  0.43273522877E+03  0.17242611978E+03 0.  0.
        -24    2    5    5    0    0  0.84426901737E+02  0.94547331985E+02  0.30463582185E+02  0.15291291994E+03  0.79920157164E+02 0.  0.
          5    1    3    3  501    0 -0.22269267384E+03 -0.53437622062E+02 -0.64347955129E+03  0.68303413485E+03  0.47000000000E+01 0. -1.
        -11    1    4    4    0    0  0.44140642044E+01 -0.15400057009E+02 -0.12078188893E+02  0.20063109570E+02  0.00000000000E+00 0.  1.
         12    1    4    4    0    0 -0.12900050825E+03 -0.12147978060E+03 -0.49084329963E+03  0.52184826627E+03  0.00000000000E+00 0. -1.
         -5    1    5    5    0  502  0.26285221616E+03  0.95770127686E+02 -0.39025155908E+01  0.27982230884E+03  0.47000000000E+01 0.  1.
         13    1    6    6    0    0  0.29758854169E+02  0.19416914855E+02 -0.26141686110E+02  0.44113419009E+02  0.00000000000E+00 0. -1.
        -14    1    6    6    0    0  0.54668047568E+02  0.75130417131E+02  0.56605268295E+02  0.10879950093E+03  0.00000000000E+00 0.  1.
</event>
<event>
12    1  0.8724767E-002  0.1987305E+03  0.7818608E-02  0.1151540E+00
         21   -1    0    0  503  502  0.00000000000E+00  0.00000000000E+00  0.12537677865E+04  0.12537677865E+04  0.00000000000E+00 0.  1.
         21   -1    0    0  501  503 -0.00000000000E+00 -0.00000000000E+00 -0.63776148938E+02  0.63776148938E+02  0.00000000000E+00 0.  1.
          6    2    1    2  501    0  0.94102455542E+02 -0.28485707881E+02  0.12497837125E+03  0.23476240205E+03  0.17270519519E+03 0.  0.
         24    2    3    3    0    0  0.38760942996E+02 -0.82143928847E+02  0.86440327365E+02  0.14845389428E+03  0.79476995302E+02 0.  0.
         -6    2    1    2    0  502 -0.94102455542E+02  0.28485707881E+02  0.10650132663E+04  0.10827815334E+04  0.16880723896E+03 0.  0.
        -24    2    5    5    0    0 -0.30624707244E+00  0.51838840897E+02  0.41014061977E+03  0.42079711459E+03  0.78533588006E+02 0.  0.
          5    1    3    3  501    0  0.55341512546E+02  0.53658220966E+02  0.38538043884E+02  0.86308507776E+02  0.47000000000E+01 0. -1.
        -13    1    4    4    0    0  0.39126502386E+02 -0.18399979413E+02  0.70571471272E+02  0.82763367433E+02  0.00000000000E+00 0.  1.
         14    1    4    4    0    0 -0.36555939025E+00 -0.63743949434E+02  0.15868856093E+02  0.65690526843E+02  0.00000000000E+00 0. -1.
         -5    1    5    5    0  502 -0.93796208470E+02 -0.23353133016E+02  0.65487264651E+03  0.66198441877E+03  0.47000000000E+01 0.  1.
         11    1    6    6    0    0 -0.13974480385E+02 -0.14433977085E+02  0.17388929392E+03  0.17504602919E+03  0.00000000000E+00 0. -1.
        -12    1    6    6    0    0  0.13668233312E+02  0.66272817982E+02  0.23625132585E+03  0.24575108540E+03  0.00000000000E+00 0.  1.
</event>
<event>
12    1  0.8724767E-002  0.1747025E+03  0.7818608E-02  0.1173307E+00
         21   -1    0    0  503  502  0.00000000000E+00  0.00000000000E+00  0.73988333966E+02  0.73988333966E+02  0.00000000000E+00 0. -1.
         21   -1    0    0  501  503 -0.00000000000E+00 -0.00000000000E+00 -0.48052384277E+03  0.48052384277E+03  0.00000000000E+00 0. -1.
          6    2    1    2  501    0 -0.23952710058E+02  0.11614968912E+02 -0.30899096063E+03  0.35442246279E+03  0.17155532215E+03 0.  0.
         24    2    3    3    0    0 -0.31825250980E+02 -0.42648900708E+02 -0.25469111761E+03  0.27711070819E+03  0.95346755974E+02 0.  0.
         -6    2    1    2    0  502  0.23952710058E+02 -0.11614968912E+02 -0.97544548183E+02  0.20008971395E+03  0.17266243056E+03 0.  0.
        -24    2    5    5    0    0  0.58632477266E+02  0.44510058380E+02 -0.63531933617E+02  0.12571463149E+03  0.79680294263E+02 0.  0.
          5    1    3    3  501    0  0.78725409214E+01  0.54263869619E+02 -0.54299843017E+02  0.77311754593E+02  0.47000000000E+01 0. -1.
        -13    1    4    4    0    0  0.13306916513E+02  0.55382384714E-02 -0.17769696259E+03  0.17819451330E+03  0.00000000000E+00 0.  1.
         14    1    4    4    0    0 -0.45132167493E+02 -0.42654438946E+02 -0.76994155021E+02  0.98916194891E+02  0.00000000000E+00 0. -1.
         -5    1    5    5    0  502 -0.34679767208E+02 -0.56125027292E+02 -0.34012614566E+02  0.74375082465E+02  0.47000000000E+01 0.  1.
         13    1    6    6    0    0  0.10291385909E+02 -0.13998523121E+02 -0.44058786354E+02  0.47360826940E+02  0.00000000000E+00 0. -1.
        -14    1    6    6    0    0  0.48341091357E+02  0.58508581501E+02 -0.19473147263E+02  0.78353804548E+02  0.00000000000E+00 0.  1.
</event>
<event>
12    1  0.8724767E-002  0.2311138E+03  0.7818608E-02  0.1125983E+00
         21   -1    0    0  501  502  0.00000000000E+00  0.00000000000E+00  0.13093754918E+03  0.13093754918E+03  0.00000000000E+00 0.  1.
         21   -1    0    0  502  503 -0.00000000000E+00 -0.00000000000E+00 -0.41539774644E+03  0.41539774644E+03  0.00000000000E+00 0.  1.
         -6    2    1    2    0  503  0.15316556969E+03 -0.14384780473E+01 -0.10285765681E+03  0.25296895257E+03  0.17306597713E+03 0.  0.
        -24    2    3    3    0    0  0.73986653265E+02  0.41678268737E+02  0.36248356847E+01  0.11336606625E+03  0.75017481941E+02 0.  0.
          6    2    1    2  501    0 -0.15316556969E+03  0.14384780473E+01 -0.18160254044E+03  0.29336634305E+03  0.17211207854E+03 0.  0.
         24    2    5    5    0    0 -0.18251215980E+03 -0.46638141443E+01 -0.15208872015E+03  0.25103885896E+03  0.80975862280E+02 0.  0.
          5    1    5    5  501    0  0.29346590110E+02  0.61022921917E+01 -0.29513820291E+02  0.42327484089E+02  0.47000000000E+01 0. -1.
        -11    1    6    6    0    0 -0.21129803367E+02  0.27101061357E+02 -0.17792006543E+02  0.38697436786E+02  0.00000000000E+00 0.  1.
         12    1    6    6    0    0 -0.16138235644E+03 -0.31764875501E+02 -0.13429671361E+03  0.21234142218E+03  0.00000000000E+00 0. -1.
         -5    1    3    3    0  503  0.79178916429E+02 -0.43116746784E+02 -0.10648249250E+03  0.13960288632E+03  0.47000000000E+01 0.  1.
         11    1    4    4    0    0 -0.42953147371E+01  0.14708825063E+02 -0.21895567340E+02  0.26724803696E+02  0.00000000000E+00 0. -1.
        -12    1    4    4    0    0  0.78281968002E+02  0.26969443674E+02  0.25520403024E+02  0.86641262553E+02  0.00000000000E+00 0.  1.
</event>
<event>
12    1  0.8724767E-002  0.2006405E+03  0.7818608E-02  0.1149790E+00
         21   -1    0    0  503  502  0.00000000000E+00  0.00000000000E+00  0.53485392617E+02  0.53485392617E+02  0.00000000000E+00 0. -1.
         21   -1    0    0  501  503 -0.00000000000E+00 -0.00000000000E+00 -0.74788921051E+03  0.74788921051E+03  0.00000000000E+00 0. -1.
          6    2    1    2  501    0  0.48529037847E+02  0.91617498997E+02 -0.38443257680E+03  0.43364157567E+03  0.17177827688E+03 0.  0.
         24    2    3    3    0    0  0.11576502670E+02  0.71513170450E+01 -0.72664786096E+02  0.10849350006E+03  0.79407251987E+02 0.  0.
         -6    2    1    2    0  502 -0.48529037847E+02 -0.91617498997E+02 -0.30997124109E+03  0.36773302746E+03  0.16851283495E+03 0.  0.
        -24    2    5    5    0    0  0.37119338643E+02 -0.65106889232E+02 -0.16160817544E+03  0.19431980398E+03  0.77628806022E+02 0.  0.
          5    1    3    3  501    0  0.36952535178E+02  0.84466181952E+02 -0.31176779070E+03  0.32514807561E+03  0.47000000000E+01 0. -1.
        -11    1    4    4    0    0  0.25762070137E+02 -0.11273503303E+02  0.39781890063E+01  0.28400741579E+02  0.00000000000E+00 0.  1.
         12    1    4    4    0    0 -0.14185567467E+02  0.18424820348E+02 -0.76642975102E+02  0.80092758485E+02  0.00000000000E+00 0. -1.
         -5    1    5    5    0  502 -0.85648376491E+02 -0.26510609764E+02 -0.14836306566E+03  0.17341322348E+03  0.47000000000E+01 0.  1.
         13    1    6    6    0    0 -0.49571445914E+01 -0.65323584512E+02 -0.91069520241E+02  0.11218467584E+03  0.00000000000E+00 0. -1.
        -14    1    6    6    0    0  0.42076483235E+02  0.21669527987E+00 -0.70538655195E+02  0.82135128142E+02  0.00000000000E+00 0.  1.
</event>
<event>
12    1  0.8724767E-002  0.2308416E+03  0.7818608E-02  0.1126076E+00
         21   -1    0    0  501  502  0.00000000000E+00  0.00000000000E+00  0.10052718999E+03  0.10052718999E+03  0.00000000000E+00 0. -1.
         21   -1    0    0  502  503 -0.00000000000E+00 -0.00000000000E+00 -0.53094644602E+03  0.53094644602E+03  0.00000000000E+00 0.  1.
         -6    2    1    2    0  503  0.11811054018E+03  0.98178740905E+02 -0.20016651130E+03  0.30553962484E+03  0.17233300681E+03 0.  0.
        -24    2    3    3    0    0  0.10992986854E+03  0.13519604722E+03 -0.17634830921E+03  0.26052183829E+03  0.80064691888E+02 0.  0.
          6    2    1    2  501    0 -0.11811054018E+03 -0.98178740905E+02 -0.23025274474E+03  0.32593401117E+03  0.17212637308E+03 0.  0.
         24    2    5    5    0    0 -0.89180325879E+02 -0.21744585372E+02 -0.20106450333E+03  0.23902497327E+03  0.90994757155E+02 0.  0.
          5    1    5    5  501    0 -0.28930214302E+02 -0.76434155534E+02 -0.29188241403E+02  0.86909037896E+02  0.47000000000E+01 0. -1.
        -11    1    6    6    0    0 -0.10370243290E+03 -0.19578999288E+02 -0.13503425585E+03  0.17138197705E+03  0.00000000000E+00 0.  1.
         12    1    6    6    0    0  0.14522107026E+02 -0.21655860836E+01 -0.66030247479E+02  0.67642996221E+02  0.00000000000E+00 0. -1.
         -5    1    3    3    0  503  0.81806716449E+01 -0.37017306312E+02 -0.23818202089E+02  0.45017786550E+02  0.47000000000E+01 0.  1.
         13    1    4    4    0    0  0.23846306316E+02  0.11579500116E+02  0.25715556198E+01  0.26633513591E+02  0.00000000000E+00 0. -1.
        -14    1    4    4    0    0  0.86083562219E+02  0.12361654710E+03 -0.17891986483E+03  0.23388832470E+03  0.00000000000E+00 0.  1.
</event>
<event>
12    1  0.8724767E-002  0.2167529E+03  0.7818608E-02  0.1136395E+00
         21   -1    0    0  503  502  0.00000000000E+00  0.00000000000E+00  0.63034002948E+02  0.63034002948E+02  0.00000000000E+00 0.  1.
         21   -1    0    0  501  503 -0.00000000000E+00 -0.00000000000E+00 -0.77084033796E+03  0.77084033796E+03  0.00000000000E+00 0.  1.
          6    2    1    2  501    0  0.98649874484E+02 -0.87526417664E+02 -0.43182579000E+03  0.48317214498E+03  0.17201493320E+03 0.  0.
         24    2    3    3    0    0  0.82905943056E+02 -0.68917266139E+02 -0.43764175371E+03  0.45767533476E+03  0.79457048094E+02 0.  0.
         -6    2    1    2    0  502 -0.98649874484E+02  0.87526417664E+02 -0.27598054501E+03  0.35070219593E+03  0.17156368346E+03 0.  0.
        -24    2    5    5    0    0 -0.19285056670E+02  0.93859514671E+02 -0.15086169096E+03  0.20232531073E+03  0.94840706747E+02 0.  0.
          5    1    3    3  501    0  0.15743931427E+02 -0.18609151525E+02  0.58159637085E+01  0.25496810215E+02  0.47000000000E+01 0. -1.
        -13    1    4    4    0    0  0.86285636820E+02 -0.68304098664E+02 -0.29287859070E+03  0.31287142712E+03  0.00000000000E+00 0.  1.
         14    1    4    4    0    0 -0.33796937634E+01 -0.61316747474E+00 -0.14476316301E+03  0.14480390764E+03  0.00000000000E+00 0. -1.
         -5    1    5    5    0  502 -0.79364817814E+02 -0.63330970072E+01 -0.12511885405E+03  0.14837688521E+03  0.47000000000E+01 0.  1.
         11    1    6    6    0    0 -0.60805391936E+01 -0.15048049229E+02 -0.52603673340E+02  0.55050551236E+02  0.00000000000E+00 0. -1.
        -12    1    6    6    0    0 -0.13204517477E+02  0.10890756390E+03 -0.98258017618E+02  0.14727475949E+03  0.00000000000E+00 0.  1.
</event>
<event>
12    1  0.8724767E-002  0.1774070E+03  0.7818608E-02  0.1170594E+00
         21   -1    0    0  503  502  0.00000000000E+00  0.00000000000E+00  0.10952003038E+04  0.10952003038E+04  0.00000000000E+00 0. -1.
         21   -1    0    0  501  503 -0.00000000000E+00 -0.00000000000E+00 -0.35459746545E+02  0.35459746545E+02  0.00000000000E+00 0. -1.
          6    2    1    2  501    0  0.71110551098E+01 -0.41563360911E+02  0.28191542373E+03  0.33309089754E+03  0.17232283601E+03 0.  0.
         24    2    3    3    0    0  0.41397332671E+02 -0.78192348143E+02  0.14573326946E+03  0.18788449039E+03  0.78959568399E+02 0.  0.
         -6    2    1    2    0  502 -0.71110551098E+01  0.41563360911E+02  0.77782513357E+03  0.79756915285E+03  0.17124991998E+03 0.  0.
        -24    2    5    5    0    0 -0.18595416442E+02  0.82724914356E+02  0.68961461140E+03  0.69943990004E+03  0.80365792070E+02 0.  0.
          5    1    3    3  501    0 -0.34286277562E+02  0.36628987232E+02  0.13618215427E+03  0.14520640714E+03  0.47000000000E+01 0. -1.
        -11    1    4    4    0    0  0.43660490172E+02 -0.34469780463E+01  0.54947112730E+02  0.70265960871E+02  0.00000000000E+00 0.  1.
         12    1    4    4    0    0 -0.22631575010E+01 -0.74745370097E+02  0.90786156732E+02  0.11761852952E+03  0.00000000000E+00 0. -1.
         -5    1    5    5    0  502  0.11484361332E+02 -0.41161553445E+02  0.88210522169E+02  0.98129252818E+02  0.47000000000E+01 0.  1.
         13    1    6    6    0    0 -0.39997644965E+02  0.24465563510E+02  0.17789792945E+03  0.18397295645E+03  0.00000000000E+00 0. -1.
        -14    1    6    6    0    0  0.21402228523E+02  0.58259350846E+02  0.51171668195E+03  0.51546694359E+03  0.00000000000E+00 0.  1.
</event>
<event>
12    1  0.8724767E-002  0.2872112E+03  0.7818608E-02  0.1092324E+00
         21   -1    0    0  501  502  0.00000000000E+00  0.00000000000E+00  0.25534771014E+03  0.25534771014E+03  0.00000000000E+00 0. -1.
         21   -1    0    0  502  503 -0.00000000000E+00 -0.00000000000E+00 -0.46203516796E+03  0.46203516796E+03  0.00000000000E+00 0. -1.
         -6    2    1    2    0  503 -0.33997666551E+02 -0.22796245917E+03 -0.30356198746E+03  0.41789966537E+03  0.17136955962E+03 0.  0.
        -24    2    3    3    0    0  0.11254349691E+02 -0.20858964797E+03 -0.29089755093E+03  0.36685528527E+03  0.79530582559E+02 0.  0.
          6    2    1    2  501    0  0.33997666551E+02  0.22796245917E+03  0.96874529637E+02  0.29948321273E+03  0.16487205976E+03 0.  0.
         24    2    5    5    0    0  0.54321814870E+02  0.13261249795E+03  0.62112929747E+01  0.16626685265E+03  0.84078248944E+02 0.  0.
          5    1    5    5  501    0 -0.20324148318E+02  0.95349961220E+02  0.90663236662E+02  0.13321636007E+03  0.47000000000E+01 0. -1.
        -11    1    6    6    0    0  0.26311826277E+02  0.27782162890E+02 -0.33363946297E+02  0.50767250166E+02  0.00000000000E+00 0.  1.
         12    1    6    6    0    0  0.28009988593E+02  0.10483033507E+03  0.39575239272E+02  0.11549960249E+03  0.00000000000E+00 0. -1.
         -5    1    3    3    0  503 -0.45252016242E+02 -0.19372811205E+02 -0.12664436526E+02  0.51044380107E+02  0.47000000000E+01 0.  1.
         13    1    4    4    0    0  0.17238468617E+02 -0.16243640102E+03 -0.16304276279E+03  0.23079361273E+03  0.00000000000E+00 0. -1.
        -14    1    4    4    0    0 -0.59841189260E+01 -0.46153246946E+02 -0.12785478814E+03  0.13606167254E+03  0.00000000000E+00 0.  1.
</event>
<event>
12    1  0.8724767E-002  0.2280858E+03  0.7818608E-02  0.1128075E+00
         21   -1    0    0  501  502  0.00000000000E+00  0.00000000000E+00  0.38098449107E+03  0.38098449107E+03  0.00000000000E+00 0.  1.
         21   -1    0    0  502  503 -0.00000000000E+00 -0.00000000000E+00 -0.25437737716E+03  0.25437737716E+03  0.00000000000E+00 0. -1.
         -6    2    1    2    0  503  0.14958048898E+03 -0.11968175596E+02 -0.15312087450E+03  0.27471649936E+03  0.17177192118E+03 0.  0.
        -24    2    3    3    0    0  0.38256824482E+02  0.48887952717E+02 -0.72046589738E+02  0.12407933171E+03  0.79695375798E+02 0.  0.
          6    2    1    2  501    0 -0.14958048898E+03  0.11968175596E+02  0.27972798841E+03  0.36064536887E+03  0.17117176952E+03 0.  0.
         24    2    5    5    0    0 -0.77964337558E+02 -0.19925255770E+02  0.61529691606E+02  0.12874312474E+03  0.79457129757E+02 0.  0.
          5    1    5    5  501    0 -0.71616151417E+02  0.31893431366E+02  0.21819829680E+03  0.23190224414E+03  0.47000000000E+01 0. -1.
        -11    1    6    6    0    0  0.13163956428E+02 -0.12500805720E+02  0.23558523953E+02  0.29741619716E+02  0.00000000000E+00 0.  1.
         12    1    6    6    0    0 -0.91128293986E+02 -0.74244500509E+01  0.37971167652E+02  0.99001505020E+02  0.00000000000E+00 0. -1.
         -5    1    3    3    0  503  0.11132366449E+03 -0.60856128313E+02 -0.81074284760E+02  0.15063716765E+03  0.47000000000E+01 0.  1.
         11    1    4    4    0    0  0.30160205706E+02  0.40726224190E+02 -0.89692100517E+02  0.10301910619E+03  0.00000000000E+00 0. -1.
        -12    1    4    4    0    0  0.80966187752E+01  0.81617285271E+01  0.17645510779E+02  0.21060225516E+02  0.00000000000E+00 0.  1.
</event>
<event>
12    1  0.8724767E-002  0.2185606E+03  0.7818608E-02  0.1135375E+00
         21   -1    0    0  501  502  0.00000000000E+00  0.00000000000E+00  0.65091480777E+02  0.65091480777E+02  0.00000000000E+00 0.  1.
         21   -1    0    0  502  503 -0.00000000000E+00 -0.00000000000E+00 -0.83960716207E+03  0.83960716207E+03  0.00000000000E+00 0. -1.
         -6    2    1    2    0  503  0.12956826751E+03 -0.34148019056E+02 -0.22293946684E+03  0.31220304699E+03  0.17266937634E+03 0.  0.
        -24    2    3    3    0    0  0.14649144065E+03 -0.59889988738E+02 -0.21693184387E+03  0.28046624933E+03  0.80965049205E+02 0.  0.
          6    2    1    2  501    0 -0.12956826751E+03  0.34148019056E+02 -0.55157621446E+03  0.59249559586E+03  0.16988433596E+03 0.  0.
         24    2    5    5    0    0 -0.40107190306E+02 -0.37237712394E+02 -0.32002598916E+03  0.33416092179E+03  0.79067401483E+02 0.  0.
          5    1    5    5  501    0 -0.89461077202E+02  0.71385731450E+02 -0.23155022530E+03  0.25833467406E+03  0.47000000000E+01 0. -1.
        -13    1    6    6    0    0  0.16022808692E+02 -0.28028287634E+02 -0.18254243108E+03  0.18537544188E+03  0.00000000000E+00 0.  1.
         14    1    6    6    0    0 -0.56129998998E+02 -0.92094247603E+01 -0.13748355808E+03  0.14878547992E+03  0.00000000000E+00 0. -1.
         -5    1    3    3    0  503 -0.16923173141E+02  0.25741969682E+02 -0.60076229694E+01  0.31736797664E+02  0.47000000000E+01 0.  1.
         11    1    4    4    0    0  0.90524519645E+02 -0.66931576553E+02 -0.18234326886E+03  0.21429790548E+03  0.00000000000E+00 0. -1.
        -12    1    4    4    0    0  0.55966921003E+02  0.70415878156E+01 -0.34588575008E+02  0.66168343841E+02  0.00000000000E+00 0.  1.
</event>
<event>
12    1  0.8724767E-002  0.1750402E+03  0.7818608E-02  0.1173279E+00
         21   -1    0    0  503  502  0.00000000000E+00  0.00000000000E+00  0.10550685012E+03  0.10550685012E+03  0.00000000000E+00 0.  1.
         21   -1    0    0  501  503 -0.00000000000E+00 -0.00000000000E+00 -0.68727380091E+03  0.68727380091E+03  0.00000000000E+00 0.  1.
          6    2    1    2  501    0 -0.12973825930E+02 -0.30336058530E+02 -0.59436811316E+03  0.61960674937E+03  0.17190251107E+03 0.  0.
         24    2    3    3    0    0 -0.38095003332E+02  0.43533374581E+02 -0.26582546330E+03  0.28189366185E+03  0.73854422158E+02 0.  0.
         -6    2    1    2    0  502  0.12973825930E+02  0.30336058530E+02  0.12601162363E+02  0.17317390167E+03  0.16953410961E+03 0.  0.
        -24    2    5    5    0    0  0.23017690374E+02 -0.45701671262E+02  0.14061776778E+02  0.96317939249E+02  0.80380066115E+02 0.  0.
          5    1    3    3  501    0  0.25121177402E+02 -0.73869433111E+02 -0.32854264986E+03  0.33771308751E+03  0.47000000000E+01 0. -1.
        -11    1    4    4    0    0  0.12565789378E+02 -0.58719768060E+01 -0.10854496798E+03  0.10942755251E+03  0.00000000000E+00 0.  1.
         12    1    4    4    0    0 -0.50660792710E+02  0.49405351387E+02 -0.15728049532E+03  0.17246610934E+03  0.00000000000E+00 0. -1.
         -5    1    5    5    0  502 -0.10043864444E+02  0.76037729793E+02 -0.14606144151E+01  0.76855962420E+02  0.47000000000E+01 0.  1.
         13    1    6    6    0    0  0.18825899738E+02  0.20393278021E+02 -0.30329891718E+01  0.27919514908E+02  0.00000000000E+00 0. -1.
        -14    1    6    6    0    0  0.41917906364E+01 -0.66094949283E+02  0.17094765950E+02  0.68398424341E+02  0.00000000000E+00 0.  1.
</event>
<event>
12    1  0.8724767E-002  0.1945436E+03  0.7818608E-02  0.1155644E+00
         21   -1    0    0  503  502  0.00000000000E+00  0.00000000000E+00  0.23599529980E+03  0.23599529980E+03  0.00000000000E+00 0. -1.
         21   -1    0    0  501  503 -0.00000000000E+00 -0.00000000000E+00 -0.17760725551E+03  0.17760725551E+03  0.00000000000E+00 0.  1.
          6    2    1    2  501    0 -0.79657062632E+02  0.18290222600E+02 -0.42758702285E+02  0.19918718948E+03  0.17654305413E+03 0.  0.
         24    2    3    3    0    0  0.39721145418E+01 -0.42234535302E+02 -0.11081823829E+02  0.91101111641E+02  0.79856571781E+02 0.  0.
         -6    2    1    2    0  502  0.79657062632E+02 -0.18290222600E+02  0.10114674658E+03  0.21441536583E+03  0.17048021847E+03 0.  0.
        -24    2    5    5    0    0  0.77643525073E+01 -0.54427148283E+02  0.17717655737E+02  0.98411303980E+02  0.79676030185E+02 0.  0.
          5    1    3    3  501    0 -0.83629177174E+02  0.60524757902E+02 -0.31676878456E+02  0.10808607784E+03  0.47000000000E+01 0. -1.
        -13    1    4    4    0    0 -0.17013959862E+01 -0.58987496580E+00 -0.40027883754E+02  0.40068368804E+02  0.00000000000E+00 0.  1.
         14    1    4    4    0    0  0.56735105281E+01 -0.41644660336E+02  0.28946059926E+02  0.51032742837E+02  0.00000000000E+00 0. -1.
         -5    1    5    5    0  502  0.71892710125E+02  0.36136925682E+02  0.83429090839E+02  0.11600406185E+03  0.47000000000E+01 0.  1.
         13    1    6    6    0    0  0.98775947861E+01 -0.34215250094E+02  0.49323205044E+02  0.60836081182E+02  0.00000000000E+00 0. -1.
        -14    1    6    6    0    0 -0.21132422788E+01 -0.20211898189E+02 -0.31605549307E+02  0.37575222798E+02  0.00000000000E+00 0.  1.
</event>
<event>
12    1  0.8724767E-002  0.1947232E+03  0.7818608E-02  0.1154615E+00
         21   -1    0    0  503  502  0.00000000000E+00  0.00000000000E+00  0.19221825078E+03  0.19221825078E+03  0.00000000000E+00 0.  1.
         21   -1    0    0  501  503 -0.00000000000E+00 -0.00000000000E+00 -0.30456429037E+03  0.30456429037E+03  0.00000000000E+00 0.  1.
          6    2    1    2  501    0 -0.65386170235E+02  0.62862713207E+02 -0.20455441867E+03  0.28133063184E+03  0.17052079711E+03 0.  0.
         24    2    3    3    0    0  0.13197857114E+02  0.11180979243E+02 -0.37458097315E+02  0.89524162739E+02  0.79449788737E+02 0.  0.
         -6    2    1    2    0  502  0.65386170235E+02 -0.62862713207E+02  0.92208379079E+02  0.21545190931E+03  0.17230806157E+03 0.  0.
        -24    2    5    5    0    0  0.76445628908E+02 -0.53715925209E+02 -0.47702431829E-01  0.12196795383E+03  0.78401815573E+02 0.  0.
          5    1    3    3  501    0 -0.78584027348E+02  0.51681733964E+02 -0.16709632135E+03  0.19180646910E+03  0.47000000000E+01 0. -1.
        -11    1    4    4    0    0  0.74827184737E+00  0.34927236867E+02  0.88278550226E+01  0.36033356910E+02  0.00000000000E+00 0.  1.
         12    1    4    4    0    0  0.12449585266E+02 -0.23746257624E+02 -0.46285952337E+02  0.53490805829E+02  0.00000000000E+00 0. -1.
         -5    1    5    5    0  502 -0.11059458673E+02 -0.91467879979E+01  0.92256081510E+02  0.93483955482E+02  0.47000000000E+01 0.  1.
         13    1    6    6    0    0  0.47311724016E+02  0.63775511524E+01  0.20702537677E+02  0.52035252035E+02  0.00000000000E+00 0. -1.
        -14    1    6    6    0    0  0.29133904892E+02 -0.60093476362E+02 -0.20750240109E+02  0.69932701793E+02  0.00000000000E+00 0.  1.
</event>
<event>
12    1  0.8724767E-002  0.4231857E+03  0.7818608E-02  0.1036261E+00
         21   -1    0    0  503  502  0.00000000000E+00  0.00000000000E+00  0.33742501940E+03  0.33742501940E+03  0.00000000000E+00 0. -1.
         21   -1    0    0  501  503 -0.00000000000E+00 -0.00000000000E+00 -0.60904461958E+03  0.60904461958E+03  0.00000000000E+00 0.  1.
          6    2    1    2  501    0  0.38055638698E+03  0.66012173165E+02 -0.30886087585E+03  0.52164849169E+03  0.16595583017E+03 0.  0.
         24    2    3    3    0    0  0.37913541820E+03  0.36439012830E+02 -0.27447156600E+03  0.47602716338E+03  0.78713104020E+02 0.  0.
         -6    2    1    2    0  502 -0.38055638698E+03 -0.66012173165E+02  0.37241275668E+02  0.42482114729E+03  0.17293155840E+03 0.  0.
        -24    2    5    5    0    0 -0.16817907321E+03 -0.90788810957E+01 -0.55729307959E+02  0.18605108515E+03  0.56059109640E+02 0.  0.
          5    1    3    3  501    0  0.14209687820E+01  0.29573160334E+02 -0.34389309843E+02  0.45621328301E+02  0.47000000000E+01 0. -1.
        -13    1    4    4    0    0  0.26674409566E+03  0.23812471106E+02 -0.23483661645E+03  0.35618489970E+03  0.00000000000E+00 0.  1.
         14    1    4    4    0    0  0.11239132254E+03  0.12626541724E+02 -0.39634949555E+02  0.11984226369E+03  0.00000000000E+00 0. -1.
         -5    1    5    5    0  502 -0.21237731378E+03 -0.56933292069E+02  0.92970583627E+02  0.23877006214E+03  0.47000000000E+01 0.  1.
         11    1    6    6    0    0 -0.11753590725E+03 -0.29375078640E+02 -0.50456284002E+02  0.13123803310E+03  0.00000000000E+00 0. -1.
        -12    1    6    6    0    0 -0.50643165963E+02  0.20296197544E+02 -0.52730239578E+01  0.54813052051E+02  0.00000000000E+00 0.  1.
</event>
<event>
12    1  0.8724767E-002  0.3055205E+03  0.7818608E-02  0.1083474E+00
         21   -1    0    0  503  502  0.00000000000E+00  0.00000000000E+00  0.18736121108E+03  0.18736121108E+03  0.00000000000E+00 0. -1.
         21   -1    0    0  501  503 -0.00000000000E+00 -0.00000000000E+00 -0.13204795021E+04  0.13204795021E+04  0.00000000000E+00 0.  1.
          6    2    1    2  501    0  0.64629278814E+02 -0.23440713007E+03  0.30209875841E+02  0.30701041543E+03  0.18498408656E+03 0.  0.
         24    2    3    3    0    0 -0.21964827793E+02 -0.17731483307E+03 -0.10599306917E+02  0.19545079428E+03  0.78521742139E+02 0.  0.
         -6    2    1    2    0  502 -0.64629278814E+02  0.23440713007E+03 -0.11633281668E+04  0.12008302977E+04  0.17186428907E+03 0.  0.
        -24    2    5    5    0    0  0.53329639978E+01  0.40174350080E+02 -0.45604305743E+03  0.46401593559E+03  0.75452629830E+02 0.  0.
          5    1    3    3  501    0  0.86594106607E+02 -0.57092296992E+02  0.40809182758E+02  0.11155962115E+03  0.47000000000E+01 0. -1.
        -11    1    4    4    0    0 -0.19536382683E+02 -0.18787508167E+01 -0.27938584342E+01  0.19824368790E+02  0.00000000000E+00 0.  1.
         12    1    4    4    0    0 -0.24284451091E+01 -0.17543608226E+03 -0.78054484829E+01  0.17562642549E+03  0.00000000000E+00 0. -1.
         -5    1    5    5    0  502 -0.69962242812E+02  0.19423277998E+03 -0.70728510942E+03  0.73681436213E+03  0.47000000000E+01 0.  1.
         13    1    6    6    0    0  0.34059927803E+02  0.27322253235E+02 -0.14626756581E+03  0.15264594659E+03  0.00000000000E+00 0. -1.
        -14    1    6    6    0    0 -0.28726963805E+02  0.12852096846E+02 -0.30977549162E+03  0.31136998900E+03  0.00000000000E+00 0.  1.
</event>
<event>
12    1  0.8724767E-002  0.2476333E+03  0.7818608E-02  0.1114848E+00
         21   -1    0    0  501  502  0.00000000000E+00  0.00000000000E+00  0.63382266157E+03  0.63382266157E+03  0.00000000000E+00 0. -1.
         21   -1    0    0  502  503 -0.00000000000E+00 -0.00000000000E+00 -0.39050598793E+03  0.39050598793E+03  0.00000000000E+00 0. -1.
         -6    2    1    2    0  503 -0.31924726475E+02  0.17408017353E+03 -0.32260787417E+03  0.40669166123E+03  0.17320269013E+03 0.  0.
        -24    2    3    3    0    0 -0.82247899313E+02  0.75925204432E+02 -0.18757761572E+03  0.23227239516E+03  0.78966765308E+02 0.  0.
          6    2    1    2  501    0  0.31924726475E+02 -0.17408017353E+03  0.56592454780E+03  0.61763698827E+03  0.17286341574E+03 0.  0.
         24    2    5    5    0    0 -0.34319303235E+02 -0.89972243191E+02  0.40867827633E+03  0.42734538228E+03  0.79582178256E+02 0.  0.
          5    1    5    5  501    0  0.66244029710E+02 -0.84107930334E+02  0.15724627147E+03  0.19029160599E+03  0.47000000000E+01 0. -1.
        -13    1    6    6    0    0  0.11927221514E+01 -0.10046868369E+02  0.74819451608E+00  0.10145045352E+02  0.00000000000E+00 0.  1.
         14    1    6    6    0    0 -0.35512025386E+02 -0.79925374822E+02  0.40793008181E+03  0.41720033693E+03  0.00000000000E+00 0. -1.
         -5    1    3    3    0  503  0.50323172838E+02  0.98154969094E+02 -0.13503025845E+03  0.17441926608E+03  0.47000000000E+01 0.  1.
         13    1    4    4    0    0  0.50029774700E+01  0.21368126293E+02 -0.47190959310E+01  0.22447638434E+02  0.00000000000E+00 0. -1.
        -14    1    4    4    0    0 -0.87250876783E+02  0.54557078139E+02 -0.18285851979E+03  0.20982475672E+03  0.00000000000E+00 0.  1.
</event>
<event>
12    1  0.8724767E-002  0.2164866E+03  0.7818608E-02  0.1136710E+00
         21   -1    0    0  501  502  0.00000000000E+00  0.00000000000E+00  0.21809208881E+02  0.21809208881E+02  0.00000000000E+00 0.  1.
         21   -1    0    0  502  503 -0.00000000000E+00 -0.00000000000E+00 -0.22099563261E+04  0.22099563261E+04  0.00000000000E+00 0.  1.
         -6    2    1    2    0  503  0.12808479011E+03 -0.22406235282E+02 -0.89262973538E+03  0.91828475687E+03  0.17190490793E+03 0.  0.
        -24    2    3    3    0    0  0.14137877704E+02 -0.52661181972E+02 -0.43205937238E+03  0.44284137441E+03  0.80374759445E+02 0.  0.
          6    2    1    2  501    0 -0.12808479011E+03  0.22406235282E+02 -0.12955173818E+04  0.13134807781E+04  0.17308586020E+03 0.  0.
         24    2    5    5    0    0 -0.87640726940E+02  0.64699889045E+02 -0.11281593912E+04  0.11361244632E+04  0.78537961364E+02 0.  0.
          5    1    5    5  501    0 -0.40444063165E+02 -0.42293653763E+02 -0.16735799066E+03  0.17735631489E+03  0.47000000000E+01 0. -1.
        -11    1    6    6    0    0 -0.10256866690E+02  0.22152241027E+02 -0.61040322494E+03  0.61089117043E+03  0.00000000000E+00 0.  1.
         12    1    6    6    0    0 -0.77383860250E+02  0.42547648018E+02 -0.51775616621E+03  0.52523329277E+03  0.00000000000E+00 0. -1.
         -5    1    3    3    0  503  0.11394691240E+03  0.30254946690E+02 -0.46057036300E+03  0.47544338245E+03  0.47000000000E+01 0.  1.
         13    1    4    4    0    0  0.36380992556E+02 -0.62749031201E+02 -0.31154570532E+03  0.31987770169E+03  0.00000000000E+00 0. -1.
        -14    1    4    4    0    0 -0.22243114852E+02  0.10087849229E+02 -0.12051366706E+03  0.12296367272E+03  0.00000000000E+00 0.  1.
</event>
<event>
12    1  0.8724767E-002  0.2600509E+03  0.7818608E-02  0.1107121E+00
         21   -1    0    0  503  502  0.00000000000E+00  0.00000000000E+00  0.79713098499E+02  0.79713098499E+02  0.00000000000E+00 0.  1.
         21   -1    0    0  501  503 -0.00000000000E+00 -0.00000000000E+00 -0.93926047156E+03  0.93926047156E+03  0.00000000000E+00 0.  1.
          6    2    1    2  501    0 -0.16900739092E+03  0.96589077628E+02 -0.58845189145E+03  0.64335224989E+03  0.17243416362E+03 0.  0.
         24    2    3    3    0    0 -0.25111229322E+02  0.25840225547E+02 -0.30846518133E+03  0.32066640694E+03  0.79861663862E+02 0.  0.
         -6    2    1    2    0  502  0.16900739092E+03 -0.96589077628E+02 -0.27109548162E+03  0.37562132018E+03  0.17235332290E+03 0.  0.
        -24    2    5    5    0    0  0.95838774092E+02 -0.10897642185E+03 -0.11165219366E+03  0.19969137713E+03  0.79683766307E+02 0.  0.
          5    1    3    3  501    0 -0.14389616160E+03  0.70748852080E+02 -0.27998671011E+03  0.32268584294E+03  0.47000000000E+01 0. -1.
        -11    1    4    4    0    0 -0.28562687469E+02 -0.23898575579E+02 -0.11500294606E+03  0.12088278055E+03  0.00000000000E+00 0.  1.
         12    1    4    4    0    0  0.34514581468E+01  0.49738801126E+02 -0.19346223527E+03  0.19978362639E+03  0.00000000000E+00 0. -1.
         -5    1    5    5    0  502  0.73168616830E+02  0.12387344221E+02 -0.15944328796E+03  0.17592994305E+03  0.47000000000E+01 0.  1.
         11    1    6    6    0    0  0.19065064381E+00 -0.16244094263E+02  0.10172100179E+02  0.19167122062E+02  0.00000000000E+00 0. -1.
        -12    1    6    6    0    0  0.95648123448E+02 -0.92732327586E+02 -0.12182429384E+03  0.18052425507E+03  0.00000000000E+00 0.  1.
</event>
<event>
12    1  0.8724767E-002  0.2818633E+03  0.7818608E-02  0.1094734E+00
         21   -1    0    0  503  502  0.00000000000E+00  0.00000000000E+00  0.24167040886E+03  0.24167040886E+03  0.00000000000E+00 0. -1.
         21   -1    0    0  501  503 -0.00000000000E+00 -0.00000000000E+00 -0.40537296787E+03  0.40537296787E+03  0.00000000000E+00 0.  1.
          6    2    1    2  501    0  0.10832606054E+03 -0.19523772821E+03 -0.22302855318E+03  0.35942827305E+03  0.17203093334E+03 0.  0.
         24    2    3    3    0    0 -0.37011363603E+01 -0.13149082673E+03 -0.12517079986E+03  0.19752709894E+03  0.77754033681E+02 0.  0.
         -6    2    1    2    0  502 -0.10832606054E+03  0.19523772821E+03  0.59325994182E+02  0.28761510368E+03  0.17132007579E+03 0.  0.
        -24    2    5    5    0    0 -0.30563006645E+02  0.76093904661E+02  0.85142684679E+02  0.14293983022E+03  0.80362544812E+02 0.  0.
          5    1    3    3  501    0  0.11202719690E+03 -0.63746901481E+02 -0.97857753325E+02  0.16190117411E+03  0.47000000000E+01 0. -1.
        -13    1    4    4    0    0 -0.40689258065E+01 -0.12150976731E+03 -0.13625247443E+03  0.18260864300E+03  0.00000000000E+00 0.  1.
         14    1    4    4    0    0  0.36778944620E+00 -0.99810594241E+01  0.11081674575E+02  0.14918455942E+02  0.00000000000E+00 0. -1.
         -5    1    5    5    0  502 -0.77763053892E+02  0.11914382355E+03 -0.25816690496E+02  0.14467527345E+03  0.47000000000E+01 0.  1.
         13    1    6    6    0    0  0.30786974551E+01  0.29565991250E+02 -0.10382848060E+02  0.31486977475E+02  0.00000000000E+00 0. -1.
        -14    1    6    6    0    0 -0.33641704100E+02  0.46527913410E+02  0.95525532739E+02  0.11145285275E+03  0.00000000000E+00 0.  1.
</event>
<event>
12    1  0.8724767E-002  0.1865195E+03  0.7818608E-02  0.1162650E+00
         21   -1    0    0  503  502  0.00000000000E+00  0.00000000000E+00  0.46993152610E+03  0.46993152610E+03  0.00000000000E+00 0.  1.
         21   -1    0    0  501  503 -0.00000000000E+00 -0.00000000000E+00 -0.72958597294E+02  0.72958597294E+02  0.00000000000E+00 0. -1.
          6    2    1    2  501    0  0.13962107267E+02 -0.61231108435E+02  0.22610155477E+03  0.29310653960E+03  0.17562841857E+03 0.  0.
         24    2    3    3    0    0  0.52515322020E+02 -0.71310622031E+02  0.22215784237E+03  0.25278793559E+03  0.81881436178E+02 0.  0.
         -6    2    1    2    0  502 -0.13962107267E+02  0.61231108435E+02  0.17087137404E+03  0.24978358380E+03  0.17102813566E+03 0.  0.
        -24    2    5    5    0    0  0.34896182286E+02 -0.11764258962E+02  0.49970425386E+02  0.10026908448E+03  0.78744552591E+02 0.  0.
          5    1    3    3  501    0 -0.38553214753E+02  0.10079513597E+02  0.39437123994E+01  0.40318604014E+02  0.47000000000E+01 0. -1.
        -11    1    4    4    0    0  0.39887667484E+02 -0.87483262309E+02  0.15346634904E+03  0.18109739780E+03  0.00000000000E+00 0.  1.
         12    1    4    4    0    0  0.12627654536E+02  0.16172640278E+02  0.68691493327E+02  0.71690537787E+02  0.00000000000E+00 0. -1.
         -5    1    5    5    0  502 -0.48858289553E+02  0.72995367397E+02  0.12090094865E+03  0.14951449931E+03  0.47000000000E+01 0.  1.
         13    1    6    6    0    0  0.33787738094E+02  0.25171395097E+02  0.55643238456E+01  0.42499083243E+02  0.00000000000E+00 0. -1.
        -14    1    6    6    0    0  0.11084441924E+01 -0.36935654059E+02  0.44406101541E+02  0.57770001241E+02  0.00000000000E+00 0.  1.
</event>
<event>
12    1  0.8724767E-002  0.2408975E+03  0.7818608E-02  0.1119231E+00
         21   -1    0    0  501  502  0.00000000000E+00  0.00000000000E+00  0.99611072712E+03  0.99611072712E+03  0.00000000000E+00 0.  1.
         21   -1    0    0  502  503 -0.00000000000E+00 -0.00000000000E+00 -0.61818354447E+02  0.61818354447E+02  0.00000000000E+00 0.  1.
         -6    2    1    2    0  503  0.12997470937E+03 -0.10719390173E+03  0.33949732193E+03  0.41628118707E+03  0.17218489325E+03 0.  0.
        -24    2    3    3    0    0 -0.55836966447E+00 -0.19693013113E+02  0.95064024111E+02  0.12565252827E+03  0.79770061042E+02 0.  0.
          6    2    1    2  501    0 -0.12997470937E+03  0.10719390173E+03  0.59479505073E+03  0.64164789449E+03  0.17189214782E+03 0.  0.
         24    2    5    5    0    0 -0.14855668400E+03  0.47705919456E+02  0.47593682468E+03  0.50735910971E+03  0.80947279189E+02 0.  0.
          5    1    5    5  501    0  0.18581974635E+02  0.59487982277E+02  0.11885822605E+03  0.13428878478E+03  0.47000000000E+01 0. -1.
        -13    1    6    6    0    0 -0.10912237727E+03  0.67362526674E+02  0.30561283931E+03  0.33142813817E+03  0.00000000000E+00 0.  1.
         14    1    6    6    0    0 -0.39434306737E+02 -0.19656607218E+02  0.17032398538E+03  0.17593097155E+03  0.00000000000E+00 0. -1.
         -5    1    3    3    0  503  0.13053307903E+03 -0.87500888620E+02  0.24443329782E+03  0.29062865880E+03  0.47000000000E+01 0.  1.
         13    1    4    4    0    0 -0.59937553323E+01  0.23228939549E+02  0.33194990511E+01  0.24218336225E+02  0.00000000000E+00 0. -1.
        -14    1    4    4    0    0  0.54353856679E+01 -0.42921952662E+02  0.91744525060E+02  0.10143419205E+03  0.00000000000E+00 0.  1.
</event>
<event>
12    1  0.8724767E-002  0.1802812E+03  0.7818608E-02  0.1167578E+00
         21   -1    0    0  503  502  0.00000000000E+00  0.00000000000E+00  0.17769935043E+03  0.17769935043E+03  0.00000000000E+00 0.  1.
         21   -1    0    0  501  503 -0.00000000000E+00 -0.00000000000E+00 -0.18488697190E+03  0.18488697190E+03  0.00000000000E+00 0.  1.
          6    2    1    2  501    0 -0.20285684595E+02  0.48990893266E+02  0.16100158065E+02  0.18099872173E+03  0.17230700960E+03 0.  0.
         24    2    3    3    0    0 -0.33830525986E+02 -0.76266666545E+01  0.61284163630E+02  0.10715635463E+03  0.80771684976E+02 0.  0.
         -6    2    1    2    0  502  0.20285684595E+02 -0.48990893266E+02 -0.23287779533E+02  0.18158760059E+03  0.17210496620E+03 0.  0.
        -24    2    5    5    0    0  0.38258388004E+02  0.31914973071E+02  0.17018603019E+01  0.94896485852E+02  0.80747612595E+02 0.  0.
          5    1    3    3  501    0  0.13544841391E+02  0.56617559921E+02 -0.45184005566E+02  0.73842367098E+02  0.47000000000E+01 0. -1.
        -13    1    4    4    0    0 -0.38365975108E+02  0.19183968758E+02  0.31898880461E+01  0.43013347801E+02  0.00000000000E+00 0.  1.
         14    1    4    4    0    0  0.45354491221E+01 -0.26810635413E+02  0.58094275584E+02  0.64143006833E+02  0.00000000000E+00 0. -1.
         -5    1    5    5    0  502 -0.17972703409E+02 -0.80905866337E+02 -0.24989639835E+02  0.86691114739E+02  0.47000000000E+01 0.  1.
         13    1    6    6    0    0 -0.14707521965E+02 -0.17201022245E+02  0.11387837786E+01  0.22660167633E+02  0.00000000000E+00 0. -1.
        -14    1    6    6    0    0  0.52965909969E+02  0.49115995316E+02  0.56307652327E+00  0.72236318220E+02  0.00000000000E+00 0.  1.
</event>
<event>
12    1  0.8724767E-002  0.1758663E+03  0.7818608E-02  0.1172149E+00
         21   -1    0    0  501  502  0.00000000000E+00  0.00000000000E+00  0.77559951942E+02  0.77559951942E+02  0.00000000000E+00 0. -1.
         21   -1    0    0  502  503 -0.00000000000E+00 -0.00000000000E+00 -0.39873501323E+03  0.39873501323E+03  0.00000000000E+00 0. -1.
         -6    2    1    2    0  503 -0.23394327553E+01  0.25364269173E+02 -0.18007740385E+03  0.25170778751E+03  0.17401183817E+03 0.  0.
        -24    2    3    3    0    0  0.61987326982E+02  0.37079540140E+02 -0.13332769449E+03  0.17119192003E+03  0.79454882554E+02 0.  0.
          6    2    1    2  501    0  0.23394327553E+01 -0.25364269173E+02 -0.14109765744E+03  0.22458717766E+03  0.17286420201E+03 0.  0.
         24    2    5    5    0    0  0.59941329238E+02 -0.59994732303E+02 -0.71680899563E+02  0.12785029881E+03  0.63365737499E+02 0.  0.
          5    1    5    5  501    0 -0.57601896482E+02  0.34630463130E+02 -0.69416757880E+02  0.96736878850E+02  0.47000000000E+01 0. -1.
        -13    1    6    6    0    0  0.38570645320E+02 -0.65696311849E+02 -0.32431877722E+02  0.82798108454E+02  0.00000000000E+00 0.  1.
         14    1    6    6    0    0  0.21370683918E+02  0.57015795459E+01 -0.39249021841E+02  0.45052190356E+02  0.00000000000E+00 0. -1.
         -5    1    3    3    0  503 -0.64326759737E+02 -0.11715270966E+02 -0.46749709361E+02  0.80515867489E+02  0.47000000000E+01 0.  1.
         13    1    4    4    0    0  0.40304271839E+02  0.27675328166E+02 -0.15903536838E+02  0.51412844714E+02  0.00000000000E+00 0. -1.
        -14    1    4    4    0    0  0.21683055143E+02  0.94042119740E+01 -0.11742415765E+03  0.11977907531E+03  0.00000000000E+00 0.  1.
</event>
<event>
12    1  0.8724767E-002  0.1963609E+03  0.7818608E-02  0.1153071E+00
         21   -1    0    0  501  502  0.00000000000E+00  0.00000000000E+00  0.33398470167E+03  0.33398470167E+03  0.00000000000E+00 0. -1.
         21   -1    0    0  502  503 -0.00000000000E+00 -0.00000000000E+00 -0.11646019669E+03  0.11646019669E+03  0.00000000000E+00 0. -1.
         -6    2    1    2    0  503  0.94284294638E+02 -0.91866466494E+01  0.13563839778E+03  0.23865323398E+03  0.17199903617E+03 0.  0.
        -24    2    3    3    0    0  0.81035476179E+02 -0.69618424664E+02  0.86212181878E+02  0.15932750169E+03  0.80865561516E+02 0.  0.
          6    2    1    2  501    0 -0.94284294638E+02  0.91866466494E+01  0.81886107206E+02  0.21179166439E+03  0.17081115847E+03 0.  0.
         24    2    5    5    0    0 -0.43233233799E+02 -0.52685169498E+02  0.79141190396E+02  0.13139292674E+03  0.79724109223E+02 0.  0.
          5    1    5    5  501    0 -0.51051060839E+02  0.61871816148E+02  0.27449168100E+01  0.80398737642E+02  0.47000000000E+01 0. -1.
        -13    1    6    6    0    0  0.62311162422E+01 -0.48925365595E+02  0.61293766813E+02  0.78673019888E+02  0.00000000000E+00 0.  1.
         14    1    6    6    0    0 -0.49464350041E+02 -0.37598039030E+01  0.17847423583E+02  0.52719906856E+02  0.00000000000E+00 0. -1.
         -5    1    3    3    0  503  0.13248818459E+02  0.60431778014E+02  0.49426215899E+02  0.79325732285E+02  0.47000000000E+01 0.  1.
         11    1    4    4    0    0  0.25142079222E+02 -0.80484310668E+01 -0.13369611361E+02  0.29591348367E+02  0.00000000000E+00 0. -1.
        -12    1    4    4    0    0  0.55893396957E+02 -0.61569993597E+02  0.99581793239E+02  0.12973615333E+03  0.00000000000E+00 0.  1.
</event>
<event>
12    1  0.8724767E-002  0.1820659E+03  0.7818608E-02  0.1165937E+00
         21   -1    0    0  501  502  0.00000000000E+00  0.00000000000E+00  0.19515368846E+03  0.19515368846E+03  0.00000000000E+00 0.  1.
         21   -1    0    0  502  503 -0.00000000000E+00 -0.00000000000E+00 -0.20772509645E+03  0.20772509645E+03  0.00000000000E+00 0.  1.
         -6    2    1    2    0  503 -0.53186910889E+01  0.56702154432E+02 -0.92824989741E+02  0.20436359896E+03  0.17292940486E+03 0.  0.
        -24    2    3    3    0    0 -0.50477544474E+02  0.47462563910E+02 -0.11218863079E+03  0.15414674256E+03  0.79838912149E+02 0.  0.
          6    2    1    2  501    0  0.53186910889E+01 -0.56702154432E+02  0.80253581753E+02  0.19851518596E+03  0.17240713117E+03 0.  0.
         24    2    5    5    0    0  0.34637731110E+02 -0.95905511708E+02  0.40602382816E+02  0.13534227320E+03  0.79191778812E+02 0.  0.
          5    1    5    5  501    0 -0.29319040021E+02  0.39203357277E+02  0.39651198937E+02  0.63172912761E+02  0.47000000000E+01 0. -1.
        -11    1    6    6    0    0 -0.13178592455E+02 -0.81059462778E+01 -0.14484937760E+02  0.21194222941E+02  0.00000000000E+00 0.  1.
         12    1    6    6    0    0  0.47816323565E+02 -0.87799565431E+02  0.55087320576E+02  0.11414805026E+03  0.00000000000E+00 0. -1.
         -5    1    3    3    0  503  0.45158853385E+02  0.92395905219E+01  0.19363641047E+02  0.50216856400E+02  0.47000000000E+01 0.  1.
         13    1    4    4    0    0 -0.32615237059E+02 -0.13174814804E+02 -0.15070801881E+02  0.38268244053E+02  0.00000000000E+00 0. -1.
        -14    1    4    4    0    0 -0.17862307415E+02  0.60637378714E+02 -0.97117828907E+02  0.11587849850E+03  0.00000000000E+00 0.  1.
</event>
<event>
12    1  0.8724767E-002  0.2293231E+03  0.7818608E-02  0.1127117E+00
         21   -1    0    0  501  502  0.00000000000E+00  0.00000000000E+00  0.10081364126E+04  0.10081364126E+04  0.00000000000E+00 0.  1.
         21   -1    0    0  502  503 -0.00000000000E+00 -0.00000000000E+00 -0.94501655850E+02  0.94501655850E+02  0.00000000000E+00 0.  1.
         -6    2    1    2    0  503  0.11348735463E+03  0.10045589500E+03  0.87799933811E+02  0.24555450188E+03  0.17209711943E+03 0.  0.
        -24    2    3    3    0    0  0.76876533400E+02  0.72881070867E+01  0.92753544245E+02  0.14521897880E+03  0.80760224993E+02 0.  0.
          6    2    1    2  501    0 -0.11348735463E+03 -0.10045589500E+03  0.82583482296E+03  0.85708356659E+03  0.17209973504E+03 0.  0.
         24    2    5    5    0    0 -0.47596496855E+01 -0.14257977635E+02  0.13508773627E+03  0.15252312024E+03  0.69200155545E+02 0.  0.
          5    1    5    5  501    0 -0.10872770494E+03 -0.86197917367E+02  0.69074708669E+03  0.70456044635E+03  0.47000000000E+01 0. -1.
        -13    1    6    6    0    0 -0.29234454389E+02 -0.29008120442E+02  0.92289666315E+02  0.10106189630E+03  0.00000000000E+00 0.  1.
         14    1    6    6    0    0  0.24474804704E+02  0.14750142808E+02  0.42798069950E+02  0.51461223942E+02  0.00000000000E+00 0. -1.
         -5    1    3    3    0  503  0.36610821230E+02  0.93167787915E+02 -0.49536104343E+01  0.10033552308E+03  0.47000000000E+01 0.  1.
         13    1    4    4    0    0  0.60503125946E+02 -0.22528425894E+02  0.24676595513E+02  0.69116514586E+02  0.00000000000E+00 0. -1.
        -14    1    4    4    0    0  0.16373407454E+02  0.29816532980E+02  0.68076948732E+02  0.76102464213E+02  0.00000000000E+00 0.  1.
</event>
<event>
12    1  0.8724767E-002  0.1966867E+03  0.7818608E-02  0.1154022E+00
         21   -1    0    0  503  502  0.00000000000E+00  0.00000000000E+00  0.17851789681E+03  0.17851789681E+03  0.00000000000E+00 0. -1.
         21   -1    0    0  501  503 -0.00000000000E+00 -0.00000000000E+00 -0.38561892852E+03  0.38561892852E+03  0.00000000000E+00 0. -1.
          6    2    1    2  501    0 -0.85643611119E+02  0.22522227081E+02 -0.29515076410E+03  0.35468244242E+03  0.17562341123E+03 0.  0.
         24    2    3    3    0    0 -0.56231625449E+02 -0.54652788434E+02 -0.14986248261E+03  0.18749445643E+03  0.80910348622E+02 0.  0.
         -6    2    1    2    0  502  0.85643611119E+02 -0.22522227081E+02  0.88049732387E+02  0.20945438291E+03  0.16815559553E+03 0.  0.
        -24    2    5    5    0    0  0.84118858638E+02  0.31950535960E+02  0.49417571685E+02  0.14249065673E+03  0.98816353588E+02 0.  0.
          5    1    3    3  501    0 -0.29411985671E+02  0.77175015514E+02 -0.14528828149E+03  0.16718798599E+03  0.47000000000E+01 0. -1.
        -13    1    4    4    0    0  0.18888734383E+01 -0.74066148848E+01  0.90312335664E+01  0.11831693313E+02  0.00000000000E+00 0.  1.
         14    1    4    4    0    0 -0.58120498887E+02 -0.47246173549E+02 -0.15889371618E+03  0.17566276312E+03  0.00000000000E+00 0. -1.
         -5    1    5    5    0  502  0.15247524812E+01 -0.54472763040E+02  0.38632160702E+02  0.66963726180E+02  0.47000000000E+01 0.  1.
         11    1    6    6    0    0  0.38793915105E+02  0.67089077141E+01  0.74955718128E+02  0.84666031985E+02  0.00000000000E+00 0. -1.
        -12    1    6    6    0    0  0.45324943533E+02  0.25241628245E+02 -0.25538146443E+02  0.57824624742E+02  0.00000000000E+00 0.  1.
</event>
<event>
12    1  0.8724767E-002  0.2547284E+03  0.7818608E-02  0.1110474E+00
         21   -1    0    0  501  502  0.00000000000E+00  0.00000000000E+00  0.66166861780E+02  0.66166861780E+02  0.00000000000E+00 0.  1.
         21   -1    0    0  502  503 -0.00000000000E+00 -0.00000000000E+00 -0.11074898823E+04  0.11074898823E+04  0.00000000000E+00 0. -1.
         -6    2    1    2    0  503  0.16281612442E+03 -0.92226093297E+02 -0.72232287535E+03  0.76592225830E+03  0.17283468071E+03 0.  0.
        -24    2    3    3    0    0  0.95201689206E+02 -0.22375583750E+02 -0.22083207655E+03  0.25507402564E+03  0.82048303745E+02 0.  0.
          6    2    1    2  501    0 -0.16281612442E+03  0.92226093297E+02 -0.31900014520E+03  0.40773448581E+03  0.17167287386E+03 0.  0.
         24    2    5    5    0    0 -0.74829524725E+02  0.10170680039E+02 -0.23945196350E+03  0.26342670437E+03  0.79708752640E+02 0.  0.
          5    1    5    5  501    0 -0.87986599697E+02  0.82055413258E+02 -0.79548181699E+02  0.14430778144E+03  0.47000000000E+01 0. -1.
        -11    1    6    6    0    0 -0.39205104118E+02 -0.19396084061E+02 -0.42072494900E+02  0.60690551925E+02  0.00000000000E+00 0.  1.
         12    1    6    6    0    0 -0.35624420607E+02  0.29566764099E+02 -0.19737946860E+03  0.20273615245E+03  0.00000000000E+00 0. -1.
         -5    1    3    3    0  503  0.67614435217E+02 -0.69850509546E+02 -0.50149079880E+03  0.51084823266E+03  0.47000000000E+01 0.  1.
         13    1    4    4    0    0  0.57549727399E+02 -0.53007679459E+02 -0.12143260351E+03  0.14445643772E+03  0.00000000000E+00 0. -1.
        -14    1    4    4    0    0  0.37651961806E+02  0.30632095709E+02 -0.99399473038E+02  0.11061758791E+03  0.00000000000E+00 0.  1.
</event>
<event>
12    1  0.8724767E-002  0.1796692E+03  0.7818608E-02  0.1168582E+00
         21   -1    0    0  501  502  0.00000000000E+00  0.00000000000E+00  0.34642426764E+02  0.34642426764E+02  0.00000000000E+00 0.  1.
         21   -1    0    0  502  503 -0.00000000000E+00 -0.00000000000E+00 -0.92353797335E+03  0.92353797335E+03  0.00000000000E+00 0.  1.
         -6    2    1    2    0  503  0.46018936738E+02  0.15767676239E+02 -0.42799329507E+03  0.46417592213E+03  0.17295856124E+03 0.  0.
        -24    2    3    3    0    0 -0.17985080520E+02  0.38968371799E+02 -0.34236975510E+03  0.35468497686E+03  0.82112036132E+02 0.  0.
          6    2    1    2  501    0 -0.46018936738E+02 -0.15767676239E+02 -0.46090225152E+03  0.49400447799E+03  0.17100636440E+03 0.  0.
         24    2    5    5    0    0 -0.52176482723E+02  0.53125629898E+02 -0.29255277505E+03  0.31193899738E+03  0.78575403240E+02 0.  0.
          5    1    5    5  501    0  0.61575459848E+01 -0.68893306137E+02 -0.16834947646E+03  0.18206548061E+03  0.47000000000E+01 0. -1.
        -13    1    6    6    0    0 -0.57866704059E+02  0.15522003662E+02 -0.23808439009E+03  0.24550695477E+03  0.00000000000E+00 0.  1.
         14    1    6    6    0    0  0.56902213367E+01  0.37603626236E+02 -0.54468384968E+02  0.66432042615E+02  0.00000000000E+00 0. -1.
         -5    1    3    3    0  503  0.64004017258E+02 -0.23200695559E+02 -0.85623539969E+02  0.10949094527E+03  0.47000000000E+01 0.  1.
         13    1    4    4    0    0 -0.23399951702E+02  0.70134955440E+01 -0.22607263938E+02  0.33284159027E+02  0.00000000000E+00 0. -1.
        -14    1    4    4    0    0  0.54148711818E+01  0.31954876255E+02 -0.31976249116E+03  0.32140081783E+03  0.00000000000E+00 0.  1.
</event>
<event>
12    1  0.8724767E-002  0.2514038E+03  0.7818608E-02  0.1113495E+00
         21   -1    0    0  503  502  0.00000000000E+00  0.00000000000E+00  0.15434944315E+03  0.15434944315E+03  0.00000000000E+00 0.  1.
         21   -1    0    0  501  503 -0.00000000000E+00 -0.00000000000E+00 -0.43187853177E+03  0.43187853177E+03  0.00000000000E+00 0.  1.
          6    2    1    2  501    0  0.11521584647E+02 -0.18129063735E+03 -0.22190945497E+03  0.33533215497E+03  0.17379529870E+03 0.  0.
         24    2    3    3    0    0 -0.29721397702E+02 -0.19011934682E+03 -0.19466176727E+03  0.28489946529E+03  0.79030210490E+02 0.  0.
         -6    2    1    2    0  502 -0.11521584647E+02  0.18129063735E+03 -0.55619633650E+02  0.25089581995E+03  0.16387839002E+03 0.  0.
        -24    2    5    5    0    0 -0.10633529856E+01  0.11455894646E+03 -0.98611653322E+02  0.17069047765E+03  0.79284916942E+02 0.  0.
          5    1    3    3  501    0  0.41242982349E+02  0.88287094672E+01 -0.27247687701E+02  0.50432689686E+02  0.47000000000E+01 0. -1.
        -13    1    4    4    0    0  0.35724763220E+01 -0.57662461491E+02 -0.15873933892E+02  0.59914137142E+02  0.00000000000E+00 0.  1.
         14    1    4    4    0    0 -0.33293874024E+02 -0.13245688532E+03 -0.17878783337E+03  0.22498532814E+03  0.00000000000E+00 0. -1.
         -5    1    5    5    0  502 -0.10458231661E+02  0.66731690887E+02  0.42992019672E+02  0.80205342301E+02  0.47000000000E+01 0.  1.
         11    1    6    6    0    0  0.37702460864E+02  0.39077402791E+02 -0.42602828352E+02  0.69018258075E+02  0.00000000000E+00 0. -1.
        -12    1    6    6    0    0 -0.38765813849E+02  0.75481543670E+02 -0.56008824970E+02  0.10167221957E+03  0.00000000000E+00 0.  1.
</event>
<event>
12    1  0.8724767E-002  0.2030478E+03  0.7818608E-02  0.1147440E+00
         21   -1    0    0  503  502  0.00000000000E+00  0.00000000000E+00  0.60746600278E+03  0.60746600278E+03  0.00000000000E+00 0. -1.
         21   -1    0    0  501  503 -0.00000000000E+00 -0.00000000000E+00 -0.68858790265E+02  0.68858790265E+02  0.00000000000E+00 0. -1.
          6    2    1    2  501    0 -0.62310664200E+01  0.10590337488E+03  0.31808161235E+03  0.37736495208E+03  0.17313013586E+03 0.  0.
         24    2    3    3    0    0 -0.18281849823E+02  0.15124628988E+02  0.24769668992E+03  0.26177027490E+03  0.81283738790E+02 0.  0.
         -6    2    1    2    0  502  0.62310664200E+01 -0.10590337488E+03  0.22052560016E+03  0.29895984096E+03  0.17172971549E+03 0.  0.
        -24    2    5    5    0    0  0.20758360180E+02 -0.26547867395E+00  0.44520983154E+02  0.93119799701E+02  0.79108780543E+02 0.  0.
          5    1    3    3  501    0  0.12050783403E+02  0.90778745890E+02  0.70384922438E+02  0.11559467718E+03  0.47000000000E+01 0. -1.
        -11    1    4    4    0    0 -0.14399455598E+02  0.10279453040E+02  0.41861951986E+01  0.18180640983E+02  0.00000000000E+00 0.  1.
         12    1    4    4    0    0 -0.38823942247E+01  0.48451759484E+01  0.24351049472E+03  0.24358963392E+03  0.00000000000E+00 0. -1.
         -5    1    5    5    0  502 -0.14527293760E+02 -0.10563789620E+03  0.17600461700E+03  0.20584004126E+03  0.47000000000E+01 0.  1.
         13    1    6    6    0    0 -0.30213910283E+02 -0.45591486297E+01  0.14684205693E+02  0.33901211005E+02  0.00000000000E+00 0. -1.
        -14    1    6    6    0    0  0.50972270463E+02  0.42936699557E+01  0.29836777462E+02  0.59218588696E+02  0.00000000000E+00 0.  1.
</event>
<event>
12    1  0.8724767E-002  0.1801858E+03  0.7818608E-02  0.1167788E+00
         21   -1    0    0  503  502  0.00000000000E+00  0.00000000000E+00  0.18216953585E+03  0.18216953585E+03  0.00000000000E+00 0.  1.
         21   -1    0    0  501  503 -0.00000000000E+00 -0.00000000000E+00 -0.19049013324E+03  0.19049013324E+03  0.00000000000E+00 0. -1.
          6    2    1    2  501    0 -0.20750356750E+02 -0.46355550912E+02 -0.52724988698E+02  0.18774143556E+03  0.17288003872E+03 0.  0.
         24    2    3    3    0    0  0.42402611690E+00  0.39818265509E+02 -0.24820433137E+02  0.94601565753E+02  0.82144557187E+02 0.  0.
         -6    2    1    2    0  502  0.20750356750E+02  0.46355550912E+02  0.44404391308E+02  0.18491823354E+03  0.17217313589E+03 0.  0.
        -24    2    5    5    0    0  0.32084020813E+02 -0.16937738608E+02  0.71709011506E+02  0.11490305858E+03  0.82123438553E+02 0.  0.
          5    1    3    3  501    0 -0.21174382867E+02 -0.86173816421E+02 -0.27904555562E+02  0.93139869805E+02  0.47000000000E+01 0. -1.
        -13    1    4    4    0    0 -0.28192041566E+02  0.46651306219E+02  0.23434965631E+01  0.54558478313E+02  0.00000000000E+00 0.  1.
         14    1    4    4    0    0  0.28616067683E+02 -0.68330407108E+01 -0.27163929700E+02  0.40043087440E+02  0.00000000000E+00 0. -1.
         -5    1    5    5    0  502 -0.11333664063E+02  0.63293289520E+02 -0.27304620198E+02  0.70015174952E+02  0.47000000000E+01 0.  1.
         13    1    6    6    0    0  0.30785166280E+01 -0.14916986348E+02 -0.16244416984E+02  0.22268247114E+02  0.00000000000E+00 0. -1.
        -14    1    6    6    0    0  0.29005504185E+02 -0.20207522599E+01  0.87953428490E+02  0.92634811469E+02  0.00000000000E+00 0.  1.
</event>
<event>
12    1  0.8724767E-002  0.2112943E+03  0.7818608E-02  0.1141371E+00
         21   -1    0    0  503  502  0.00000000000E+00  0.00000000000E+00  0.75966486560E+02  0.75966486560E+02  0.00000000000E+00 0. -1.
         21   -1    0    0  501  503 -0.00000000000E+00 -0.00000000000E+00 -0.67286625646E+03  0.67286625646E+03  0.00000000000E+00 0.  1.
          6    2    1    2  501    0 -0.10501859319E+03  0.50360268999E+02 -0.43782726275E+03  0.48435337599E+03  0.17129045277E+03 0.  0.
         24    2    3    3    0    0  0.49449882238E+01 -0.68907471617E+01 -0.21102085244E+03  0.22583276588E+03  0.79991891318E+02 0.  0.
         -6    2    1    2    0  502  0.10501859319E+03 -0.50360268999E+02 -0.15907250715E+03  0.26447936703E+03  0.17629580667E+03 0.  0.
        -24    2    5    5    0    0  0.20249396071E+02  0.14194013759E+02 -0.12854264367E+03  0.15354138992E+03  0.80251100355E+02 0.  0.
          5    1    3    3  501    0 -0.10996358141E+03  0.57251016160E+02 -0.22680641032E+03  0.25852061011E+03  0.47000000000E+01 0. -1.
        -11    1    4    4    0    0 -0.34214781895E+01  0.34920832104E+02 -0.12488166014E+03  0.12971738537E+03  0.00000000000E+00 0.  1.
         12    1    4    4    0    0  0.83664664133E+01 -0.41811579266E+02 -0.86139192299E+02  0.96115380512E+02  0.00000000000E+00 0. -1.
         -5    1    5    5    0  502  0.84769197119E+02 -0.64554282758E+02 -0.30529863473E+02  0.11093797711E+03  0.47000000000E+01 0.  1.
         13    1    6    6    0    0 -0.20415983456E+02 -0.20954685917E+02 -0.56859783904E+02  0.63944868973E+02  0.00000000000E+00 0. -1.
        -14    1    6    6    0    0  0.40665379528E+02  0.35148699677E+02 -0.71682859769E+02  0.89596520947E+02  0.00000000000E+00 0.  1.
</event>
<event>
12    1  0.8724767E-002  0.1810677E+03  0.7818608E-02  0.1166805E+00
         21   -1    0    0  501  502  0.00000000000E+00  0.00000000000E+00  0.36033681103E+02  0.36033681103E+02  0.00000000000E+00 0.  1.
         21   -1    0    0  502  503 -0.00000000000E+00 -0.00000000000E+00 -0.10532854179E+04  0.10532854179E+04  0.00000000000E+00 0.  1.
         -6    2    1    2    0  503 -0.53637287933E+02 -0.16891780436E+01 -0.70990915400E+03  0.73260496328E+03  0.17279818666E+03 0.  0.
        -24    2    3    3    0    0 -0.22035036077E+02  0.27575108009E+02 -0.66239448278E+03  0.66830228261E+03  0.81336097323E+02 0.  0.
          6    2    1    2  501    0  0.53637287933E+02  0.16891780436E+01 -0.30734258284E+03  0.35671413576E+03  0.17293264425E+03 0.  0.
         24    2    5    5    0    0  0.58137416151E+02  0.64538977610E+01 -0.74854105527E+02  0.12408581464E+03  0.79828192554E+02 0.  0.
          5    1    5    5  501    0 -0.45001282174E+01 -0.47647197174E+01 -0.23248847731E+03  0.23262832113E+03  0.47000000000E+01 0. -1.
        -13    1    6    6    0    0  0.42058336131E+02 -0.29024911739E+02 -0.67143437789E+02  0.84377665160E+02  0.00000000000E+00 0.  1.
         14    1    6    6    0    0  0.16079080019E+02  0.35478809500E+02 -0.77106677380E+01  0.39708149476E+02  0.00000000000E+00 0. -1.
         -5    1    3    3    0  503 -0.31602251856E+02 -0.29264286052E+02 -0.47514671226E+02  0.64302680677E+02  0.47000000000E+01 0.  1.
         11    1    4    4    0    0  0.10299853104E+02  0.16390627680E+02 -0.35172349208E+02  0.40147649975E+02  0.00000000000E+00 0. -1.
        -12    1    4    4    0    0 -0.32334889181E+02  0.11184480329E+02 -0.62722213357E+03  0.62815463263E+03  0.00000000000E+00 0.  1.
</event>
<event>
12    1  0.8724767E-002  0.2994138E+03  0.7818608E-02  0.1085622E+00
         21   -1    0    0  501  502  0.00000000000E+00  0.00000000000E+00  0.75748888036E+03  0.75748888036E+03  0.00000000000E+00 0.  1.
         21   -1    0    0  502  503 -0.00000000000E+00 -0.00000000000E+00 -0.15668443926E+03  0.15668443926E+03  0.00000000000E+00 0. -1.
         -6    2    1    2    0  503  0.13210622538E+03 -0.20579015446E+03  0.73759601637E+02  0.30836518581E+03  0.17276274637E+03 0.  0.
        -24    2    3    3    0    0 -0.27871058937E+01 -0.92088091830E+02  0.27150415671E+02  0.12583059708E+03  0.81290894164E+02 0.  0.
          6    2    1    2  501    0 -0.13210622538E+03  0.20579015446E+03  0.52704483946E+03  0.60580813381E+03  0.17153888694E+03 0.  0.
         24    2    5    5    0    0 -0.15329598149E+03  0.18189142098E+03  0.51072365839E+03  0.56963319528E+03  0.84018896442E+02 0.  0.
          5    1    5    5  501    0  0.21189756113E+02  0.23898733474E+02  0.16321181066E+02  0.36174938523E+02  0.47000000000E+01 0. -1.
        -13    1    6    6    0    0 -0.16220347290E+03  0.16921304888E+03  0.45544148542E+03  0.51222062549E+03  0.00000000000E+00 0.  1.
         14    1    6    6    0    0  0.89074914065E+01  0.12678372101E+02  0.55282172967E+02  0.57412569793E+02  0.00000000000E+00 0. -1.
         -5    1    3    3    0  503  0.13489333127E+03 -0.11370206263E+03  0.46609185966E+02  0.18253458873E+03  0.47000000000E+01 0.  1.
         13    1    4    4    0    0 -0.14010686788E+01 -0.38603150460E+02  0.53662010873E+02  0.66119419460E+02  0.00000000000E+00 0. -1.
        -14    1    4    4    0    0 -0.13860372149E+01 -0.53484941370E+02 -0.26511595201E+02  0.59711177619E+02  0.00000000000E+00 0.  1.
</event>
<event>
12    1  0.8724767E-002  0.2251778E+03  0.7818608E-02  0.1130244E+00
         21   -1    0    0  503  502  0.00000000000E+00  0.00000000000E+00  0.43751874032E+03  0.43751874032E+03  0.00000000000E+00 0.  1.
         21   -1    0    0  501  503 -0.00000000000E+00 -0.00000000000E+00 -0.14316441131E+03  0.14316441131E+03  0.00000000000E+00 0. -1.
          6    2    1    2  501    0  0.12807818342E+03 -0.68685355972E+02  0.19146589394E+02  0.22509301741E+03  0.17081737444E+03 0.  0.
         24    2    3    3    0    0  0.57457349562E+01 -0.16298507707E+01 -0.13808742973E+02  0.81671217619E+02  0.80273510707E+02 0.  0.
         -6    2    1    2    0  502 -0.12807818342E+03  0.68685355972E+02  0.27520773962E+03  0.35559013422E+03  0.17199809423E+03 0.  0.
        -24    2    5    5    0    0 -0.26065289802E+02  0.11689272461E+02  0.43997440223E+02  0.96484988489E+02  0.80978638136E+02 0.  0.
          5    1    3    3  501    0  0.12233244846E+03 -0.67055505201E+02  0.32955332367E+02  0.14342179979E+03  0.47000000000E+01 0. -1.
        -11    1    4    4    0    0 -0.18377051937E+02 -0.33418603516E+02 -0.16757043552E+02  0.41657143534E+02  0.00000000000E+00 0.  1.
         12    1    4    4    0    0  0.24122786893E+02  0.31788752745E+02  0.29483005793E+01  0.40014074085E+02  0.00000000000E+00 0. -1.
         -5    1    5    5    0  502 -0.10201289361E+03  0.56996083510E+02  0.23121029940E+03  0.25910514573E+03  0.47000000000E+01 0.  1.
         13    1    6    6    0    0 -0.39955208268E+02  0.17863964789E+02  0.60095875471E+02  0.74344160190E+02  0.00000000000E+00 0. -1.
        -14    1    6    6    0    0  0.13889918466E+02 -0.61746923277E+01 -0.16098435248E+02  0.22140828299E+02  0.00000000000E+00 0.  1.
</event>
<event>
12    1  0.8724767E-002  0.2001430E+03  0.7818608E-02  0.1150187E+00
         21   -1    0    0  503  502  0.00000000000E+00  0.00000000000E+00  0.35993311828E+03  0.35993311828E+03  0.00000000000E+00 0.  1.
         21   -1    0    0  501  503 -0.00000000000E+00 -0.00000000000E+00 -0.14124438058E+03  0.14124438058E+03  0.00000000000E+00 0.  1.
          6    2    1    2  501    0  0.33090688800E+02  0.92512078670E+02 -0.83058637513E+01  0.20031524189E+03  0.17436665500E+03 0.  0.
         24    2    3    3    0    0 -0.41834414804E+02  0.39961601508E+02 -0.42736299674E+02  0.10242311392E+03  0.72918139710E+02 0.  0.
         -6    2    1    2    0  502 -0.33090688800E+02 -0.92512078670E+02  0.22699460145E+03  0.30086225698E+03  0.17128359582E+03 0.  0.
        -24    2    5    5    0    0  0.24202917505E+02 -0.11037705825E+03  0.15348474426E+03  0.20584907935E+03  0.77765034187E+02 0.  0.
          5    1    3    3  501    0  0.74925103604E+02  0.52550477162E+02  0.34430435923E+02  0.97892127967E+02  0.47000000000E+01 0. -1.
        -13    1    4    4    0    0 -0.52813093745E+02  0.50900897693E+02 -0.46006326279E+02  0.86583522188E+02  0.00000000000E+00 0.  1.
         14    1    4    4    0    0  0.10978678941E+02 -0.10939296185E+02  0.32700266044E+01  0.15839591735E+02  0.00000000000E+00 0. -1.
         -5    1    5    5    0  502 -0.57293606304E+02  0.17864979583E+02  0.73509857192E+02  0.95013177630E+02  0.47000000000E+01 0.  1.
         13    1    6    6    0    0 -0.22482666093E+02 -0.31679935712E+02  0.78348603296E+02  0.87450513091E+02  0.00000000000E+00 0. -1.
        -14    1    6    6    0    0  0.46685583598E+02 -0.78697122541E+02  0.75136140967E+02  0.11839856626E+03  0.00000000000E+00 0.  1.
</event>
<event>
12    1  0.8724767E-002  0.2186761E+03  0.7818608E-02  0.1134940E+00
         21   -1    0    0  501  502  0.00000000000E+00  0.00000000000E+00  0.24620149925E+04  0.24620149925E+04  0.00000000000E+00 0.  1.
         21   -1    0    0  502  503 -0.00000000000E+00 -0.00000000000E+00 -0.31374122046E+02  0.31374122046E+02  0.00000000000E+00 0.  1.
         -6    2    1    2    0  503 -0.12844705792E+03 -0.42630665541E+02  0.44546858777E+03  0.49624740445E+03  0.17176496558E+03 0.  0.
        -24    2    3    3    0    0 -0.12640297925E+01 -0.83770303690E+01  0.22804384802E+03  0.24199469232E+03  0.80533608426E+02 0.  0.
          6    2    1    2  501    0  0.12844705792E+03  0.42630665541E+02  0.19851722826E+04  0.19971417101E+04  0.17131841098E+03 0.  0.
         24    2    5    5    0    0  0.70673772886E+00  0.40508928222E+01  0.95604365606E+03  0.95938749623E+03  0.79924879834E+02 0.  0.
          5    1    5    5  501    0  0.12774032019E+03  0.38579772719E+02  0.10291286266E+04  0.10377542138E+04  0.47000000000E+01 0. -1.
        -11    1    6    6    0    0  0.39973985464E+02 -0.23225406220E+01  0.51414045689E+03  0.51569731735E+03  0.00000000000E+00 0.  1.
         12    1    6    6    0    0 -0.39267247735E+02  0.63734334442E+01  0.44190319918E+03  0.44369017889E+03  0.00000000000E+00 0. -1.
         -5    1    3    3    0  503 -0.12718302813E+03 -0.34253635172E+02  0.21742473976E+03  0.25425271213E+03  0.47000000000E+01 0.  1.
         13    1    4    4    0    0  0.13670343954E+02 -0.42005013362E+02  0.12257333457E+03  0.13029014468E+03  0.00000000000E+00 0. -1.
        -14    1    4    4    0    0 -0.14934373747E+02  0.33627982993E+02  0.10547051344E+03  0.11170454765E+03  0.00000000000E+00 0.  1.
</event>
<event>
12    1  0.8724767E-002  0.3499902E+03  0.7818608E-02  0.1062754E+00
         21   -1    0    0  503  502  0.00000000000E+00  0.00000000000E+00  0.49049023275E+02  0.49049023275E+02  0.00000000000E+00 0.  1.
         21   -1    0    0  501  503 -0.00000000000E+00 -0.00000000000E+00 -0.27869396591E+04  0.27869396591E+04  0.00000000000E+00 0.  1.
          6    2    1    2  501    0  0.28247088672E+03 -0.10905735923E+03 -0.18356461784E+04  0.18687134787E+04  0.17552738818E+03 0.  0.
         24    2    3    3    0    0  0.21673409629E+03 -0.10524420768E+03 -0.16921830356E+04  0.17107906208E+04  0.72602412581E+02 0.  0.
         -6    2    1    2    0  502 -0.28247088672E+03  0.10905735923E+03 -0.90224445749E+03  0.96727520367E+03  0.17289577530E+03 0.  0.
        -24    2    5    5    0    0 -0.15989105850E+03  0.92031167289E+02 -0.37754117528E+03  0.42815431754E+03  0.82121216848E+02 0.  0.
          5    1    3    3  501    0  0.65736790437E+02 -0.38131515506E+01 -0.14346314272E+03  0.15792285794E+03  0.47000000000E+01 0. -1.
        -11    1    4    4    0    0  0.68892650045E+02 -0.21342930344E+01 -0.58256866662E+03  0.58663191505E+03  0.00000000000E+00 0.  1.
         12    1    4    4    0    0  0.14784144624E+03 -0.10310991465E+03 -0.11096143690E+04  0.11241587057E+04  0.00000000000E+00 0. -1.
         -5    1    5    5    0  502 -0.12257982822E+03  0.17026191945E+02 -0.52470328221E+03  0.53912088613E+03  0.47000000000E+01 0.  1.
         13    1    6    6    0    0 -0.24965945768E+02  0.77773327371E+01 -0.10597003394E+02  0.28214922178E+02  0.00000000000E+00 0. -1.
        -14    1    6    6    0    0 -0.13492511273E+03  0.84253834552E+02 -0.36694417188E+03  0.39993939536E+03  0.00000000000E+00 0.  1.
</event>
<event>
12    1  0.8724767E-002  0.1955213E+03  0.7818608E-02  0.1154799E+00
         21   -1    0    0  503  502  0.00000000000E+00  0.00000000000E+00  0.54229870403E+02  0.54229870403E+02  0.00000000000E+00 0.  1.
         21   -1    0    0  501  503 -0.00000000000E+00 -0.00000000000E+00 -0.94889536631E+03  0.94889536631E+03  0.00000000000E+00 0.  1.
          6    2    1    2  501    0 -0.88700700883E+02 -0.19227492005E+02 -0.70713817023E+03  0.73220996639E+03  0.16688179136E+03 0.  0.
         24    2    3    3    0    0 -0.28319991790E+02 -0.27346048499E+02 -0.61583732581E+03  0.62234789294E+03  0.80693616096E+02 0.  0.
         -6    2    1    2    0  502  0.88700700883E+02  0.19227492005E+02 -0.18752732567E+03  0.27091527033E+03  0.17317931469E+03 0.  0.
        -24    2    5    5    0    0 -0.30800746828E+01  0.41699891745E+02 -0.47559011640E+02  0.10197167487E+03  0.79924933878E+02 0.  0.
          5    1    3    3  501    0 -0.60380709093E+02  0.81185564941E+01 -0.91300844420E+02  0.10986207345E+03  0.47000000000E+01 0. -1.
        -11    1    4    4    0    0 -0.50058145963E+02  0.45201519818E+01 -0.30285554223E+03  0.30699793031E+03  0.00000000000E+00 0.  1.
         12    1    4    4    0    0  0.21738154173E+02 -0.31866200481E+02 -0.31298178358E+03  0.31534996263E+03  0.00000000000E+00 0. -1.
         -5    1    5    5    0  502  0.91780775566E+02 -0.22472399740E+02 -0.13996831403E+03  0.16894359546E+03  0.47000000000E+01 0.  1.
         13    1    6    6    0    0 -0.23363012916E+02 -0.16251179884E+02 -0.19273039191E+02  0.34371227208E+02  0.00000000000E+00 0. -1.
        -14    1    6    6    0    0  0.20282938233E+02  0.57951071629E+02 -0.28285972449E+02  0.67600447659E+02  0.00000000000E+00 0.  1.
</event>
<event>
12    1  0.8724767E-002  0.2228940E+03  0.7818608E-02  0.1132279E+00
         21   -1    0    0  501  502  0.00000000000E+00  0.00000000000E+00  0.16179096112E+04  0.16179096112E+04  0.00000000000E+00 0. -1.
         21   -1    0    0  502  503 -0.00000000000E+00 -0.00000000000E+00 -0.98329824623E+02  0.98329824623E+02  0.00000000000E+00 0. -1.
         -6    2    1    2    0  503  0.77128299475E+02 -0.11381063904E+03  0.44543930180E+02  0.22445778212E+03  0.17174253434E+03 0.  0.
        -24    2    3    3    0    0  0.10556566206E+03 -0.58867627360E+02 -0.14856558164E+01  0.14720345597E+03  0.84006807570E+02 0.  0.
          6    2    1    2  501    0 -0.77128299475E+02  0.11381063904E+03  0.14750358564E+04  0.14917816537E+04  0.17544255049E+03 0.  0.
         24    2    5    5    0    0  0.22950721976E+02  0.86455155344E+02  0.76086745441E+03  0.77010116386E+03  0.78328091193E+02 0.  0.
          5    1    5    5  501    0 -0.10007902145E+03  0.27355483694E+02  0.71416840201E+03  0.72168048986E+03  0.47000000000E+01 0. -1.
        -13    1    6    6    0    0  0.10270724974E+02  0.60575424604E+02  0.21864612116E+03  0.22711450010E+03  0.00000000000E+00 0.  1.
         14    1    6    6    0    0  0.12679997001E+02  0.25879730740E+02  0.54222133325E+03  0.54298666376E+03  0.00000000000E+00 0. -1.
         -5    1    3    3    0  503 -0.28437362584E+02 -0.54943011679E+02  0.46029585996E+02  0.77254326157E+02  0.47000000000E+01 0.  1.
         11    1    4    4    0    0 -0.10059062494E+02 -0.91511158472E+01  0.15024597370E+02  0.20264900336E+02  0.00000000000E+00 0. -1.
        -12    1    4    4    0    0  0.11562472455E+03 -0.49716511512E+02 -0.16510253187E+02  0.12693855563E+03  0.00000000000E+00 0.  1.
</event>
<event>
12    1  0.8724767E-002  0.1911711E+03  0.7818608E-02  0.1157724E+00
         21   -1    0    0  503  502  0.00000000000E+00  0.00000000000E+00  0.48342463324E+03  0.48342463324E+03  0.00000000000E+00 0.  1.
         21   -1    0    0  501  503 -0.00000000000E+00 -0.00000000000E+00 -0.12344238061E+03  0.12344238061E+03  0.00000000000E+00 0. -1.
          6    2    1    2  501    0 -0.64306126789E+02 -0.51677022527E+02  0.36958041655E+03  0.41545507745E+03  0.17090185629E+03 0.  0.
         24    2    3    3    0    0 -0.67095966181E+02 -0.67455463791E+02  0.37715078199E+03  0.39712087866E+03  0.80063547513E+02 0.  0.
         -6    2    1    2    0  502  0.64306126789E+02  0.51677022527E+02 -0.95981639174E+01  0.19141193639E+03  0.17245466663E+03 0.  0.
        -24    2    5    5    0    0  0.16409705825E+02  0.47026690182E+02 -0.64731898779E+02  0.11808041894E+03  0.85275896845E+02 0.  0.
          5    1    3    3  501    0  0.27898393923E+01  0.15778441264E+02 -0.75703654371E+01  0.18334198794E+02  0.47000000000E+01 0. -1.
        -13    1    4    4    0    0 -0.53176952638E-01 -0.31713038727E+02  0.22322000148E+03  0.22546150162E+03  0.00000000000E+00 0.  1.
         14    1    4    4    0    0 -0.67042789229E+02 -0.35742425064E+02  0.15393078050E+03  0.17165937703E+03  0.00000000000E+00 0. -1.
         -5    1    5    5    0  502  0.47896420964E+02  0.46503323452E+01  0.55133734861E+02  0.73331517452E+02  0.47000000000E+01 0.  1.
         11    1    6    6    0    0  0.23321026379E+02  0.66501535154E+02 -0.27794216826E+02  0.75755151232E+02  0.00000000000E+00 0. -1.
        -12    1    6    6    0    0 -0.69113205534E+01 -0.19474844972E+02 -0.36937681953E+02  0.42325267708E+02  0.00000000000E+00 0.  1.
</event>
<event>
12    1  0.8724767E-002  0.2228082E+03  0.7818608E-02  0.1131862E+00
         21   -1    0    0  503  502  0.00000000000E+00  0.00000000000E+00  0.12472958943E+03  0.12472958943E+03  0.00000000000E+00 0. -1.
         21   -1    0    0  501  503 -0.00000000000E+00 -0.00000000000E+00 -0.46348935859E+03  0.46348935859E+03  0.00000000000E+00 0. -1.
          6    2    1    2  501    0 -0.14214248478E+03  0.30366298678E+01 -0.28047688713E+03  0.35820496230E+03  0.17155116934E+03 0.  0.
         24    2    3    3    0    0 -0.37524657853E+01 -0.14323788647E+02 -0.12743955286E+03  0.15109219792E+03  0.79804515652E+02 0.  0.
         -6    2    1    2    0  502  0.14214248478E+03 -0.30366298678E+01 -0.58282882037E+02  0.23001398572E+03  0.17116025294E+03 0.  0.
        -24    2    5    5    0    0  0.62080789341E+01 -0.52906606351E+01 -0.19803028887E+01  0.82788601474E+02  0.82362003378E+02 0.  0.
          5    1    3    3  501    0 -0.13839001899E+03  0.17360418515E+02 -0.15303733426E+03  0.20711276438E+03  0.47000000000E+01 0. -1.
        -11    1    4    4    0    0  0.30714761250E+01 -0.26386291087E+02 -0.39844211168E+01  0.26861607073E+02  0.00000000000E+00 0.  1.
         12    1    4    4    0    0 -0.68239419103E+01  0.12062502440E+02 -0.12345513175E+03  0.12423059085E+03  0.00000000000E+00 0. -1.
         -5    1    5    5    0  502  0.13593440585E+03  0.22540307673E+01 -0.56302579149E+02  0.14722538425E+03  0.47000000000E+01 0.  1.
         11    1    6    6    0    0  0.22296748010E+02 -0.39276086107E+02 -0.10737139487E+01  0.45176418333E+02  0.00000000000E+00 0. -1.
        -12    1    6    6    0    0 -0.16088669076E+02  0.33985425472E+02 -0.90658893997E+00  0.37612183141E+02  0.00000000000E+00 0.  1.
</event>
<event>
12    1  0.8724767E-002  0.2115986E+03  0.7818608E-02  0.1140408E+00
         21   -1    0    0  503  502  0.00000000000E+00  0.00000000000E+00  0.78199025954E+03  0.78199025954E+03  0.00000000000E+00 0.  1.
         21   -1    0    0  501  503 -0.00000000000E+00 -0.00000000000E+00 -0.60351750974E+02  0.60351750974E+02  0.00000000000E+00 0.  1.
          6    2    1    2  501    0 -0.93255391523E+02 -0.80075062067E+02  0.45791443533E+03  0.50422318292E+03  0.17160071239E+03 0.  0.
         24    2    3    3    0    0  0.18231913285E+02 -0.32276858967E+02  0.12858722732E+03  0.15323516703E+03  0.74646788949E+02 0.  0.
         -6    2    1    2    0  502  0.93255391523E+02  0.80075062067E+02  0.26372407323E+03  0.33811882759E+03  0.17223638164E+03 0.  0.
        -24    2    5    5    0    0  0.12218075348E+03  0.40647604366E+02  0.23927857995E+03  0.28324740400E+03  0.79965547502E+02 0.  0.
          5    1    3    3  501    0 -0.11148730481E+03 -0.47798203099E+02  0.32932720802E+03  0.35098801588E+03  0.47000000000E+01 0. -1.
        -11    1    4    4    0    0  0.87439571964E+01 -0.13431393325E+02  0.13101970075E+03  0.13199629199E+03  0.00000000000E+00 0.  1.
         12    1    4    4    0    0  0.94879560888E+01 -0.18845465642E+02 -0.24324734382E+01  0.21238875041E+02  0.00000000000E+00 0. -1.
         -5    1    5    5    0  502 -0.28925361960E+02  0.39427457700E+02  0.24445493275E+02  0.54871423589E+02  0.47000000000E+01 0.  1.
         11    1    6    6    0    0  0.60784454481E+02  0.95899749771E+01  0.18691327515E+03  0.19678234157E+03  0.00000000000E+00 0. -1.
        -12    1    6    6    0    0  0.61396299002E+02  0.31057629389E+02  0.52365304807E+02  0.86465062435E+02  0.00000000000E+00 0.  1.
</event>
<event>
12    1  0.8724767E-002  0.2290138E+03  0.7818608E-02  0.1127480E+00
         21   -1    0    0  501  502  0.00000000000E+00  0.00000000000E+00  0.16556089168E+04  0.16556089168E+04  0.00000000000E+00 0. -1.
         21   -1    0    0  502  503 -0.00000000000E+00 -0.00000000000E+00 -0.34196999363E+02  0.34196999363E+02  0.00000000000E+00 0.  1.
         -6    2    1    2    0  503  0.18603990805E+02 -0.15026159449E+03  0.57501814864E+03  0.61864428467E+03  0.17073436805E+03 0.  0.
        -24    2    3    3    0    0  0.59171441663E+02 -0.48315922445E+02  0.36218288317E+03  0.37914568688E+03  0.82093380630E+02 0.  0.
          6    2    1    2  501    0 -0.18603990805E+02  0.15026159449E+03  0.10463937688E+04  0.10711616315E+04  0.17182161143E+03 0.  0.
         24    2    5    5    0    0  0.45664978457E+02  0.84229656083E+02  0.42846522336E+03  0.44638287500E+03  0.80593413147E+02 0.  0.
          5    1    5    5  501    0 -0.64268969262E+02  0.66031938408E+02  0.61792854541E+03  0.62477875647E+03  0.47000000000E+01 0. -1.
        -11    1    6    6    0    0 -0.85773830866E+01 -0.83039792872E+01  0.14679058274E+02  0.18920949353E+02  0.00000000000E+00 0.  1.
         12    1    6    6    0    0  0.54242361544E+02  0.92533635370E+02  0.41378616509E+03  0.42746192565E+03  0.00000000000E+00 0. -1.
         -5    1    3    3    0  503 -0.40567450858E+02 -0.10194567205E+03  0.21283526547E+03  0.23949859779E+03  0.47000000000E+01 0.  1.
         11    1    4    4    0    0  0.72196903169E+02 -0.35741634531E+02  0.19500103099E+03  0.21098639614E+03  0.00000000000E+00 0. -1.
        -12    1    4    4    0    0 -0.13025461506E+02 -0.12574287914E+02  0.16718185218E+03  0.16815929074E+03  0.00000000000E+00 0.  1.
</event>
<event>
12    1  0.8724767E-002  0.1950890E+03  0.7818608E-02  0.1154839E+00
         21   -1    0    0  501  502  0.00000000000E+00  0.00000000000E+00  0.24783461886E+03  0.24783461886E+03  0.00000000000E+00 0.  1.
         21   -1    0    0  502  503 -0.00000000000E+00 -0.00000000000E+00 -0.16108148063E+03  0.16108148063E+03  0.00000000000E+00 0.  1.
         -6    2    1    2    0  503 -0.79293859433E+02 -0.27903504546E+02 -0.88246299639E+01  0.19528845476E+03  0.17604994961E+03 0.  0.
        -24    2    3    3    0    0 -0.19085250336E+02 -0.79360658027E+02  0.34855061984E+01  0.11499807734E+03  0.80932368156E+02 0.  0.
          6    2    1    2  501    0  0.79293859433E+02  0.27903504546E+02  0.95577768199E+02  0.21362764473E+03  0.17156788484E+03 0.  0.
         24    2    5    5    0    0  0.11008571067E+03  0.15752035146E+02  0.28882917734E+02  0.13902141584E+03  0.78267111997E+02 0.  0.
          5    1    5    5  501    0 -0.30791851233E+02  0.12151469399E+02  0.66694850465E+02  0.74606228892E+02  0.47000000000E+01 0. -1.
        -11    1    6    6    0    0  0.95836523598E+02  0.42990415619E+02  0.25556877762E+02  0.10810166091E+03  0.00000000000E+00 0.  1.
         12    1    6    6    0    0  0.14249187068E+02 -0.27238380472E+02  0.33260399716E+01  0.30919754927E+02  0.00000000000E+00 0. -1.
         -5    1    3    3    0  503 -0.60208609096E+02  0.51457153482E+02 -0.12310136162E+02  0.80290377419E+02  0.47000000000E+01 0.  1.
         13    1    4    4    0    0 -0.39699520228E+02 -0.52101816600E+02  0.29704270933E+02  0.71923535167E+02  0.00000000000E+00 0. -1.
        -14    1    4    4    0    0  0.20614269892E+02 -0.27258841428E+02 -0.26218764734E+02  0.43074542172E+02  0.00000000000E+00 0.  1.
</event>
<event>
12    1  0.8724767E-002  0.1856995E+03  0.7818608E-02  0.1162455E+00
         21   -1    0    0  503  502  0.00000000000E+00  0.00000000000E+00  0.19320595743E+04  0.19320595743E+04  0.00000000000E+00 0. -1.
         21   -1    0    0  501  503 -0.00000000000E+00 -0.00000000000E+00 -0.48702756441E+02  0.48702756441E+02  0.00000000000E+00 0. -1.
          6    2    1    2  501    0 -0.20180404109E+02 -0.63957457103E+02  0.15286356436E+03  0.24033387667E+03  0.17290256775E+03 0.  0.
         24    2    3    3    0    0 -0.34431743814E+02 -0.10586507098E+03  0.13631432600E+03  0.19284370848E+03  0.78829830585E+02 0.  0.
         -6    2    1    2    0  502  0.20180404109E+02  0.63957457103E+02  0.17304932535E+04  0.17404284541E+04  0.17316610035E+03 0.  0.
        -24    2    5    5    0    0  0.47451014140E+01  0.92377397761E+02  0.16373428459E+04  0.16417115354E+04  0.75954399746E+02 0.  0.
          5    1    3    3  501    0  0.14251339704E+02  0.41907613878E+02  0.16549238353E+02  0.47490168187E+02  0.47000000000E+01 0. -1.
        -11    1    4    4    0    0 -0.23654372748E+02  0.52801515709E+01  0.30995204885E+02  0.39346055414E+02  0.00000000000E+00 0.  1.
         12    1    4    4    0    0 -0.10777371065E+02 -0.11114522255E+03  0.10531912112E+03  0.15349765307E+03  0.00000000000E+00 0. -1.
         -5    1    5    5    0  502  0.15435302695E+02 -0.28419940658E+02  0.93150407596E+02  0.98716918670E+02  0.47000000000E+01 0.  1.
         13    1    6    6    0    0  0.17933536652E+02  0.65855061224E+02  0.14819437023E+04  0.14835146233E+04  0.00000000000E+00 0. -1.
        -14    1    6    6    0    0 -0.13188435238E+02  0.26522336537E+02  0.15539914364E+03  0.15819691212E+03  0.00000000000E+00 0.  1.
</event>
<event>
12    1  0.8724767E-002  0.2628270E+03  0.7818608E-02  0.1105678E+00
         21   -1    0    0  501  502  0.00000000000E+00  0.00000000000E+00  0.69271864918E+03  0.69271864918E+03  0.00000000000E+00 0. -1.
         21   -1    0    0  502  503 -0.00000000000E+00 -0.00000000000E+00 -0.11603172250E+03  0.11603172250E+03  0.00000000000E+00 0.  1.
         -6    2    1    2    0  503 -0.17176943404E+03  0.98270774574E+02  0.13482713139E+03  0.29539187806E+03  0.17296277825E+03 0.  0.
        -24    2    3    3    0    0 -0.19347142851E+03  0.55825678681E+02  0.10566650880E+03  0.23931162629E+03  0.74544908236E+02 0.  0.
          6    2    1    2  501    0  0.17176943404E+03 -0.98270774574E+02  0.44185979529E+03  0.51335849362E+03  0.17068972047E+03 0.  0.
         24    2    5    5    0    0  0.12367647601E+03 -0.13371636408E+03  0.32398196970E+03  0.38112160696E+03  0.84341127950E+02 0.  0.
          5    1    5    5  501    0  0.48092958022E+02  0.35445589504E+02  0.11787782559E+03  0.13223688666E+03  0.47000000000E+01 0. -1.
        -11    1    6    6    0    0  0.14113462895E+02 -0.58688097764E+02  0.15409099253E+03  0.16549174189E+03  0.00000000000E+00 0.  1.
         12    1    6    6    0    0  0.10956301312E+03 -0.75028266314E+02  0.16989097717E+03  0.21562986508E+03  0.00000000000E+00 0. -1.
         -5    1    3    3    0  503  0.21701994472E+02  0.42445095893E+02  0.29160622594E+02  0.56080251778E+02  0.47000000000E+01 0.  1.
         11    1    4    4    0    0 -0.12529377726E+03  0.53662222152E+01  0.38703911340E+02  0.13124526549E+03  0.00000000000E+00 0. -1.
        -12    1    4    4    0    0 -0.68177651248E+02  0.50459456466E+02  0.66962597459E+02  0.10806636079E+03  0.00000000000E+00 0.  1.
</event>
<event>
12    1  0.8724767E-002  0.2193444E+03  0.7818608E-02  0.1134395E+00
         21   -1    0    0  503  502  0.00000000000E+00  0.00000000000E+00  0.13894429194E+04  0.13894429194E+04  0.00000000000E+00 0.  1.
         21   -1    0    0  501  503 -0.00000000000E+00 -0.00000000000E+00 -0.73100199172E+02  0.73100199172E+02  0.00000000000E+00 0.  1.
          6    2    1    2  501    0  0.12634766028E+03 -0.49559431515E+02  0.12744130575E+03  0.25357721815E+03  0.17216344165E+03 0.  0.
         24    2    3    3    0    0  0.67796695509E+02 -0.30770174612E+02 -0.52276570639E+01  0.10727480756E+03  0.77054268998E+02 0.  0.
         -6    2    1    2    0  502 -0.12634766028E+03  0.49559431515E+02  0.11889014144E+04  0.12089659004E+04  0.17231397656E+03 0.  0.
        -24    2    5    5    0    0 -0.12113953763E+03  0.28145282111E+02  0.55112420278E+03  0.57079072690E+03  0.81223288185E+02 0.  0.
          5    1    3    3  501    0  0.58550964774E+02 -0.18789256903E+02  0.13266896281E+03  0.14630241059E+03  0.47000000000E+01 0. -1.
        -13    1    4    4    0    0  0.82085111732E+02 -0.17109678472E+02 -0.15069118662E+02  0.85192634674E+02  0.00000000000E+00 0.  1.
         14    1    4    4    0    0 -0.14288416223E+02 -0.13660496140E+02  0.98414615977E+01  0.22082172885E+02  0.00000000000E+00 0. -1.
         -5    1    5    5    0  502 -0.52081226535E+01  0.21414149404E+02  0.63777721166E+03  0.63817517348E+03  0.47000000000E+01 0.  1.
         13    1    6    6    0    0 -0.95534577703E+02  0.54442882711E+02  0.44909274051E+03  0.46235827298E+03  0.00000000000E+00 0. -1.
        -14    1    6    6    0    0 -0.25604959926E+02 -0.26297600600E+02  0.10203146227E+03  0.10843245392E+03  0.00000000000E+00 0.  1.
</event>
<event>
12    1  0.8724767E-002  0.2095164E+03  0.7818608E-02  0.1142161E+00
         21   -1    0    0  501  502  0.00000000000E+00  0.00000000000E+00  0.18196016818E+03  0.18196016818E+03  0.00000000000E+00 0.  1.
         21   -1    0    0  502  503 -0.00000000000E+00 -0.00000000000E+00 -0.24068896040E+03  0.24068896040E+03  0.00000000000E+00 0.  1.
         -6    2    1    2    0  503 -0.10076929735E+03  0.61884228946E+02 -0.18341785858E+02  0.21031774204E+03  0.17295381588E+03 0.  0.
        -24    2    3    3    0    0 -0.45209620322E+02 -0.24114635571E+02  0.26401979602E+02  0.98484039795E+02  0.79853717190E+02 0.  0.
          6    2    1    2  501    0  0.10076929735E+03 -0.61884228946E+02 -0.40387006359E+02  0.21233138654E+03  0.17166653241E+03 0.  0.
         24    2    5    5    0    0  0.99715863453E+02 -0.10052852332E+03 -0.53063764614E+02  0.17137676031E+03  0.80653539495E+02 0.  0.
          5    1    5    5  501    0  0.10534338953E+01  0.38644294372E+02  0.12676758256E+02  0.40954626239E+02  0.47000000000E+01 0. -1.
        -13    1    6    6    0    0  0.87084415020E+02 -0.10085503955E+03 -0.69785697132E+02  0.15041767804E+03  0.00000000000E+00 0.  1.
         14    1    6    6    0    0  0.12631448433E+02  0.32651623268E+00  0.16721932518E+02  0.20959082268E+02  0.00000000000E+00 0. -1.
         -5    1    3    3    0  503 -0.55559677027E+02  0.85998864517E+02 -0.44743765459E+02  0.11183370224E+03  0.47000000000E+01 0.  1.
         13    1    4    4    0    0  0.19210396165E+02 -0.20426240926E+02  0.18224199335E+02  0.33442369542E+02  0.00000000000E+00 0. -1.
        -14    1    4    4    0    0 -0.64420016486E+02 -0.36883946449E+01  0.81777802660E+01  0.65041670253E+02  0.00000000000E+00 0.  1.
</event>
<event>
12    1  0.8724767E-002  0.1726074E+03  0.7818608E-02  0.1175170E+00
         21   -1    0    0  503  502  0.00000000000E+00  0.00000000000E+00  0.20508340172E+03  0.20508340172E+03  0.00000000000E+00 0. -1.
         21   -1    0    0  501  503 -0.00000000000E+00 -0.00000000000E+00 -0.15487577676E+03  0.15487577676E+03  0.00000000000E+00 0. -1.
          6    2    1    2  501    0 -0.54697553629E+01  0.11260569982E+02 -0.19818599914E+02  0.17374146767E+03  0.17215284495E+03 0.  0.
         24    2    3    3    0    0 -0.63795717194E+02 -0.19309123417E+02  0.32373527858E+01  0.10381228254E+03  0.79522159012E+02 0.  0.
         -6    2    1    2    0  502  0.54697553629E+01 -0.11260569982E+02  0.70026224878E+02  0.18621771080E+03  0.17209487205E+03 0.  0.
        -24    2    5    5    0    0 -0.45678530195E+01  0.21382088553E+02 -0.30166197909E+02  0.80260604756E+02  0.71089423879E+02 0.  0.
          5    1    3    3  501    0  0.58325961831E+02  0.30569693399E+02 -0.23055952700E+02  0.69929185130E+02  0.47000000000E+01 0. -1.
        -13    1    4    4    0    0 -0.66663633849E+02  0.10080891118E+02 -0.15047015145E+02  0.69080222267E+02  0.00000000000E+00 0.  1.
         14    1    4    4    0    0  0.28679166542E+01 -0.29390014535E+02  0.18284367931E+02  0.34732060274E+02  0.00000000000E+00 0. -1.
         -5    1    5    5    0  502  0.10037608382E+02 -0.32642658535E+02  0.10019242279E+03  0.10595710605E+03  0.47000000000E+01 0.  1.
         11    1    6    6    0    0  0.28947712496E+01  0.29608281579E+02  0.15302931895E+02  0.33454592558E+02  0.00000000000E+00 0. -1.
        -12    1    6    6    0    0 -0.74626242691E+01 -0.82261930260E+01 -0.45469129805E+02  0.46806012198E+02  0.00000000000E+00 0.  1.
</event>
<event>
12    1  0.8724767E-002  0.2043821E+03  0.7818608E-02  0.1147332E+00
         21   -1    0    0  501  502  0.00000000000E+00  0.00000000000E+00  0.14634438104E+03  0.14634438104E+03  0.00000000000E+00 0. -1.
         21   -1    0    0  502  503 -0.00000000000E+00 -0.00000000000E+00 -0.28159347627E+03  0.28159347627E+03  0.00000000000E+00 0. -1.
         -6    2    1    2    0  503 -0.10948155709E+03  0.57017461839E+01 -0.41863328027E+02  0.20862549969E+03  0.17249156396E+03 0.  0.
        -24    2    3    3    0    0 -0.10196270751E+03  0.90882742741E+01 -0.90883726125E+02  0.15869463648E+03  0.80281663669E+02 0.  0.
          6    2    1    2  501    0  0.10948155709E+03 -0.57017461839E+01 -0.93385767198E+02  0.21931235762E+03  0.16540340818E+03 0.  0.
         24    2    5    5    0    0  0.34160438625E+02  0.41315483163E+02 -0.18877857545E+02  0.10330628302E+03  0.86266505034E+02 0.  0.
          5    1    5    5  501    0  0.75321118461E+02 -0.47017229347E+02 -0.74507909653E+02  0.11600607459E+03  0.47000000000E+01 0. -1.
        -13    1    6    6    0    0 -0.25101965223E+02 -0.47766757444E+01  0.12346163535E+01  0.25582211921E+02  0.00000000000E+00 0.  1.
         14    1    6    6    0    0  0.59262403848E+02  0.46092158907E+02 -0.20112473899E+02  0.77724071104E+02  0.00000000000E+00 0. -1.
         -5    1    3    3    0  503 -0.75188495749E+01 -0.33865280902E+01  0.49020398098E+02  0.49930863212E+02  0.47000000000E+01 0.  1.
         13    1    4    4    0    0 -0.31221522841E+02  0.27395184206E+02 -0.72162590899E+02  0.83262951734E+02  0.00000000000E+00 0. -1.
        -14    1    4    4    0    0 -0.70741184670E+02 -0.18306909932E+02 -0.18721135225E+02  0.75431684748E+02  0.00000000000E+00 0.  1.
</event>
<event>
12    1  0.8724767E-002  0.2210796E+03  0.7818608E-02  0.1133685E+00
         21   -1    0    0  501  502  0.00000000000E+00  0.00000000000E+00  0.27215540032E+03  0.27215540032E+03  0.00000000000E+00 0. -1.
         21   -1    0    0  502  503 -0.00000000000E+00 -0.00000000000E+00 -0.18618186569E+03  0.18618186569E+03  0.00000000000E+00 0. -1.
         -6    2    1    2    0  503 -0.42082473530E+02 -0.12653964474E+03 -0.82857456676E+01  0.21800208622E+03  0.17225864201E+03 0.  0.
        -24    2    3    3    0    0  0.19421096217E+02 -0.12288287486E+03 -0.16293869876E+02  0.15569413239E+03  0.92183473318E+02 0.  0.
          6    2    1    2  501    0  0.42082473530E+02  0.12653964474E+03  0.94259280307E+02  0.24033517979E+03  0.17633198930E+03 0.  0.
         24    2    5    5    0    0  0.76038635373E+01 -0.26516213868E+01  0.65715138245E+02  0.10352868931E+03  0.79591835507E+02 0.  0.
          5    1    5    5  501    0  0.34478609993E+02  0.12919126612E+03  0.28544142063E+02  0.13680649047E+03  0.47000000000E+01 0. -1.
        -11    1    6    6    0    0 -0.77311780899E+01  0.45285334925E+01  0.80531774678E+02  0.81028670623E+02  0.00000000000E+00 0.  1.
         12    1    6    6    0    0  0.15335041627E+02 -0.71801548793E+01 -0.14816636433E+02  0.22500018689E+02  0.00000000000E+00 0. -1.
         -5    1    3    3    0  503 -0.61503569747E+02 -0.36567698766E+01  0.80081242082E+01  0.62307953833E+02  0.47000000000E+01 0.  1.
         11    1    4    4    0    0 -0.17756195160E+02 -0.11325309929E+03 -0.22408470018E+02  0.11680619201E+03  0.00000000000E+00 0. -1.
        -12    1    4    4    0    0  0.37177291377E+02 -0.96297755753E+01  0.61146001421E+01  0.38887940376E+02  0.00000000000E+00 0.  1.
</event>
<event>
12    1  0.8724767E-002  0.1740906E+03  0.7818608E-02  0.1174127E+00
         21   -1    0    0  501  502  0.00000000000E+00  0.00000000000E+00  0.10452950341E+04  0.10452950341E+04  0.00000000000E+00 0. -1.
         21   -1    0    0  502  503 -0.00000000000E+00 -0.00000000000E+00 -0.32699664466E+02  0.32699664466E+02  0.00000000000E+00 0. -1.
         -6    2    1    2    0  503 -0.37055756569E+01  0.87570560526E+01  0.69766699574E+03  0.71905965706E+03  0.17383076870E+03 0.  0.
        -24    2    3    3    0    0  0.63166715735E+02  0.77310304001E+01  0.48979957969E+03  0.50064741212E+03  0.81819314294E+02 0.  0.
          6    2    1    2  501    0  0.37055756569E+01 -0.87570560526E+01  0.31492837393E+03  0.35893504154E+03  0.17194204261E+03 0.  0.
         24    2    5    5    0    0  0.65781002806E+02 -0.30124394629E+01  0.14537628229E+03  0.17822433058E+03  0.79331163089E+02 0.  0.
          5    1    5    5  501    0 -0.62075427149E+02 -0.57446165897E+01  0.16955209164E+03  0.18071071096E+03  0.47000000000E+01 0. -1.
        -13    1    6    6    0    0  0.29288590637E+01 -0.19123198875E+02  0.92563113520E+02  0.94563232469E+02  0.00000000000E+00 0.  1.
         14    1    6    6    0    0  0.62852143742E+02  0.16110759412E+02  0.52813168772E+02  0.83661098114E+02  0.00000000000E+00 0. -1.
         -5    1    3    3    0  503 -0.66872291392E+02  0.10260256525E+01  0.20786741605E+03  0.21841224494E+03  0.47000000000E+01 0.  1.
         11    1    4    4    0    0  0.72498517015E+02  0.30442152858E+02  0.39240298036E+03  0.40020352152E+03  0.00000000000E+00 0. -1.
        -12    1    4    4    0    0 -0.93318012806E+01 -0.22711122458E+02  0.97396599327E+02  0.10044389060E+03  0.00000000000E+00 0.  1.
</event>
<event>
12    1  0.8724767E-002  0.1749326E+03  0.7818608E-02  0.1173208E+00
         21   -1    0    0  503  502  0.00000000000E+00  0.00000000000E+00  0.50336313799E+03  0.50336313799E+03  0.00000000000E+00 0. -1.
         21   -1    0    0  501  503 -0.00000000000E+00 -0.00000000000E+00 -0.70035121614E+02  0.70035121614E+02  0.00000000000E+00 0. -1.
          6    2    1    2  501    0 -0.22978185116E+02  0.14978571878E+00  0.11027226778E+03  0.20678826665E+03  0.17341682374E+03 0.  0.
         24    2    3    3    0    0  0.21440118656E+02 -0.10173076438E+02  0.13247182110E+03  0.15585245056E+03  0.78600463029E+02 0.  0.
         -6    2    1    2    0  502  0.22978185116E+02 -0.14978571878E+00  0.32305574860E+03  0.36660999296E+03  0.17178431478E+03 0.  0.
        -24    2    5    5    0    0  0.78054534227E+02 -0.12656111407E+02  0.17322160900E+03  0.20641582389E+03  0.79681108534E+02 0.  0.
          5    1    3    3  501    0 -0.44418303772E+02  0.10322862157E+02 -0.22199553321E+02  0.50935816090E+02  0.47000000000E+01 0. -1.
        -13    1    4    4    0    0  0.33773799194E+02 -0.24194515987E+02  0.28895673816E+02  0.50606364038E+02  0.00000000000E+00 0.  1.
         14    1    4    4    0    0 -0.12333680537E+02  0.14021439549E+02  0.10357614728E+03  0.10524608652E+03  0.00000000000E+00 0. -1.
         -5    1    5    5    0  502 -0.55076349111E+02  0.12506325688E+02  0.14983413960E+03  0.16019416907E+03  0.47000000000E+01 0.  1.
         11    1    6    6    0    0  0.22967125776E+02 -0.37054485212E+02  0.11349464542E+03  0.12157943197E+03  0.00000000000E+00 0. -1.
        -12    1    6    6    0    0  0.55087408451E+02  0.24398373804E+02  0.59726963585E+02  0.84836391915E+02  0.00000000000E+00 0.  1.
</event>
<event>
12    1  0.8724767E-002  0.1761768E+03  0.7818608E-02  0.1172133E+00
         21   -1    0    0  503  502  0.00000000000E+00  0.00000000000E+00  0.42204135947E+03  0.42204135947E+03  0.00000000000E+00 0.  1.
         21   -1    0    0  501  503 -0.00000000000E+00 -0.00000000000E+00 -0.83372785118E+02  0.83372785118E+02  0.00000000000E+00 0.  1.
          6    2    1    2  501    0  0.10658907178E+02 -0.36048352210E+02  0.77458642538E+02  0.19034448914E+03  0.16975890917E+03 0.  0.
         24    2    3    3    0    0  0.42795905285E+02  0.33052921267E+02  0.18627200915E+02  0.93954649594E+02  0.74542058282E+02 0.  0.
         -6    2    1    2    0  502 -0.10658907178E+02  0.36048352210E+02  0.26120993182E+03  0.31506965546E+03  0.17211961919E+03 0.  0.
        -24    2    5    5    0    0 -0.44677975827E+02  0.35565955771E+02  0.67964386342E+02  0.11879571275E+03  0.78944314701E+02 0.  0.
          5    1    3    3  501    0 -0.32136998106E+02 -0.69101273478E+02  0.58831441623E+02  0.96389839542E+02  0.47000000000E+01 0. -1.
        -13    1    4    4    0    0 -0.32899731867E+01 -0.15304991649E+01 -0.22737616120E+02  0.23025323843E+02  0.00000000000E+00 0.  1.
         14    1    4    4    0    0  0.46085878471E+02  0.34583420432E+02  0.41364817034E+02  0.70929325751E+02  0.00000000000E+00 0. -1.
         -5    1    5    5    0  502  0.34019068649E+02  0.48239643904E+00  0.19324554548E+03  0.19627394270E+03  0.47000000000E+01 0.  1.
         11    1    6    6    0    0 -0.52559300520E+02 -0.60023096231E+01  0.25049450089E+02  0.58531895080E+02  0.00000000000E+00 0. -1.
        -12    1    6    6    0    0  0.78813246930E+01  0.41568265394E+02  0.42914936253E+02  0.60263817672E+02  0.00000000000E+00 0.  1.
</event>
<event>
12    1  0.8724767E-002  0.2254522E+03  0.7818608E-02  0.1129920E+00
         21   -1    0    0  501  502  0.00000000000E+00  0.00000000000E+00  0.37724685372E+02  0.37724685372E+02  0.00000000000E+00 0.  1.
         21   -1    0    0  502  503 -0.00000000000E+00 -0.00000000000E+00 -0.21765253416E+04  0.21765253416E+04  0.00000000000E+00 0. -1.
         -6    2    1    2    0  503  0.11979266984E+03  0.84198914370E+02 -0.17535541911E+04  0.17679878411E+04  0.17143209791E+03 0.  0.
        -24    2    3    3    0    0  0.12954462311E+02 -0.75811444417E+01 -0.66968580699E+03  0.67499619160E+03  0.83159405643E+02 0.  0.
          6    2    1    2  501    0 -0.11979266984E+03 -0.84198914370E+02 -0.38524646509E+03  0.44626218584E+03  0.17115886983E+03 0.  0.
         24    2    5    5    0    0 -0.64324817560E+02 -0.17931259503E+02 -0.84945375357E+02  0.13373871598E+03  0.78810628325E+02 0.  0.
          5    1    5    5  501    0 -0.55467852278E+02 -0.66267654867E+02 -0.30030108973E+03  0.31252346986E+03  0.47000000000E+01 0. -1.
        -11    1    6    6    0    0  0.41490985328E+01 -0.13470093160E+01  0.12643851776E+02  0.13375217399E+02  0.00000000000E+00 0.  1.
         12    1    6    6    0    0 -0.68473916092E+02 -0.16584250187E+02 -0.97589227133E+02  0.12036349859E+03  0.00000000000E+00 0. -1.
         -5    1    3    3    0  503  0.10683820753E+03  0.91780058811E+02 -0.10838683841E+04  0.10929916495E+04  0.47000000000E+01 0.  1.
         11    1    4    4    0    0  0.20495377265E+02 -0.18305978237E+02 -0.65389476901E+03  0.65447195376E+03  0.00000000000E+00 0. -1.
        -12    1    4    4    0    0 -0.75409149534E+01  0.10724833795E+02 -0.15791037988E+02  0.20524237842E+02  0.00000000000E+00 0.  1.
</event>
<event>
12    1  0.8724767E-002  0.2096933E+03  0.7818608E-02  0.1142063E+00
         21   -1    0    0  501  502  0.00000000000E+00  0.00000000000E+00  0.17699164183E+04  0.17699164183E+04  0.00000000000E+00 0.  1.
         21   -1    0    0  502  503 -0.00000000000E+00 -0.00000000000E+00 -0.24718055709E+02  0.24718055709E+02  0.00000000000E+00 0. -1.
         -6    2    1    2    0  503 -0.10489528049E+03 -0.49543450792E+02  0.84663857207E+03  0.87222023593E+03  0.17468169584E+03 0.  0.
        -24    2    3    3    0    0 -0.34454754134E+02 -0.12603355493E+01  0.17518658081E+03  0.19534285151E+03  0.79245018846E+02 0.  0.
          6    2    1    2  501    0  0.10489528049E+03  0.49543450792E+02  0.89855979048E+03  0.92241423804E+03  0.17314951945E+03 0.  0.
         24    2    5    5    0    0  0.34492236866E+01  0.12364298081E+02  0.59937770947E+03  0.60428596292E+03  0.75783331640E+02 0.  0.
          5    1    5    5  501    0  0.10144605680E+03  0.37179152711E+02  0.29918208101E+03  0.31812827512E+03  0.47000000000E+01 0. -1.
        -11    1    6    6    0    0  0.31162061596E+02  0.30383315964E+02  0.36607081540E+03  0.36864896834E+03  0.00000000000E+00 0.  1.
         12    1    6    6    0    0 -0.27712837909E+02 -0.18019017883E+02  0.23330689407E+03  0.23563699457E+03  0.00000000000E+00 0. -1.
         -5    1    3    3    0  503 -0.70440526357E+02 -0.48283115243E+02  0.67145199126E+03  0.67687738441E+03  0.47000000000E+01 0.  1.
         11    1    4    4    0    0 -0.53980732640E+02  0.19110866412E+02  0.13023530582E+03  0.14226868803E+03  0.00000000000E+00 0. -1.
        -12    1    4    4    0    0  0.19525978506E+02 -0.20371201961E+02  0.44951274993E+02  0.53074163483E+02  0.00000000000E+00 0.  1.
</event>
<event>
12    1  0.8724767E-002  0.1816097E+03  0.7818608E-02  0.1166878E+00
         21   -1    0    0  503  502  0.00000000000E+00  0.00000000000E+00  0.75200000193E+03  0.75200000193E+03  0.00000000000E+00 0. -1.
         21   -1    0    0  501  503 -0.00000000000E+00 -0.00000000000E+00 -0.45657011820E+02  0.45657011820E+02  0.00000000000E+00 0. -1.
          6    2    1    2  501    0 -0.21210136393E+02  0.50242092719E+02  0.25893728355E+03  0.31479684306E+03  0.17051216327E+03 0.  0.
         24    2    3    3    0    0 -0.59917083754E+02 -0.14449245014E+02  0.15473169949E+03  0.18609528635E+03  0.83010355776E+02 0.  0.
         -6    2    1    2    0  502  0.21210136393E+02 -0.50242092719E+02  0.44740570656E+03  0.48286017069E+03  0.17322800122E+03 0.  0.
        -24    2    5    5    0    0  0.79479377595E+02 -0.39948936636E+02  0.32748511643E+03  0.34905325207E+03  0.81723817195E+02 0.  0.
          5    1    3    3  501    0  0.38706947361E+02  0.64691337733E+02  0.10420558406E+03  0.12870155671E+03  0.47000000000E+01 0. -1.
        -13    1    4    4    0    0  0.13481817075E+01 -0.58686146631E+01 -0.91344408856E+01  0.10940577785E+02  0.00000000000E+00 0.  1.
         14    1    4    4    0    0 -0.61265265461E+02 -0.85806303514E+01  0.16386614038E+03  0.17515470856E+03  0.00000000000E+00 0. -1.
         -5    1    5    5    0  502 -0.58269241203E+02 -0.10293156083E+02  0.11992059013E+03  0.13380691861E+03  0.47000000000E+01 0.  1.
         11    1    6    6    0    0  0.16941898230E+02  0.67651714673E+01  0.19063696805E+03  0.19150783025E+03  0.00000000000E+00 0. -1.
        -12    1    6    6    0    0  0.62537479366E+02 -0.46714108103E+02  0.13684814839E+03  0.15754542182E+03  0.00000000000E+00 0.  1.
</event>
<event>
12    1  0.8724767E-002  0.1867789E+03  0.7818608E-02  0.1161461E+00
         21   -1    0    0  501  502  0.00000000000E+00  0.00000000000E+00  0.58166155151E+02  0.58166155151E+02  0.00000000000E+00 0. -1.
         21   -1    0    0  502  503 -0.00000000000E+00 -0.00000000000E+00 -0.60047184289E+03  0.60047184289E+03  0.00000000000E+00 0.  1.
         -6    2    1    2    0  503  0.70890714017E+02  0.25912499545E+01 -0.28772660085E+03  0.34288991221E+03  0.17249546993E+03 0.  0.
        -24    2    3    3    0    0  0.99816780209E+02  0.27765196871E+02 -0.14631897828E+03  0.19629983537E+03  0.79938014678E+02 0.  0.
          6    2    1    2  501    0 -0.70890714017E+02 -0.25912499545E+01 -0.25457908689E+03  0.31574808583E+03  0.17278348971E+03 0.  0.
         24    2    5    5    0    0 -0.25042296959E+02  0.11199065360E+02 -0.36781754580E+02  0.92700965017E+02  0.80548344136E+02 0.  0.
          5    1    5    5  501    0 -0.45848417058E+02 -0.13790315315E+02 -0.21779733231E+03  0.22304712082E+03  0.47000000000E+01 0. -1.
        -13    1    6    6    0    0 -0.31065393637E+01 -0.67750463736E+01 -0.57245958145E+02  0.57729122322E+02  0.00000000000E+00 0.  1.
         14    1    6    6    0    0 -0.21935757596E+02  0.17974111734E+02  0.20464203565E+02  0.34971842695E+02  0.00000000000E+00 0. -1.
         -5    1    3    3    0  503 -0.28926066192E+02 -0.25173946916E+02 -0.14140762256E+03  0.14659007684E+03  0.47000000000E+01 0.  1.
         13    1    4    4    0    0  0.93753860223E+02  0.13902732235E+02 -0.15282562216E+03  0.17982976132E+03  0.00000000000E+00 0. -1.
        -14    1    4    4    0    0  0.60629199865E+01  0.13862464635E+02  0.65066438723E+01  0.16470074044E+02  0.00000000000E+00 0.  1.
</event>
<event>
12    1  0.8724767E-002  0.1878979E+03  0.7818608E-02  0.1160868E+00
         21   -1    0    0  501  502  0.00000000000E+00  0.00000000000E+00  0.59372707689E+03  0.59372707689E+03  0.00000000000E+00 0. -1.
         21   -1    0    0  502  503 -0.00000000000E+00 -0.00000000000E+00 -0.59538738464E+02  0.59538738464E+02  0.00000000000E+00 0. -1.
         -6    2    1    2    0  503  0.58390123911E+02 -0.47782924888E+02  0.30237566677E+03  0.35486553504E+03  0.16972297905E+03 0.  0.
        -24    2    3    3    0    0 -0.97378035068E+01 -0.62877859072E+02  0.10640427134E+03  0.14678826727E+03  0.78590562224E+02 0.  0.
          6    2    1    2  501    0 -0.58390123911E+02  0.47782924888E+02  0.23181267165E+03  0.29840028032E+03  0.17208427608E+03 0.  0.
         24    2    5    5    0    0 -0.23017323409E+02  0.63469753278E+02  0.58536550269E+02  0.12079392952E+03  0.81280003287E+02 0.  0.
          5    1    5    5  501    0 -0.35372800502E+02 -0.15686828390E+02  0.17327612139E+03  0.17760635079E+03  0.47000000000E+01 0. -1.
        -13    1    6    6    0    0 -0.45560270943E+02  0.31365983178E+02  0.59912452897E+02  0.81541800331E+02  0.00000000000E+00 0.  1.
         14    1    6    6    0    0  0.22542947533E+02  0.32103770101E+02 -0.13759026274E+01  0.39252129193E+02  0.00000000000E+00 0. -1.
         -5    1    3    3    0  503  0.68127927418E+02  0.15094934184E+02  0.19597139543E+03  0.20807726776E+03  0.47000000000E+01 0.  1.
         13    1    4    4    0    0 -0.24140849711E+02  0.97505405117E+01  0.37444034930E+02  0.45606023910E+02  0.00000000000E+00 0. -1.
        -14    1    4    4    0    0  0.14403046205E+02 -0.72628399584E+02  0.68960236413E+02  0.10118224336E+03  0.00000000000E+00 0.  1.
</event>
<event>
12    1  0.8724767E-002  0.1821752E+03  0.7818608E-02  0.1165719E+00
         21   -1    0    0  501  502  0.00000000000E+00  0.00000000000E+00  0.35210023128E+03  0.35210023128E+03  0.00000000000E+00 0. -1.
         21   -1    0    0  502  503 -0.00000000000E+00 -0.00000000000E+00 -0.12386915730E+03  0.12386915730E+03  0.00000000000E+00 0. -1.
         -6    2    1    2    0  503  0.59881422332E+02 -0.67574226730E+01  0.23050001996E+03  0.29379934108E+03  0.17191959200E+03 0.  0.
        -24    2    3    3    0    0  0.15685522677E+02 -0.15947331877E+02  0.29890171849E+02  0.88119655314E+02  0.79820412576E+02 0.  0.
          6    2    1    2  501    0 -0.59881422332E+02  0.67574226730E+01 -0.22689459716E+01  0.18217004750E+03  0.17189918728E+03 0.  0.
         24    2    5    5    0    0 -0.75822636494E+01 -0.57051510735E+02  0.34845806887E+02  0.91580992637E+02  0.62132780040E+02 0.  0.
          5    1    5    5  501    0 -0.52299158682E+02  0.63808933408E+02 -0.37114752858E+02  0.90589054865E+02  0.47000000000E+01 0. -1.
        -13    1    6    6    0    0 -0.11575329411E+02 -0.63750981471E+02  0.44919359473E+02  0.78841136122E+02  0.00000000000E+00 0.  1.
         14    1    6    6    0    0  0.39930657618E+01  0.66994707358E+01 -0.10073552586E+02  0.12739856515E+02  0.00000000000E+00 0. -1.
         -5    1    3    3    0  503  0.44195899654E+02  0.91899092041E+01  0.20060984811E+03  0.20567968576E+03  0.47000000000E+01 0.  1.
         11    1    4    4    0    0  0.38255932386E+02 -0.34894362399E+02  0.27304047069E+02  0.58537542452E+02  0.00000000000E+00 0. -1.
        -12    1    4    4    0    0 -0.22570409709E+02  0.18947030522E+02  0.25861247796E+01  0.29582112862E+02  0.00000000000E+00 0.  1.
</event>
<event>
12    1  0.8724767E-002  0.3217926E+03  0.7818608E-02  0.1074844E+00
         21   -1    0    0  501  502  0.00000000000E+00  0.00000000000E+00  0.10199731106E+03  0.10199731106E+03  0.00000000000E+00 0. -1.
         21   -1    0    0  502  503 -0.00000000000E+00 -0.00000000000E+00 -0.13418127152E+04  0.13418127152E+04  0.00000000000E+00 0.  1.
         -6    2    1    2    0  503 -0.27172813270E+03  0.16265927226E+02 -0.26340116081E+03  0.41573645140E+03  0.17133553928E+03 0.  0.
        -24    2    3    3    0    0 -0.23447472788E+03  0.38304831267E+01 -0.13524286652E+03  0.28161302005E+03  0.77602767381E+02 0.  0.
          6    2    1    2  501    0  0.27172813270E+03 -0.16265927226E+02 -0.97641424331E+03  0.10280735749E+04  0.17160927211E+03 0.  0.
         24    2    5    5    0    0  0.25369001645E+03  0.21672926410E+01 -0.96229829280E+03  0.99829930255E+03  0.78868064123E+02 0.  0.
          5    1    5    5  501    0  0.18038116244E+02 -0.18433219867E+02 -0.14115950514E+02  0.29774272303E+02  0.47000000000E+01 0. -1.
        -13    1    6    6    0    0  0.56753484191E+02  0.24499293974E+02 -0.15145840117E+03  0.16358734871E+03  0.00000000000E+00 0.  1.
         14    1    6    6    0    0  0.19693653226E+03 -0.22332001333E+02 -0.81083989163E+03  0.83471195384E+03  0.00000000000E+00 0. -1.
         -5    1    3    3    0  503 -0.37253404819E+02  0.12435444099E+02 -0.12815829429E+03  0.13412343134E+03  0.47000000000E+01 0.  1.
         11    1    4    4    0    0 -0.12452754186E+03 -0.24737989926E+02 -0.39254887349E+02  0.13289101929E+03  0.00000000000E+00 0. -1.
        -12    1    4    4    0    0 -0.10994718602E+03  0.28568473053E+02 -0.95987979172E+02  0.14872200076E+03  0.00000000000E+00 0.  1.
</event>
<event>
12    1  0.8724767E-002  0.1946354E+03  0.7818608E-02  0.1156435E+00
         21   -1    0    0  503  502  0.00000000000E+00  0.00000000000E+00  0.73320126314E+02  0.73320126314E+02  0.00000000000E+00 0.  1.
         21   -1    0    0  501  503 -0.00000000000E+00 -0.00000000000E+00 -0.49371681271E+03  0.49371681271E+03  0.00000000000E+00 0.  1.
          6    2    1    2  501    0 -0.96245940169E+01 -0.97496741227E+02 -0.19986814032E+03  0.27898069100E+03  0.16818057284E+03 0.  0.
         24    2    3    3    0    0  0.26806091525E+02 -0.65408599621E+02 -0.20376883846E+03  0.23005064781E+03  0.80029429498E+02 0.  0.
         -6    2    1    2    0  502  0.96245940169E+01  0.97496741227E+02 -0.22052854608E+03  0.28805624802E+03  0.15730643670E+03 0.  0.
        -24    2    5    5    0    0 -0.19660301928E+00  0.63272553241E+02 -0.22949628969E+03  0.25103920627E+03  0.79678613545E+02 0.  0.
          5    1    3    3  501    0 -0.36430685542E+02 -0.32088141606E+02  0.39006981417E+01  0.48930043192E+02  0.47000000000E+01 0. -1.
        -13    1    4    4    0    0  0.36647728923E+02 -0.84824023055E+01 -0.33940332163E+02  0.50665109607E+02  0.00000000000E+00 0.  1.
         14    1    4    4    0    0 -0.98416373985E+01 -0.56926197316E+02 -0.16982850629E+03  0.17938553821E+03  0.00000000000E+00 0. -1.
         -5    1    5    5    0  502  0.98211970362E+01  0.34224187986E+02  0.89677436080E+01  0.37017041751E+02  0.47000000000E+01 0.  1.
         11    1    6    6    0    0  0.69145056610E+01  0.77412138585E+02 -0.13974818717E+03  0.15990623942E+03  0.00000000000E+00 0. -1.
        -12    1    6    6    0    0 -0.71111086803E+01 -0.14139585344E+02 -0.89748102523E+02  0.91132966849E+02  0.00000000000E+00 0.  1.
</event>
<event>
12    1  0.8724767E-002  0.2351466E+03  0.7818608E-02  0.1123216E+00
         21   -1    0    0  503  502  0.00000000000E+00  0.00000000000E+00  0.14433068599E+03  0.14433068599E+03  0.00000000000E+00 0. -1.
         21   -1    0    0  501  503 -0.00000000000E+00 -0.00000000000E+00 -0.38248480005E+03  0.38248480005E+03  0.00000000000E+00 0.  1.
          6    2    1    2  501    0  0.80315188113E+02  0.13782769677E+03 -0.10696966084E+03  0.25755118801E+03  0.17158992589E+03 0.  0.
         24    2    3    3    0    0  0.82350716734E+02  0.68820642096E+02 -0.12842923036E+03  0.18510313700E+03  0.79064421779E+02 0.  0.
         -6    2    1    2    0  502 -0.80315188113E+02 -0.13782769677E+03 -0.13118445322E+03  0.26926429803E+03  0.17276254800E+03 0.  0.
        -24    2    5    5    0    0  0.23267616441E+02 -0.67014830339E+02 -0.73239240132E+02  0.13097620321E+03  0.82209549635E+02 0.  0.
          5    1    3    3  501    0 -0.20355286214E+01  0.69007054672E+02  0.21459569522E+02  0.72448051011E+02  0.47000000000E+01 0. -1.
        -11    1    4    4    0    0  0.17141031251E+02  0.86031702546E+01 -0.83394344791E+02  0.85571293282E+02  0.00000000000E+00 0.  1.
         12    1    4    4    0    0  0.65209685483E+02  0.60217471841E+02 -0.45034885569E+02  0.99531843718E+02  0.00000000000E+00 0. -1.
         -5    1    5    5    0  502 -0.10358280455E+03 -0.70812866429E+02 -0.57945213085E+02  0.13828809483E+03  0.47000000000E+01 0.  1.
         13    1    6    6    0    0 -0.15674698008E+02 -0.29343206042E+02  0.71551939281E+01  0.34028175070E+02  0.00000000000E+00 0. -1.
        -14    1    6    6    0    0  0.38942314448E+02 -0.37671624297E+02 -0.80394434060E+02  0.96948028137E+02  0.00000000000E+00 0.  1.
</event>
<event>
12    1  0.8724767E-002  0.2500414E+03  0.7818608E-02  0.1113334E+00
         21   -1    0    0  503  502  0.00000000000E+00  0.00000000000E+00  0.47096524020E+02  0.47096524020E+02  0.00000000000E+00 0. -1.
         21   -1    0    0  501  503 -0.00000000000E+00 -0.00000000000E+00 -0.13348819960E+04  0.13348819960E+04  0.00000000000E+00 0.  1.
          6    2    1    2  501    0  0.13261324114E+03 -0.12417739540E+03 -0.58593601643E+03  0.63691921833E+03  0.17128566219E+03 0.  0.
         24    2    3    3    0    0  0.14255862171E+03 -0.45555231827E+02 -0.41726460802E+03  0.45049902303E+03  0.80258188843E+02 0.  0.
         -6    2    1    2    0  502 -0.13261324114E+03  0.12417739540E+03 -0.70184945559E+03  0.74505930173E+03  0.17179757719E+03 0.  0.
        -24    2    5    5    0    0 -0.45513147123E+02  0.11403028802E+03 -0.55511486952E+03  0.57405486052E+03  0.79448797172E+02 0.  0.
          5    1    3    3  501    0 -0.99453805703E+01 -0.78622163572E+02 -0.16867140842E+03  0.18642019530E+03  0.47000000000E+01 0. -1.
        -13    1    4    4    0    0  0.54723920631E+02 -0.15889109519E+02 -0.27393630240E+03  0.27980040934E+03  0.00000000000E+00 0.  1.
         14    1    4    4    0    0  0.87834701081E+02 -0.29666122308E+02 -0.14332830561E+03  0.17069861369E+03  0.00000000000E+00 0. -1.
         -5    1    5    5    0  502 -0.87100094019E+02  0.10147107380E+02 -0.14673458607E+03  0.17100444121E+03  0.47000000000E+01 0.  1.
         11    1    6    6    0    0  0.19364951465E+02  0.33324106314E+02 -0.96869077060E+02  0.10425505023E+03  0.00000000000E+00 0. -1.
        -12    1    6    6    0    0 -0.64878098588E+02  0.80706181704E+02 -0.45824579246E+03  0.46979981029E+03  0.00000000000E+00 0.  1.
</event>
<event>
12    1  0.8724767E-002  0.2452413E+03  0.7818608E-02  0.1117659E+00
         21   -1    0    0  503  502  0.00000000000E+00  0.00000000000E+00  0.72848539284E+02  0.72848539284E+02  0.00000000000E+00 0. -1.
         21   -1    0    0  501  503 -0.00000000000E+00 -0.00000000000E+00 -0.92892220707E+03  0.92892220707E+03  0.00000000000E+00 0.  1.
          6    2    1    2  501    0  0.12408205325E+03  0.11750680330E+03 -0.62135740451E+03  0.66800324814E+03  0.17589516942E+03 0.  0.
         24    2    3    3    0    0  0.47776468804E+02  0.96087721078E+02 -0.53199296741E+03  0.54846491989E+03  0.79257869445E+02 0.  0.
         -6    2    1    2    0  502 -0.12408205325E+03 -0.11750680330E+03 -0.23471626328E+03  0.33376749822E+03  0.16463539673E+03 0.  0.
        -24    2    5    5    0    0 -0.10219298729E+03 -0.24749119848E+02 -0.87665553039E+02  0.15847026370E+03  0.79822613984E+02 0.  0.
          5    1    3    3  501    0  0.76305584448E+02  0.21419082221E+02 -0.89364437100E+02  0.11953832824E+03  0.47000000000E+01 0. -1.
        -13    1    4    4    0    0 -0.17562031538E+02  0.44247582520E+02 -0.24573066136E+03  0.25029948350E+03  0.00000000000E+00 0.  1.
         14    1    4    4    0    0  0.65338500343E+02  0.51840138558E+02 -0.28626230605E+03  0.29816543639E+03  0.00000000000E+00 0. -1.
         -5    1    5    5    0  502 -0.21889065967E+02 -0.92757683451E+02 -0.14705071024E+03  0.17529723452E+03  0.47000000000E+01 0.  1.
         11    1    6    6    0    0 -0.10403089361E+03 -0.20704079334E+02 -0.99743097670E+02  0.14560141228E+03  0.00000000000E+00 0. -1.
        -12    1    6    6    0    0  0.18379063232E+01 -0.40450405141E+01  0.12077544631E+02  0.12868851414E+02  0.00000000000E+00 0.  1.
</event>
<event>
12    1  0.8724767E-002  0.1892629E+03  0.7818608E-02  0.1159274E+00
         21   -1    0    0  503  502  0.00000000000E+00  0.00000000000E+00  0.82383365580E+02  0.82383365580E+02  0.00000000000E+00 0.  1.
         21   -1    0    0  501  503 -0.00000000000E+00 -0.00000000000E+00 -0.60504068768E+03  0.60504068768E+03  0.00000000000E+00 0.  1.
          6    2    1    2  501    0 -0.45417797409E+02  0.65008531919E+02 -0.44411957648E+03  0.48251280394E+03  0.17113597580E+03 0.  0.
         24    2    3    3    0    0 -0.58994740276E+02  0.10457687051E+03 -0.37324527032E+03  0.40007953353E+03  0.79592085728E+02 0.  0.
         -6    2    1    2    0  502  0.45417797409E+02 -0.65008531919E+02 -0.78537745621E+02  0.20491124932E+03  0.17184748199E+03 0.  0.
        -24    2    5    5    0    0 -0.39894803401E+02 -0.43674995961E+02 -0.52190621613E+02  0.11298943168E+03  0.80892830813E+02 0.  0.
          5    1    3    3  501    0  0.13576942867E+02 -0.39568338596E+02 -0.70874306161E+02  0.82433270411E+02  0.47000000000E+01 0. -1.
        -11    1    4    4    0    0 -0.21836168284E+02  0.76338311705E+02 -0.31798376950E+03  0.32774690501E+03  0.00000000000E+00 0.  1.
         12    1    4    4    0    0 -0.37158571992E+02  0.28238558810E+02 -0.55261500816E+02  0.72332628520E+02  0.00000000000E+00 0. -1.
         -5    1    5    5    0  502  0.85312600810E+02 -0.21333535958E+02 -0.26347124007E+02  0.91921817633E+02  0.47000000000E+01 0.  1.
         11    1    6    6    0    0 -0.56188187182E+01 -0.23133278880E+02 -0.66431104873E+02  0.70567778838E+02  0.00000000000E+00 0. -1.
        -12    1    6    6    0    0 -0.34275984683E+02 -0.20541717081E+02  0.14240483259E+02  0.42421652845E+02  0.00000000000E+00 0.  1.
</event>
<event>
12    1  0.8724767E-002  0.1800647E+03  0.7818608E-02  0.1167845E+00
         21   -1    0    0  503  502  0.00000000000E+00  0.00000000000E+00  0.29915990070E+03  0.29915990070E+03  0.00000000000E+00 0. -1.
         21   -1    0    0  501  503 -0.00000000000E+00 -0.00000000000E+00 -0.14618889539E+03  0.14618889539E+03  0.00000000000E+00 0.  1.
          6    2    1    2  501    0 -0.42389581149E+02 -0.28076268831E+02 -0.37212010853E+02  0.18344638843E+03  0.17228665129E+03 0.  0.
         24    2    3    3    0    0  0.15752595418E+02  0.34230893274E+02 -0.39129657120E+02  0.98073895711E+02  0.81654520003E+02 0.  0.
         -6    2    1    2    0  502  0.42389581149E+02  0.28076268831E+02  0.19018301616E+03  0.26190240766E+03  0.17273719357E+03 0.  0.
        -24    2    5    5    0    0  0.13753922158E+02  0.25705601933E+02  0.21008939038E+03  0.22663238126E+03  0.79841943487E+02 0.  0.
          5    1    3    3  501    0 -0.58142176567E+02 -0.62307162105E+02  0.19176462669E+01  0.85372492717E+02  0.47000000000E+01 0. -1.
        -11    1    4    4    0    0 -0.26182084455E+01 -0.63006832824E+01 -0.51449153322E+02  0.51899605035E+02  0.00000000000E+00 0.  1.
         12    1    4    4    0    0  0.18370803863E+02  0.40531576557E+02  0.12319496202E+02  0.46174290676E+02  0.00000000000E+00 0. -1.
         -5    1    5    5    0  502  0.28635658991E+02  0.23706668979E+01 -0.19906374223E+02  0.35270026398E+02  0.47000000000E+01 0.  1.
         11    1    6    6    0    0 -0.11836454223E+02 -0.25296963071E+02  0.67728457195E+02  0.73261053113E+02  0.00000000000E+00 0. -1.
        -12    1    6    6    0    0  0.25590376381E+02  0.51002565004E+02  0.14236093319E+03  0.15337132815E+03  0.00000000000E+00 0.  1.
</event>
<event>
12    1  0.8724767E-002  0.3921068E+03  0.7818608E-02  0.1046571E+00
         21   -1    0    0  503  502  0.00000000000E+00  0.00000000000E+00  0.18406653673E+03  0.18406653673E+03  0.00000000000E+00 0. -1.
         21   -1    0    0  501  503 -0.00000000000E+00 -0.00000000000E+00 -0.88493381341E+03  0.88493381341E+03  0.00000000000E+00 0.  1.
          6    2    1    2  501    0 -0.72594983623E+02  0.34473544044E+03 -0.47785589062E+03  0.61813755017E+03  0.17214884021E+03 0.  0.
         24    2    3    3    0    0 -0.42364341383E+02  0.16368687752E+03 -0.34193907246E+03  0.38969073946E+03  0.79676921697E+02 0.  0.
         -6    2    1    2    0  502  0.72594983623E+02 -0.34473544044E+03 -0.22301138605E+03  0.45086279996E+03  0.17155357920E+03 0.  0.
        -24    2    5    5    0    0  0.90081911562E+02 -0.19484623724E+03 -0.10872775820E+03  0.26150756903E+03  0.10239470836E+03 0.  0.
          5    1    3    3  501    0 -0.30230642240E+02  0.18104856292E+03 -0.13591681816E+03  0.22844681071E+03  0.47000000000E+01 0. -1.
        -11    1    4    4    0    0 -0.24732236254E+02  0.55400452599E+02 -0.52771406272E+02  0.80409669681E+02  0.00000000000E+00 0.  1.
         12    1    4    4    0    0 -0.17632105128E+02  0.10828642493E+03 -0.28916766619E+03  0.30928106978E+03  0.00000000000E+00 0. -1.
         -5    1    5    5    0  502 -0.17486927939E+02 -0.14988920320E+03 -0.11428362785E+03  0.18935523093E+03  0.47000000000E+01 0.  1.
         13    1    6    6    0    0 -0.17597972852E+02 -0.35252764863E+02  0.19305386222E+01  0.39448359388E+02  0.00000000000E+00 0. -1.
        -14    1    6    6    0    0  0.10767988441E+03 -0.15959347238E+03 -0.11065829682E+03  0.22205920965E+03  0.00000000000E+00 0.  1.
</event>
<event>
12    1  0.8724767E-002  0.2297539E+03  0.7818608E-02  0.1127265E+00
         21   -1    0    0  503  502  0.00000000000E+00  0.00000000000E+00  0.17206184068E+04  0.17206184068E+04  0.00000000000E+00 0.  1.
         21   -1    0    0  501  503 -0.00000000000E+00 -0.00000000000E+00 -0.45052380285E+02  0.45052380285E+02  0.00000000000E+00 0. -1.
          6    2    1    2  501    0  0.14648028801E+03 -0.27100665082E+02  0.33642602056E+03  0.40739335185E+03  0.17491699462E+03 0.  0.
         24    2    3    3    0    0  0.59622495810E+02 -0.42457668589E+02  0.78592549334E+02  0.13484922239E+03  0.81547705918E+02 0.  0.
         -6    2    1    2    0  502 -0.14648028801E+03  0.27100665082E+02  0.13391400060E+04  0.13582774352E+04  0.17155382442E+03 0.  0.
        -24    2    5    5    0    0 -0.99278035763E+02  0.87337751888E+00  0.12284873398E+04  0.12350620719E+04  0.79625914481E+02 0.  0.
          5    1    3    3  501    0  0.86857792196E+02  0.15357003506E+02  0.25783347122E+03  0.27254412946E+03  0.47000000000E+01 0. -1.
        -13    1    4    4    0    0  0.23668618496E+02 -0.61242989628E+02  0.64137195255E+02  0.91785004740E+02  0.00000000000E+00 0.  1.
         14    1    4    4    0    0  0.35953877314E+02  0.18785321039E+02  0.14455354079E+02  0.43064217652E+02  0.00000000000E+00 0. -1.
         -5    1    5    5    0  502 -0.47202252244E+02  0.26227287564E+02  0.11065266619E+03  0.12321536334E+03  0.47000000000E+01 0.  1.
         13    1    6    6    0    0 -0.72023736344E+00 -0.12889421003E+02  0.32926645277E+02  0.35366932082E+02  0.00000000000E+00 0. -1.
        -14    1    6    6    0    0 -0.98557798399E+02  0.13762798522E+02  0.11955606945E+04  0.11996951398E+04  0.00000000000E+00 0.  1.
</event>
<event>
12    1  0.8724767E-002  0.1828163E+03  0.7818608E-02  0.1165376E+00
         21   -1    0    0  503  502  0.00000000000E+00  0.00000000000E+00  0.14744227580E+02  0.14744227580E+02  0.00000000000E+00 0.  1.
         21   -1    0    0  501  503 -0.00000000000E+00 -0.00000000000E+00 -0.29765571341E+04  0.29765571341E+04  0.00000000000E+00 0.  1.
          6    2    1    2  501    0 -0.17156957910E+02  0.57780168208E+02 -0.22149850336E+04  0.22224231825E+04  0.17138609706E+03 0.  0.
         24    2    3    3    0    0  0.17428857921E+02 -0.37693053333E+02 -0.10799273157E+04  0.10828226264E+04  0.67359495553E+02 0.  0.
         -6    2    1    2    0  502  0.17156957910E+02 -0.57780168208E+02 -0.74682787292E+03  0.76887817912E+03  0.17259453500E+03 0.  0.
        -24    2    5    5    0    0  0.71200978378E+02 -0.64234797646E+02 -0.58683269547E+03  0.59981320581E+03  0.78788202493E+02 0.  0.
          5    1    3    3  501    0 -0.34585815830E+02  0.95473221541E+02 -0.11350577179E+04  0.11396005561E+04  0.47000000000E+01 0. -1.
        -13    1    4    4    0    0  0.37533140654E+02 -0.89648897775E+01 -0.76010463818E+03  0.76108354789E+03  0.00000000000E+00 0.  1.
         14    1    4    4    0    0 -0.20104282733E+02 -0.28728163555E+02 -0.31982267753E+03  0.32173907849E+03  0.00000000000E+00 0. -1.
         -5    1    5    5    0  502 -0.54044020468E+02  0.64546294376E+01 -0.15999517745E+03  0.16906497330E+03  0.47000000000E+01 0.  1.
         11    1    6    6    0    0  0.65996478583E+02 -0.12546340047E+02 -0.41145512490E+03  0.41690318497E+03  0.00000000000E+00 0. -1.
        -12    1    6    6    0    0  0.52044997945E+01 -0.51688457599E+02 -0.17537757057E+03  0.18291002085E+03  0.00000000000E+00 0.  1.
</event>
<event>
12    1  0.8724767E-002  0.2151634E+03  0.7818608E-02  0.1138873E+00
         21   -1    0    0  503  502  0.00000000000E+00  0.00000000000E+00  0.89189354776E+03  0.89189354776E+03  0.00000000000E+00 0. -1.
         21   -1    0    0  501  503 -0.00000000000E+00 -0.00000000000E+00 -0.73961301429E+02  0.73961301429E+02  0.00000000000E+00 0. -1.
          6    2    1    2  501    0 -0.70224910218E+02  0.93873438923E+02  0.14016993414E+03  0.25679348690E+03  0.18042040884E+03 0.  0.
         24    2    3    3    0    0 -0.33934463395E+02  0.26461877182E+02  0.15360144531E+03  0.17892301316E+03  0.81044814080E+02 0.  0.
         -6    2    1    2    0  502  0.70224910218E+02 -0.93873438923E+02  0.67776231220E+03  0.70906136230E+03  0.17222805554E+03 0.  0.
        -24    2    5    5    0    0  0.89888454991E+02 -0.99846352757E+02  0.38520432590E+03  0.41574481650E+03  0.80075909324E+02 0.  0.
          5    1    3    3  501    0 -0.36290446823E+02  0.67411561741E+02 -0.13431511169E+02  0.77870473732E+02  0.47000000000E+01 0. -1.
        -11    1    4    4    0    0 -0.35904800917E+01 -0.25768877854E+02  0.21818028157E+02  0.33955161106E+02  0.00000000000E+00 0.  1.
         12    1    4    4    0    0 -0.30343983303E+02  0.52230755036E+02  0.13178341715E+03  0.14496785206E+03  0.00000000000E+00 0. -1.
         -5    1    5    5    0  502 -0.19663544773E+02  0.59729138332E+01  0.29255798629E+03  0.29331654580E+03  0.47000000000E+01 0.  1.
         11    1    6    6    0    0  0.22939930019E+02 -0.34137128893E+02  0.23559741220E+03  0.23916045784E+03  0.00000000000E+00 0. -1.
        -12    1    6    6    0    0  0.66948524972E+02 -0.65709223864E+02  0.14960691371E+03  0.17658435866E+03  0.00000000000E+00 0.  1.
</event>
<event>
12    1  0.8724767E-002  0.1893245E+03  0.7818608E-02  0.1161255E+00
         21   -1    0    0  503  502  0.00000000000E+00  0.00000000000E+00  0.80331462994E+02  0.80331462994E+02  0.00000000000E+00 0.  1.
         21   -1    0    0  501  503 -0.00000000000E+00 -0.00000000000E+00 -0.47519062396E+03  0.47519062396E+03  0.00000000000E+00 0. -1.
          6    2    1    2  501    0 -0.47963995231E+02 -0.62604286195E+02 -0.10214648887E+03  0.20691849182E+03  0.16174521811E+03 0.  0.
         24    2    3    3    0    0  0.22045250506E+02 -0.27386418446E+02 -0.94187857559E+02  0.12800700654E+03  0.79236558646E+02 0.  0.
         -6    2    1    2    0  502  0.47963995231E+02  0.62604286195E+02 -0.29271267210E+03  0.34860359514E+03  0.17211599765E+03 0.  0.
        -24    2    5    5    0    0 -0.15918293012E+02  0.76671649041E+02 -0.23559889473E+03  0.26163859635E+03  0.82558961246E+02 0.  0.
          5    1    3    3  501    0 -0.70009245736E+02 -0.35217867749E+02 -0.79586313104E+01  0.78911485284E+02  0.47000000000E+01 0. -1.
        -13    1    4    4    0    0  0.22146908553E+02  0.17520595563E+02 -0.57470222427E+01  0.28818138246E+02  0.00000000000E+00 0.  1.
         14    1    4    4    0    0 -0.10165804701E+00 -0.44907014008E+02 -0.88440835317E+02  0.99188868292E+02  0.00000000000E+00 0. -1.
         -5    1    5    5    0  502  0.63882288242E+02 -0.14067362846E+02 -0.57113777364E+02  0.86964998783E+02  0.47000000000E+01 0.  1.
         13    1    6    6    0    0 -0.44463326264E+02  0.26792602384E+02 -0.76254273218E+02  0.92247195670E+02  0.00000000000E+00 0. -1.
        -14    1    6    6    0    0  0.28545033253E+02  0.49879046656E+02 -0.15934462152E+03  0.16939140068E+03  0.00000000000E+00 0.  1.
</event>
<event>
12    1  0.8724767E-002  0.2012319E+03  0.7818608E-02  0.1149132E+00
         21   -1    0    0  503  502  0.00000000000E+00  0.00000000000E+00  0.69313169060E+03  0.69313169060E+03  0.00000000000E+00 0.  1.
         21   -1    0    0  501  503 -0.00000000000E+00 -0.00000000000E+00 -0.60525317909E+02  0.60525317909E+02  0.00000000000E+00 0.  1.
          6    2    1    2  501    0 -0.39942494559E+02 -0.97695727903E+02  0.23836725332E+03  0.31195068654E+03  0.17133133180E+03 0.  0.
         24    2    3    3    0    0 -0.70307403314E+02 -0.66080342554E+02  0.87602171004E+02  0.15487185181E+03  0.83674413568E+02 0.  0.
         -6    2    1    2    0  502  0.39942494559E+02  0.97695727903E+02  0.39423911937E+03  0.44170632197E+03  0.16893825352E+03 0.  0.
        -24    2    5    5    0    0  0.73336134880E+02  0.10813195692E+03  0.37075963049E+03  0.39931025507E+03  0.70108968173E+02 0.  0.
          5    1    3    3  501    0  0.30364908754E+02 -0.31615385349E+02  0.15076508232E+03  0.15707883473E+03  0.47000000000E+01 0. -1.
        -13    1    4    4    0    0 -0.57369118856E+02 -0.86279957686E+02  0.73654350905E+02  0.12712360247E+03  0.00000000000E+00 0.  1.
         14    1    4    4    0    0 -0.12938284457E+02  0.20199615132E+02  0.13947820100E+02  0.27748249345E+02  0.00000000000E+00 0. -1.
         -5    1    5    5    0  502 -0.33393640321E+02 -0.10436229018E+02  0.23479488877E+02  0.42396066892E+02  0.47000000000E+01 0.  1.
         11    1    6    6    0    0  0.22459254558E+02  0.24690325633E+02  0.19826189975E+03  0.20105176246E+03  0.00000000000E+00 0. -1.
        -12    1    6    6    0    0  0.50876880322E+02  0.83441631288E+02  0.17249773075E+03  0.19825849262E+03  0.00000000000E+00 0.  1.
</event>
<event>
12    1  0.8724767E-002  0.1795202E+03  0.7818608E-02  0.1168505E+00
         21   -1    0    0  501  502  0.00000000000E+00  0.00000000000E+00  0.74039043861E+02  0.74039043861E+02  0.00000000000E+00 0. -1.
         21   -1    0    0  502  503 -0.00000000000E+00 -0.00000000000E+00 -0.66904849199E+03  0.66904849199E+03  0.00000000000E+00 0. -1.
         -6    2    1    2    0  503 -0.31498735895E+02 -0.35460033860E+02 -0.51875518762E+03  0.54893938210E+03  0.17314131851E+03 0.  0.
        -24    2    3    3    0    0 -0.57857788966E+02  0.13695635496E+02 -0.42122976633E+03  0.43649216201E+03  0.97753758376E+02 0.  0.
          6    2    1    2  501    0  0.31498735895E+02  0.35460033860E+02 -0.76254260517E+02  0.19414815376E+03  0.17213137133E+03 0.  0.
         24    2    5    5    0    0 -0.13511625345E+02  0.22924675223E+02 -0.10943508600E+03  0.13664924060E+03  0.77387803658E+02 0.  0.
          5    1    5    5  501    0  0.45010361240E+02  0.12535358637E+02  0.33180825480E+02  0.57498913161E+02  0.47000000000E+01 0. -1.
        -13    1    6    6    0    0 -0.34235482920E+01 -0.23374956827E+02 -0.84339647968E+01  0.25084677629E+02  0.00000000000E+00 0.  1.
         14    1    6    6    0    0 -0.10088077053E+02  0.46299632049E+02 -0.10100112120E+03  0.11156456297E+03  0.00000000000E+00 0. -1.
         -5    1    3    3    0  503  0.26359053071E+02 -0.49155669356E+02 -0.97525421284E+02  0.11244722009E+03  0.47000000000E+01 0.  1.
         13    1    4    4    0    0  0.24417549557E+02 -0.81656252999E+00 -0.46120907119E+02  0.52192160084E+02  0.00000000000E+00 0. -1.
        -14    1    4    4    0    0 -0.82275338523E+02  0.14512198026E+02 -0.37510885921E+03  0.38430000193E+03  0.00000000000E+00 0.  1.
</event>
<event>
12    1  0.8724767E-002  0.3249878E+03  0.7818608E-02  0.1073499E+00
         21   -1    0    0  503  502  0.00000000000E+00  0.00000000000E+00  0.29918342094E+03  0.29918342094E+03  0.00000000000E+00 0.  1.
         21   -1    0    0  501  503 -0.00000000000E+00 -0.00000000000E+00 -0.35278024406E+03  0.35278024406E+03  0.00000000000E+00 0. -1.
          6    2    1    2  501    0 -0.19198754821E+03 -0.19759643687E+03 -0.43598137675E+02  0.32682209520E+03  0.17031827199E+03 0.  0.
         24    2    3    3    0    0 -0.12898779065E+03 -0.11343829588E+03 -0.92525588858E+02  0.21077233163E+03  0.79736403711E+02 0.  0.
         -6    2    1    2    0  502  0.19198754821E+03  0.19759643687E+03 -0.99986854400E+01  0.32514156979E+03  0.17237603130E+03 0.  0.
        -24    2    5    5    0    0  0.12923643339E+03  0.84285295154E+02 -0.64228632533E+02  0.18464212350E+03  0.78494138877E+02 0.  0.
          5    1    3    3  501    0 -0.62999757561E+02 -0.84158140987E+02  0.48927451183E+02  0.11604976358E+03  0.47000000000E+01 0. -1.
        -11    1    4    4    0    0 -0.57650691274E+02 -0.11874286235E+02 -0.56369942471E+02  0.81499517128E+02  0.00000000000E+00 0.  1.
         12    1    4    4    0    0 -0.71337099374E+02 -0.10156400965E+03 -0.36155646388E+02  0.12927281450E+03  0.00000000000E+00 0. -1.
         -5    1    5    5    0  502  0.62751114817E+02  0.11331114172E+03  0.54229947094E+02  0.14049944630E+03  0.47000000000E+01 0.  1.
         11    1    6    6    0    0  0.79491238922E+02  0.89330075537E+02 -0.61750886671E+02  0.13458042750E+03  0.00000000000E+00 0. -1.
        -12    1    6    6    0    0  0.49745194470E+02 -0.50447803830E+01 -0.24777458622E+01  0.50061696001E+02  0.00000000000E+00 0.  1.
</event>
<event>
12    1  0.8724767E-002  0.1919960E+03  0.7818608E-02  0.1156841E+00
         21   -1    0    0  503  502  0.00000000000E+00  0.00000000000E+00  0.18265045857E+04  0.18265045857E+04  0.00000000000E+00 0. -1.
         21   -1    0    0  501  503 -0.00000000000E+00 -0.00000000000E+00 -0.22461278488E+02  0.22461278488E+02  0.00000000000E+00 0. -1.
          6    2    1    2  501    0  0.92972214639E+01 -0.84696718092E+02  0.11999926777E+04  0.12151365226E+04  0.17121439680E+03 0.  0.
         24    2    3    3    0    0  0.20713329086E+01  0.95234433591E+01  0.79520453262E+03  0.79943809263E+03  0.81584489106E+02 0.  0.
         -6    2    1    2    0  502 -0.92972214639E+01  0.84696718092E+02  0.60405062951E+03  0.63382934158E+03  0.17205376731E+03 0.  0.
        -24    2    5    5    0    0  0.39939086346E+02  0.98108131859E+02  0.50736809253E+03  0.52440501620E+03  0.79736463096E+02 0.  0.
          5    1    3    3  501    0  0.72258885553E+01 -0.94220161452E+02  0.40478814511E+03  0.41569843001E+03  0.47000000000E+01 0. -1.
        -13    1    4    4    0    0  0.21623308621E+02  0.12042927416E+01  0.57745505336E+02  0.61673018275E+02  0.00000000000E+00 0.  1.
         14    1    4    4    0    0 -0.19551975713E+02  0.83191506175E+01  0.73745902728E+03  0.73776507436E+03  0.00000000000E+00 0. -1.
         -5    1    5    5    0  502 -0.49236307810E+02 -0.13411413766E+02  0.96682536983E+02  0.10942432537E+03  0.47000000000E+01 0.  1.
         11    1    6    6    0    0  0.54328217414E+02  0.10375539689E+03  0.44648263794E+03  0.46158800198E+03  0.00000000000E+00 0. -1.
        -12    1    6    6    0    0 -0.14389131068E+02 -0.56472650301E+01  0.60885454587E+02  0.62817014219E+02  0.00000000000E+00 0.  1.
</event>
<event>
12    1  0.8724767E-002  0.4243248E+03  0.7818608E-02  0.1035701E+00
         21   -1    0    0  501  502  0.00000000000E+00  0.00000000000E+00  0.17047543259E+04  0.17047543259E+04  0.00000000000E+00 0. -1.
         21   -1    0    0  502  503 -0.00000000000E+00 -0.00000000000E+00 -0.15191849546E+03  0.15191849546E+03  0.00000000000E+00 0.  1.
         -6    2    1    2    0  503 -0.37287609077E+03 -0.10695324454E+03  0.12897527224E+04  0.13577605059E+04  0.17197654104E+03 0.  0.
        -24    2    3    3    0    0 -0.21769793611E+03 -0.40546398178E+02  0.53400152235E+03  0.58337552708E+03  0.78313331796E+02 0.  0.
          6    2    1    2  501    0  0.37287609077E+03  0.10695324454E+03  0.26308310798E+03  0.49891231547E+03  0.17095379857E+03 0.  0.
         24    2    5    5    0    0  0.99714828541E+02  0.56882209036E+02  0.49533259311E+02  0.14855562345E+03  0.80228403611E+02 0.  0.
          5    1    5    5  501    0  0.27316126222E+03  0.50071035504E+02  0.21354984867E+03  0.35035669202E+03  0.47000000000E+01 0. -1.
        -13    1    6    6    0    0  0.63482652797E+02 -0.79567678956E+01  0.11132925051E+02  0.64940737459E+02  0.00000000000E+00 0.  1.
         14    1    6    6    0    0  0.36232175744E+02  0.64838976931E+02  0.38400334260E+02  0.83614885995E+02  0.00000000000E+00 0. -1.
         -5    1    3    3    0  503 -0.15517815465E+03 -0.66406846362E+02  0.75575120009E+03  0.77438497878E+03  0.47000000000E+01 0.  1.
         13    1    4    4    0    0 -0.12998362193E+03 -0.62150553261E+02  0.34588702651E+03  0.37469490035E+03  0.00000000000E+00 0. -1.
        -14    1    4    4    0    0 -0.87714314177E+02  0.21604155084E+02  0.18811449584E+03  0.20868062673E+03  0.00000000000E+00 0.  1.
</event>
<event>
12    1  0.8724767E-002  0.1959821E+03  0.7818608E-02  0.1153898E+00
         21   -1    0    0  503  502  0.00000000000E+00  0.00000000000E+00  0.65728393266E+03  0.65728393266E+03  0.00000000000E+00 0. -1.
         21   -1    0    0  501  503 -0.00000000000E+00 -0.00000000000E+00 -0.92922515866E+02  0.92922515866E+02  0.00000000000E+00 0. -1.
          6    2    1    2  501    0  0.41905674627E+02  0.75183517667E+02  0.51920664378E+02  0.20274308464E+03  0.17606917983E+03 0.  0.
         24    2    3    3    0    0 -0.15713727313E+02 -0.15624108705E+02  0.42322081141E+02  0.94667910402E+02  0.81730170126E+02 0.  0.
         -6    2    1    2    0  502 -0.41905674627E+02 -0.75183517667E+02  0.51244075242E+03  0.54746336388E+03  0.17237158456E+03 0.  0.
        -24    2    5    5    0    0 -0.97536029967E+01 -0.23201124962E+02  0.45599281584E+03  0.46413039079E+03  0.82789773418E+02 0.  0.
          5    1    3    3  501    0  0.57619401940E+02  0.90807626372E+02  0.95985832364E+01  0.10807517424E+03  0.47000000000E+01 0. -1.
        -13    1    4    4    0    0  0.21476715126E+02 -0.11143341035E+02 -0.13298510807E+02  0.27609305165E+02  0.00000000000E+00 0.  1.
         14    1    4    4    0    0 -0.37190442438E+02 -0.44807676700E+01  0.55620591948E+02  0.67058605237E+02  0.00000000000E+00 0. -1.
         -5    1    5    5    0  502 -0.32152071631E+02 -0.51982392705E+02  0.56447936577E+02  0.83332973098E+02  0.47000000000E+01 0.  1.
         11    1    6    6    0    0 -0.70921616551E+01 -0.43861885245E+02  0.12829312148E+03  0.13576924819E+03  0.00000000000E+00 0. -1.
        -12    1    6    6    0    0 -0.26614413416E+01  0.20660760283E+02  0.32769969436E+03  0.32836114260E+03  0.00000000000E+00 0.  1.
</event>
<event>
12    1  0.8724767E-002  0.1747082E+03  0.7818608E-02  0.1173288E+00
         21   -1    0    0  501  502  0.00000000000E+00  0.00000000000E+00  0.19463264317E+03  0.19463264317E+03  0.00000000000E+00 0.  1.
         21   -1    0    0  502  503 -0.00000000000E+00 -0.00000000000E+00 -0.62344065806E+03  0.62344065806E+03  0.00000000000E+00 0.  1.
         -6    2    1    2    0  503  0.21654562496E+02 -0.17392443179E+02 -0.56846847007E+03  0.59440389366E+03  0.17142978206E+03 0.  0.
        -24    2    3    3    0    0 -0.17333352140E+02 -0.16656583765E+02 -0.13594990844E+03  0.16010561467E+03  0.81077391210E+02 0.  0.
          6    2    1    2  501    0 -0.21654562496E+02  0.17392443179E+02  0.13966045518E+03  0.22366940758E+03  0.17248635885E+03 0.  0.
         24    2    5    5    0    0  0.26086033283E+02 -0.43906039476E+02  0.94100888391E+02  0.13347831829E+03  0.79707357388E+02 0.  0.
          5    1    5    5  501    0 -0.47740595779E+02  0.61298482655E+02  0.45559566791E+02  0.90191089290E+02  0.47000000000E+01 0. -1.
        -11    1    6    6    0    0  0.12157540771E+02 -0.81677255879E+01  0.93987172837E+02  0.95121533822E+02  0.00000000000E+00 0.  1.
         12    1    6    6    0    0  0.13928492513E+02 -0.35738313888E+02  0.11371555449E+00  0.38356784465E+02  0.00000000000E+00 0. -1.
         -5    1    3    3    0  503  0.38987914636E+02 -0.73585941394E+00 -0.43251856163E+03  0.43429827899E+03  0.47000000000E+01 0.  1.
         11    1    4    4    0    0  0.26925574901E+02  0.85095301917E+01 -0.78067238512E+02  0.83017422369E+02  0.00000000000E+00 0. -1.
        -12    1    4    4    0    0 -0.44258927041E+02 -0.25166113957E+02 -0.57882669923E+02  0.77088192299E+02  0.00000000000E+00 0.  1.
</event>
<event>
12    1  0.8724767E-002  0.1795514E+03  0.7818608E-02  0.1168390E+00
         21   -1    0    0  503  502  0.00000000000E+00  0.00000000000E+00  0.23592703197E+02  0.23592703197E+02  0.00000000000E+00 0.  1.
         21   -1    0    0  501  503 -0.00000000000E+00 -0.00000000000E+00 -0.22098383370E+04  0.22098383370E+04  0.00000000000E+00 0.  1.
          6    2    1    2  501    0 -0.21480263184E+02 -0.44509467289E+02 -0.17861074294E+04  0.17951095944E+04  0.17261579317E+03 0.  0.
         24    2    3    3    0    0 -0.35189061281E+02 -0.42545592109E+02 -0.17723634012E+04  0.17750403078E+04  0.80297391621E+02 0.  0.
         -6    2    1    2    0  502  0.21480263184E+02  0.44509467289E+02 -0.40013820442E+03  0.43832144585E+03  0.17196689468E+03 0.  0.
        -24    2    5    5    0    0  0.62236950002E+02  0.55861175752E+00 -0.32924230999E+03  0.34536391216E+03  0.83677853338E+02 0.  0.
          5    1    3    3  501    0  0.13708798097E+02 -0.19638751795E+01 -0.13744028228E+02  0.20069286557E+02  0.47000000000E+01 0. -1.
        -11    1    4    4    0    0  0.52612158630E-01 -0.22269890625E+02 -0.11271497814E+03  0.11489393845E+03  0.00000000000E+00 0.  1.
         12    1    4    4    0    0 -0.35241673439E+02 -0.20275701484E+02 -0.16596484230E+04  0.16601463694E+04  0.00000000000E+00 0. -1.
         -5    1    5    5    0  502 -0.40756686818E+02  0.43950855531E+02 -0.70895894427E+02  0.92957533686E+02  0.47000000000E+01 0.  1.
         13    1    6    6    0    0 -0.20712541952E+02  0.45424332134E+01 -0.70736233063E+02  0.73846176350E+02  0.00000000000E+00 0. -1.
        -14    1    6    6    0    0  0.82949491954E+02 -0.39838214559E+01 -0.25850607693E+03  0.27151773581E+03  0.00000000000E+00 0.  1.
</event>
<event>
12    1  0.8724767E-002  0.2164348E+03  0.7818608E-02  0.1136878E+00
         21   -1    0    0  503  502  0.00000000000E+00  0.00000000000E+00  0.12834074083E+03  0.12834074083E+03  0.00000000000E+00 0. -1.
         21   -1    0    0  501  503 -0.00000000000E+00 -0.00000000000E+00 -0.36303110584E+03  0.36303110584E+03  0.00000000000E+00 0. -1.
          6    2    1    2  501    0  0.13104410028E+03  0.10484119476E+02 -0.12810090258E+03  0.25011399500E+03  0.16989613378E+03 0.  0.
         24    2    3    3    0    0  0.77984807388E+02 -0.59842933014E+02 -0.80644184543E+02  0.14993708668E+03  0.79465959038E+02 0.  0.
         -6    2    1    2    0  502 -0.13104410028E+03 -0.10484119476E+02 -0.10658946242E+03  0.24125785167E+03  0.17193476820E+03 0.  0.
        -24    2    5    5    0    0  0.79961276182E+00  0.14834364552E+02 -0.46362207231E+02  0.94039637550E+02  0.80456829536E+02 0.  0.
          5    1    3    3  501    0  0.53059292888E+02  0.70327052490E+02 -0.47456718039E+02  0.10017690832E+03  0.47000000000E+01 0. -1.
        -13    1    4    4    0    0 -0.16128143535E+02 -0.42293481478E+01 -0.67479140943E+01  0.17987182777E+02  0.00000000000E+00 0.  1.
         14    1    4    4    0    0  0.94112950923E+02 -0.55613584866E+02 -0.73896270449E+02  0.13194990390E+03  0.00000000000E+00 0. -1.
         -5    1    5    5    0  502 -0.13184371304E+03 -0.25318484028E+02 -0.60227255189E+02  0.14721821412E+03  0.47000000000E+01 0.  1.
         11    1    6    6    0    0 -0.15883350417E+02 -0.99488380849E+01  0.16159711493E+02  0.24746645737E+02  0.00000000000E+00 0. -1.
        -12    1    6    6    0    0  0.16682963179E+02  0.24783202637E+02 -0.62521918724E+02  0.69292991812E+02  0.00000000000E+00 0.  1.
</event>
<event>
12    1  0.8724767E-002  0.2032260E+03  0.7818608E-02  0.1147627E+00
         21   -1    0    0  503  502  0.00000000000E+00  0.00000000000E+00  0.50981191744E+03  0.50981191744E+03  0.00000000000E+00 0. -1.
         21   -1    0    0  501  503 -0.00000000000E+00 -0.00000000000E+00 -0.10162668244E+03  0.10162668244E+03  0.00000000000E+00 0.  1.
          6    2    1    2  501    0  0.91109641453E+02  0.39098539879E+02  0.34433198642E+03  0.39841735898E+03  0.17419016182E+03 0.  0.
         24    2    3    3    0    0  0.78215543188E+02  0.62819257872E+02  0.34783012700E+03  0.37079024875E+03  0.80222696047E+02 0.  0.
         -6    2    1    2    0  502 -0.91109641453E+02 -0.39098539879E+02  0.63853248582E+02  0.21302124091E+03  0.17740109678E+03 0.  0.
        -24    2    5    5    0    0 -0.62832426485E+02  0.35821112767E+02 -0.70150549917E+01  0.10598404322E+03  0.77151412703E+02 0.  0.
          5    1    3    3  501    0  0.12894098266E+02 -0.23720717993E+02 -0.34981405798E+01  0.27627110231E+02  0.47000000000E+01 0. -1.
        -11    1    4    4    0    0  0.32385787797E+02  0.78411642879E+01  0.29470961763E+02  0.44484387102E+02  0.00000000000E+00 0.  1.
         12    1    4    4    0    0  0.45829755391E+02  0.54978093584E+02  0.31835916524E+03  0.32630586164E+03  0.00000000000E+00 0. -1.
         -5    1    5    5    0  502 -0.28277214968E+02 -0.74919652646E+02  0.70868303574E+02  0.10703719770E+03  0.47000000000E+01 0.  1.
         13    1    6    6    0    0 -0.44311141144E+01  0.91925882421E+01  0.30139577245E+02  0.31820316897E+02  0.00000000000E+00 0. -1.
        -14    1    6    6    0    0 -0.58401312371E+02  0.26628524525E+02 -0.37154632237E+02  0.74163726320E+02  0.00000000000E+00 0.  1.
</event>
<event>
12    1  0.8724767E-002  0.2136229E+03  0.7818608E-02  0.1140145E+00
         21   -1    0    0  501  502  0.00000000000E+00  0.00000000000E+00  0.11936472469E+03  0.11936472469E+03  0.00000000000E+00 0. -1.
         21   -1    0    0  502  503 -0.00000000000E+00 -0.00000000000E+00 -0.42694723324E+03  0.42694723324E+03  0.00000000000E+00 0. -1.
         -6    2    1    2    0  503 -0.29953301365E+02 -0.12256127791E+03 -0.55945001357E+02  0.22082701226E+03  0.17238404526E+03 0.  0.
        -24    2    3    3    0    0 -0.80492499736E+02 -0.88064192950E+02 -0.67941725259E+02  0.15829485392E+03  0.78783489082E+02 0.  0.
          6    2    1    2  501    0  0.29953301365E+02  0.12256127791E+03 -0.25163750718E+03  0.32548494567E+03  0.16340302240E+03 0.  0.
         24    2    5    5    0    0  0.57129014957E+02  0.12624572847E+03 -0.25069276499E+03  0.29764473872E+03  0.80893879628E+02 0.  0.
          5    1    5    5  501    0 -0.27175713592E+02 -0.36844505663E+01 -0.94474219320E+00  0.27840206950E+02  0.47000000000E+01 0. -1.
        -13    1    6    6    0    0 -0.37026725968E+00  0.61485698508E+02 -0.16381996654E+03  0.17497888346E+03  0.00000000000E+00 0.  1.
         14    1    6    6    0    0  0.57499282217E+02  0.64760029966E+02 -0.86872798450E+02  0.12266585526E+03  0.00000000000E+00 0. -1.
         -5    1    3    3    0  503  0.50539198370E+02 -0.34497084957E+02  0.11996723903E+02  0.62532158341E+02  0.47000000000E+01 0.  1.
         11    1    4    4    0    0 -0.11289787193E+02 -0.64264124274E+02 -0.12382225334E+02  0.66412773378E+02  0.00000000000E+00 0. -1.
        -12    1    4    4    0    0 -0.69202712543E+02 -0.23800068676E+02 -0.55559499925E+02  0.91882080539E+02  0.00000000000E+00 0.  1.
</event>
<event>
12    1  0.8724767E-002  0.2297704E+03  0.7818608E-02  0.1127730E+00
         21   -1    0    0  501  502  0.00000000000E+00  0.00000000000E+00  0.28556929799E+03  0.28556929799E+03  0.00000000000E+00 0.  1.
         21   -1    0    0  502  503 -0.00000000000E+00 -0.00000000000E+00 -0.27427961543E+03  0.27427961543E+03  0.00000000000E+00 0.  1.
         -6    2    1    2    0  503 -0.73897396055E+02 -0.12259170737E+03  0.16909157589E+03  0.28110907950E+03  0.17303410553E+03 0.  0.
        -24    2    3    3    0    0 -0.32238877202E+01 -0.60116191186E+01  0.23135808395E+02  0.81332109295E+02  0.77673118617E+02 0.  0.
          6    2    1    2  501    0  0.73897396055E+02  0.12259170737E+03 -0.15780189333E+03  0.27873983393E+03  0.17973565484E+03 0.  0.
         24    2    5    5    0    0  0.57359523443E+02  0.98313425276E+02 -0.18951022578E+03  0.23526059108E+03  0.80484629100E+02 0.  0.
          5    1    5    5  501    0  0.16537872611E+02  0.24278282097E+02  0.31708332448E+02  0.43479242849E+02  0.47000000000E+01 0. -1.
        -13    1    6    6    0    0 -0.14606047720E+02  0.30623973854E+02 -0.20936176697E+02  0.39868382201E+02  0.00000000000E+00 0.  1.
         14    1    6    6    0    0  0.71965571164E+02  0.67689451421E+02 -0.16857404908E+03  0.19539220888E+03  0.00000000000E+00 0. -1.
         -5    1    3    3    0  503 -0.70673508334E+02 -0.11658008825E+03  0.14595576750E+03  0.19977697020E+03  0.47000000000E+01 0.  1.
         11    1    4    4    0    0  0.21473017126E+02  0.29917012387E+01  0.43151912160E+02  0.48292113889E+02  0.00000000000E+00 0. -1.
        -12    1    4    4    0    0 -0.24696904847E+02 -0.90033203573E+01 -0.20016103765E+02  0.33039995405E+02  0.00000000000E+00 0.  1.
</event>
<event>
12    1  0.8724767E-002  0.2110956E+03  0.7818608E-02  0.1141037E+00
         21   -1    0    0  503  502  0.00000000000E+00  0.00000000000E+00  0.89547837388E+02  0.89547837388E+02  0.00000000000E+00 0. -1.
         21   -1    0    0  501  503 -0.00000000000E+00 -0.00000000000E+00 -0.65512718853E+03  0.65512718853E+03  0.00000000000E+00 0. -1.
          6    2    1    2  501    0 -0.32333208003E+02 -0.11530893794E+03 -0.46851828754E+03  0.51387813401E+03  0.17383832529E+03 0.  0.
         24    2    3    3    0    0 -0.60970336332E+02 -0.57276938078E+02 -0.41170984127E+03  0.42763958291E+03  0.79828503219E+02 0.  0.
         -6    2    1    2    0  502  0.32333208003E+02  0.11530893794E+03 -0.97061063603E+02  0.23079689191E+03  0.17176951924E+03 0.  0.
        -24    2    5    5    0    0  0.65105449207E+02  0.97996220967E+02 -0.12079009518E+03  0.18653735167E+03  0.79774417167E+02 0.  0.
          5    1    3    3  501    0  0.28637128329E+02 -0.58031999866E+02 -0.56808446276E+02  0.86238551099E+02  0.47000000000E+01 0. -1.
        -13    1    4    4    0    0 -0.14027732343E+02 -0.39230554552E+02 -0.32291421041E+03  0.32559084903E+03  0.00000000000E+00 0.  1.
         14    1    4    4    0    0 -0.46942603989E+02 -0.18046383526E+02 -0.88795630856E+02  0.10204873388E+03  0.00000000000E+00 0. -1.
         -5    1    5    5    0  502 -0.32772241204E+02  0.17312716977E+02  0.23729031580E+02  0.44259540241E+02  0.47000000000E+01 0.  1.
         11    1    6    6    0    0  0.12376258067E+02  0.71109174630E+02 -0.10097622685E+03  0.12412044501E+03  0.00000000000E+00 0. -1.
        -12    1    6    6    0    0  0.52729191140E+02  0.26887046337E+02 -0.19813868332E+02  0.62416906662E+02  0.00000000000E+00 0.  1.
</event>
<event>
12    1  0.8724767E-002  0.3133653E+03  0.7818608E-02  0.1078885E+00
         21   -1    0    0  501  502  0.00000000000E+00  0.00000000000E+00  0.89866730646E+03  0.89866730646E+03  0.00000000000E+00 0. -1.
         21   -1    0    0  502  503 -0.00000000000E+00 -0.00000000000E+00 -0.10911209997E+03  0.10911209997E+03  0.00000000000E+00 0. -1.
         -6    2    1    2    0  503  0.26461748947E+02  0.25984805089E+03  0.41990628609E+03  0.52394570898E+03  0.17313746894E+03 0.  0.
        -24    2    3    3    0    0  0.72930683050E+02  0.21026211694E+03  0.27182308496E+03  0.36094616561E+03  0.82857121593E+02 0.  0.
          6    2    1    2  501    0 -0.26461748947E+02 -0.25984805089E+03  0.36964892040E+03  0.48383369745E+03  0.17097803578E+03 0.  0.
         24    2    5    5    0    0  0.42145334819E+02 -0.10633848983E+03  0.21194484435E+03  0.25325880097E+03  0.78328153028E+02 0.  0.
          5    1    5    5  501    0 -0.68607083766E+02 -0.15350956107E+03  0.15770407606E+03  0.23057489648E+03  0.47000000000E+01 0. -1.
        -11    1    6    6    0    0  0.33970019763E+02 -0.63345275792E+01  0.31325824042E+02  0.46641137789E+02  0.00000000000E+00 0.  1.
         12    1    6    6    0    0  0.81753150553E+01 -0.10000396225E+03  0.18061902030E+03  0.20661766318E+03  0.00000000000E+00 0. -1.
         -5    1    3    3    0  503 -0.46468934103E+02  0.49585933948E+02  0.14808320113E+03  0.16299954337E+03  0.47000000000E+01 0.  1.
         13    1    4    4    0    0  0.74795517333E+02  0.19939250487E+03  0.27646847273E+03  0.34897930716E+03  0.00000000000E+00 0. -1.
        -14    1    4    4    0    0 -0.18648342833E+01  0.10869612074E+02 -0.46453877731E+01  0.11966858447E+02  0.00000000000E+00 0.  1.
</event>
<event>
12    1  0.8724767E-002  0.2330134E+03  0.7818608E-02  0.1124735E+00
         21   -1    0    0  501  502  0.00000000000E+00  0.00000000000E+00  0.83206882582E+02  0.83206882582E+02  0.00000000000E+00 0. -1.
         21   -1    0    0  502  503 -0.00000000000E+00 -0.00000000000E+00 -0.16398639128E+04  0.16398639128E+04  0.00000000000E+00 0. -1.
         -6    2    1    2    0  503  0.12557162072E+03  0.92680689579E+02 -0.14486630156E+04  0.14672831354E+04  0.17302405730E+03 0.  0.
        -24    2    3    3    0    0  0.13645859749E+03  0.34736927923E+02 -0.12369859701E+04  0.12474985422E+04  0.79314057420E+02 0.  0.
          6    2    1    2  501    0 -0.12557162072E+03 -0.92680689579E+02 -0.10799401461E+03  0.25578766001E+03  0.17148375337E+03 0.  0.
         24    2    5    5    0    0  0.17956382640E+01 -0.15860743459E+02 -0.48456039337E+02  0.95504837218E+02  0.80736600647E+02 0.  0.
          5    1    5    5  501    0 -0.12736725898E+03 -0.76819946120E+02 -0.59537975268E+02  0.16028282279E+03  0.47000000000E+01 0. -1.
        -11    1    6    6    0    0  0.24212390076E+01  0.33040654735E+02 -0.15842637553E+02  0.36722424053E+02  0.00000000000E+00 0.  1.
         12    1    6    6    0    0 -0.62560074361E+00 -0.48901398194E+02 -0.32613401784E+02  0.58782413165E+02  0.00000000000E+00 0. -1.
         -5    1    3    3    0  503 -0.10886976772E+02  0.57943761656E+02 -0.21167704553E+03  0.21978459314E+03  0.47000000000E+01 0.  1.
         11    1    4    4    0    0  0.41413441147E+02 -0.13835972865E+02 -0.60401204720E+03  0.60558819375E+03  0.00000000000E+00 0. -1.
        -12    1    4    4    0    0  0.95045156341E+02  0.48572900787E+02 -0.63297392288E+03  0.64191034847E+03  0.00000000000E+00 0.  1.
</event>
<event>
12    1  0.8724767E-002  0.2009857E+03  0.7818608E-02  0.1149419E+00
         21   -1    0    0  503  502  0.00000000000E+00  0.00000000000E+00  0.62469316018E+02  0.62469316018E+02  0.00000000000E+00 0.  1.
         21   -1    0    0  501  503 -0.00000000000E+00 -0.00000000000E+00 -0.69424069902E+03  0.69424069902E+03  0.00000000000E+00 0.  1.
          6    2    1    2  501    0 -0.49325192248E+02  0.85869422711E+02 -0.42095066918E+03  0.46543587054E+03  0.17211784149E+03 0.  0.
         24    2    3    3    0    0 -0.24459612429E+02  0.12291285850E+03 -0.36207314211E+03  0.39141447911E+03  0.80015565986E+02 0.  0.
         -6    2    1    2    0  502  0.49325192248E+02 -0.85869422711E+02 -0.21082071383E+03  0.29127414450E+03  0.17489631650E+03 0.  0.
        -24    2    5    5    0    0 -0.25865486063E+02 -0.56089507616E+02 -0.17855283477E+03  0.20407444572E+03  0.77137593667E+02 0.  0.
          5    1    3    3  501    0 -0.24865579819E+02 -0.37043435793E+02 -0.58877527070E+02  0.74021391428E+02  0.47000000000E+01 0. -1.
        -13    1    4    4    0    0 -0.36849723571E+02  0.84035806358E+02 -0.31962195400E+03  0.33253287410E+03  0.00000000000E+00 0.  1.
         14    1    4    4    0    0  0.12390111142E+02  0.38877052145E+02 -0.42451188106E+02  0.58881605016E+02  0.00000000000E+00 0. -1.
         -5    1    5    5    0  502  0.75190678311E+02 -0.29779915095E+02 -0.32267879053E+02  0.87199698775E+02  0.47000000000E+01 0.  1.
         11    1    6    6    0    0 -0.14949975530E+02 -0.48009125068E+02 -0.38409336172E+02  0.63274441627E+02  0.00000000000E+00 0. -1.
        -12    1    6    6    0    0 -0.10915510532E+02 -0.80803825486E+01 -0.14014349860E+03  0.14080000409E+03  0.00000000000E+00 0.  1.
</event>
<event>
12    1  0.8724767E-002  0.1764018E+03  0.7818608E-02  0.1171951E+00
         21   -1    0    0  503  502  0.00000000000E+00  0.00000000000E+00  0.18476343454E+04  0.18476343454E+04  0.00000000000E+00 0.  1.
         21   -1    0    0  501  503 -0.00000000000E+00 -0.00000000000E+00 -0.17795531309E+02  0.17795531309E+02  0.00000000000E+00 0.  1.
          6    2    1    2  501    0  0.27606911449E+02 -0.97530671543E+01  0.66777404393E+03  0.69005243839E+03  0.17144366452E+03 0.  0.
         24    2    3    3    0    0 -0.27971235480E+00 -0.66775728999E+02  0.50306577152E+03  0.51347341146E+03  0.78234887234E+02 0.  0.
         -6    2    1    2    0  502 -0.27606911449E+02  0.97530671543E+01  0.11620647702E+04  0.11753774383E+04  0.17395496135E+03 0.  0.
        -24    2    5    5    0    0  0.52475602187E+02  0.59079029252E+01  0.60631872630E+03  0.61385829390E+03  0.80068814084E+02 0.  0.
          5    1    3    3  501    0  0.27886623804E+02  0.57022661844E+02  0.16470827241E+03  0.17657902693E+03  0.47000000000E+01 0. -1.
        -11    1    4    4    0    0  0.37154470061E+02 -0.27601245845E+02  0.28750964431E+03  0.29121139914E+03  0.00000000000E+00 0.  1.
         12    1    4    4    0    0 -0.37434182416E+02 -0.39174483153E+02  0.21555612721E+03  0.22226201232E+03  0.00000000000E+00 0. -1.
         -5    1    5    5    0  502 -0.80082513636E+02  0.38451642291E+01  0.55574604387E+03  0.56151914443E+03  0.47000000000E+01 0.  1.
         11    1    6    6    0    0 -0.10610283241E+02 -0.21746119357E+02  0.10053479389E+03  0.10340559269E+03  0.00000000000E+00 0. -1.
        -12    1    6    6    0    0  0.63085885428E+02  0.27654022282E+02  0.50578393241E+03  0.51045270121E+03  0.00000000000E+00 0.  1.
</event>
<event>
12    1  0.8724767E-002  0.1775492E+03  0.7818608E-02  0.1170361E+00
         21   -1    0    0  503  502  0.00000000000E+00  0.00000000000E+00  0.77251578629E+02  0.77251578629E+02  0.00000000000E+00 0. -1.
         21   -1    0    0  501  503 -0.00000000000E+00 -0.00000000000E+00 -0.44272145485E+03  0.44272145485E+03  0.00000000000E+00 0. -1.
          6    2    1    2  501    0  0.42047590321E+02 -0.22317448908E+02 -0.25737861451E+03  0.31267788501E+03  0.17104864861E+03 0.  0.
         24    2    3    3    0    0 -0.15513594663E+00 -0.11285954679E+01 -0.25264092551E+03  0.26498539806E+03  0.79928256234E+02 0.  0.
         -6    2    1    2    0  502 -0.42047590321E+02  0.22317448908E+02 -0.10809126171E+03  0.20729514846E+03  0.17035694685E+03 0.  0.
        -24    2    5    5    0    0  0.20365491635E+02 -0.29331881556E+02 -0.25544089263E+02  0.91540356704E+02  0.80324491185E+02 0.  0.
          5    1    3    3  501    0  0.42202726268E+02 -0.21188853440E+02 -0.47376889941E+01  0.47692486951E+02  0.47000000000E+01 0. -1.
        -13    1    4    4    0    0 -0.20480781128E+02 -0.33078279728E+02 -0.90993111280E+02  0.98961514165E+02  0.00000000000E+00 0.  1.
         14    1    4    4    0    0  0.20325645182E+02  0.31949684261E+02 -0.16164781423E+03  0.16602388389E+03  0.00000000000E+00 0. -1.
         -5    1    5    5    0  502 -0.62413081957E+02  0.51649330464E+02 -0.82547172445E+02  0.11575479176E+03  0.47000000000E+01 0.  1.
         11    1    6    6    0    0 -0.19198641218E+02 -0.14933781984E+01 -0.37102472074E+02  0.41802050633E+02  0.00000000000E+00 0. -1.
        -12    1    6    6    0    0  0.39564132853E+02 -0.27838503358E+02  0.11558382811E+02  0.49738306071E+02  0.00000000000E+00 0.  1.
</event>
<event>
12    1  0.8724767E-002  0.2404729E+03  0.7818608E-02  0.1119760E+00
         21   -1    0    0  503  502  0.00000000000E+00  0.00000000000E+00  0.11335983468E+03  0.11335983468E+03  0.00000000000E+00 0. -1.
         21   -1    0    0  501  503 -0.00000000000E+00 -0.00000000000E+00 -0.50664924723E+03  0.50664924723E+03  0.00000000000E+00 0. -1.
          6    2    1    2  501    0  0.96985547315E+02 -0.13434312261E+03 -0.19292886236E+03  0.30829983023E+03  0.17427842209E+03 0.  0.
         24    2    3    3    0    0  0.14080233457E+02 -0.11509783853E+03 -0.60683604034E+02  0.15096397807E+03  0.75245315244E+02 0.  0.
         -6    2    1    2    0  502 -0.96985547315E+02  0.13434312261E+03 -0.20036055019E+03  0.31170925169E+03  0.17194195687E+03 0.  0.
        -24    2    5    5    0    0 -0.17079228849E+02  0.78768967738E+02 -0.18072528463E+03  0.21230532785E+03  0.76913414893E+02 0.  0.
          5    1    3    3  501    0  0.82905313857E+02 -0.19245284081E+02 -0.13224525833E+03  0.15733585216E+03  0.47000000000E+01 0. -1.
        -13    1    4    4    0    0 -0.55200231412E+01 -0.55777966817E+02 -0.67932323115E+02  0.88070725906E+02  0.00000000000E+00 0.  1.
         14    1    4    4    0    0  0.19600256599E+02 -0.59319871715E+02  0.72487190816E+01  0.62893252161E+02  0.00000000000E+00 0. -1.
         -5    1    5    5    0  502 -0.79906318466E+02  0.55574154875E+02 -0.19635265554E+02  0.99403923837E+02  0.47000000000E+01 0.  1.
         13    1    6    6    0    0 -0.34371873992E+02  0.66266753787E+01 -0.39485673348E+02  0.52767953798E+02  0.00000000000E+00 0. -1.
        -14    1    6    6    0    0  0.17292645143E+02  0.72142292359E+02 -0.14123961129E+03  0.15953737405E+03  0.00000000000E+00 0.  1.
</event>
<event>
12    1  0.8724767E-002  0.4003520E+03  0.7818608E-02  0.1043665E+00
         21   -1    0    0  501  502  0.00000000000E+00  0.00000000000E+00  0.43138391579E+03  0.43138391579E+03  0.00000000000E+00 0. -1.
         21   -1    0    0  502  503 -0.00000000000E+00 -0.00000000000E+00 -0.39893363474E+03  0.39893363474E+03  0.00000000000E+00 0.  1.
         -6    2    1    2    0  503 -0.16826619511E+03 -0.31992426931E+03 -0.92698659409E+02  0.41094375035E+03  0.17209495631E+03 0.  0.
        -24    2    3    3    0    0 -0.34076722787E+02 -0.61171459246E+02 -0.47023298684E+02  0.11587060726E+03  0.79445808856E+02 0.  0.
          6    2    1    2  501    0  0.16826619511E+03  0.31992426931E+03  0.12514894046E+03  0.41937380018E+03  0.17189263065E+03 0.  0.
         24    2    5    5    0    0  0.15626369735E+03  0.15343929850E+03  0.74810791799E+02  0.24496816762E+03  0.80316792426E+02 0.  0.
          5    1    5    5  501    0  0.12002497760E+02  0.16648497081E+03  0.50338148661E+02  0.17440563256E+03  0.47000000000E+01 0. -1.
        -13    1    6    6    0    0  0.24478095450E+02 -0.35237407977E+01  0.22529807228E+02  0.33454239190E+02  0.00000000000E+00 0.  1.
         14    1    6    6    0    0  0.13178560190E+03  0.15696303929E+03  0.52280984571E+02  0.21151392843E+03  0.00000000000E+00 0. -1.
         -5    1    3    3    0  503 -0.13418947232E+03 -0.25875281006E+03 -0.45675360725E+02  0.29507314309E+03  0.47000000000E+01 0.  1.
         13    1    4    4    0    0 -0.79619752790E+01  0.52699277590E+01  0.17311233601E+02  0.19769774852E+02  0.00000000000E+00 0. -1.
        -14    1    4    4    0    0 -0.26114747508E+02 -0.66441387005E+02 -0.64334532285E+02  0.96100832405E+02  0.00000000000E+00 0.  1.
</event>
<event>
12    1  0.8724767E-002  0.1832441E+03  0.7818608E-02  0.1165958E+00
         21   -1    0    0  501  502  0.00000000000E+00  0.00000000000E+00  0.72116689022E+03  0.72116689022E+03  0.00000000000E+00 0.  1.
         21   -1    0    0  502  503 -0.00000000000E+00 -0.00000000000E+00 -0.14452270289E+03  0.14452270289E+03  0.00000000000E+00 0.  1.
         -6    2    1    2    0  503 -0.36610322326E+02 -0.24921391939E+02 -0.71733912857E+02  0.19191473808E+03  0.17240684720E+03 0.  0.
        -24    2    3    3    0    0 -0.24268616548E+01 -0.70746668077E+02 -0.94787207754E+01  0.10726094987E+03  0.80025524170E+02 0.  0.
          6    2    1    2  501    0  0.36610322326E+02  0.24921391939E+02  0.64837810019E+03  0.67377485502E+03  0.17781170654E+03 0.  0.
         24    2    5    5    0    0  0.32102631530E+02 -0.19083859443E+02  0.16486533975E+03  0.18822005799E+03  0.82773409581E+02 0.  0.
          5    1    5    5  501    0  0.45076907958E+01  0.44005251382E+02  0.48351276043E+03  0.48555479704E+03  0.47000000000E+01 0. -1.
        -11    1    6    6    0    0  0.59253305100E+02 -0.15263628768E+02  0.93218437223E+02  0.11150609655E+03  0.00000000000E+00 0.  1.
         12    1    6    6    0    0 -0.27150673569E+02 -0.38202306746E+01  0.71646902531E+02  0.76713961441E+02  0.00000000000E+00 0. -1.
         -5    1    3    3    0  503 -0.34183460671E+02  0.45825276138E+02 -0.62255192081E+02  0.84653788206E+02  0.47000000000E+01 0.  1.
         11    1    4    4    0    0  0.16174872382E+02 -0.23793867620E+01  0.23886156115E+02  0.28945404331E+02  0.00000000000E+00 0. -1.
        -12    1    4    4    0    0 -0.18601734037E+02 -0.68367281315E+02 -0.33364876891E+02  0.78315545542E+02  0.00000000000E+00 0.  1.
</event>
<event>
12    1  0.8724767E-002  0.1949912E+03  0.7818608E-02  0.1154395E+00
         21   -1    0    0  503  502  0.00000000000E+00  0.00000000000E+00  0.29747388178E+02  0.29747388178E+02  0.00000000000E+00 0.  1.
         21   -1    0    0  501  503 -0.00000000000E+00 -0.00000000000E+00 -0.12757574044E+04  0.12757574044E+04  0.00000000000E+00 0.  1.
          6    2    1    2  501    0 -0.19846651781E+02 -0.88327060930E+02 -0.67841563998E+03  0.70588196555E+03  0.17270208291E+03 0.  0.
         24    2    3    3    0    0 -0.29219884553E+02 -0.64583055080E+02 -0.66968955163E+03  0.67849821263E+03  0.82770503881E+02 0.  0.
         -6    2    1    2    0  502  0.19846651781E+02  0.88327060930E+02 -0.56759437624E+03  0.59962282702E+03  0.17084671337E+03 0.  0.
        -24    2    5    5    0    0 -0.35778168575E+02  0.18779332000E+02 -0.17155016511E+03  0.19366209690E+03  0.80267103890E+02 0.  0.
          5    1    3    3  501    0  0.93732327716E+01 -0.23744005849E+02 -0.87260883450E+01  0.27383752923E+02  0.47000000000E+01 0. -1.
        -11    1    4    4    0    0 -0.44800825571E+02 -0.53242162104E+02 -0.28666851366E+03  0.29499267537E+03  0.00000000000E+00 0.  1.
         12    1    4    4    0    0  0.15580941018E+02 -0.11340892977E+02 -0.38302103797E+03  0.38350553726E+03  0.00000000000E+00 0. -1.
         -5    1    5    5    0  502  0.55624820356E+02  0.69547728929E+02 -0.39604421112E+03  0.40596073012E+03  0.47000000000E+01 0.  1.
         13    1    6    6    0    0 -0.11590305721E+02 -0.27709305041E+02 -0.10351270852E+03  0.10778228796E+03  0.00000000000E+00 0. -1.
        -14    1    6    6    0    0 -0.24187862855E+02  0.46488637041E+02 -0.68037456594E+02  0.85879808938E+02  0.00000000000E+00 0.  1.
</event>
<event>
12    1  0.8724767E-002  0.2615656E+03  0.7818608E-02  0.1106577E+00
         21   -1    0    0  501  502  0.00000000000E+00  0.00000000000E+00  0.99287380451E+02  0.99287380451E+02  0.00000000000E+00 0.  1.
         21   -1    0    0  502  503 -0.00000000000E+00 -0.00000000000E+00 -0.79359815719E+03  0.79359815719E+03  0.00000000000E+00 0.  1.
         -6    2    1    2    0  503  0.18803150556E+03  0.54767479577E+02 -0.51271587109E+03  0.57446239922E+03  0.16962947781E+03 0.  0.
        -24    2    3    3    0    0  0.53612322151E+02  0.64327188257E+02 -0.16276880211E+03  0.19943580551E+03  0.79175055059E+02 0.  0.
          6    2    1    2  501    0 -0.18803150556E+03 -0.54767479577E+02 -0.18159490565E+03  0.31842313842E+03  0.17338183706E+03 0.  0.
         24    2    5    5    0    0 -0.10909671289E+03 -0.88091847402E+01 -0.23773703131E+02  0.13601565962E+03  0.77171083980E+02 0.  0.
          5    1    5    5  501    0 -0.78934792675E+02 -0.45958294836E+02 -0.15782120251E+03  0.18240747880E+03  0.47000000000E+01 0. -1.
        -13    1    6    6    0    0 -0.47726131601E+02 -0.41308919904E+02 -0.16869941974E+01  0.63143142547E+02  0.00000000000E+00 0.  1.
         14    1    6    6    0    0 -0.61370581288E+02  0.32499735163E+02 -0.22086708934E+02  0.72872517075E+02  0.00000000000E+00 0. -1.
         -5    1    3    3    0  503  0.13441918341E+03 -0.95597086807E+01 -0.34994706898E+03  0.37502659370E+03  0.47000000000E+01 0.  1.
         13    1    4    4    0    0 -0.20424628537E+02  0.12505720344E+02 -0.45145001435E+02  0.51104105967E+02  0.00000000000E+00 0. -1.
        -14    1    4    4    0    0  0.74036950688E+02  0.51821467914E+02 -0.11762380068E+03  0.14833169955E+03  0.00000000000E+00 0.  1.
</event>
<event>
12    1  0.8724767E-002  0.1772961E+03  0.7818608E-02  0.1170492E+00
         21   -1    0    0  503  502  0.00000000000E+00  0.00000000000E+00  0.68950230016E+02  0.68950230016E+02  0.00000000000E+00 0.  1.
         21   -1    0    0  501  503 -0.00000000000E+00 -0.00000000000E+00 -0.90637027089E+03  0.90637027089E+03  0.00000000000E+00 0.  1.
          6    2    1    2  501    0 -0.27850905008E+02 -0.14614062336E+02 -0.76257933794E+03  0.78287564294E+03  0.17429223139E+03 0.  0.
         24    2    3    3    0    0 -0.75275127807E+02  0.81675924702E+00 -0.66713702433E+03  0.67508653221E+03  0.70731921958E+02 0.  0.
         -6    2    1    2    0  502  0.27850905008E+02  0.14614062336E+02 -0.74840702930E+02  0.19244485797E+03  0.17448395002E+03 0.  0.
        -24    2    5    5    0    0 -0.18843875742E+02 -0.25223286671E+02 -0.98210728519E+02  0.12659909105E+03  0.73421228636E+02 0.  0.
          5    1    3    3  501    0  0.47424222800E+02 -0.15430821583E+02 -0.95442313614E+02  0.10778911072E+03  0.47000000000E+01 0. -1.
        -13    1    4    4    0    0 -0.66642728835E+01 -0.50581391526E+01 -0.36921023104E+03  0.36930501216E+03  0.00000000000E+00 0.  1.
         14    1    4    4    0    0 -0.68610854924E+02  0.58748983996E+01 -0.29792679329E+03  0.30578152005E+03  0.00000000000E+00 0. -1.
         -5    1    5    5    0  502  0.46694780749E+02  0.39837349006E+02  0.23370025589E+02  0.65845766919E+02  0.47000000000E+01 0.  1.
         13    1    6    6    0    0 -0.35960553203E+02  0.12810703913E+02 -0.47636583718E+02  0.61045226101E+02  0.00000000000E+00 0. -1.
        -14    1    6    6    0    0  0.17116677461E+02 -0.38033990584E+02 -0.50574144801E+02  0.65553864947E+02  0.00000000000E+00 0.  1.
</event>
<event>
12    1  0.8724767E-002  0.1951434E+03  0.7818608E-02  0.1154288E+00
         21   -1    0    0  503  502  0.00000000000E+00  0.00000000000E+00  0.10785368636E+03  0.10785368636E+03  0.00000000000E+00 0. -1.
         21   -1    0    0  501  503 -0.00000000000E+00 -0.00000000000E+00 -0.37647190027E+03  0.37647190027E+03  0.00000000000E+00 0.  1.
          6    2    1    2  501    0  0.91895790880E+02 -0.62179108850E+01 -0.19807651812E+03  0.27682356542E+03  0.17003964404E+03 0.  0.
         24    2    3    3    0    0  0.96860503768E+02 -0.41596800476E+02 -0.80389684761E+02  0.15374393694E+03  0.77861709002E+02 0.  0.
         -6    2    1    2    0  502 -0.91895790880E+02  0.62179108850E+01 -0.70541695792E+02  0.20750202120E+03  0.17203912102E+03 0.  0.
        -24    2    5    5    0    0 -0.45663060298E+02  0.39819372768E+02 -0.99345147507E+02  0.14332840943E+03  0.83683194803E+02 0.  0.
          5    1    3    3  501    0 -0.49647128887E+01  0.35378889591E+02 -0.11768683335E+03  0.12307962848E+03  0.47000000000E+01 0. -1.
        -13    1    4    4    0    0  0.54815553199E+02  0.14000735781E+02 -0.56764801166E+02  0.80143671780E+02  0.00000000000E+00 0.  1.
         14    1    4    4    0    0  0.42044950569E+02 -0.55597536257E+02 -0.23624883595E+02  0.73600265156E+02  0.00000000000E+00 0. -1.
         -5    1    5    5    0  502 -0.46232730582E+02 -0.33601461883E+02  0.28803451715E+02  0.64173611776E+02  0.47000000000E+01 0.  1.
         11    1    6    6    0    0 -0.59025655293E+01 -0.17641739085E+02  0.35607570836E+01  0.18940702964E+02  0.00000000000E+00 0. -1.
        -12    1    6    6    0    0 -0.39760494768E+02  0.57461111853E+02 -0.10290590459E+03  0.12438770646E+03  0.00000000000E+00 0.  1.
</event>
<event>
12    1  0.8724767E-002  0.3191459E+03  0.7818608E-02  0.1076619E+00
         21   -1    0    0  503  502  0.00000000000E+00  0.00000000000E+00  0.31058881945E+03  0.31058881945E+03  0.00000000000E+00 0. -1.
         21   -1    0    0  501  503 -0.00000000000E+00 -0.00000000000E+00 -0.49215259864E+03  0.49215259864E+03  0.00000000000E+00 0. -1.
          6    2    1    2  501    0  0.22646516570E+03  0.13343102546E+03 -0.32663448501E+03  0.45666641849E+03  0.18100779306E+03 0.  0.
         24    2    3    3    0    0  0.11097111311E+03  0.10666465659E+03 -0.97444480713E+02  0.19858607682E+03  0.79051035254E+02 0.  0.
         -6    2    1    2    0  502 -0.22646516570E+03 -0.13343102546E+03  0.14507070583E+03  0.34607499959E+03  0.17213972761E+03 0.  0.
        -24    2    5    5    0    0 -0.18833810237E+03 -0.69811157035E+02  0.43465303167E+02  0.22019049512E+03  0.79055569763E+02 0.  0.
          5    1    3    3  501    0  0.11549405259E+03  0.26766368868E+02 -0.22919000430E+03  0.25808034167E+03  0.47000000000E+01 0. -1.
        -13    1    4    4    0    0 -0.77717826771E+01  0.25337916588E+02 -0.35424079293E+01  0.26738722426E+02  0.00000000000E+00 0.  1.
         14    1    4    4    0    0  0.11874289578E+03  0.81326740004E+02 -0.93902072784E+02  0.17184735439E+03  0.00000000000E+00 0. -1.
         -5    1    5    5    0  502 -0.38127063332E+02 -0.63619868425E+02  0.10160540266E+03  0.12588450448E+03  0.47000000000E+01 0.  1.
         13    1    6    6    0    0 -0.53671078751E+02  0.16179720167E+02  0.12640008892E+02  0.57464231168E+02  0.00000000000E+00 0. -1.
        -14    1    6    6    0    0 -0.13466702362E+03 -0.85990877202E+02  0.30825294274E+02  0.16272626395E+03  0.00000000000E+00 0.  1.
</event>
<event>
12    1  0.8724767E-002  0.1755787E+03  0.7818608E-02  0.1172422E+00
         21   -1    0    0  503  502  0.00000000000E+00  0.00000000000E+00  0.89243508738E+02  0.89243508738E+02  0.00000000000E+00 0.  1.
         21   -1    0    0  501  503 -0.00000000000E+00 -0.00000000000E+00 -0.35339421212E+03  0.35339421212E+03  0.00000000000E+00 0.  1.
          6    2    1    2  501    0  0.18507619133E+02 -0.22614083103E+02 -0.16984188447E+03  0.24428292872E+03  0.17312987848E+03 0.  0.
         24    2    3    3    0    0  0.19603552373E+02 -0.76170826921E+02 -0.75467282919E+02  0.13566349540E+03  0.80764961786E+02 0.  0.
         -6    2    1    2    0  502 -0.18507619133E+02  0.22614083103E+02 -0.94308818908E+02  0.19835479213E+03  0.17203645404E+03 0.  0.
        -24    2    5    5    0    0  0.77085114290E+01 -0.96163912595E+01 -0.12304985464E+03  0.14761796021E+03  0.80609548568E+02 0.  0.
          5    1    3    3  501    0 -0.10959332399E+01  0.53556743818E+02 -0.94374601553E+02  0.10861943333E+03  0.47000000000E+01 0. -1.
        -11    1    4    4    0    0  0.36037241405E+02 -0.68290334184E+02 -0.23683541195E+02  0.80766098300E+02  0.00000000000E+00 0.  1.
         12    1    4    4    0    0 -0.16433689032E+02 -0.78804927369E+01 -0.51783741723E+02  0.54897397095E+02  0.00000000000E+00 0. -1.
         -5    1    5    5    0  502 -0.26216130562E+02  0.32230474362E+02  0.28741035728E+02  0.50736831927E+02  0.47000000000E+01 0.  1.
         11    1    6    6    0    0 -0.21211037864E+02 -0.28700771637E+02 -0.99544319443E+02  0.10574835201E+03  0.00000000000E+00 0. -1.
        -12    1    6    6    0    0  0.28919549293E+02  0.19084380377E+02 -0.23505535192E+02  0.41869608195E+02  0.00000000000E+00 0.  1.
</event>
<event>
12    1  0.8724767E-002  0.2175809E+03  0.7818608E-02  0.1135762E+00
         21   -1    0    0  503  502  0.00000000000E+00  0.00000000000E+00  0.20376193302E+03  0.20376193302E+03  0.00000000000E+00 0.  1.
         21   -1    0    0  501  503 -0.00000000000E+00 -0.00000000000E+00 -0.86806058086E+03  0.86806058086E+03  0.00000000000E+00 0.  1.
          6    2    1    2  501    0  0.10197803885E+03 -0.83518963217E+02 -0.79082749861E+03  0.82012624668E+03  0.17269623709E+03 0.  0.
         24    2    3    3    0    0  0.10006044316E+02 -0.68431331216E+02 -0.58128827894E+03  0.59074608407E+03  0.79384536239E+02 0.  0.
         -6    2    1    2    0  502 -0.10197803885E+03  0.83518963217E+02  0.12652885078E+03  0.25169626720E+03  0.17310841464E+03 0.  0.
        -24    2    5    5    0    0 -0.88526505394E+01  0.47253668025E+02  0.26953400875E+01  0.92497215840E+02  0.78975891996E+02 0.  0.
          5    1    3    3  501    0  0.91971994535E+02 -0.15087632002E+02 -0.20953921968E+03  0.22938016261E+03  0.47000000000E+01 0. -1.
        -11    1    4    4    0    0  0.36247640284E+02 -0.75518151355E+01 -0.26590833494E+03  0.26847376768E+03  0.00000000000E+00 0.  1.
         12    1    4    4    0    0 -0.26241595968E+02 -0.60879516080E+02 -0.31537994400E+03  0.32227231639E+03  0.00000000000E+00 0. -1.
         -5    1    5    5    0  502 -0.93125388312E+02  0.36265295192E+02  0.12383351069E+03  0.15919905136E+03  0.47000000000E+01 0.  1.
         13    1    6    6    0    0  0.11355633880E+02 -0.18814459746E+02 -0.62092871726E+01  0.22836145987E+02  0.00000000000E+00 0. -1.
        -14    1    6    6    0    0 -0.20208284420E+02  0.66068127771E+02  0.89046272601E+01  0.69661069853E+02  0.00000000000E+00 0.  1.
</event>
<event>
12    1  0.8724767E-002  0.1968770E+03  0.7818608E-02  0.1152844E+00
         21   -1    0    0  503  502  0.00000000000E+00  0.00000000000E+00  0.32535871498E+03  0.32535871498E+03  0.00000000000E+00 0.  1.
         21   -1    0    0  501  503 -0.00000000000E+00 -0.00000000000E+00 -0.15701516877E+03  0.15701516877E+03  0.00000000000E+00 0.  1.
          6    2    1    2  501    0 -0.85656243559E+02 -0.37067246494E+02 -0.35881395432E+02  0.20012007181E+03  0.17334819232E+03 0.  0.
         24    2    3    3    0    0  0.19893093196E+02 -0.21479986921E+02 -0.39914255566E+02  0.93246412232E+02  0.79022911878E+02 0.  0.
         -6    2    1    2    0  502  0.85656243559E+02  0.37067246494E+02  0.20422494165E+03  0.28225381194E+03  0.17102167916E+03 0.  0.
        -24    2    5    5    0    0  0.38865417068E+02 -0.44865857799E+02  0.11929632389E+03  0.15522084325E+03  0.79614266584E+02 0.  0.
          5    1    3    3  501    0 -0.10554933676E+03 -0.15587259574E+02  0.40328601340E+01  0.10687365958E+03  0.47000000000E+01 0. -1.
        -11    1    4    4    0    0 -0.11811662064E+02 -0.11391874696E+02 -0.54501253229E+02  0.56918158555E+02  0.00000000000E+00 0.  1.
         12    1    4    4    0    0  0.31704755260E+02 -0.10088112225E+02  0.14586997663E+02  0.36328253676E+02  0.00000000000E+00 0. -1.
         -5    1    5    5    0  502  0.46790826492E+02  0.81933104293E+02  0.84928617753E+02  0.12703296870E+03  0.47000000000E+01 0.  1.
         11    1    6    6    0    0  0.33570291138E+02 -0.26789650906E+02  0.12760116489E+03  0.13463546013E+03  0.00000000000E+00 0. -1.
        -12    1    6    6    0    0  0.52951259293E+01 -0.18076206893E+02 -0.83048409943E+01  0.20585383120E+02  0.00000000000E+00 0.  1.
</event>
<event>
12    1  0.8724767E-002  0.1841174E+03  0.7818608E-02  0.1164923E+00
         21   -1    0    0  501  502  0.00000000000E+00  0.00000000000E+00  0.60178314371E+03  0.60178314371E+03  0.00000000000E+00 0. -1.
         21   -1    0    0  502  503 -0.00000000000E+00 -0.00000000000E+00 -0.82946146427E+02  0.82946146427E+02  0.00000000000E+00 0. -1.
         -6    2    1    2    0  503  0.64713614409E+02 -0.73031441397E+01  0.58607184703E+02  0.18903715454E+03  0.16750837560E+03 0.  0.
        -24    2    3    3    0    0  0.57445842309E+01  0.11751067666E+02  0.89441672638E+02  0.11965945529E+03  0.78405896440E+02 0.  0.
          6    2    1    2  501    0 -0.64713614409E+02  0.73031441397E+01  0.46022981258E+03  0.49569213560E+03  0.17221505480E+03 0.  0.
         24    2    5    5    0    0 -0.50436561402E+02 -0.41286105482E+02  0.14315999312E+03  0.17456893519E+03  0.75704294946E+02 0.  0.
          5    1    5    5  501    0 -0.14277053006E+02  0.48589249622E+02  0.31706981947E+03  0.32112320040E+03  0.47000000000E+01 0. -1.
        -11    1    6    6    0    0 -0.54734288776E+02 -0.19431837033E+02  0.14063104324E+03  0.15215297888E+03  0.00000000000E+00 0.  1.
         12    1    6    6    0    0  0.42977273739E+01 -0.21854268450E+02  0.25289498752E+01  0.22415956315E+02  0.00000000000E+00 0. -1.
         -5    1    3    3    0  503  0.58969030178E+02 -0.19054211805E+02 -0.30834487935E+02  0.69377699254E+02  0.47000000000E+01 0.  1.
         11    1    4    4    0    0  0.31864699050E+02 -0.14062511508E+02  0.17709674327E+02  0.39073595179E+02  0.00000000000E+00 0. -1.
        -12    1    4    4    0    0 -0.26120114819E+02  0.25813579173E+02  0.71731998311E+02  0.80585860110E+02  0.00000000000E+00 0.  1.
</event>
<event>
12    1  0.8724767E-002  0.2404878E+03  0.7818608E-02  0.1119586E+00
         21   -1    0    0  503  502  0.00000000000E+00  0.00000000000E+00  0.30461362143E+03  0.30461362143E+03  0.00000000000E+00 0. -1.
         21   -1    0    0  501  503 -0.00000000000E+00 -0.00000000000E+00 -0.18933296120E+03  0.18933296120E+03  0.00000000000E+00 0.  1.
          6    2    1    2  501    0  0.16677076349E+03  0.18510394187E+02  0.60712829054E+02  0.24803307438E+03  0.17227662676E+03 0.  0.
         24    2    3    3    0    0  0.14843114632E+03  0.36996598486E+01  0.10411725089E+03  0.19841721760E+03  0.80520169055E+02 0.  0.
         -6    2    1    2    0  502 -0.16677076349E+03 -0.18510394187E+02  0.54567831171E+02  0.24591350825E+03  0.17129122305E+03 0.  0.
        -24    2    5    5    0    0 -0.11443177041E+03 -0.76657860963E+02  0.51831336363E+02  0.16749108484E+03  0.79973235186E+02 0.  0.
          5    1    3    3  501    0  0.18339617168E+02  0.14810734338E+02 -0.43404421838E+02  0.49615856786E+02  0.47000000000E+01 0. -1.
        -13    1    4    4    0    0  0.89381186232E+02 -0.34457462864E+02  0.41979288893E+02  0.10458763739E+03  0.00000000000E+00 0.  1.
         14    1    4    4    0    0  0.59049960087E+02  0.38157122712E+02  0.62137961999E+02  0.93829580204E+02  0.00000000000E+00 0. -1.
         -5    1    5    5    0  502 -0.52338993075E+02  0.58147466776E+02  0.27364948080E+01  0.78422423403E+02  0.47000000000E+01 0.  1.
         13    1    6    6    0    0 -0.67558322674E+02 -0.24519628598E+02 -0.11773253674E+02  0.72828213291E+02  0.00000000000E+00 0. -1.
        -14    1    6    6    0    0 -0.46873447739E+02 -0.52138232365E+02  0.63604590037E+02  0.94662871554E+02  0.00000000000E+00 0.  1.
</event>
<event>
12    1  0.8724767E-002  0.1774339E+03  0.7818608E-02  0.1170578E+00
         21   -1    0    0  503  502  0.00000000000E+00  0.00000000000E+00  0.27838972035E+03  0.27838972035E+03  0.00000000000E+00 0.  1.
         21   -1    0    0  501  503 -0.00000000000E+00 -0.00000000000E+00 -0.34238827796E+03  0.34238827796E+03  0.00000000000E+00 0.  1.
          6    2    1    2  501    0  0.41987807632E+02 -0.28723501918E+02 -0.28635683827E+03  0.33630308172E+03  0.16885351165E+03 0.  0.
         24    2    3    3    0    0  0.80603113825E+02 -0.57966394740E+01 -0.13461066436E+03  0.17798133909E+03  0.83826386752E+02 0.  0.
         -6    2    1    2    0  502 -0.41987807632E+02  0.28723501918E+02  0.22235828066E+03  0.28447491660E+03  0.16998458061E+03 0.  0.
        -24    2    5    5    0    0 -0.79269034262E+02  0.42148647449E+02  0.10320625337E+03  0.15881895773E+03  0.80695987052E+02 0.  0.
          5    1    3    3  501    0 -0.38615306193E+02 -0.22926862444E+02 -0.15174617391E+03  0.15832174263E+03  0.47000000000E+01 0. -1.
        -11    1    4    4    0    0  0.55161863556E+02  0.92035668957E+01 -0.13737118120E+03  0.14831850275E+03  0.00000000000E+00 0.  1.
         12    1    4    4    0    0  0.25441250269E+02 -0.15000206370E+02  0.27605168351E+01  0.29662836337E+02  0.00000000000E+00 0. -1.
         -5    1    5    5    0  502  0.37281226631E+02 -0.13425145531E+02  0.11915202729E+03  0.12565595887E+03  0.47000000000E+01 0.  1.
         13    1    6    6    0    0 -0.45411708681E+02  0.64767520181E+02  0.58738920248E+02  0.98525710896E+02  0.00000000000E+00 0. -1.
        -14    1    6    6    0    0 -0.33857325581E+02 -0.22618872732E+02  0.44467333123E+02  0.60293246838E+02  0.00000000000E+00 0.  1.
</event>
<event>
12    1  0.8724767E-002  0.2646792E+03  0.7818608E-02  0.1104371E+00
         21   -1    0    0  501  502  0.00000000000E+00  0.00000000000E+00  0.55004521320E+03  0.55004521320E+03  0.00000000000E+00 0.  1.
         21   -1    0    0  502  503 -0.00000000000E+00 -0.00000000000E+00 -0.15098020604E+03  0.15098020604E+03  0.00000000000E+00 0.  1.
         -6    2    1    2    0  503 -0.19714316271E+03 -0.41460610341E+02  0.60817002980E+02  0.27152945713E+03  0.17159583161E+03 0.  0.
        -24    2    3    3    0    0 -0.17589530537E+03  0.22082538066E+02  0.32340389850E+02  0.19857597437E+03  0.83424935381E+02 0.  0.
          6    2    1    2  501    0  0.19714316271E+03  0.41460610341E+02  0.33824800418E+03  0.42949596211E+03  0.17167020802E+03 0.  0.
         24    2    5    5    0    0  0.10754368695E+03 -0.37304843236E+02  0.23822557488E+03  0.27374411109E+03  0.72298809778E+02 0.  0.
          5    1    5    5  501    0  0.89599475759E+02  0.78765453577E+02  0.10002242929E+03  0.15575185102E+03  0.47000000000E+01 0. -1.
        -11    1    6    6    0    0  0.34665052465E+01  0.12537410233E+02  0.57872746655E+01  0.14237129698E+02  0.00000000000E+00 0.  1.
         12    1    6    6    0    0  0.10407718170E+03 -0.49842253469E+02  0.23243830022E+03  0.25950698139E+03  0.00000000000E+00 0. -1.
         -5    1    3    3    0  503 -0.21247857337E+02 -0.63543148407E+02  0.28476613130E+02  0.72953482756E+02  0.47000000000E+01 0.  1.
         11    1    4    4    0    0 -0.30803542961E+02  0.34934912194E+02 -0.83970507871E+01  0.47326702937E+02  0.00000000000E+00 0. -1.
        -12    1    4    4    0    0 -0.14509176241E+03 -0.12852374128E+02  0.40737440637E+02  0.15124927144E+03  0.00000000000E+00 0.  1.
</event>
<event>
12    1  0.8724767E-002  0.1834035E+03  0.7818608E-02  0.1164565E+00
         21   -1    0    0  503  502  0.00000000000E+00  0.00000000000E+00  0.40832535152E+02  0.40832535152E+02  0.00000000000E+00 0. -1.
         21   -1    0    0  501  503 -0.00000000000E+00 -0.00000000000E+00 -0.97510555573E+03  0.97510555573E+03  0.00000000000E+00 0. -1.
          6    2    1    2  501    0 -0.59374166635E+02 -0.16803842502E+02 -0.66737331527E+03  0.69209818005E+03  0.17264150170E+03 0.  0.
         24    2    3    3    0    0 -0.84963179047E+02  0.36676614869E+02 -0.40328315140E+03  0.42139416912E+03  0.79823741450E+02 0.  0.
         -6    2    1    2    0  502  0.59374166635E+02  0.16803842502E+02 -0.26689970531E+03  0.32383991084E+03  0.17271124563E+03 0.  0.
        -24    2    5    5    0    0  0.10425077188E+03  0.28480349851E+02 -0.18138407378E+03  0.22644759205E+03  0.81847272164E+02 0.  0.
          5    1    3    3  501    0  0.25589012413E+02 -0.53480457372E+02 -0.26409016387E+03  0.27070401092E+03  0.47000000000E+01 0. -1.
        -11    1    4    4    0    0 -0.74976263941E+02 -0.89086045427E+01 -0.24384731193E+03  0.25526910296E+03  0.00000000000E+00 0.  1.
         12    1    4    4    0    0 -0.99869151066E+01  0.45585219412E+02 -0.15943583947E+03  0.16612506617E+03  0.00000000000E+00 0. -1.
         -5    1    5    5    0  502 -0.44876605241E+02 -0.11676507348E+02 -0.85515631534E+02  0.97392318786E+02  0.47000000000E+01 0.  1.
         11    1    6    6    0    0 -0.42879526402E+00 -0.15205529495E+02 -0.37173038362E+01  0.15659193478E+02  0.00000000000E+00 0. -1.
        -12    1    6    6    0    0  0.10467956714E+03  0.43685879345E+02 -0.17766676994E+03  0.21078839857E+03  0.00000000000E+00 0.  1.
</event>
<event>
12    1  0.8724767E-002  0.1742972E+03  0.7818608E-02  0.1173784E+00
         21   -1    0    0  501  502  0.00000000000E+00  0.00000000000E+00  0.90611486681E+02  0.90611486681E+02  0.00000000000E+00 0. -1.
         21   -1    0    0  502  503 -0.00000000000E+00 -0.00000000000E+00 -0.36332537883E+03  0.36332537883E+03  0.00000000000E+00 0. -1.
         -6    2    1    2    0  503  0.21327209350E+02  0.10360502721E+02 -0.20180861838E+03  0.26576915710E+03  0.17130188714E+03 0.  0.
        -24    2    3    3    0    0  0.79244514858E+02  0.25659661333E+02 -0.13196493904E+03  0.17363497193E+03  0.76133087347E+02 0.  0.
          6    2    1    2  501    0 -0.21327209350E+02 -0.10360502721E+02 -0.70905273771E+02  0.18816770841E+03  0.17267697810E+03 0.  0.
         24    2    5    5    0    0  0.34912443564E+02  0.41998830813E+02 -0.48317731160E+02  0.10793875199E+03  0.79582601935E+02 0.  0.
          5    1    5    5  501    0 -0.56239652914E+02 -0.52359333534E+02 -0.22587542611E+02  0.80228956427E+02  0.47000000000E+01 0. -1.
        -13    1    6    6    0    0  0.82759430679E+01 -0.23180169381E+02 -0.45430637584E+01  0.25029001468E+02  0.00000000000E+00 0.  1.
         14    1    6    6    0    0  0.26636500497E+02  0.65179000194E+02 -0.43774667401E+02  0.82909750519E+02  0.00000000000E+00 0. -1.
         -5    1    3    3    0  503 -0.57917305508E+02 -0.15299158611E+02 -0.69843679343E+02  0.92134185163E+02  0.47000000000E+01 0.  1.
         11    1    4    4    0    0  0.31146781414E+02 -0.21051605324E+02 -0.18639015418E+02  0.41960755176E+02  0.00000000000E+00 0. -1.
        -12    1    4    4    0    0  0.48097733444E+02  0.46711266656E+02 -0.11332592362E+03  0.13167421676E+03  0.00000000000E+00 0.  1.
</event>
<event>
12    1  0.8724767E-002  0.1810941E+03  0.7818608E-02  0.1167704E+00
         21   -1    0    0  503  502  0.00000000000E+00  0.00000000000E+00  0.45918203439E+02  0.45918203439E+02  0.00000000000E+00 0. -1.
         21   -1    0    0  501  503 -0.00000000000E+00 -0.00000000000E+00 -0.10886907725E+04  0.10886907725E+04  0.00000000000E+00 0. -1.
          6    2    1    2  501    0  0.40147488393E+02 -0.20025156141E+02 -0.85720467070E+03  0.87532048355E+03  0.17138632894E+03 0.  0.
         24    2    3    3    0    0  0.43146783386E+01 -0.33070535813E+02 -0.29510083560E+03  0.31190502082E+03  0.95330803277E+02 0.  0.
         -6    2    1    2    0  502 -0.40147488393E+02  0.20025156141E+02 -0.18556789836E+03  0.25928849239E+03  0.17544870955E+03 0.  0.
        -24    2    5    5    0    0  0.34565002540E+02  0.29544266746E+02 -0.51335941386E+02  0.10529862895E+03  0.79905064190E+02 0.  0.
          5    1    3    3  501    0  0.35832810054E+02  0.13045379672E+02 -0.56210383510E+03  0.56341546273E+03  0.47000000000E+01 0. -1.
        -13    1    4    4    0    0  0.87777476661E+01  0.33270753244E+02 -0.10716401592E+03  0.11255273512E+03  0.00000000000E+00 0.  1.
         14    1    4    4    0    0 -0.44630693275E+01 -0.66341289057E+02 -0.18793681968E+03  0.19935228569E+03  0.00000000000E+00 0. -1.
         -5    1    5    5    0  502 -0.74712490934E+02 -0.95191106051E+01 -0.13423195698E+03  0.15398986344E+03  0.47000000000E+01 0.  1.
         11    1    6    6    0    0  0.48409093377E+02 -0.85484072035E+01 -0.16495827383E+02  0.51851980756E+02  0.00000000000E+00 0. -1.
        -12    1    6    6    0    0 -0.13844090836E+02  0.38092673950E+02 -0.34840114003E+02  0.53446648197E+02  0.00000000000E+00 0.  1.
</event>
<event>
12    1  0.8724767E-002  0.2108640E+03  0.7818608E-02  0.1141079E+00
         21   -1    0    0  501  502  0.00000000000E+00  0.00000000000E+00  0.12136804272E+03  0.12136804272E+03  0.00000000000E+00 0. -1.
         21   -1    0    0  502  503 -0.00000000000E+00 -0.00000000000E+00 -0.92115115681E+03  0.92115115681E+03  0.00000000000E+00 0. -1.
         -6    2    1    2    0  503  0.87199519484E+01  0.12087101636E+03 -0.80542627437E+03  0.83257139549E+03  0.17256246692E+03 0.  0.
        -24    2    3    3    0    0 -0.43250099544E+02  0.59861437633E+02 -0.63879161436E+03  0.64760584501E+03  0.76711414341E+02 0.  0.
          6    2    1    2  501    0 -0.87199519484E+01 -0.12087101636E+03  0.56431602794E+01  0.20994780403E+03  0.17134875256E+03 0.  0.
         24    2    5    5    0    0 -0.33640867560E+02 -0.14271520085E+03  0.29058519251E+02  0.16909943238E+03  0.79062531993E+02 0.  0.
          5    1    5    5  501    0  0.24920915611E+02  0.21844184493E+02 -0.23415358972E+02  0.40848371655E+02  0.47000000000E+01 0. -1.
        -11    1    6    6    0    0  0.82368762883E+01  0.69161441775E+01 -0.11241003156E+01  0.10814008637E+02  0.00000000000E+00 0.  1.
         12    1    6    6    0    0 -0.41877743848E+02 -0.14963134503E+03  0.30182619567E+02  0.15828542374E+03  0.00000000000E+00 0. -1.
         -5    1    3    3    0  503  0.51970051492E+02  0.61009578726E+02 -0.16663466001E+03  0.18496555048E+03  0.47000000000E+01 0.  1.
         11    1    4    4    0    0 -0.84941707374E+01  0.64704867956E+02 -0.30082413109E+03  0.30782142342E+03  0.00000000000E+00 0. -1.
        -12    1    4    4    0    0 -0.34755928806E+02 -0.48434303228E+01 -0.33796748327E+03  0.33978442159E+03  0.00000000000E+00 0.  1.
</event>
<event>
12    1  0.8724767E-002  0.3807464E+03  0.7818608E-02  0.1051257E+00
         21   -1    0    0  503  502  0.00000000000E+00  0.00000000000E+00  0.57058243428E+03  0.57058243428E+03  0.00000000000E+00 0. -1.
         21   -1    0    0  501  503 -0.00000000000E+00 -0.00000000000E+00 -0.38163011617E+03  0.38163011617E+03  0.00000000000E+00 0.  1.
          6    2    1    2  501    0  0.16146242341E+03 -0.29103730411E+03 -0.18482673625E+03  0.42323604389E+03  0.18491890076E+03 0.  0.
         24    2    3    3    0    0  0.25362266124E+02 -0.19769941949E+03 -0.88978924823E+02  0.23233264823E+03  0.79579553663E+02 0.  0.
         -6    2    1    2    0  502 -0.16146242341E+03  0.29103730411E+03  0.37377905437E+03  0.52897650656E+03  0.17126744133E+03 0.  0.
        -24    2    5    5    0    0 -0.18503696030E+03  0.21616149793E+03  0.27506485578E+03  0.40276744135E+03  0.74809538566E+02 0.  0.
          5    1    3    3  501    0  0.13610015729E+03 -0.93337884620E+02 -0.95847811427E+02  0.19090339566E+03  0.47000000000E+01 0. -1.
        -11    1    4    4    0    0  0.12627594151E+02 -0.18293989244E+03 -0.52123451204E+02  0.19063922615E+03  0.00000000000E+00 0.  1.
         12    1    4    4    0    0  0.12734671972E+02 -0.14759527041E+02 -0.36855473619E+02  0.41693422076E+02  0.00000000000E+00 0. -1.
         -5    1    5    5    0  502  0.23574536890E+02  0.74875806173E+02  0.98714198587E+02  0.12620906521E+03  0.47000000000E+01 0.  1.
         11    1    6    6    0    0 -0.15024636534E+03  0.12113172339E+03  0.18266548861E+03  0.26573209335E+03  0.00000000000E+00 0. -1.
        -12    1    6    6    0    0 -0.34790594965E+02  0.95029774540E+02  0.92399367172E+02  0.13703534800E+03  0.00000000000E+00 0.  1.
</event>
<event>
12    1  0.8724767E-002  0.2090817E+03  0.7818608E-02  0.1142319E+00
         21   -1    0    0  503  502  0.00000000000E+00  0.00000000000E+00  0.33713109844E+03  0.33713109844E+03  0.00000000000E+00 0. -1.
         21   -1    0    0  501  503 -0.00000000000E+00 -0.00000000000E+00 -0.19528369406E+03  0.19528369406E+03  0.00000000000E+00 0. -1.
          6    2    1    2  501    0  0.41224169899E+02 -0.11066239234E+03 -0.83483439686E+02  0.22502390530E+03  0.17239685610E+03 0.  0.
         24    2    3    3    0    0  0.11988495330E+02  0.25801765295E+00 -0.73142396261E+02  0.10975426837E+03  0.80946888148E+02 0.  0.
         -6    2    1    2    0  502 -0.41224169899E+02  0.11066239234E+03  0.22533084407E+03  0.30739088720E+03  0.17253860722E+03 0.  0.
        -24    2    5    5    0    0  0.85829011491E+01  0.95425160838E+02  0.22208330573E+03  0.25499285235E+03  0.80751052976E+02 0.  0.
          5    1    3    3  501    0  0.29235674569E+02 -0.11092040999E+03 -0.10341043425E+02  0.11526963693E+03  0.47000000000E+01 0. -1.
        -13    1    4    4    0    0 -0.29637999891E+02  0.19626760084E+02 -0.37136251113E+02  0.51407410902E+02  0.00000000000E+00 0.  1.
         14    1    4    4    0    0  0.41626495221E+02 -0.19368742431E+02 -0.36006145148E+02  0.58346857466E+02  0.00000000000E+00 0. -1.
         -5    1    5    5    0  502 -0.49807071048E+02  0.15237231499E+02  0.32475383469E+01  0.52398034843E+02  0.47000000000E+01 0.  1.
         13    1    6    6    0    0 -0.24666172385E+02  0.81236652584E+02  0.18311530289E+03  0.20183911399E+03  0.00000000000E+00 0. -1.
        -14    1    6    6    0    0  0.33249073534E+02  0.14188508253E+02  0.38968002840E+02  0.53153738369E+02  0.00000000000E+00 0.  1.
</event>
<event>
12    1  0.8724767E-002  0.2046752E+03  0.7818608E-02  0.1145943E+00
         21   -1    0    0  501  502  0.00000000000E+00  0.00000000000E+00  0.29828401616E+03  0.29828401616E+03  0.00000000000E+00 0. -1.
         21   -1    0    0  502  503 -0.00000000000E+00 -0.00000000000E+00 -0.15227831188E+03  0.15227831188E+03  0.00000000000E+00 0.  1.
         -6    2    1    2    0  503  0.77951534732E+02 -0.79113524995E+02  0.13666907358E+03  0.24611050296E+03  0.17192019192E+03 0.  0.
        -24    2    3    3    0    0  0.11444810707E+02  0.13678590642E+02  0.46822051942E+02  0.10075542612E+03  0.87414322688E+02 0.  0.
          6    2    1    2  501    0 -0.77951534732E+02  0.79113524995E+02  0.93366306951E+01  0.20445182508E+03  0.17140007148E+03 0.  0.
         24    2    5    5    0    0 -0.75783903995E+01  0.41055186129E+01 -0.40329966683E+02  0.90138915227E+02  0.80151297815E+02 0.  0.
          5    1    5    5  501    0 -0.70373144333E+02  0.75008006383E+02  0.49666597378E+02  0.11431290986E+03  0.47000000000E+01 0. -1.
        -13    1    6    6    0    0 -0.31718949199E+02  0.30793778940E+02 -0.26775286480E+02  0.51684277355E+02  0.00000000000E+00 0.  1.
         14    1    6    6    0    0  0.24140558799E+02 -0.26688260327E+02 -0.13554680203E+02  0.38454637871E+02  0.00000000000E+00 0. -1.
         -5    1    3    3    0  503  0.66506724025E+02 -0.92792115638E+02  0.89847021640E+02  0.14535507684E+03  0.47000000000E+01 0.  1.
         13    1    4    4    0    0  0.41369674968E+02  0.91799675922E+01  0.54978468307E+02  0.69414362990E+02  0.00000000000E+00 0. -1.
        -14    1    4    4    0    0 -0.29924864261E+02  0.44986230503E+01 -0.81564163647E+01  0.31341063133E+02  0.00000000000E+00 0.  1.
</event>
<event>
12    1  0.8724767E-002  0.1761658E+03  0.7818608E-02  0.1172780E+00
         21   -1    0    0  501  502  0.00000000000E+00  0.00000000000E+00  0.36097243723E+03  0.36097243723E+03  0.00000000000E+00 0.  1.
         21   -1    0    0  502  503 -0.00000000000E+00 -0.00000000000E+00 -0.87175941370E+02  0.87175941370E+02  0.00000000000E+00 0.  1.
         -6    2    1    2    0  503 -0.28080295444E+02  0.20215175498E+02  0.18017065678E+03  0.24864849291E+03  0.16783161547E+03 0.  0.
        -24    2    3    3    0    0  0.33120037121E+01 -0.25128339242E+02  0.17399524677E+03  0.19295525756E+03  0.79466865536E+02 0.  0.
          6    2    1    2  501    0  0.28080295444E+02 -0.20215175498E+02  0.93625839078E+02  0.19949988569E+03  0.17273462401E+03 0.  0.
         24    2    5    5    0    0 -0.34057963211E+02  0.33709687097E+02  0.58174935161E+02  0.10978973808E+03  0.79832171743E+02 0.  0.
          5    1    5    5  501    0  0.62138258655E+02 -0.53924862595E+02  0.35450903917E+02  0.89710147604E+02  0.47000000000E+01 0. -1.
        -13    1    6    6    0    0 -0.54708285872E+02  0.13851919524E+02  0.58300072010E+02  0.81140437600E+02  0.00000000000E+00 0.  1.
         14    1    6    6    0    0  0.20650322661E+02  0.19857767573E+02 -0.12513684833E+00  0.28649300484E+02  0.00000000000E+00 0. -1.
         -5    1    3    3    0  503 -0.31392299156E+02  0.45343514740E+02  0.61754100058E+01  0.55693235352E+02  0.47000000000E+01 0.  1.
         13    1    4    4    0    0 -0.40149301947E+01 -0.17631200474E+01  0.16758590369E+03  0.16764326223E+03  0.00000000000E+00 0. -1.
        -14    1    4    4    0    0  0.73269339068E+01 -0.23365219195E+02  0.64093430816E+01  0.25311995323E+02  0.00000000000E+00 0.  1.
</event>
<event>
12    1  0.8724767E-002  0.3035457E+03  0.7818608E-02  0.1083485E+00
         21   -1    0    0  501  502  0.00000000000E+00  0.00000000000E+00  0.12035780989E+03  0.12035780989E+03  0.00000000000E+00 0.  1.
         21   -1    0    0  502  503 -0.00000000000E+00 -0.00000000000E+00 -0.86917108185E+03  0.86917108185E+03  0.00000000000E+00 0. -1.
         -6    2    1    2    0  503 -0.19267788669E+03 -0.15786304499E+03 -0.54528036082E+03  0.62406256458E+03  0.17342982336E+03 0.  0.
        -24    2    3    3    0    0 -0.17375807970E+03 -0.10327767148E+03 -0.51490626444E+03  0.55862406040E+03  0.77937359571E+02 0.  0.
          6    2    1    2  501    0  0.19267788669E+03  0.15786304499E+03 -0.20353291115E+03  0.36546632716E+03  0.17347761059E+03 0.  0.
         24    2    5    5    0    0  0.18284861864E+03  0.95596829316E+02 -0.96092155813E+02  0.24080959035E+03  0.78633232701E+02 0.  0.
          5    1    5    5  501    0  0.98292680523E+01  0.62266215678E+02 -0.10744075533E+03  0.12465673681E+03  0.47000000000E+01 0. -1.
        -11    1    6    6    0    0  0.47908203321E+02  0.39477990704E+02  0.62527265091E+01  0.62392341551E+02  0.00000000000E+00 0.  1.
         12    1    6    6    0    0  0.13494041532E+03  0.56118838612E+02 -0.10234488232E+03  0.17841724880E+03  0.00000000000E+00 0. -1.
         -5    1    3    3    0  503 -0.18919806987E+02 -0.54585373517E+02 -0.30374096377E+02  0.65438504179E+02  0.47000000000E+01 0.  1.
         11    1    4    4    0    0 -0.97305920107E+02 -0.75797366206E+02 -0.39482286279E+03  0.41364087781E+03  0.00000000000E+00 0. -1.
        -12    1    4    4    0    0 -0.76452159594E+02 -0.27480305271E+02 -0.12008340165E+03  0.14498318260E+03  0.00000000000E+00 0.  1.
</event>
<event>
12    1  0.8724767E-002  0.1744796E+03  0.7818608E-02  0.1173336E+00
         21   -1    0    0  501  502  0.00000000000E+00  0.00000000000E+00  0.28769608596E+02  0.28769608596E+02  0.00000000000E+00 0.  1.
         21   -1    0    0  502  503 -0.00000000000E+00 -0.00000000000E+00 -0.19691508753E+04  0.19691508753E+04  0.00000000000E+00 0. -1.
         -6    2    1    2    0  503 -0.62846507509E+01 -0.21280287053E+02 -0.16498946321E+04  0.16590611994E+04  0.17274090129E+03 0.  0.
        -24    2    3    3    0    0 -0.99198706497E+01  0.43019847829E+02 -0.12854134440E+04  0.12889040049E+04  0.83885044823E+02 0.  0.
          6    2    1    2  501    0  0.62846507509E+01  0.21280287053E+02 -0.29048663466E+03  0.33885928452E+03  0.17306294328E+03 0.  0.
         24    2    5    5    0    0  0.45460324352E+01  0.80897827420E+02 -0.17126586131E+03  0.20546904233E+03  0.79500988761E+02 0.  0.
          5    1    5    5  501    0  0.17386183157E+01 -0.59617540367E+02 -0.11922077334E+03  0.13339024218E+03  0.47000000000E+01 0. -1.
        -11    1    6    6    0    0  0.15456655698E+02  0.16532470537E+02 -0.48724199230E+00  0.22637760317E+02  0.00000000000E+00 0.  1.
         12    1    6    6    0    0 -0.10910623263E+02  0.64365356883E+02 -0.17077861932E+03  0.18283128202E+03  0.00000000000E+00 0. -1.
         -5    1    3    3    0  503  0.36352198987E+01 -0.64300134882E+02 -0.36448118807E+03  0.37015719448E+03  0.47000000000E+01 0.  1.
         11    1    4    4    0    0  0.34870053638E+02  0.13613620393E+02 -0.71512797075E+03  0.71610702123E+03  0.00000000000E+00 0. -1.
        -12    1    4    4    0    0 -0.44789924287E+02  0.29406227436E+02 -0.57028547324E+03  0.57279698368E+03  0.00000000000E+00 0.  1.
</event>
<event>
12    1  0.8724767E-002  0.1914109E+03  0.7818608E-02  0.1157734E+00
         21   -1    0    0  501  502  0.00000000000E+00  0.00000000000E+00  0.81379349692E+02  0.81379349692E+02  0.00000000000E+00 0. -1.
         21   -1    0    0  502  503 -0.00000000000E+00 -0.00000000000E+00 -0.45941232503E+03  0.45941232503E+03  0.00000000000E+00 0. -1.
         -6    2    1    2    0  503  0.78376888809E+02  0.97726222496E+01 -0.14160257426E+03  0.23809540580E+03  0.17435507559E+03 0.  0.
        -24    2    3    3    0    0  0.78800642048E+02 -0.36379830905E+01 -0.17203106875E+03  0.20450958767E+03  0.77502946575E+02 0.  0.
          6    2    1    2  501    0 -0.78376888809E+02 -0.97726222496E+01 -0.23643040108E+03  0.30269626891E+03  0.17171853661E+03 0.  0.
         24    2    5    5    0    0 -0.15805345362E+02 -0.11533478861E+02 -0.22166024105E+03  0.23820947730E+03  0.85015660533E+02 0.  0.
          5    1    5    5  501    0 -0.62571543448E+02  0.17608566115E+01 -0.14770160022E+02  0.64486791613E+02  0.47000000000E+01 0. -1.
        -13    1    6    6    0    0  0.11865692071E+02  0.31078027072E+02 -0.12049085633E+03  0.12499873949E+03  0.00000000000E+00 0.  1.
         14    1    6    6    0    0 -0.27671037432E+02 -0.42611505933E+02 -0.10116938473E+03  0.11321073781E+03  0.00000000000E+00 0. -1.
         -5    1    3    3    0  503 -0.42375323871E+00  0.13410605340E+02  0.30428494491E+02  0.33585818129E+02  0.47000000000E+01 0.  1.
         13    1    4    4    0    0  0.18055646332E+02  0.32538277072E+02 -0.39298115407E+02  0.54121046865E+02  0.00000000000E+00 0. -1.
        -14    1    4    4    0    0  0.60744995716E+02 -0.36176260162E+02 -0.13273295334E+03  0.15038854081E+03  0.00000000000E+00 0.  1.
</event>
<event>
12    1  0.8724767E-002  0.1895321E+03  0.7818608E-02  0.1158913E+00
         21   -1    0    0  503  502  0.00000000000E+00  0.00000000000E+00  0.48427084137E+02  0.48427084137E+02  0.00000000000E+00 0.  1.
         21   -1    0    0  501  503 -0.00000000000E+00 -0.00000000000E+00 -0.78870722156E+03  0.78870722156E+03  0.00000000000E+00 0.  1.
          6    2    1    2  501    0 -0.91314019723E+01 -0.80581882370E+02 -0.47290673522E+03  0.50947344350E+03  0.17130553740E+03 0.  0.
         24    2    3    3    0    0 -0.35846792281E+02 -0.70099522253E+02 -0.16123940040E+03  0.19645234270E+03  0.79977766741E+02 0.  0.
         -6    2    1    2    0  502  0.91314019723E+01  0.80581882370E+02 -0.26737340220E+03  0.32766086220E+03  0.17116156737E+03 0.  0.
        -24    2    5    5    0    0 -0.22492568892E+02 -0.17194054717E+02 -0.10064688817E+03  0.13175264418E+03  0.80171141796E+02 0.  0.
          5    1    3    3  501    0  0.26715390309E+02 -0.10482360117E+02 -0.31166733482E+03  0.31302110080E+03  0.47000000000E+01 0. -1.
        -13    1    4    4    0    0 -0.45419815362E+01 -0.77705570475E+02 -0.13034143634E+03  0.15181460834E+03  0.00000000000E+00 0.  1.
         14    1    4    4    0    0 -0.31304810745E+02  0.76060482213E+01 -0.30897964064E+02  0.44637734358E+02  0.00000000000E+00 0. -1.
         -5    1    5    5    0  502  0.31623970864E+02  0.97775937087E+02 -0.16672651403E+03  0.19590821802E+03  0.47000000000E+01 0.  1.
         13    1    6    6    0    0 -0.18547579026E+02 -0.24273830257E+02 -0.11295648162E+03  0.11701452159E+03  0.00000000000E+00 0. -1.
        -14    1    6    6    0    0 -0.39449898659E+01  0.70797755407E+01  0.12309593445E+02  0.14738122592E+02  0.00000000000E+00 0.  1.
</event>
<event>
12    1  0.8724767E-002  0.2217243E+03  0.7818608E-02  0.1132639E+00
         21   -1    0    0  503  502  0.00000000000E+00  0.00000000000E+00  0.76097070887E+03  0.76097070887E+03  0.00000000000E+00 0. -1.
         21   -1    0    0  501  503 -0.00000000000E+00 -0.00000000000E+00 -0.67610773116E+02  0.67610773116E+02  0.00000000000E+00 0. -1.
          6    2    1    2  501    0  0.79414626116E+02  0.11547202492E+03  0.43498805254E+03  0.48823793365E+03  0.17181735251E+03 0.  0.
         24    2    3    3    0    0  0.29932895650E+02  0.56862192642E+02  0.97133352447E+02  0.14175352929E+03  0.80807720642E+02 0.  0.
         -6    2    1    2    0  502 -0.79414626116E+02 -0.11547202492E+03  0.25837188322E+03  0.34034354834E+03  0.17157281101E+03 0.  0.
        -24    2    5    5    0    0  0.12033428711E+02 -0.28414645913E+02  0.15073802509E+03  0.17436502146E+03  0.82030561318E+02 0.  0.
          5    1    3    3  501    0  0.49481730466E+02  0.58609832276E+02  0.33785470009E+03  0.34648440436E+03  0.47000000000E+01 0. -1.
        -13    1    4    4    0    0  0.35288663610E+02  0.79727507791E+01  0.39571994628E+01  0.36393872588E+02  0.00000000000E+00 0.  1.
         14    1    4    4    0    0 -0.53557679597E+01  0.48889441863E+02  0.93176152984E+02  0.10535965671E+03  0.00000000000E+00 0. -1.
         -5    1    5    5    0  502 -0.91448054827E+02 -0.87057379004E+02  0.10763385813E+03  0.16597852688E+03  0.47000000000E+01 0.  1.
         13    1    6    6    0    0 -0.14459640031E+02 -0.18627251910E+02  0.27899876420E+01  0.23745309739E+02  0.00000000000E+00 0. -1.
        -14    1    6    6    0    0  0.26493068742E+02 -0.97873940029E+01  0.14794803745E+03  0.15061971172E+03  0.00000000000E+00 0.  1.
</event>
<event>
12    1  0.8724767E-002  0.1840738E+03  0.7818608E-02  0.1166087E+00
         21   -1    0    0  503  502  0.00000000000E+00  0.00000000000E+00  0.20134788016E+03  0.20134788016E+03  0.00000000000E+00 0.  1.
         21   -1    0    0  501  503 -0.00000000000E+00 -0.00000000000E+00 -0.26175364042E+03  0.26175364042E+03  0.00000000000E+00 0. -1.
          6    2    1    2  501    0  0.15474937684E+02 -0.15392613779E+02 -0.17488881590E+03  0.25390795162E+03  0.18277511787E+03 0.  0.
         24    2    3    3    0    0 -0.23738817992E+02  0.22258703177E+02 -0.17458086558E+02  0.87289030594E+02  0.79092406266E+02 0.  0.
         -6    2    1    2    0  502 -0.15474937684E+02  0.15392613779E+02  0.11448305564E+03  0.20919356897E+03  0.17372153871E+03 0.  0.
        -24    2    5    5    0    0 -0.50805062105E+02  0.24531015926E+02  0.75988429360E+01  0.96153518493E+02  0.77490848665E+02 0.  0.
          5    1    3    3  501    0  0.39213755675E+02 -0.37651316956E+02 -0.15743072934E+03  0.16661892102E+03  0.47000000000E+01 0. -1.
        -11    1    4    4    0    0 -0.43279825008E+02 -0.50263875229E+01 -0.28376922264E+02  0.51996707025E+02  0.00000000000E+00 0.  1.
         12    1    4    4    0    0  0.19541007016E+02  0.27285090700E+02  0.10918835706E+02  0.35292323569E+02  0.00000000000E+00 0. -1.
         -5    1    5    5    0  502  0.35330124421E+02 -0.91384021473E+01  0.10688421270E+03  0.11304005047E+03  0.47000000000E+01 0.  1.
         13    1    6    6    0    0 -0.25317772903E+02 -0.10848601723E+02 -0.28434154769E+02  0.39587661482E+02  0.00000000000E+00 0. -1.
        -14    1    6    6    0    0 -0.25487289201E+02  0.35379617649E+02  0.36032997705E+02  0.56565857012E+02  0.00000000000E+00 0.  1.
</event>
<event>
12    1  0.8724767E-002  0.2584890E+03  0.7818608E-02  0.1108191E+00
         21   -1    0    0  501  502  0.00000000000E+00  0.00000000000E+00  0.11157914127E+04  0.11157914127E+04  0.00000000000E+00 0.  1.
         21   -1    0    0  502  503 -0.00000000000E+00 -0.00000000000E+00 -0.17017298955E+03  0.17017298955E+03  0.00000000000E+00 0. -1.
         -6    2    1    2    0  503 -0.19086181170E+03 -0.30469548692E+02 -0.45022988869E+02  0.26238065639E+03  0.17163890805E+03 0.  0.
        -24    2    3    3    0    0 -0.12966419603E+03  0.22208281759E+02 -0.81798707695E+02  0.17352883885E+03  0.78199858185E+02 0.  0.
          6    2    1    2  501    0  0.19086181170E+03  0.30469548692E+02  0.99064141205E+03  0.10235837459E+04  0.17028403635E+03 0.  0.
         24    2    5    5    0    0  0.14494673386E+03 -0.35997714248E+02  0.78877996743E+03  0.80610679484E+03  0.72999565658E+02 0.  0.
          5    1    5    5  501    0  0.45915077838E+02  0.66467262941E+02  0.20186144462E+03  0.21747695105E+03  0.47000000000E+01 0. -1.
        -11    1    6    6    0    0  0.10583577820E+03 -0.21302409489E+01  0.63739034832E+03  0.64612089117E+03  0.00000000000E+00 0.  1.
         12    1    6    6    0    0  0.39110955659E+02 -0.33867473300E+02  0.15138961911E+03  0.15998590368E+03  0.00000000000E+00 0. -1.
         -5    1    3    3    0  503 -0.61197615667E+02 -0.52677830451E+02  0.36775718826E+02  0.88851817537E+02  0.47000000000E+01 0.  1.
         11    1    4    4    0    0 -0.10515871166E+03 -0.12046382956E+02 -0.37218200443E+02  0.11219921757E+03  0.00000000000E+00 0. -1.
        -12    1    4    4    0    0 -0.24505484379E+02  0.34254664715E+02 -0.44580507252E+02  0.61329621279E+02  0.00000000000E+00 0.  1.
</event>
<event>
12    1  0.8724767E-002  0.1773163E+03  0.7818608E-02  0.1170833E+00
         21   -1    0    0  501  502  0.00000000000E+00  0.00000000000E+00  0.67984003333E+02  0.67984003333E+02  0.00000000000E+00 0.  1.
         21   -1    0    0  502  503 -0.00000000000E+00 -0.00000000000E+00 -0.51139329261E+03  0.51139329261E+03  0.00000000000E+00 0.  1.
         -6    2    1    2    0  503 -0.37246679232E+02  0.17689509606E+02 -0.12736205914E+03  0.21698672889E+03  0.17076859354E+03 0.  0.
        -24    2    3    3    0    0  0.19965290913E+02  0.14749213577E+02 -0.13775783159E+03  0.15857425631E+03  0.74514578822E+02 0.  0.
          6    2    1    2  501    0  0.37246679232E+02 -0.17689509606E+02 -0.31604723014E+03  0.36239056706E+03  0.17245532045E+03 0.  0.
         24    2    5    5    0    0  0.62033991459E+01 -0.72177973209E+02 -0.24430591682E+03  0.26698834517E+03  0.79682203069E+02 0.  0.
          5    1    5    5  501    0  0.31043280086E+02  0.54488463603E+02 -0.71741313313E+02  0.95402221883E+02  0.47000000000E+01 0. -1.
        -11    1    6    6    0    0  0.38802069338E+02 -0.14915681449E+02 -0.10311768669E+03  0.11118154274E+03  0.00000000000E+00 0.  1.
         12    1    6    6    0    0 -0.32598670192E+02 -0.57262291760E+02 -0.14118823013E+03  0.15580680243E+03  0.00000000000E+00 0. -1.
         -5    1    3    3    0  503 -0.57211970144E+02  0.29402960292E+01  0.10395772444E+02  0.58412472583E+02  0.47000000000E+01 0.  1.
         11    1    4    4    0    0  0.40995097852E+01 -0.25483060847E+02 -0.92256464434E+02  0.95798995822E+02  0.00000000000E+00 0. -1.
        -12    1    4    4    0    0  0.15865781128E+02  0.40232274423E+02 -0.45501367153E+02  0.62775260484E+02  0.00000000000E+00 0.  1.
</event>
<event>
12    1  0.8724767E-002  0.2024431E+03  0.7818608E-02  0.1149536E+00
         21   -1    0    0  501  502  0.00000000000E+00  0.00000000000E+00  0.14159249779E+03  0.14159249779E+03  0.00000000000E+00 0.  1.
         21   -1    0    0  502  503 -0.00000000000E+00 -0.00000000000E+00 -0.34529821211E+03  0.34529821211E+03  0.00000000000E+00 0.  1.
         -6    2    1    2    0  503  0.92406798385E+02  0.38209891876E+01 -0.20816780974E+03  0.28439848627E+03  0.17027931653E+03 0.  0.
        -24    2    3    3    0    0  0.11942963772E+03 -0.15784607809E+02 -0.10903027343E+03  0.17968480816E+03  0.76723122647E+02 0.  0.
          6    2    1    2  501    0 -0.92406798385E+02 -0.38209891876E+01  0.44620954194E+01  0.20249222363E+03  0.18008213123E+03 0.  0.
         24    2    5    5    0    0 -0.72191379173E+02  0.37656436035E+02 -0.55089907101E+02  0.12700996756E+03  0.80417856184E+02 0.  0.
          5    1    5    5  501    0 -0.20215419212E+02 -0.41477425222E+02  0.59552002520E+02  0.75482256068E+02  0.47000000000E+01 0. -1.
        -13    1    6    6    0    0  0.26280212324E+01  0.33316273901E+02  0.94445108844E+00  0.33433106199E+02  0.00000000000E+00 0.  1.
         14    1    6    6    0    0 -0.74819400406E+02  0.43401621336E+01 -0.56034358189E+02  0.93576861360E+02  0.00000000000E+00 0. -1.
         -5    1    3    3    0  503 -0.27022839334E+02  0.19605596996E+02 -0.99137536308E+02  0.10471367812E+03  0.47000000000E+01 0.  1.
         13    1    4    4    0    0  0.86454892146E+02  0.20405922733E+02 -0.91900726429E+02  0.12781468451E+03  0.00000000000E+00 0. -1.
        -14    1    4    4    0    0  0.32974745573E+02 -0.36190530541E+02 -0.17129546999E+02  0.51870123644E+02  0.00000000000E+00 0.  1.
</event>
<event>
12    1  0.8724767E-002  0.1990564E+03  0.7818608E-02  0.1150846E+00
         21   -1    0    0  503  502  0.00000000000E+00  0.00000000000E+00  0.71488701732E+03  0.71488701732E+03  0.00000000000E+00 0.  1.
         21   -1    0    0  501  503 -0.00000000000E+00 -0.00000000000E+00 -0.16331527163E+03  0.16331527163E+03  0.00000000000E+00 0.  1.
          6    2    1    2  501    0 -0.36550074586E+02  0.91647444922E+02 -0.82113197084E+02  0.21398841615E+03  0.17121128175E+03 0.  0.
         24    2    3    3    0    0  0.35393676894E+02  0.27205998402E+02 -0.73527249435E+02  0.11690900585E+03  0.79174367862E+02 0.  0.
         -6    2    1    2    0  502  0.36550074586E+02 -0.91647444922E+02  0.63368494277E+03  0.66421387280E+03  0.17288232997E+03 0.  0.
        -24    2    5    5    0    0 -0.37730519783E+02 -0.77473226367E+02  0.29395972661E+03  0.31614228869E+03  0.78153265467E+02 0.  0.
          5    1    3    3  501    0 -0.71943751480E+02  0.64441446520E+02 -0.85859476492E+01  0.97079410297E+02  0.47000000000E+01 0. -1.
        -13    1    4    4    0    0 -0.14032784274E+02 -0.14562534187E+02 -0.38099712926E+02  0.43134377954E+02  0.00000000000E+00 0.  1.
         14    1    4    4    0    0  0.49426461168E+02  0.41768532589E+02 -0.35427536509E+02  0.73774627897E+02  0.00000000000E+00 0. -1.
         -5    1    5    5    0  502  0.74280594369E+02 -0.14174218555E+02  0.33972521615E+03  0.34807158411E+03  0.47000000000E+01 0.  1.
         11    1    6    6    0    0 -0.35640509042E+02 -0.98471034029E+01  0.17875481737E+03  0.18253902614E+03  0.00000000000E+00 0. -1.
        -12    1    6    6    0    0 -0.20900107414E+01 -0.67626122964E+02  0.11520490924E+03  0.13360326256E+03  0.00000000000E+00 0.  1.
</event>
<event>
12    1  0.8724767E-002  0.1873138E+03  0.7818608E-02  0.1161332E+00
         21   -1    0    0  503  502  0.00000000000E+00  0.00000000000E+00  0.17347814084E+03  0.17347814084E+03  0.00000000000E+00 0. -1.
         21   -1    0    0  501  503 -0.00000000000E+00 -0.00000000000E+00 -0.72802638240E+03  0.72802638240E+03  0.00000000000E+00 0. -1.
          6    2    1    2  501    0  0.64384567473E+02  0.34925961915E+02 -0.66142775629E+03  0.68743953884E+03  0.17239851341E+03 0.  0.
         24    2    3    3    0    0  0.41632201678E+02  0.36004095492E+02 -0.18473993944E+03  0.21018468317E+03  0.83780789617E+02 0.  0.
         -6    2    1    2    0  502 -0.64384567473E+02 -0.34925961915E+02  0.10687951473E+03  0.21406498441E+03  0.17039774510E+03 0.  0.
        -24    2    5    5    0    0 -0.96087930803E+02 -0.15225396644E+02  0.11990357482E+03  0.17425378423E+03  0.80763920873E+02 0.  0.
          5    1    3    3  501    0  0.22752365795E+02 -0.10781335772E+01 -0.47668781685E+03  0.47725485567E+03  0.47000000000E+01 0. -1.
        -13    1    4    4    0    0  0.62881589843E+02  0.26039268146E+02 -0.16826892689E+03  0.18151189929E+03  0.00000000000E+00 0.  1.
         14    1    4    4    0    0 -0.21249388165E+02  0.99648273461E+01 -0.16471012550E+02  0.28672783887E+02  0.00000000000E+00 0. -1.
         -5    1    5    5    0  502  0.31703363329E+02 -0.19700565271E+02 -0.13024060089E+02  0.39811200178E+02  0.47000000000E+01 0.  1.
         13    1    6    6    0    0 -0.28935176830E+02 -0.40356771846E+02  0.25840606830E+02  0.55979017974E+02  0.00000000000E+00 0. -1.
        -14    1    6    6    0    0 -0.67152753973E+02  0.25131375202E+02  0.94062967989E+02  0.11827476625E+03  0.00000000000E+00 0.  1.
</event>
<event>
12    1  0.8724767E-002  0.2632110E+03  0.7818608E-02  0.1105251E+00
         21   -1    0    0  501  502  0.00000000000E+00  0.00000000000E+00  0.57842212296E+02  0.57842212296E+02  0.00000000000E+00 0. -1.
         21   -1    0    0  502  503 -0.00000000000E+00 -0.00000000000E+00 -0.12030841041E+04  0.12030841041E+04  0.00000000000E+00 0.  1.
         -6    2    1    2    0  503  0.18800449397E+03 -0.65926078690E+02 -0.52816854241E+03  0.59012035571E+03  0.17201188165E+03 0.  0.
        -24    2    3    3    0    0  0.85966735392E+02 -0.99076243955E+02 -0.23789957877E+03  0.28062270001E+03  0.70331418798E+02 0.  0.
          6    2    1    2  501    0 -0.18800449397E+03  0.65926078690E+02 -0.61707334936E+03  0.67080596065E+03  0.17178236450E+03 0.  0.
         24    2    5    5    0    0 -0.19761861960E+03  0.33511907342E+02 -0.43267648797E+03  0.48327622326E+03  0.78554426867E+02 0.  0.
          5    1    5    5  501    0  0.96141256292E+01  0.32414171348E+02 -0.18439686139E+03  0.18752973739E+03  0.47000000000E+01 0. -1.
        -11    1    6    6    0    0 -0.21880219076E+02 -0.12262309797E+02 -0.11175696810E+03  0.11453701649E+03  0.00000000000E+00 0.  1.
         12    1    6    6    0    0 -0.17573840052E+03  0.45774217139E+02 -0.32091951987E+03  0.36873920677E+03  0.00000000000E+00 0. -1.
         -5    1    3    3    0  503  0.10203775858E+03  0.33150165265E+02 -0.29026896364E+03  0.30949765571E+03  0.47000000000E+01 0.  1.
         13    1    4    4    0    0 -0.81857865414E+00 -0.47349225747E+02 -0.66007252296E+02  0.81237778191E+02  0.00000000000E+00 0. -1.
        -14    1    4    4    0    0  0.86785314047E+02 -0.51727018208E+02 -0.17189232647E+03  0.19938492181E+03  0.00000000000E+00 0.  1.
</event>
<event>
12    1  0.8724767E-002  0.1920510E+03  0.7818608E-02  0.1157087E+00
         21   -1    0    0  501  502  0.00000000000E+00  0.00000000000E+00  0.32001404626E+02  0.32001404626E+02  0.00000000000E+00 0.  1.
         21   -1    0    0  502  503 -0.00000000000E+00 -0.00000000000E+00 -0.16629632420E+04  0.16629632420E+04  0.00000000000E+00 0.  1.
         -6    2    1    2    0  503 -0.83181751914E+02  0.72969048511E+01 -0.12936706909E+04  0.13078484065E+04  0.17294840056E+03 0.  0.
        -24    2    3    3    0    0 -0.33664526474E+00  0.54456988252E+02 -0.57090677705E+03  0.57880989564E+03  0.78234713001E+02 0.  0.
          6    2    1    2  501    0  0.83181751914E+02 -0.72969048511E+01 -0.33729114654E+03  0.38711624018E+03  0.17064939848E+03 0.  0.
         24    2    5    5    0    0  0.11502515115E+03 -0.30538853014E+02 -0.30008363371E+03  0.33270411615E+03  0.80488724346E+02 0.  0.
          5    1    5    5  501    0 -0.31843399238E+02  0.23241948163E+02 -0.37207512835E+02  0.54412124025E+02  0.47000000000E+01 0. -1.
        -11    1    6    6    0    0  0.65781008581E+02  0.24121349211E+02 -0.15017246793E+03  0.16571285618E+03  0.00000000000E+00 0.  1.
         12    1    6    6    0    0  0.49244142572E+02 -0.54660202226E+02 -0.14991116577E+03  0.16699125998E+03  0.00000000000E+00 0. -1.
         -5    1    3    3    0  503 -0.82845106649E+02 -0.47160083401E+02 -0.72276391381E+03  0.72903851083E+03  0.47000000000E+01 0.  1.
         13    1    4    4    0    0  0.30622694235E+02  0.23996826409E+02 -0.12808186756E+03  0.13386023262E+03  0.00000000000E+00 0. -1.
        -14    1    4    4    0    0 -0.30959339500E+02  0.30460161843E+02 -0.44282490949E+03  0.44494966302E+03  0.00000000000E+00 0.  1.
</event>
<event>
12    1  0.8724767E-002  0.1834127E+03  0.7818608E-02  0.1164631E+00
         21   -1    0    0  503  502  0.00000000000E+00  0.00000000000E+00  0.17248581483E+03  0.17248581483E+03  0.00000000000E+00 0.  1.
         21   -1    0    0  501  503 -0.00000000000E+00 -0.00000000000E+00 -0.29527533612E+03  0.29527533612E+03  0.00000000000E+00 0.  1.
          6    2    1    2  501    0  0.62681896336E+02  0.34264923854E+01 -0.19790155653E+03  0.26956418552E+03  0.17192749361E+03 0.  0.
         24    2    3    3    0    0  0.32285077184E+02  0.47012923957E+02 -0.19230924422E+03  0.21592550928E+03  0.79927710573E+02 0.  0.
         -6    2    1    2    0  502 -0.62681896336E+02 -0.34264923854E+01  0.75112035236E+02  0.19819696543E+03  0.17233530773E+03 0.  0.
        -24    2    5    5    0    0 -0.93226306188E+02 -0.27764470686E+02  0.15162100266E+02  0.12649352853E+03  0.79427410113E+02 0.  0.
          5    1    3    3  501    0  0.30396819152E+02 -0.43586431571E+02 -0.55923123122E+01  0.53638676239E+02  0.47000000000E+01 0. -1.
        -11    1    4    4    0    0  0.57828264732E+02  0.38715552843E+02 -0.15547918220E+03  0.17034311941E+03  0.00000000000E+00 0.  1.
         12    1    4    4    0    0 -0.25543187548E+02  0.82973711133E+01 -0.36830062023E+02  0.45582389868E+02  0.00000000000E+00 0. -1.
         -5    1    5    5    0  502  0.30544409852E+02  0.24337978300E+02  0.59949934969E+02  0.71703436904E+02  0.47000000000E+01 0.  1.
         11    1    6    6    0    0 -0.56809361980E+02 -0.21334622313E+02 -0.30351404731E+02  0.67850405209E+02  0.00000000000E+00 0. -1.
        -12    1    6    6    0    0 -0.36416944207E+02 -0.64298483732E+01  0.45513504998E+02  0.58643123320E+02  0.00000000000E+00 0.  1.
</event>
<event>
12    1  0.8724767E-002  0.2046618E+03  0.7818608E-02  0.1146064E+00
         21   -1    0    0  503  502  0.00000000000E+00  0.00000000000E+00  0.37672385833E+03  0.37672385833E+03  0.00000000000E+00 0. -1.
         21   -1    0    0  501  503 -0.00000000000E+00 -0.00000000000E+00 -0.13383573392E+03  0.13383573392E+03  0.00000000000E+00 0. -1.
          6    2    1    2  501    0 -0.54419860152E+02  0.93623104224E+02  0.15448299084E+02  0.20524398329E+03  0.17366529852E+03 0.  0.
         24    2    3    3    0    0 -0.67893725184E+02  0.74723170655E+02 -0.53646159128E+02  0.13220367467E+03  0.66383665579E+02 0.  0.
         -6    2    1    2    0  502  0.54419860152E+02 -0.93623104224E+02  0.22743982533E+03  0.30531560896E+03  0.17251649227E+03 0.  0.
        -24    2    5    5    0    0 -0.10755604840E+02  0.73252142296E+01  0.10054069396E+03  0.13049031394E+03  0.82158073807E+02 0.  0.
          5    1    3    3  501    0  0.13473865031E+02  0.18899933569E+02  0.69094458213E+02  0.73040308621E+02  0.47000000000E+01 0. -1.
        -11    1    4    4    0    0 -0.32145611873E+02  0.84287512764E+01  0.87858608076E+01  0.34374053600E+02  0.00000000000E+00 0.  1.
         12    1    4    4    0    0 -0.35748113311E+02  0.66294419379E+02 -0.62432019936E+02  0.97829621073E+02  0.00000000000E+00 0. -1.
         -5    1    5    5    0  502  0.65175464992E+02 -0.10094831845E+03  0.12689913137E+03  0.17482529502E+03  0.47000000000E+01 0.  1.
         11    1    6    6    0    0 -0.39056437615E+02  0.29543016217E+00  0.18106662239E+02  0.43050479853E+02  0.00000000000E+00 0. -1.
        -12    1    6    6    0    0  0.28300832775E+02  0.70297840674E+01  0.82434031719E+02  0.87439834087E+02  0.00000000000E+00 0.  1.
</event>
<event>
12    1  0.8724767E-002  0.1879493E+03  0.7818608E-02  0.1160641E+00
         21   -1    0    0  501  502  0.00000000000E+00  0.00000000000E+00  0.14032798194E+03  0.14032798194E+03  0.00000000000E+00 0. -1.
         21   -1    0    0  502  503 -0.00000000000E+00 -0.00000000000E+00 -0.27099455993E+03  0.27099455993E+03  0.00000000000E+00 0. -1.
         -6    2    1    2    0  503 -0.65838223248E+02  0.26086359850E+02 -0.12295738058E+03  0.22459619252E+03  0.17409699149E+03 0.  0.
        -24    2    3    3    0    0 -0.22684841432E+02  0.68946333603E+02 -0.28101751825E+02  0.11181821586E+03  0.80283285903E+02 0.  0.
          6    2    1    2  501    0  0.65838223248E+02 -0.26086359850E+02 -0.77091974120E+01  0.18672634935E+03  0.17260396289E+03 0.  0.
         24    2    5    5    0    0  0.55053348472E+02  0.37872269076E+02 -0.16764315899E+02  0.12106734457E+03  0.99554405684E+02 0.  0.
          5    1    5    5  501    0  0.10784874776E+02 -0.63958628925E+02  0.90551184873E+01  0.65659004780E+02  0.47000000000E+01 0. -1.
        -11    1    6    6    0    0 -0.84763693985E+01  0.49099557454E+02  0.10681277592E+02  0.50957875460E+02  0.00000000000E+00 0.  1.
         12    1    6    6    0    0  0.63529717871E+02 -0.11227288379E+02 -0.27445593491E+02  0.70109469112E+02  0.00000000000E+00 0. -1.
         -5    1    3    3    0  503 -0.43153381816E+02 -0.42859973753E+02 -0.94855628757E+02  0.11277797666E+03  0.47000000000E+01 0.  1.
         11    1    4    4    0    0 -0.21166052125E+02  0.36455386890E+02  0.25392453717E+02  0.49211520009E+02  0.00000000000E+00 0. -1.
        -12    1    4    4    0    0 -0.15187893077E+01  0.32490946713E+02 -0.53494205542E+02  0.62606695855E+02  0.00000000000E+00 0.  1.
</event>
<event>
12    1  0.8724767E-002  0.2183664E+03  0.7818608E-02  0.1135675E+00
         21   -1    0    0  503  502  0.00000000000E+00  0.00000000000E+00  0.97444109018E+03  0.97444109018E+03  0.00000000000E+00 0. -1.
         21   -1    0    0  501  503 -0.00000000000E+00 -0.00000000000E+00 -0.77989438654E+02  0.77989438654E+02  0.00000000000E+00 0. -1.
          6    2    1    2  501    0  0.13478255984E+03 -0.63244388383E+01  0.12528317196E+03  0.25175333861E+03  0.17169022501E+03 0.  0.
         24    2    3    3    0    0  0.49743033243E+02  0.47655895781E+02  0.20727692927E+02  0.10649654599E+03  0.78526576993E+02 0.  0.
         -6    2    1    2    0  502 -0.13478255984E+03  0.63244388383E+01  0.77116847957E+03  0.80067719022E+03  0.16785947126E+03 0.  0.
        -24    2    5    5    0    0 -0.16659282207E+03 -0.94046509115E+01  0.64918709731E+03  0.67355187934E+03  0.66231646738E+02 0.  0.
          5    1    3    3  501    0  0.85039526597E+02 -0.53980334619E+02  0.10455547903E+03  0.14525679263E+03  0.47000000000E+01 0. -1.
        -13    1    4    4    0    0  0.30084790008E+02 -0.77790136636E+01  0.34145239614E+02  0.46168225347E+02  0.00000000000E+00 0.  1.
         14    1    4    4    0    0  0.19658243236E+02  0.55434909444E+02 -0.13417546687E+02  0.60328320641E+02  0.00000000000E+00 0. -1.
         -5    1    5    5    0  502  0.31810262226E+02  0.15729089750E+02  0.12198138226E+03  0.12712531088E+03  0.47000000000E+01 0.  1.
         13    1    6    6    0    0 -0.13827911979E+03 -0.96093517933E+01  0.41225799176E+03  0.43493689931E+03  0.00000000000E+00 0. -1.
        -14    1    6    6    0    0 -0.28313702275E+02  0.20470088180E+00  0.23692910554E+03  0.23861498003E+03  0.00000000000E+00 0.  1.
</event>
<event>
12    1  0.8724767E-002  0.1739306E+03  0.7818608E-02  0.1174034E+00
         21   -1    0    0  503  502  0.00000000000E+00  0.00000000000E+00  0.39970494545E+02  0.39970494545E+02  0.00000000000E+00 0.  1.
         21   -1    0    0  501  503 -0.00000000000E+00 -0.00000000000E+00 -0.82793458438E+03  0.82793458438E+03  0.00000000000E+00 0.  1.
          6    2    1    2  501    0  0.17168324845E+02  0.22192096260E+02 -0.52361413770E+03  0.55146750601E+03  0.17075539366E+03 0.  0.
         24    2    3    3    0    0 -0.13148538376E+02  0.54091006235E+02 -0.15727702741E+03  0.18246666450E+03  0.73887071173E+02 0.  0.
         -6    2    1    2    0  502 -0.17168324845E+02 -0.22192096260E+02 -0.26434995213E+03  0.31643757292E+03  0.17165255561E+03 0.  0.
        -24    2    5    5    0    0 -0.60591451886E+02 -0.46110752579E+02 -0.23301105424E+03  0.25759977382E+03  0.79157858288E+02 0.  0.
          5    1    3    3  501    0  0.30316863221E+02 -0.31898909975E+02 -0.36633711029E+03  0.36900084150E+03  0.47000000000E+01 0. -1.
        -13    1    4    4    0    0  0.86194977368E+01 -0.84158114105E+01 -0.79194026884E+02  0.80105028038E+02  0.00000000000E+00 0.  1.
         14    1    4    4    0    0 -0.21768036113E+02  0.62506817646E+02 -0.78083000529E+02  0.10236163647E+03  0.00000000000E+00 0. -1.
         -5    1    5    5    0  502  0.43423127041E+02  0.23918656318E+02 -0.31338897897E+02  0.58837799105E+02  0.47000000000E+01 0.  1.
         13    1    6    6    0    0  0.19271882928E+02 -0.13682582655E+02 -0.49378849707E+02  0.54743852057E+02  0.00000000000E+00 0. -1.
        -14    1    6    6    0    0 -0.79863334814E+02 -0.32428169924E+02 -0.18363220453E+03  0.20285592176E+03  0.00000000000E+00 0.  1.
</event>
<event>
12    1  0.8724767E-002  0.3841897E+03  0.7818608E-02  0.1049423E+00
         21   -1    0    0  501  502  0.00000000000E+00  0.00000000000E+00  0.26442254486E+03  0.26442254486E+03  0.00000000000E+00 0. -1.
         21   -1    0    0  502  503 -0.00000000000E+00 -0.00000000000E+00 -0.25639860400E+04  0.25639860400E+04  0.00000000000E+00 0.  1.
         -6    2    1    2    0  503 -0.16129310953E+03  0.30287037168E+03 -0.24006432186E+04  0.24311443910E+04  0.17213151284E+03 0.  0.
        -24    2    3    3    0    0 -0.14619217255E+03  0.15096907467E+03 -0.12538168611E+04  0.12741937323E+04  0.85727087604E+02 0.  0.
          6    2    1    2  501    0  0.16129310953E+03 -0.30287037168E+03  0.10107972338E+03  0.39726419393E+03  0.17278831001E+03 0.  0.
         24    2    5    5    0    0  0.65845884743E+02 -0.57685002377E+02  0.95441124356E+01  0.11864815686E+03  0.79517639600E+02 0.  0.
          5    1    5    5  501    0  0.95447224790E+02 -0.24518536931E+03  0.91535610944E+02  0.27861603707E+03  0.47000000000E+01 0. -1.
        -11    1    6    6    0    0  0.64570728371E+01 -0.36954183360E+02 -0.26704471199E+02  0.46048173030E+02  0.00000000000E+00 0.  1.
         12    1    6    6    0    0  0.59388811905E+02 -0.20730819017E+02  0.36248583635E+02  0.72599983831E+02  0.00000000000E+00 0. -1.
         -5    1    3    3    0  503 -0.15100936985E+02  0.15190129701E+03 -0.11468263575E+04  0.11569506586E+04  0.47000000000E+01 0.  1.
         13    1    4    4    0    0  0.10435785072E+02  0.20000753238E+02 -0.14321767306E+03  0.14498357706E+03  0.00000000000E+00 0. -1.
        -14    1    4    4    0    0 -0.15662795762E+03  0.13096832143E+03 -0.11105991880E+04  0.11292101553E+04  0.00000000000E+00 0.  1.
</event>
<event>
12    1  0.8724767E-002  0.1911887E+03  0.7818608E-02  0.1157480E+00
         21   -1    0    0  501  502  0.00000000000E+00  0.00000000000E+00  0.34079838177E+03  0.34079838177E+03  0.00000000000E+00 0. -1.
         21   -1    0    0  502  503 -0.00000000000E+00 -0.00000000000E+00 -0.14673233558E+03  0.14673233558E+03  0.00000000000E+00 0. -1.
         -6    2    1    2    0  503  0.81006602364E+02 -0.20946117062E+02 -0.29821415213E+02  0.19311820356E+03  0.17147744544E+03 0.  0.
        -24    2    3    3    0    0  0.10605565964E+03 -0.60680820562E+02 -0.26726198574E+02  0.14581099165E+03  0.74943916836E+02 0.  0.
          6    2    1    2  501    0 -0.81006602364E+02  0.20946117062E+02  0.22388746141E+03  0.29441251379E+03  0.17190789235E+03 0.  0.
         24    2    5    5    0    0 -0.73125698873E+02  0.76059624430E+02  0.12623335055E+03  0.18190463539E+03  0.77601567514E+02 0.  0.
          5    1    5    5  501    0 -0.78809034906E+01 -0.55113507367E+02  0.97654110859E+02  0.11250787840E+03  0.47000000000E+01 0. -1.
        -11    1    6    6    0    0  0.53723524780E+01 -0.53500641474E+01 -0.46785654207E+01  0.89092273473E+01  0.00000000000E+00 0.  1.
         12    1    6    6    0    0 -0.78498051351E+02  0.81409688577E+02  0.13091191597E+03  0.17299540804E+03  0.00000000000E+00 0. -1.
         -5    1    3    3    0  503 -0.25049057275E+02  0.39734703500E+02 -0.30952166389E+01  0.47307211909E+02  0.47000000000E+01 0.  1.
         11    1    4    4    0    0  0.64757425601E+02 -0.31967207432E+02 -0.52508204998E+02  0.89289070516E+02  0.00000000000E+00 0. -1.
        -12    1    4    4    0    0  0.41298234038E+02 -0.28713613130E+02  0.25782006424E+02  0.56521921136E+02  0.00000000000E+00 0.  1.
</event>
<event>
12    1  0.8724767E-002  0.2040843E+03  0.7818608E-02  0.1146618E+00
         21   -1    0    0  501  502  0.00000000000E+00  0.00000000000E+00  0.99797882353E+02  0.99797882353E+02  0.00000000000E+00 0. -1.
         21   -1    0    0  502  503 -0.00000000000E+00 -0.00000000000E+00 -0.43414741574E+03  0.43414741574E+03  0.00000000000E+00 0.  1.
         -6    2    1    2    0  503  0.10374112556E+03 -0.29096180653E+02 -0.11101867238E+03  0.23232640617E+03  0.17332514107E+03 0.  0.
        -24    2    3    3    0    0  0.11768907753E+03 -0.71160774483E+02 -0.91681690053E+02  0.18374673651E+03  0.80266780767E+02 0.  0.
          6    2    1    2  501    0 -0.10374112556E+03  0.29096180653E+02 -0.22333086101E+03  0.30161889192E+03  0.17172208252E+03 0.  0.
         24    2    5    5    0    0 -0.36630895052E+02  0.43621000762E+01 -0.26091242229E+02  0.91759141145E+02  0.79863237307E+02 0.  0.
          5    1    5    5  501    0 -0.67110230504E+02  0.24734080576E+02 -0.19723961878E+03  0.20985975078E+03  0.47000000000E+01 0. -1.
        -11    1    6    6    0    0 -0.57909342937E+01 -0.35071074904E+02 -0.52955364742E+00  0.35549903544E+02  0.00000000000E+00 0.  1.
         12    1    6    6    0    0 -0.30839960758E+02  0.39433174980E+02 -0.25561688582E+02  0.56209237601E+02  0.00000000000E+00 0. -1.
         -5    1    3    3    0  503 -0.13947951970E+02  0.42064593831E+02 -0.19336982325E+02  0.48579669655E+02  0.47000000000E+01 0.  1.
         11    1    4    4    0    0  0.85969559410E+02 -0.49067353461E+02 -0.18098091656E+02  0.10062758689E+03  0.00000000000E+00 0. -1.
        -12    1    4    4    0    0  0.31719518116E+02 -0.22093421023E+02 -0.73583598397E+02  0.83119149629E+02  0.00000000000E+00 0.  1.
</event>
<event>
12    1  0.8724767E-002  0.2287583E+03  0.7818608E-02  0.1127913E+00
         21   -1    0    0  503  502  0.00000000000E+00  0.00000000000E+00  0.79452511721E+03  0.79452511721E+03  0.00000000000E+00 0.  1.
         21   -1    0    0  501  503 -0.00000000000E+00 -0.00000000000E+00 -0.83333748013E+02  0.83333748013E+02  0.00000000000E+00 0. -1.
          6    2    1    2  501    0 -0.20883623830E+02  0.14890611700E+03  0.14962222672E+03  0.27148419542E+03  0.16943346839E+03 0.  0.
         24    2    3    3    0    0  0.43284291700E+02  0.45349263809E+02  0.85417463973E+02  0.13369491868E+03  0.81535896957E+02 0.  0.
         -6    2    1    2    0  502  0.20883623830E+02 -0.14890611700E+03  0.56156914248E+03  0.60637466980E+03  0.17239832065E+03 0.  0.
        -24    2    5    5    0    0 -0.40164806912E+02 -0.51469445507E+02  0.17593826587E+03  0.20393948391E+03  0.79841869746E+02 0.  0.
          5    1    3    3  501    0 -0.64167915530E+02  0.10355685319E+03  0.64204762745E+02  0.13778927675E+03  0.47000000000E+01 0. -1.
        -13    1    4    4    0    0 -0.48823803976E+01  0.28378129549E+02  0.76648010002E+02  0.81878405654E+02  0.00000000000E+00 0.  1.
         14    1    4    4    0    0  0.48166672097E+02  0.16971134260E+02  0.87694539703E+01  0.51816513024E+02  0.00000000000E+00 0. -1.
         -5    1    5    5    0  502  0.61048430742E+02 -0.97436671497E+02  0.38563087661E+03  0.40243518589E+03  0.47000000000E+01 0.  1.
         13    1    6    6    0    0 -0.27683030983E+02  0.71039932830E+01  0.15122585256E+02  0.32334339483E+02  0.00000000000E+00 0. -1.
        -14    1    6    6    0    0 -0.12481775929E+02 -0.58573438790E+02  0.16081568061E+03  0.17160514443E+03  0.00000000000E+00 0.  1.
</event>
<event>
12    1  0.8724767E-002  0.1826357E+03  0.7818608E-02  0.1165379E+00
         21   -1    0    0  503  502  0.00000000000E+00  0.00000000000E+00  0.40704132226E+02  0.40704132226E+02  0.00000000000E+00 0. -1.
         21   -1    0    0  501  503 -0.00000000000E+00 -0.00000000000E+00 -0.15451779014E+04  0.15451779014E+04  0.00000000000E+00 0. -1.
          6    2    1    2  501    0  0.55445722083E+02  0.22836251836E+02 -0.12959065466E+04  0.13086527469E+04  0.17205380567E+03 0.  0.
         24    2    3    3    0    0  0.67709701790E+02 -0.43672073862E+02 -0.82975804888E+03  0.83760044144E+03  0.81143244136E+02 0.  0.
         -6    2    1    2    0  502 -0.55445722083E+02 -0.22836251836E+02 -0.20856722262E+03  0.27722928673E+03  0.17251106798E+03 0.  0.
        -24    2    5    5    0    0 -0.63237441164E+02 -0.69241996830E+02 -0.19035384451E+03  0.22655363975E+03  0.79363325758E+02 0.  0.
          5    1    3    3  501    0 -0.12263979707E+02  0.66508325698E+02 -0.46614849772E+03  0.47105230550E+03  0.47000000000E+01 0. -1.
        -13    1    4    4    0    0  0.75009601968E+02 -0.51418874497E+02 -0.81058777899E+03  0.81567327313E+03  0.00000000000E+00 0.  1.
         14    1    4    4    0    0 -0.72999001783E+01  0.77468006351E+01 -0.19170269886E+02  0.21927168312E+02  0.00000000000E+00 0. -1.
         -5    1    5    5    0  502  0.77917190806E+01  0.46405744994E+02 -0.18213378106E+02  0.50675646979E+02  0.47000000000E+01 0.  1.
         11    1    6    6    0    0 -0.33568333121E+02  0.22564009723E+01 -0.19269758339E+02  0.38771741260E+02  0.00000000000E+00 0. -1.
        -12    1    6    6    0    0 -0.29669108042E+02 -0.71498397802E+02 -0.17108408617E+03  0.18778189849E+03  0.00000000000E+00 0.  1.
</event>
<event>
12    1  0.8724767E-002  0.1943661E+03  0.7818608E-02  0.1154666E+00
         21   -1    0    0  501  502  0.00000000000E+00  0.00000000000E+00  0.19811550777E+03  0.19811550777E+03  0.00000000000E+00 0. -1.
         21   -1    0    0  502  503 -0.00000000000E+00 -0.00000000000E+00 -0.20741563022E+03  0.20741563022E+03  0.00000000000E+00 0.  1.
         -6    2    1    2    0  503  0.29160581461E+01 -0.90620968363E+02 -0.62886884707E+02  0.20428645680E+03  0.17192304343E+03 0.  0.
        -24    2    3    3    0    0 -0.27625917675E+02  0.11786028583E+02 -0.39457555909E+02  0.94782900885E+02  0.80776220416E+02 0.  0.
          6    2    1    2  501    0 -0.29160581461E+01  0.90620968363E+02  0.53586762255E+02  0.20124468119E+03  0.17148532682E+03 0.  0.
         24    2    5    5    0    0  0.17170131227E+02  0.17186539996E+02  0.83274134038E+02  0.11939420583E+03  0.82037823118E+02 0.  0.
          5    1    5    5  501    0 -0.20086189374E+02  0.73434428367E+02 -0.29687371783E+02  0.81850475359E+02  0.47000000000E+01 0. -1.
        -11    1    6    6    0    0  0.47913702550E+02 -0.60904036765E+00  0.60584658204E+02  0.77243735228E+02  0.00000000000E+00 0.  1.
         12    1    6    6    0    0 -0.30743571323E+02  0.17795580363E+02  0.22689475834E+02  0.42150470600E+02  0.00000000000E+00 0. -1.
         -5    1    3    3    0  503  0.30541975821E+02 -0.10240699695E+03 -0.23429328798E+02  0.10950355592E+03  0.47000000000E+01 0.  1.
         13    1    4    4    0    0  0.24570025265E+02 -0.11853148278E+02 -0.44629516452E+01  0.27642380559E+02  0.00000000000E+00 0. -1.
        -14    1    4    4    0    0 -0.52195942939E+02  0.23639176860E+02 -0.34994604263E+02  0.67140520325E+02  0.00000000000E+00 0.  1.
</event>
<event>
12    1  0.8724767E-002  0.1851050E+03  0.7818608E-02  0.1163883E+00
         21   -1    0    0  503  502  0.00000000000E+00  0.00000000000E+00  0.49353524018E+03  0.49353524018E+03  0.00000000000E+00 0. -1.
         21   -1    0    0  501  503 -0.00000000000E+00 -0.00000000000E+00 -0.70349611859E+02  0.70349611859E+02  0.00000000000E+00 0.  1.
          6    2    1    2  501    0  0.37362344348E+02 -0.55712643675E+02  0.15735583241E+03  0.23995686520E+03  0.16828129938E+03 0.  0.
         24    2    3    3    0    0  0.46132662744E+02 -0.29162276153E+02  0.17943832146E+03  0.20401848984E+03  0.80291793277E+02 0.  0.
         -6    2    1    2    0  502 -0.37362344348E+02  0.55712643675E+02  0.26582979591E+03  0.32392798684E+03  0.17252251106E+03 0.  0.
        -24    2    5    5    0    0 -0.33547622872E+02 -0.36556431629E+02  0.14199829784E+03  0.16938199280E+03  0.77877642513E+02 0.  0.
          5    1    3    3  501    0 -0.87703183956E+01 -0.26550367523E+02 -0.22082489052E+02  0.35938375354E+02  0.47000000000E+01 0. -1.
        -13    1    4    4    0    0 -0.37715079967E+01  0.15657230571E+01 -0.72645004357E+01  0.83335903332E+01  0.00000000000E+00 0.  1.
         14    1    4    4    0    0  0.49904170741E+02 -0.30727999210E+02  0.18670282190E+03  0.19568489951E+03  0.00000000000E+00 0. -1.
         -5    1    5    5    0  502 -0.38147214762E+01  0.92269075305E+02  0.12383149807E+03  0.15454599404E+03  0.47000000000E+01 0.  1.
         13    1    6    6    0    0 -0.53032280591E+01 -0.27732457089E+02  0.43246634518E+01  0.28564245448E+02  0.00000000000E+00 0. -1.
        -14    1    6    6    0    0 -0.28244394813E+02 -0.88239745397E+01  0.13767363439E+03  0.14081774735E+03  0.00000000000E+00 0.  1.
</event>
<event>
12    1  0.8724767E-002  0.2274424E+03  0.7818608E-02  0.1129009E+00
         21   -1    0    0  503  502  0.00000000000E+00  0.00000000000E+00  0.28717448109E+03  0.28717448109E+03  0.00000000000E+00 0.  1.
         21   -1    0    0  501  503 -0.00000000000E+00 -0.00000000000E+00 -0.23450784785E+03  0.23450784785E+03  0.00000000000E+00 0. -1.
          6    2    1    2  501    0 -0.37746645164E+02 -0.14522030835E+03 -0.10191642174E+03  0.24923278826E+03  0.17092769976E+03 0.  0.
         24    2    3    3    0    0  0.22001716403E+02 -0.11728380606E+03 -0.23997613030E+02  0.14703814251E+03  0.82490988798E+02 0.  0.
         -6    2    1    2    0  502  0.37746645164E+02  0.14522030835E+03  0.15458305498E+03  0.27244954068E+03  0.16679053975E+03 0.  0.
        -24    2    5    5    0    0  0.45841908281E+02  0.69699586713E+02  0.15896348780E+03  0.19622493262E+03  0.79216922353E+02 0.  0.
          5    1    3    3  501    0 -0.59748361567E+02 -0.27936502289E+02 -0.77918808706E+02  0.10219464575E+03  0.47000000000E+01 0. -1.
        -11    1    4    4    0    0  0.44647150205E+02 -0.33404250637E+02 -0.22538803395E+02  0.60143242684E+02  0.00000000000E+00 0.  1.
         12    1    4    4    0    0 -0.22645433803E+02 -0.83879555425E+02 -0.14588096344E+01  0.86894899827E+02  0.00000000000E+00 0. -1.
         -5    1    5    5    0  502 -0.80952631166E+01  0.75520721637E+02 -0.43804328199E+01  0.76224608055E+02  0.47000000000E+01 0.  1.
         13    1    6    6    0    0  0.41106550583E+02 -0.31796849040E+01  0.46693751960E+02  0.62290973415E+02  0.00000000000E+00 0. -1.
        -14    1    6    6    0    0  0.47353576985E+01  0.72879271617E+02  0.11226973584E+03  0.13393395921E+03  0.00000000000E+00 0.  1.
</event>
<event>
12    1  0.8724767E-002  0.2971387E+03  0.7818608E-02  0.1086681E+00
         21   -1    0    0  503  502  0.00000000000E+00  0.00000000000E+00  0.14208982221E+03  0.14208982221E+03  0.00000000000E+00 0.  1.
         21   -1    0    0  501  503 -0.00000000000E+00 -0.00000000000E+00 -0.71325772381E+03  0.71325772381E+03  0.00000000000E+00 0. -1.
          6    2    1    2  501    0  0.16203654154E+03 -0.18059897632E+03 -0.43909645884E+03  0.53018594512E+03  0.17152144238E+03 0.  0.
         24    2    3    3    0    0  0.16415080702E+03 -0.87881854111E+02 -0.32988641526E+03  0.38683372683E+03  0.78400111713E+02 0.  0.
         -6    2    1    2    0  502 -0.16203654154E+03  0.18059897632E+03 -0.13207144276E+03  0.32516160090E+03  0.17150909500E+03 0.  0.
        -24    2    5    5    0    0 -0.56705761609E+02  0.12230711447E+03 -0.13062158737E+03  0.20467630537E+03  0.81583192165E+02 0.  0.
          5    1    3    3  501    0 -0.21142654794E+01 -0.92717122205E+02 -0.10921004358E+03  0.14335221829E+03  0.47000000000E+01 0. -1.
        -13    1    4    4    0    0  0.12650915753E+02  0.93761905796E+01 -0.62747371670E+02  0.64693054269E+02  0.00000000000E+00 0.  1.
         14    1    4    4    0    0  0.15149989127E+03 -0.97258044691E+02 -0.26713904359E+03  0.32214067256E+03  0.00000000000E+00 0. -1.
         -5    1    5    5    0  502 -0.10533077993E+03  0.58291861849E+02 -0.14498553904E+01  0.12048529553E+03  0.47000000000E+01 0.  1.
         13    1    6    6    0    0 -0.25522540049E+02  0.12035772451E+03 -0.85627985185E+02  0.14989841142E+03  0.00000000000E+00 0. -1.
        -14    1    6    6    0    0 -0.31183221560E+02  0.19493899601E+01 -0.44993602186E+02  0.54777893951E+02  0.00000000000E+00 0.  1.
</event>
<event>
12    1  0.8724767E-002  0.1887530E+03  0.7818608E-02  0.1159739E+00
         21   -1    0    0  501  502  0.00000000000E+00  0.00000000000E+00  0.34495638261E+02  0.34495638261E+02  0.00000000000E+00 0. -1.
         21   -1    0    0  502  503 -0.00000000000E+00 -0.00000000000E+00 -0.10525594163E+04  0.10525594163E+04  0.00000000000E+00 0. -1.
         -6    2    1    2    0  503 -0.60706679770E+02  0.47672257539E+02 -0.58902564537E+03  0.61833189942E+03  0.17153769798E+03 0.  0.
        -24    2    3    3    0    0 -0.50161206556E+02  0.89203505660E+02 -0.29481885658E+03  0.32098399520E+03  0.75094306781E+02 0.  0.
          6    2    1    2  501    0  0.60706679770E+02 -0.47672257539E+02 -0.42903813270E+03  0.46872315517E+03  0.17224903999E+03 0.  0.
         24    2    5    5    0    0  0.15456491716E+02 -0.90390459862E+02 -0.31938227452E+03  0.34255294648E+03  0.83235482184E+02 0.  0.
          5    1    5    5  501    0  0.45250188055E+02  0.42718202323E+02 -0.10965585818E+03  0.12617020870E+03  0.47000000000E+01 0. -1.
        -13    1    6    6    0    0 -0.29894112177E+02 -0.40038220174E+02 -0.85280478591E+02  0.98840664942E+02  0.00000000000E+00 0.  1.
         14    1    6    6    0    0  0.45350603893E+02 -0.50352239688E+02 -0.23410179593E+03  0.24371228153E+03  0.00000000000E+00 0. -1.
         -5    1    3    3    0  503 -0.10545473214E+02 -0.41531248121E+02 -0.29420678879E+03  0.29734790422E+03  0.47000000000E+01 0.  1.
         13    1    4    4    0    0 -0.11614120172E+02  0.21231717383E+02 -0.18284893877E+03  0.18444350902E+03  0.00000000000E+00 0. -1.
        -14    1    4    4    0    0 -0.38547086384E+02  0.67971788277E+02 -0.11196991781E+03  0.13654048617E+03  0.00000000000E+00 0.  1.
</event>
<event>
12    1  0.8724767E-002  0.2324113E+03  0.7818608E-02  0.1125026E+00
         21   -1    0    0  501  502  0.00000000000E+00  0.00000000000E+00  0.16879268386E+03  0.16879268386E+03  0.00000000000E+00 0. -1.
         21   -1    0    0  502  503 -0.00000000000E+00 -0.00000000000E+00 -0.40091755120E+03  0.40091755120E+03  0.00000000000E+00 0. -1.
         -6    2    1    2    0  503  0.12011834411E+03 -0.98344361985E+02 -0.24439901969E+03  0.33697507874E+03  0.17239864482E+03 0.  0.
        -24    2    3    3    0    0  0.55239351507E+02 -0.10307302730E+03 -0.81737551269E+02  0.16172529338E+03  0.76148593690E+02 0.  0.
          6    2    1    2  501    0 -0.12011834411E+03  0.98344361985E+02  0.12274152344E+02  0.23273515632E+03  0.17295944046E+03 0.  0.
         24    2    5    5    0    0 -0.24340134315E+02 -0.16984897423E+02  0.25883729242E+01  0.82434764204E+02  0.76862616375E+02 0.  0.
          5    1    5    5  501    0 -0.95778209799E+02  0.11532925941E+03  0.96857794199E+01  0.15030039212E+03  0.47000000000E+01 0. -1.
        -13    1    6    6    0    0 -0.44172863429E+01 -0.16044037457E+02  0.38172550836E+02  0.41642132437E+02  0.00000000000E+00 0.  1.
         14    1    6    6    0    0 -0.19922847973E+02 -0.94085996598E+00 -0.35584177912E+02  0.40792631767E+02  0.00000000000E+00 0. -1.
         -5    1    3    3    0  503  0.64878992608E+02  0.47286653105E+01 -0.16266146842E+03  0.17524978536E+03  0.47000000000E+01 0.  1.
         11    1    4    4    0    0  0.73271766372E+02 -0.91694792245E+02 -0.75303458317E+02  0.13945356757E+03  0.00000000000E+00 0. -1.
        -12    1    4    4    0    0 -0.18032414865E+02 -0.11378235051E+02 -0.64340929518E+01  0.22271725816E+02  0.00000000000E+00 0.  1.
</event>
<event>
12    1  0.8724767E-002  0.1946898E+03  0.7818608E-02  0.1154472E+00
         21   -1    0    0  503  502  0.00000000000E+00  0.00000000000E+00  0.77134163793E+03  0.77134163793E+03  0.00000000000E+00 0. -1.
         21   -1    0    0  501  503 -0.00000000000E+00 -0.00000000000E+00 -0.61723018966E+02  0.61723018966E+02  0.00000000000E+00 0. -1.
          6    2    1    2  501    0  0.69427971213E+02  0.55580457898E+02  0.16582838768E+03  0.25574040553E+03  0.17318969477E+03 0.  0.
         24    2    3    3    0    0  0.92991710250E+02 -0.93213398096E+01  0.82058790546E+02  0.14708071408E+03  0.78515895180E+02 0.  0.
         -6    2    1    2    0  502 -0.69427971213E+02 -0.55580457898E+02  0.54379023128E+03  0.57732425136E+03  0.17229638733E+03 0.  0.
        -24    2    5    5    0    0 -0.59374821014E+02 -0.39461609474E+02  0.54714893970E+03  0.55746842034E+03  0.79476345321E+02 0.  0.
          5    1    3    3  501    0 -0.23563739038E+02  0.64901797708E+02  0.83769597136E+02  0.10865969146E+03  0.47000000000E+01 0. -1.
        -13    1    4    4    0    0  0.15732524727E+02  0.26123278454E+02  0.44982316500E+02  0.54344703598E+02  0.00000000000E+00 0.  1.
         14    1    4    4    0    0  0.77259185523E+02 -0.35444618264E+02  0.37076474046E+02  0.92736010477E+02  0.00000000000E+00 0. -1.
         -5    1    5    5    0  502 -0.10053150199E+02 -0.16118848424E+02 -0.33587084198E+01  0.19855831025E+02  0.47000000000E+01 0.  1.
         13    1    6    6    0    0  0.16814552958E+02 -0.15088521107E+02  0.19738384154E+03  0.19867252845E+03  0.00000000000E+00 0. -1.
        -14    1    6    6    0    0 -0.76189373972E+02 -0.24373088368E+02  0.34976509816E+03  0.35879589188E+03  0.00000000000E+00 0.  1.
</event>
<event>
12    1  0.8724767E-002  0.3182052E+03  0.7818608E-02  0.1076747E+00
         21   -1    0    0  501  502  0.00000000000E+00  0.00000000000E+00  0.16921171086E+03  0.16921171086E+03  0.00000000000E+00 0. -1.
         21   -1    0    0  502  503 -0.00000000000E+00 -0.00000000000E+00 -0.79383273065E+03  0.79383273065E+03  0.00000000000E+00 0. -1.
         -6    2    1    2    0  503 -0.18604944282E+03  0.18936514310E+03 -0.55301930476E+03  0.63688284552E+03  0.17121873402E+03 0.  0.
        -24    2    3    3    0    0 -0.14070118789E+03  0.53662764314E+02 -0.33497065772E+03  0.37604016820E+03  0.80773448727E+02 0.  0.
          6    2    1    2  501    0  0.18604944282E+03 -0.18936514310E+03 -0.71601715023E+02  0.32616159599E+03  0.17544522937E+03 0.  0.
         24    2    5    5    0    0  0.43696101081E+02 -0.11130212839E+03  0.56157515167E+01  0.14632017888E+03  0.84145974639E+02 0.  0.
          5    1    5    5  501    0  0.14235334174E+03 -0.78063014706E+02 -0.77217466540E+02  0.17984141711E+03  0.47000000000E+01 0. -1.
        -13    1    6    6    0    0  0.33922996153E+02 -0.12173011658E+03 -0.79458774365E+01  0.12661803947E+03  0.00000000000E+00 0.  1.
         14    1    6    6    0    0  0.97731049282E+01  0.10427988187E+02  0.13561628953E+02  0.19702139413E+02  0.00000000000E+00 0. -1.
         -5    1    3    3    0  503 -0.45348254928E+02  0.13570237878E+03 -0.21804864704E+03  0.26084267732E+03  0.47000000000E+01 0.  1.
         11    1    4    4    0    0 -0.10625776895E+03  0.72186655681E+02 -0.28477708476E+03  0.31240937042E+03  0.00000000000E+00 0. -1.
        -12    1    4    4    0    0 -0.34443418948E+02 -0.18523891367E+02 -0.50193572957E+02  0.63630797782E+02  0.00000000000E+00 0.  1.
</event>
<event>
12    1  0.8724767E-002  0.1796358E+03  0.7818608E-02  0.1168354E+00
         21   -1    0    0  501  502  0.00000000000E+00  0.00000000000E+00  0.36248261090E+03  0.36248261090E+03  0.00000000000E+00 0. -1.
         21   -1    0    0  502  503 -0.00000000000E+00 -0.00000000000E+00 -0.12490838314E+03  0.12490838314E+03  0.00000000000E+00 0. -1.
         -6    2    1    2    0  503 -0.47507713890E+02  0.16626418844E+02 -0.12755184988E+02  0.17927764918E+03  0.17159358983E+03 0.  0.
        -24    2    3    3    0    0 -0.49068830173E+02 -0.54979826137E+02  0.19745545857E+01  0.10600455295E+03  0.76174372350E+02 0.  0.
          6    2    1    2  501    0  0.47507713890E+02 -0.16626418844E+02  0.25032941275E+03  0.30811334486E+03  0.17244012791E+03 0.  0.
         24    2    5    5    0    0 -0.14345060602E+02  0.20097192465E+01  0.22449586572E+03  0.23838147620E+03  0.78851218976E+02 0.  0.
          5    1    5    5  501    0  0.61852774492E+02 -0.18636138091E+02  0.25833547025E+02  0.69731868663E+02  0.47000000000E+01 0. -1.
        -11    1    6    6    0    0  0.27755043435E+02 -0.13715811053E+02  0.13150733030E+03  0.13510234577E+03  0.00000000000E+00 0.  1.
         12    1    6    6    0    0 -0.42100104037E+02  0.15725530300E+02  0.92988535419E+02  0.10327913043E+03  0.00000000000E+00 0. -1.
         -5    1    3    3    0  503  0.15611162830E+01  0.71606244981E+02 -0.14729739574E+02  0.73273096238E+02  0.47000000000E+01 0.  1.
         13    1    4    4    0    0  0.71469565739E+01 -0.48048692729E+02 -0.54353710308E+01  0.48880457439E+02  0.00000000000E+00 0. -1.
        -14    1    4    4    0    0 -0.56215786747E+02 -0.69311334083E+01  0.74099256165E+01  0.57124095507E+02  0.00000000000E+00 0.  1.
</event>
<event>
12    1  0.8724767E-002  0.1765691E+03  0.7818608E-02  0.1171624E+00
         21   -1    0    0  501  502  0.00000000000E+00  0.00000000000E+00  0.19593296152E+03  0.19593296152E+03  0.00000000000E+00 0. -1.
         21   -1    0    0  502  503 -0.00000000000E+00 -0.00000000000E+00 -0.26279459311E+03  0.26279459311E+03  0.00000000000E+00 0. -1.
         -6    2    1    2    0  503 -0.11909820027E+02  0.27834728760E+02 -0.17853251336E+03  0.24980880387E+03  0.17208708327E+03 0.  0.
        -24    2    3    3    0    0  0.11447792332E+02  0.46096021758E+02 -0.27326505876E+02  0.95651742484E+02  0.78400400162E+02 0.  0.
          6    2    1    2  501    0  0.11909820027E+02 -0.27834728760E+02  0.11167088177E+03  0.20891875076E+03  0.17395413949E+03 0.  0.
         24    2    5    5    0    0  0.34155504787E+02  0.18132547165E+02  0.35791282866E+01  0.89278548000E+02  0.80389434628E+02 0.  0.
          5    1    5    5  501    0 -0.22245684761E+02 -0.45967275924E+02  0.10809175348E+03  0.11964020276E+03  0.47000000000E+01 0. -1.
        -13    1    6    6    0    0  0.45560694068E+02  0.32226302882E+02  0.25055444153E+02  0.61172597812E+02  0.00000000000E+00 0.  1.
         14    1    6    6    0    0 -0.11405189281E+02 -0.14093755718E+02 -0.21476315867E+02  0.28105950188E+02  0.00000000000E+00 0. -1.
         -5    1    3    3    0  503 -0.23357612359E+02 -0.18261292998E+02 -0.15120600748E+03  0.15415706139E+03  0.47000000000E+01 0.  1.
         11    1    4    4    0    0 -0.10395384564E+02  0.40922032073E+02 -0.48839529683E+02  0.64559866704E+02  0.00000000000E+00 0. -1.
        -12    1    4    4    0    0  0.21843176896E+02  0.51739896851E+01  0.21513023807E+02  0.31091875779E+02  0.00000000000E+00 0.  1.
</event>
<event>
12    1  0.8724767E-002  0.1838700E+03  0.7818608E-02  0.1164175E+00
         21   -1    0    0  503  502  0.00000000000E+00  0.00000000000E+00  0.32673859997E+02  0.32673859997E+02  0.00000000000E+00 0. -1.
         21   -1    0    0  501  503 -0.00000000000E+00 -0.00000000000E+00 -0.11468531508E+04  0.11468531508E+04  0.00000000000E+00 0. -1.
          6    2    1    2  501    0  0.42624714085E+02  0.47384286218E+02 -0.74316258141E+03  0.76557090656E+03  0.17247044308E+03 0.  0.
         24    2    3    3    0    0  0.30549384612E+01  0.20259050412E+02 -0.68546886022E+03  0.69038978509E+03  0.79691500537E+02 0.  0.
         -6    2    1    2    0  502 -0.42624714085E+02 -0.47384286218E+02 -0.37101670938E+03  0.41395610422E+03  0.17217468093E+03 0.  0.
        -24    2    5    5    0    0 -0.32215374180E+02  0.15399890811E+01 -0.83731983687E+02  0.12231155569E+03  0.83119610585E+02 0.  0.
          5    1    3    3  501    0  0.39569775624E+02  0.27125235806E+02 -0.57693721189E+02  0.75181121468E+02  0.47000000000E+01 0. -1.
        -13    1    4    4    0    0 -0.10019039422E+02 -0.29314599487E+02 -0.24851567280E+03  0.25043914734E+03  0.00000000000E+00 0.  1.
         14    1    4    4    0    0  0.13073977883E+02  0.49573649899E+02 -0.43695318742E+03  0.43995063775E+03  0.00000000000E+00 0. -1.
         -5    1    5    5    0  502 -0.10409339905E+02 -0.48924275299E+02 -0.28728472569E+03  0.29164454853E+03  0.47000000000E+01 0.  1.
         13    1    6    6    0    0 -0.42623364018E+02 -0.31970872840E+02 -0.42398562028E+02  0.68092040154E+02  0.00000000000E+00 0. -1.
        -14    1    6    6    0    0  0.10407989838E+02  0.33510861921E+02 -0.41333421660E+02  0.54219515539E+02  0.00000000000E+00 0.  1.
</event>
<event>
12    1  0.8724767E-002  0.1842058E+03  0.7818608E-02  0.1164682E+00
         21   -1    0    0  503  502  0.00000000000E+00  0.00000000000E+00  0.31679568263E+03  0.31679568263E+03  0.00000000000E+00 0. -1.
         21   -1    0    0  501  503 -0.00000000000E+00 -0.00000000000E+00 -0.18057197562E+03  0.18057197562E+03  0.00000000000E+00 0. -1.
          6    2    1    2  501    0 -0.59264197227E+02 -0.30670677367E+02 -0.93229900421E+02  0.20312160804E+03  0.16767121935E+03 0.  0.
         24    2    3    3    0    0 -0.30764866441E+01 -0.37352256874E+02  0.65134151452E+01  0.88350002992E+02  0.79741097235E+02 0.  0.
         -6    2    1    2    0  502  0.59264197227E+02  0.30670677367E+02  0.22945360743E+03  0.29424605021E+03  0.17169404352E+03 0.  0.
        -24    2    5    5    0    0  0.77601622933E+02  0.56439402056E+02  0.95497787275E+02  0.15652698796E+03  0.78571321741E+02 0.  0.
          5    1    3    3  501    0 -0.56187710583E+02  0.66815795065E+01 -0.99743315566E+02  0.11477160505E+03  0.47000000000E+01 0. -1.
        -11    1    4    4    0    0  0.36588791581E+02 -0.14298169943E+02 -0.82782660473E+01  0.40146071063E+02  0.00000000000E+00 0.  1.
         12    1    4    4    0    0 -0.39665278225E+02 -0.23054086931E+02  0.14791681192E+02  0.48203931928E+02  0.00000000000E+00 0. -1.
         -5    1    5    5    0  502 -0.18337425706E+02 -0.25768724689E+02  0.13395582015E+03  0.13771906225E+03  0.47000000000E+01 0.  1.
         11    1    6    6    0    0  0.81053627910E+01  0.34676573333E+02  0.71454068410E+02  0.79836367255E+02  0.00000000000E+00 0. -1.
        -12    1    6    6    0    0  0.69496260142E+02  0.21762828723E+02  0.24043718865E+02  0.76690620709E+02  0.00000000000E+00 0.  1.
</event>
<event>
12    1  0.8724767E-002  0.1832548E+03  0.7818608E-02  0.1164936E+00
         21   -1    0    0  503  502  0.00000000000E+00  0.00000000000E+00  0.14515901149E+03  0.14515901149E+03  0.00000000000E+00 0.  1.
         21   -1    0    0  501  503 -0.00000000000E+00 -0.00000000000E+00 -0.46234971284E+03  0.46234971284E+03  0.00000000000E+00 0. -1.
          6    2    1    2  501    0 -0.46284502303E+02 -0.32033594969E+02 -0.37368395164E+03  0.41574376562E+03  0.17330544301E+03 0.  0.
         24    2    3    3    0    0 -0.44718960680E+02  0.18000240525E+02 -0.34480096261E+03  0.35775969307E+03  0.82343791887E+02 0.  0.
         -6    2    1    2    0  502  0.46284502303E+02  0.32033594969E+02  0.56493250300E+02  0.19176495871E+03  0.17439583051E+03 0.  0.
        -24    2    5    5    0    0 -0.29662712576E+02  0.55502179617E+02  0.72151032576E+02  0.11061072247E+03  0.55394873084E+02 0.  0.
          5    1    3    3  501    0 -0.15655416227E+01 -0.50033835494E+02 -0.28882989033E+02  0.57984072557E+02  0.47000000000E+01 0. -1.
        -13    1    4    4    0    0 -0.56764433683E+02  0.31652374219E+02 -0.16978662755E+03  0.18180091479E+03  0.00000000000E+00 0.  1.
         14    1    4    4    0    0  0.12045473003E+02 -0.13652133694E+02 -0.17501433506E+03  0.17595877828E+03  0.00000000000E+00 0. -1.
         -5    1    5    5    0  502  0.75947214879E+02 -0.23468584647E+02 -0.15657782276E+02  0.81154236236E+02  0.47000000000E+01 0.  1.
         13    1    6    6    0    0 -0.33775676717E+00  0.32330856854E+02  0.35990491375E+01  0.32532315307E+02  0.00000000000E+00 0. -1.
        -14    1    6    6    0    0 -0.29324955809E+02  0.23171322763E+02  0.68551983438E+02  0.78078407163E+02  0.00000000000E+00 0.  1.
</event>
<event>
12    1  0.8724767E-002  0.1959305E+03  0.7818608E-02  0.1153614E+00
         21   -1    0    0  503  502  0.00000000000E+00  0.00000000000E+00  0.76407131632E+03  0.76407131632E+03  0.00000000000E+00 0. -1.
         21   -1    0    0  501  503 -0.00000000000E+00 -0.00000000000E+00 -0.51465439205E+02  0.51465439205E+02  0.00000000000E+00 0. -1.
          6    2    1    2  501    0 -0.71568870725E+02 -0.65856143149E+02  0.28085788784E+03  0.34141116768E+03  0.16799195638E+03 0.  0.
         24    2    3    3    0    0 -0.32678893912E+02 -0.12850721635E+02  0.25690628692E+03  0.27128432408E+03  0.79757714855E+02 0.  0.
         -6    2    1    2    0  502  0.71568870725E+02  0.65856143149E+02  0.43174798928E+03  0.47412558785E+03  0.17008707169E+03 0.  0.
        -24    2    5    5    0    0  0.11219721611E+03  0.65720478244E+02  0.32787519765E+03  0.36249079177E+03  0.83606413149E+02 0.  0.
          5    1    3    3  501    0 -0.38889976813E+02 -0.53005421514E+02  0.23951600912E+02  0.70126843595E+02  0.47000000000E+01 0. -1.
        -13    1    4    4    0    0  0.20607099847E+02  0.15535917333E+02  0.96519457272E+02  0.99910074184E+02  0.00000000000E+00 0.  1.
         14    1    4    4    0    0 -0.53285993759E+02 -0.28386638967E+02  0.16038682965E+03  0.17137424990E+03  0.00000000000E+00 0. -1.
         -5    1    5    5    0  502 -0.40628345390E+02  0.13566490501E+00  0.10387279163E+03  0.11163479607E+03  0.47000000000E+01 0.  1.
         11    1    6    6    0    0  0.11260179552E+03  0.38327115009E+02  0.20878554295E+03  0.24029052217E+03  0.00000000000E+00 0. -1.
        -12    1    6    6    0    0 -0.40457940840E+00  0.27393363235E+02  0.11908965470E+03  0.12220026960E+03  0.00000000000E+00 0.  1.
</event>
<event>
12    1  0.8724767E-002  0.1753197E+03  0.7818608E-02  0.1172587E+00
         21   -1    0    0  501  502  0.00000000000E+00  0.00000000000E+00  0.54049087250E+02  0.54049087250E+02  0.00000000000E+00 0. -1.
         21   -1    0    0  502  503 -0.00000000000E+00 -0.00000000000E+00 -0.63517546744E+03  0.63517546744E+03  0.00000000000E+00 0. -1.
         -6    2    1    2    0  503  0.28318482355E+02  0.12680469816E+02 -0.40446510562E+03  0.44082766085E+03  0.17255223600E+03 0.  0.
        -24    2    3    3    0    0 -0.13876445971E-01 -0.52727289029E+02 -0.29980804681E+03  0.31411504336E+03  0.77480502921E+02 0.  0.
          6    2    1    2  501    0 -0.28318482355E+02 -0.12680469816E+02 -0.17666127457E+03  0.24839689384E+03  0.17184027519E+03 0.  0.
         24    2    5    5    0    0 -0.83448946730E+02  0.83127092139E+01 -0.11055909863E+03  0.15967446527E+03  0.78992358638E+02 0.  0.
          5    1    5    5  501    0  0.55130464375E+02 -0.20993179030E+02 -0.66102175935E+02  0.88722428569E+02  0.47000000000E+01 0. -1.
        -11    1    6    6    0    0 -0.50606570456E+02 -0.33872271735E+02 -0.49168760433E+02  0.78268274341E+02  0.00000000000E+00 0.  1.
         12    1    6    6    0    0 -0.32842376274E+02  0.42184980948E+02 -0.61390338198E+02  0.81406190926E+02  0.00000000000E+00 0. -1.
         -5    1    3    3    0  503  0.28332358801E+02  0.65407758844E+02 -0.10465705881E+03  0.12671261749E+03  0.47000000000E+01 0.  1.
         13    1    4    4    0    0  0.20290666008E+02 -0.24506720777E+02 -0.36077085335E+02  0.48102459153E+02  0.00000000000E+00 0. -1.
        -14    1    4    4    0    0 -0.20304542454E+02 -0.28220568252E+02 -0.26373096148E+03  0.26601258421E+03  0.00000000000E+00 0.  1.
</event>
<event>
12    1  0.8724767E-002  0.2268858E+03  0.7818608E-02  0.1128950E+00
         21   -1    0    0  503  502  0.00000000000E+00  0.00000000000E+00  0.38452107994E+03  0.38452107994E+03  0.00000000000E+00 0. -1.
         21   -1    0    0  501  503 -0.00000000000E+00 -0.00000000000E+00 -0.14170461267E+03  0.14170461267E+03  0.00000000000E+00 0.  1.
          6    2    1    2  501    0  0.54542686277E+02 -0.13544047715E+03  0.58146501606E+02  0.23368478696E+03  0.17294084691E+03 0.  0.
         24    2    3    3    0    0 -0.27755312345E+02 -0.10362910225E+03  0.12870600908E+02  0.13440275770E+03  0.79931850427E+02 0.  0.
         -6    2    1    2    0  502 -0.54542686277E+02  0.13544047715E+03  0.18466996567E+03  0.29254090565E+03  0.17366104279E+03 0.  0.
        -24    2    5    5    0    0 -0.95618698713E+02  0.94157413689E+02  0.17187651599E+03  0.23273043432E+03  0.81322593488E+02 0.  0.
          5    1    3    3  501    0  0.82297998622E+02 -0.31811374893E+02  0.45275900697E+02  0.99282029259E+02  0.47000000000E+01 0. -1.
        -11    1    4    4    0    0 -0.34834271334E+02 -0.34070240896E+02 -0.25130726460E+02  0.54824822722E+02  0.00000000000E+00 0.  1.
         12    1    4    4    0    0  0.70789589887E+01 -0.69558861357E+02  0.38001327369E+02  0.79577934979E+02  0.00000000000E+00 0. -1.
         -5    1    5    5    0  502  0.41076012436E+02  0.41283063456E+02  0.12793449674E+02  0.59810471329E+02  0.47000000000E+01 0.  1.
         13    1    6    6    0    0 -0.75394657880E+02  0.89851379103E+02  0.88790434971E+02  0.14711004760E+03  0.00000000000E+00 0. -1.
        -14    1    6    6    0    0 -0.20224040833E+02  0.43060345860E+01  0.83086081022E+02  0.85620386714E+02  0.00000000000E+00 0.  1.
</event>
<event>
12    1  0.8724767E-002  0.1770512E+03  0.7818608E-02  0.1170689E+00
         21   -1    0    0  501  502  0.00000000000E+00  0.00000000000E+00  0.66839270497E+03  0.66839270497E+03  0.00000000000E+00 0.  1.
         21   -1    0    0  502  503 -0.00000000000E+00 -0.00000000000E+00 -0.61911373598E+02  0.61911373598E+02  0.00000000000E+00 0.  1.
         -6    2    1    2    0  503 -0.16750813785E+01 -0.40247356534E+02  0.48305486873E+03  0.51447721743E+03  0.17240111787E+03 0.  0.
        -24    2    3    3    0    0  0.56339026195E+02  0.84237209295E+01  0.26222619476E+03  0.28097795895E+03  0.83312611619E+02 0.  0.
          6    2    1    2  501    0  0.16750813785E+01  0.40247356534E+02  0.12342646264E+03  0.21582686113E+03  0.17240790789E+03 0.  0.
         24    2    5    5    0    0  0.18261019387E+02  0.89186018986E+02  0.63858087259E+02  0.13682959936E+03  0.79730001517E+02 0.  0.
          5    1    5    5  501    0 -0.16585938009E+02 -0.48938662452E+02  0.59568375379E+02  0.78997261772E+02  0.47000000000E+01 0. -1.
        -11    1    6    6    0    0  0.91505264376E+01 -0.12913880455E+02  0.19560994730E+02  0.25162133402E+02  0.00000000000E+00 0.  1.
         12    1    6    6    0    0  0.91104929495E+01  0.10209989944E+03  0.44297092528E+02  0.11166746596E+03  0.00000000000E+00 0. -1.
         -5    1    3    3    0  503 -0.58014107574E+02 -0.48671077463E+02  0.22082867398E+03  0.23349925848E+03  0.47000000000E+01 0.  1.
         13    1    4    4    0    0  0.27773829112E+02  0.43339430063E+02  0.17969324011E+03  0.18692071132E+03  0.00000000000E+00 0. -1.
        -14    1    4    4    0    0  0.28565197083E+02 -0.34915709133E+02  0.82532954651E+02  0.94057247632E+02  0.00000000000E+00 0.  1.
</event>
<event>
12    1  0.8724767E-002  0.1835069E+03  0.7818608E-02  0.1165599E+00
         21   -1    0    0  503  502  0.00000000000E+00  0.00000000000E+00  0.85041118840E+03  0.85041118840E+03  0.00000000000E+00 0.  1.
         21   -1    0    0  501  503 -0.00000000000E+00 -0.00000000000E+00 -0.17966298761E+03  0.17966298761E+03  0.00000000000E+00 0.  1.
          6    2    1    2  501    0 -0.30161350266E+02  0.58150226316E+02 -0.12198639333E+03  0.21637709686E+03  0.16627450802E+03 0.  0.
         24    2    3    3    0    0  0.22451948239E+02  0.66196442485E+02 -0.12644943868E+03  0.16275891386E+03  0.74932933483E+02 0.  0.
         -6    2    1    2    0  502  0.30161350266E+02 -0.58150226316E+02  0.79273459412E+03  0.81369707916E+03  0.17141658045E+03 0.  0.
        -24    2    5    5    0    0  0.74119887670E+02 -0.59453506628E+02  0.38136902813E+03  0.39996072539E+03  0.74146942210E+02 0.  0.
          5    1    3    3  501    0 -0.52613298505E+02 -0.80462161699E+01  0.44630453537E+01  0.53618182998E+02  0.47000000000E+01 0. -1.
        -13    1    4    4    0    0 -0.27078733676E+02  0.33123323908E+02 -0.48793890575E+02  0.64894192048E+02  0.00000000000E+00 0.  1.
         14    1    4    4    0    0  0.49530681915E+02  0.33073118578E+02 -0.77655548108E+02  0.97864721812E+02  0.00000000000E+00 0. -1.
         -5    1    5    5    0  502 -0.43958537404E+02  0.13032803126E+01  0.41136556598E+03  0.41373635377E+03  0.47000000000E+01 0.  1.
         11    1    6    6    0    0  0.22619654538E+02 -0.61693432474E+02  0.16655830466E+03  0.17905138154E+03  0.00000000000E+00 0. -1.
        -12    1    6    6    0    0  0.51500233131E+02  0.22399258459E+01  0.21481072347E+03  0.22090934385E+03  0.00000000000E+00 0.  1.
</event>
<event>
12    1  0.8724767E-002  0.1940252E+03  0.7818608E-02  0.1155161E+00
         21   -1    0    0  503  502  0.00000000000E+00  0.00000000000E+00  0.23902884988E+03  0.23902884988E+03  0.00000000000E+00 0.  1.
         21   -1    0    0  501  503 -0.00000000000E+00 -0.00000000000E+00 -0.28660132573E+03  0.28660132573E+03  0.00000000000E+00 0.  1.
          6    2    1    2  501    0  0.50864092422E+02  0.73522746785E+02 -0.20092655098E+03  0.27931568107E+03  0.17220052443E+03 0.  0.
         24    2    3    3    0    0  0.39155560616E+02 -0.24963243570E+02 -0.10914478870E+03  0.14410265692E+03  0.81833180159E+02 0.  0.
         -6    2    1    2    0  502 -0.50864092422E+02 -0.73522746785E+02  0.15335407513E+03  0.24631449454E+03  0.17076477292E+03 0.  0.
        -24    2    5    5    0    0 -0.42618131985E+02 -0.62488921278E+02  0.18248979242E+03  0.21374577963E+03  0.81630653037E+02 0.  0.
          5    1    3    3  501    0  0.11708531805E+02  0.98485990355E+02 -0.91781762278E+02  0.13521302415E+03  0.47000000000E+01 0. -1.
        -11    1    4    4    0    0  0.60378679061E+02  0.92639488401E+00 -0.65340661877E+02  0.88971035664E+02  0.00000000000E+00 0.  1.
         12    1    4    4    0    0 -0.21223118445E+02 -0.25889638454E+02 -0.43804126820E+02  0.55131621256E+02  0.00000000000E+00 0. -1.
         -5    1    5    5    0  502 -0.82459604363E+01 -0.11033825506E+02 -0.29135717294E+02  0.32568714912E+02  0.47000000000E+01 0.  1.
         11    1    6    6    0    0 -0.39808836867E+02  0.23265568978E+01  0.10710892725E+03  0.11429120113E+03  0.00000000000E+00 0. -1.
        -12    1    6    6    0    0 -0.28092951185E+01 -0.64815478176E+02  0.75380865174E+02  0.99454578500E+02  0.00000000000E+00 0.  1.
</event>
<event>
12    1  0.8724767E-002  0.3396350E+03  0.7818608E-02  0.1066961E+00
         21   -1    0    0  501  502  0.00000000000E+00  0.00000000000E+00  0.16199580810E+04  0.16199580810E+04  0.00000000000E+00 0.  1.
         21   -1    0    0  502  503 -0.00000000000E+00 -0.00000000000E+00 -0.84519746247E+02  0.84519746247E+02  0.00000000000E+00 0. -1.
         -6    2    1    2    0  503  0.23716478660E+03 -0.17164137878E+03  0.11061009057E+04  0.11570451256E+04  0.17200671549E+03 0.  0.
        -24    2    3    3    0    0  0.30584678507E+02 -0.62171664094E+02  0.36385816985E+03  0.37883864374E+03  0.79531200458E+02 0.  0.
          6    2    1    2  501    0 -0.23716478660E+03  0.17164137878E+03  0.42933742908E+03  0.54743270167E+03  0.17217443462E+03 0.  0.
         24    2    5    5    0    0 -0.19636241225E+03  0.72538072571E+02  0.34245110619E+03  0.40938335484E+03  0.80634993479E+02 0.  0.
          5    1    5    5  501    0 -0.40802374350E+02  0.99103306212E+02  0.86886322887E+02  0.13804934683E+03  0.47000000000E+01 0. -1.
        -11    1    6    6    0    0 -0.15207173448E+03  0.87951715608E+02  0.28967870942E+03  0.33878469770E+03  0.00000000000E+00 0.  1.
         12    1    6    6    0    0 -0.44290677770E+02 -0.15413643037E+02  0.52772396774E+02  0.70598657142E+02  0.00000000000E+00 0. -1.
         -5    1    3    3    0  503  0.20658010809E+03 -0.10946971469E+03  0.74224273582E+03  0.77820648183E+03  0.47000000000E+01 0.  1.
         13    1    4    4    0    0 -0.24658184154E+02 -0.21224786425E+02  0.72328691886E+02  0.79309250875E+02  0.00000000000E+00 0. -1.
        -14    1    4    4    0    0  0.55242862660E+02 -0.40946877669E+02  0.29152947797E+03  0.29952939286E+03  0.00000000000E+00 0.  1.
</event>
<event>
12    1  0.8724767E-002  0.2192810E+03  0.7818608E-02  0.1135009E+00
         21   -1    0    0  503  502  0.00000000000E+00  0.00000000000E+00  0.73729194467E+03  0.73729194467E+03  0.00000000000E+00 0.  1.
         21   -1    0    0  501  503 -0.00000000000E+00 -0.00000000000E+00 -0.16224818358E+03  0.16224818358E+03  0.00000000000E+00 0.  1.
          6    2    1    2  501    0 -0.89768354782E+02 -0.98717159326E+02 -0.62764394294E+02  0.22508969501E+03  0.17006635924E+03 0.  0.
         24    2    3    3    0    0 -0.70037357642E+02 -0.11716422889E+03 -0.21739768449E+01  0.15858484323E+03  0.80695342691E+02 0.  0.
         -6    2    1    2    0  502  0.89768354782E+02  0.98717159326E+02  0.63780815538E+03  0.67445043323E+03  0.17401353040E+03 0.  0.
        -24    2    5    5    0    0 -0.14945037697E+02  0.64985362626E+02  0.23125233783E+03  0.25324685840E+03  0.78802766641E+02 0.  0.
          5    1    3    3  501    0 -0.19730997140E+02  0.18447069563E+02 -0.60590417449E+02  0.66504851780E+02  0.47000000000E+01 0. -1.
        -13    1    4    4    0    0 -0.38543364678E+02 -0.41444807971E+01 -0.12687476323E+02  0.40788965876E+02  0.00000000000E+00 0.  1.
         14    1    4    4    0    0 -0.31493992964E+02 -0.11301974809E+03  0.10513499478E+02  0.11779587736E+03  0.00000000000E+00 0. -1.
         -5    1    5    5    0  502  0.10471339248E+03  0.33731796700E+02  0.40655581755E+03  0.42120357484E+03  0.47000000000E+01 0.  1.
         11    1    6    6    0    0  0.58679713295E+01 -0.13194517423E+02  0.97281028005E+01  0.17411615710E+02  0.00000000000E+00 0. -1.
        -12    1    6    6    0    0 -0.20813009027E+02  0.78179880049E+02  0.22152423503E+03  0.23583524269E+03  0.00000000000E+00 0.  1.
</event>
<event>
12    1  0.8724767E-002  0.3321820E+03  0.7818608E-02  0.1070196E+00
         21   -1    0    0  503  502  0.00000000000E+00  0.00000000000E+00  0.12387582128E+04  0.12387582128E+04  0.00000000000E+00 0.  1.
         21   -1    0    0  501  503 -0.00000000000E+00 -0.00000000000E+00 -0.10639584654E+03  0.10639584654E+03  0.00000000000E+00 0. -1.
          6    2    1    2  501    0  0.15126689662E+03 -0.24043499930E+03  0.29457032398E+03  0.44397807663E+03  0.17220393100E+03 0.  0.
         24    2    3    3    0    0  0.11092225117E+03 -0.20937171657E+03  0.30219726756E+03  0.39227819056E+03  0.80116969247E+02 0.  0.
         -6    2    1    2    0  502 -0.15126689662E+03  0.24043499930E+03  0.83779204227E+03  0.90117598270E+03  0.17184872070E+03 0.  0.
        -24    2    5    5    0    0 -0.10267388259E+03  0.24590203585E+03  0.75882871381E+03  0.80817884972E+03  0.79512884689E+02 0.  0.
          5    1    3    3  501    0  0.40344645455E+02 -0.31063282731E+02 -0.76269435852E+01  0.51699886067E+02  0.47000000000E+01 0. -1.
        -13    1    4    4    0    0  0.30565311381E+01 -0.49871325288E+02  0.10701161809E+03  0.11810155746E+03  0.00000000000E+00 0.  1.
         14    1    4    4    0    0  0.10786572003E+03 -0.15950039128E+03  0.19518564948E+03  0.27417663310E+03  0.00000000000E+00 0. -1.
         -5    1    5    5    0  502 -0.48593014034E+02 -0.54670365459E+01  0.78963328460E+02  0.92997132983E+02  0.47000000000E+01 0.  1.
         11    1    6    6    0    0 -0.26504869444E+02  0.15395336315E+02  0.14255617601E+03  0.14581422359E+03  0.00000000000E+00 0. -1.
        -12    1    6    6    0    0 -0.76169013145E+02  0.23050669953E+03  0.61627253781E+03  0.66236462613E+03  0.00000000000E+00 0.  1.
</event>
<event>
12    1  0.8724767E-002  0.2174020E+03  0.7818608E-02  0.1135981E+00
         21   -1    0    0  503  502  0.00000000000E+00  0.00000000000E+00  0.42970970393E+03  0.42970970393E+03  0.00000000000E+00 0. -1.
         21   -1    0    0  501  503 -0.00000000000E+00 -0.00000000000E+00 -0.18647139428E+03  0.18647139428E+03  0.00000000000E+00 0. -1.
          6    2    1    2  501    0  0.11139143209E+03  0.68705968880E+02 -0.76066676915E+02  0.23032531630E+03  0.17359450075E+03 0.  0.
         24    2    3    3    0    0 -0.14366493080E+02  0.39037717069E+02 -0.18207786921E+02  0.88674329511E+02  0.76166093062E+02 0.  0.
         -6    2    1    2    0  502 -0.11139143209E+03 -0.68705968880E+02  0.31930498656E+03  0.38585578190E+03  0.17262806457E+03 0.  0.
        -24    2    5    5    0    0 -0.13887056976E+03 -0.60714893492E+02  0.31224575126E+03  0.35600811706E+03  0.79202505000E+02 0.  0.
          5    1    3    3  501    0  0.12575792517E+03  0.29668251811E+02 -0.57858889995E+02  0.14165098679E+03  0.47000000000E+01 0. -1.
        -11    1    4    4    0    0  0.25126507350E+02  0.28303901196E+02  0.97835358822E+01  0.39091812044E+02  0.00000000000E+00 0.  1.
         12    1    4    4    0    0 -0.39493000430E+02  0.10733815873E+02 -0.27991322803E+02  0.49582517468E+02  0.00000000000E+00 0. -1.
         -5    1    5    5    0  502  0.27479137672E+02 -0.79910753873E+01  0.70592353043E+01  0.29847664835E+02  0.47000000000E+01 0.  1.
         11    1    6    6    0    0 -0.34199117422E+02 -0.56752387620E+02  0.12205405245E+03  0.13887982162E+03  0.00000000000E+00 0. -1.
        -12    1    6    6    0    0 -0.10467145234E+03 -0.39625058719E+01  0.19019169881E+03  0.21712829544E+03  0.00000000000E+00 0.  1.
</event>
<event>
12    1  0.8724767E-002  0.2530068E+03  0.7818608E-02  0.1111445E+00
         21   -1    0    0  501  502  0.00000000000E+00  0.00000000000E+00  0.12706979161E+03  0.12706979161E+03  0.00000000000E+00 0. -1.
         21   -1    0    0  502  503 -0.00000000000E+00 -0.00000000000E+00 -0.50846987145E+03  0.50846987145E+03  0.00000000000E+00 0. -1.
         -6    2    1    2    0  503 -0.78041523671E+02  0.16845992708E+03 -0.22226353110E+03  0.33664686935E+03  0.17164151870E+03 0.  0.
        -24    2    3    3    0    0 -0.10307939155E+03  0.15952998186E+03 -0.22978447448E+03  0.30862378354E+03  0.79828309378E+02 0.  0.
          6    2    1    2  501    0  0.78041523671E+02 -0.16845992708E+03 -0.15913654875E+03  0.29889279371E+03  0.17188145489E+03 0.  0.
         24    2    5    5    0    0  0.36497336764E+02 -0.10052103921E+03 -0.12156914357E+02  0.13166027631E+03  0.75829432783E+02 0.  0.
          5    1    5    5  501    0  0.41544186908E+02 -0.67938887862E+02 -0.14697963439E+03  0.16723251740E+03  0.47000000000E+01 0. -1.
        -13    1    6    6    0    0 -0.13526401288E+02 -0.61343145490E+02 -0.23590144299E+02  0.67100223088E+02  0.00000000000E+00 0.  1.
         14    1    6    6    0    0  0.50023738052E+02 -0.39177893725E+02  0.11433229942E+02  0.64560053224E+02  0.00000000000E+00 0. -1.
         -5    1    3    3    0  503  0.25037867876E+02  0.89299452181E+01  0.75209433819E+01  0.28023085817E+02  0.47000000000E+01 0.  1.
         13    1    4    4    0    0 -0.73804252412E+02  0.48151988854E+02 -0.75130274380E+02  0.11580258992E+03  0.00000000000E+00 0. -1.
        -14    1    4    4    0    0 -0.29275139135E+02  0.11137799300E+03 -0.15465420010E+03  0.19282119361E+03  0.00000000000E+00 0.  1.
</event>
<event>
12    1  0.8724767E-002  0.1800029E+03  0.7818608E-02  0.1167853E+00
         21   -1    0    0  503  502  0.00000000000E+00  0.00000000000E+00  0.58548981534E+03  0.58548981534E+03  0.00000000000E+00 0.  1.
         21   -1    0    0  501  503 -0.00000000000E+00 -0.00000000000E+00 -0.73813960178E+02  0.73813960178E+02  0.00000000000E+00 0.  1.
          6    2    1    2  501    0  0.34135082290E+02  0.41332279689E+02  0.90507206899E+02  0.20128187085E+03  0.17160791312E+03 0.  0.
         24    2    3    3    0    0  0.85483081962E+02  0.22749308909E+02  0.86595603151E+02  0.14633339938E+03  0.78037022819E+02 0.  0.
         -6    2    1    2    0  502 -0.34135082290E+02 -0.41332279689E+02  0.42116864826E+03  0.45802190467E+03  0.17183560076E+03 0.  0.
        -24    2    5    5    0    0  0.42512697518E+02 -0.19083799299E+02  0.14928055665E+03  0.17462271379E+03  0.77697404922E+02 0.  0.
          5    1    3    3  501    0 -0.51347999673E+02  0.18582970781E+02  0.39116037485E+01  0.54948471474E+02  0.47000000000E+01 0. -1.
        -11    1    4    4    0    0  0.74280072237E+02  0.48640467055E+02  0.73348671224E+02  0.11516706012E+03  0.00000000000E+00 0.  1.
         12    1    4    4    0    0  0.11203009725E+02 -0.25891158146E+02  0.13246931926E+02  0.31166339254E+02  0.00000000000E+00 0. -1.
         -5    1    5    5    0  502 -0.76647779808E+02 -0.22248480390E+02  0.27188809161E+03  0.28339919087E+03  0.47000000000E+01 0.  1.
         13    1    6    6    0    0  0.34470959044E+02  0.16906426076E+02  0.12426506035E+03  0.13006106059E+03  0.00000000000E+00 0. -1.
        -14    1    6    6    0    0  0.80417384741E+01 -0.35990225375E+02  0.25015496306E+02  0.44561653198E+02  0.00000000000E+00 0.  1.
</event>
<event>
12    1  0.8724767E-002  0.1971088E+03  0.7818608E-02  0.1153610E+00
         21   -1    0    0  503  502  0.00000000000E+00  0.00000000000E+00  0.15614789041E+03  0.15614789041E+03  0.00000000000E+00 0.  1.
         21   -1    0    0  501  503 -0.00000000000E+00 -0.00000000000E+00 -0.26731963424E+03  0.26731963424E+03  0.00000000000E+00 0.  1.
          6    2    1    2  501    0  0.82194301761E+02  0.10604652448E+01 -0.12149142265E+03  0.22608875114E+03  0.17204339507E+03 0.  0.
         24    2    3    3    0    0  0.94895837786E+02  0.28203482838E+02 -0.14001036871E+03  0.19054843904E+03  0.83097218970E+02 0.  0.
         -6    2    1    2    0  502 -0.82194301761E+02 -0.10604652448E+01  0.10319678812E+02  0.19737877351E+03  0.17915037436E+03 0.  0.
        -24    2    5    5    0    0 -0.12243124855E+03 -0.14180149801E+02 -0.20840192955E+01  0.15302700087E+03  0.90677630045E+02 0.  0.
          5    1    3    3  501    0 -0.12701536025E+02 -0.27143017593E+02  0.18518946056E+02  0.35540312104E+02  0.47000000000E+01 0. -1.
        -13    1    4    4    0    0  0.44961043873E+02  0.22081347338E+02 -0.12991455020E+03  0.13923674702E+03  0.00000000000E+00 0.  1.
         14    1    4    4    0    0  0.49934793912E+02  0.61221355002E+01 -0.10095818502E+02  0.51311692014E+02  0.00000000000E+00 0. -1.
         -5    1    5    5    0  502  0.40236946784E+02  0.13119684556E+02  0.12403698108E+02  0.44351772638E+02  0.47000000000E+01 0.  1.
         11    1    6    6    0    0 -0.10948311320E+02  0.20590227158E+02  0.23899612827E+02  0.33391832361E+02  0.00000000000E+00 0. -1.
        -12    1    6    6    0    0 -0.11148293723E+03 -0.34770376959E+02 -0.25983632122E+02  0.11963516851E+03  0.00000000000E+00 0.  1.
</event>
<event>
12    1  0.8724767E-002  0.2606939E+03  0.7818608E-02  0.1108466E+00
         21   -1    0    0  503  502  0.00000000000E+00  0.00000000000E+00  0.11374053563E+04  0.11374053563E+04  0.00000000000E+00 0.  1.
         21   -1    0    0  501  503 -0.00000000000E+00 -0.00000000000E+00 -0.66901494169E+02  0.66901494169E+02  0.00000000000E+00 0. -1.
          6    2    1    2  501    0  0.17912044779E+03 -0.20071724184E+02  0.29558214919E+03  0.38670976935E+03  0.17230388813E+03 0.  0.
         24    2    3    3    0    0  0.59436510597E+02 -0.50935002228E+02  0.75176269471E+02  0.13396953004E+03  0.78544829512E+02 0.  0.
         -6    2    1    2    0  502 -0.17912044779E+03  0.20071724184E+02  0.77492171292E+03  0.81759708110E+03  0.18834626869E+03 0.  0.
        -24    2    5    5    0    0 -0.16747841813E+03  0.78313931025E+02  0.61361503894E+03  0.64563887517E+03  0.78383983008E+02 0.  0.
          5    1    3    3  501    0  0.11968393720E+03  0.30863278044E+02  0.22040587972E+03  0.25274023931E+03  0.47000000000E+01 0. -1.
        -13    1    4    4    0    0  0.14402322810E+02  0.13134832918E+02  0.46759490831E+02  0.50659655752E+02  0.00000000000E+00 0.  1.
         14    1    4    4    0    0  0.45034187787E+02 -0.64069835146E+02  0.28416778640E+02  0.83309874286E+02  0.00000000000E+00 0. -1.
         -5    1    5    5    0  502 -0.11642029666E+02 -0.58242206841E+02  0.16130667399E+03  0.17195820593E+03  0.47000000000E+01 0.  1.
         13    1    6    6    0    0 -0.94527876831E+02  0.64707151263E+02  0.25684501011E+03  0.28123281128E+03  0.00000000000E+00 0. -1.
        -14    1    6    6    0    0 -0.72950541297E+02  0.13606779761E+02  0.35677002882E+03  0.36440606389E+03  0.00000000000E+00 0.  1.
</event>
<event>
12    1  0.8724767E-002  0.1811399E+03  0.7818608E-02  0.1166926E+00
         21   -1    0    0  503  502  0.00000000000E+00  0.00000000000E+00  0.10466382099E+03  0.10466382099E+03  0.00000000000E+00 0.  1.
         21   -1    0    0  501  503 -0.00000000000E+00 -0.00000000000E+00 -0.31204306154E+03  0.31204306154E+03  0.00000000000E+00 0.  1.
          6    2    1    2  501    0  0.37083974331E+02 -0.40440869010E+02 -0.99529683589E+02  0.20668294410E+03  0.17262965107E+03 0.  0.
         24    2    3    3    0    0 -0.40107766570E+02 -0.51644194204E+02 -0.59939020191E+02  0.11908391450E+03  0.79451474607E+02 0.  0.
         -6    2    1    2    0  502 -0.37083974331E+02  0.40440869010E+02 -0.10784955696E+03  0.21002393844E+03  0.17166200145E+03 0.  0.
        -24    2    5    5    0    0 -0.21182757886E+02 -0.31389710457E+02 -0.10173795459E+03  0.13605149414E+03  0.82008380668E+02 0.  0.
          5    1    3    3  501    0  0.77191740901E+02  0.11203325194E+02 -0.39590663398E+02  0.87599029601E+02  0.47000000000E+01 0. -1.
        -11    1    4    4    0    0 -0.39735973921E+02  0.17163675076E+01 -0.51482014442E+02  0.65056063145E+02  0.00000000000E+00 0.  1.
         12    1    4    4    0    0 -0.37179264896E+00 -0.53360561711E+02 -0.84570057488E+01  0.54027851356E+02  0.00000000000E+00 0. -1.
         -5    1    5    5    0  502 -0.15901216445E+02  0.71830579467E+02 -0.61116023666E+01  0.73972444292E+02  0.47000000000E+01 0.  1.
         11    1    6    6    0    0 -0.52323211528E+02 -0.22762809140E+02 -0.55165188807E+02  0.79366630271E+02  0.00000000000E+00 0. -1.
        -12    1    6    6    0    0  0.31140453641E+02 -0.86269013172E+01 -0.46572765785E+02  0.56684863872E+02  0.00000000000E+00 0.  1.
</event>
<event>
12    1  0.8724767E-002  0.2410914E+03  0.7818608E-02  0.1119373E+00
         21   -1    0    0  501  502  0.00000000000E+00  0.00000000000E+00  0.12288384017E+03  0.12288384017E+03  0.00000000000E+00 0. -1.
         21   -1    0    0  502  503 -0.00000000000E+00 -0.00000000000E+00 -0.49879430679E+03  0.49879430679E+03  0.00000000000E+00 0.  1.
         -6    2    1    2    0  503 -0.46190641929E+02 -0.15944062909E+03 -0.26271860157E+03  0.35533723633E+03  0.17230379656E+03 0.  0.
        -24    2    3    3    0    0  0.26872326581E+02 -0.10602323276E+03 -0.20370539545E+03  0.24718796868E+03  0.87424000728E+02 0.  0.
          6    2    1    2  501    0  0.46190641929E+02  0.15944062909E+03 -0.11319186505E+03  0.26634091062E+03  0.17484333774E+03 0.  0.
         24    2    5    5    0    0 -0.41388212191E+02  0.67472632243E+02 -0.64125447359E+02  0.13011399890E+03  0.80944669379E+02 0.  0.
          5    1    5    5  501    0  0.87578854120E+02  0.91967996844E+02 -0.49066417687E+02  0.13622691172E+03  0.47000000000E+01 0. -1.
        -11    1    6    6    0    0  0.13156859417E+02 -0.86854609878E+01 -0.22818477093E+02  0.27734871176E+02  0.00000000000E+00 0.  1.
         12    1    6    6    0    0 -0.54545071608E+02  0.76158093231E+02 -0.41306970265E+02  0.10237912773E+03  0.00000000000E+00 0. -1.
         -5    1    3    3    0  503 -0.73062968509E+02 -0.53417396327E+02 -0.59013206125E+02  0.10814926766E+03  0.47000000000E+01 0.  1.
         11    1    4    4    0    0  0.50049631323E+02 -0.65920874592E+02 -0.80063812856E+02  0.11515529268E+03  0.00000000000E+00 0. -1.
        -12    1    4    4    0    0 -0.23177304743E+02 -0.40102358168E+02 -0.12364158259E+03  0.13203267600E+03  0.00000000000E+00 0.  1.
</event>
<event>
12    1  0.8724767E-002  0.1998416E+03  0.7818608E-02  0.1150129E+00
         21   -1    0    0  503  502  0.00000000000E+00  0.00000000000E+00  0.10098914164E+04  0.10098914164E+04  0.00000000000E+00 0. -1.
         21   -1    0    0  501  503 -0.00000000000E+00 -0.00000000000E+00 -0.42371100680E+02  0.42371100680E+02  0.00000000000E+00 0.  1.
          6    2    1    2  501    0  0.76767521970E+02 -0.63669888490E+02  0.62661880227E+03  0.65771407464E+03  0.17317497942E+03 0.  0.
         24    2    3    3    0    0  0.64711523945E+02 -0.86613029834E+02  0.61623358317E+03  0.62940016289E+03  0.68639185245E+02 0.  0.
         -6    2    1    2    0  502 -0.76767521970E+02  0.63669888490E+02  0.34090151346E+03  0.39454844244E+03  0.17177754343E+03 0.  0.
        -24    2    5    5    0    0 -0.10976188420E+03  0.12465368282E+02  0.21774844787E+03  0.25707372334E+03  0.80432928904E+02 0.  0.
          5    1    3    3  501    0  0.12055998025E+02  0.22943141345E+02  0.10385219104E+02  0.28313911757E+02  0.47000000000E+01 0. -1.
        -13    1    4    4    0    0 -0.65385913791E+01 -0.26437654535E+02  0.67316732750E+02  0.72617114117E+02  0.00000000000E+00 0.  1.
         14    1    4    4    0    0  0.71250115324E+02 -0.60175375300E+02  0.54891685042E+03  0.55678304877E+03  0.00000000000E+00 0. -1.
         -5    1    5    5    0  502  0.32994362235E+02  0.51204520208E+02  0.12315306559E+03  0.13747471910E+03  0.47000000000E+01 0.  1.
         11    1    6    6    0    0 -0.59814062160E+02 -0.32704267733E+02  0.12604862653E+03  0.14330229380E+03  0.00000000000E+00 0. -1.
        -12    1    6    6    0    0 -0.49947822044E+02  0.45169636014E+02  0.91699821343E+02  0.11377142954E+03  0.00000000000E+00 0.  1.
</event>
<event>
12    1  0.8724767E-002  0.1984684E+03  0.7818608E-02  0.1151538E+00
         21   -1    0    0  501  502  0.00000000000E+00  0.00000000000E+00  0.10291049596E+03  0.10291049596E+03  0.00000000000E+00 0.  1.
         21   -1    0    0  502  503 -0.00000000000E+00 -0.00000000000E+00 -0.42658810686E+03  0.42658810686E+03  0.00000000000E+00 0.  1.
         -6    2    1    2    0  503 -0.67224050188E+02 -0.72133548108E+02 -0.25009150344E+03  0.31782761312E+03  0.16954736766E+03 0.  0.
        -24    2    3    3    0    0 -0.10474317752E+03 -0.51587884654E+02 -0.13739067645E+03  0.19719024076E+03  0.79845788851E+02 0.  0.
          6    2    1    2  501    0  0.67224050188E+02  0.72133548108E+02 -0.73586107456E+02  0.21167098971E+03  0.17224218702E+03 0.  0.
         24    2    5    5    0    0  0.98880409157E+02  0.70828441302E+02 -0.16939869929E+02  0.14659630498E+03  0.80059440590E+02 0.  0.
          5    1    5    5  501    0 -0.31656358970E+02  0.13051068059E+01 -0.56646237527E+02  0.65074684732E+02  0.47000000000E+01 0. -1.
        -11    1    6    6    0    0  0.11512642166E+02  0.36415640039E+02 -0.34029309267E+02  0.51153041535E+02  0.00000000000E+00 0.  1.
         12    1    6    6    0    0  0.87367766991E+02  0.34412801263E+02  0.17089439338E+02  0.95443263443E+02  0.00000000000E+00 0. -1.
         -5    1    3    3    0  503  0.37519127335E+02 -0.20545663454E+02 -0.11270082700E+03  0.12063737235E+03  0.47000000000E+01 0.  1.
         13    1    4    4    0    0 -0.39265573073E+02 -0.62841858544E+01 -0.16245585038E+01  0.39798434780E+02  0.00000000000E+00 0. -1.
        -14    1    4    4    0    0 -0.65477604450E+02 -0.45303698799E+02 -0.13576611794E+03  0.15739180598E+03  0.00000000000E+00 0.  1.
</event>
<event>
12    1  0.8724767E-002  0.1819870E+03  0.7818608E-02  0.1166841E+00
         21   -1    0    0  501  502  0.00000000000E+00  0.00000000000E+00  0.68428777162E+02  0.68428777162E+02  0.00000000000E+00 0.  1.
         21   -1    0    0  502  503 -0.00000000000E+00 -0.00000000000E+00 -0.47395686556E+03  0.47395686556E+03  0.00000000000E+00 0.  1.
         -6    2    1    2    0  503 -0.33979198610E+02 -0.31582522835E+02 -0.19762849519E+03  0.26865647432E+03  0.17597510447E+03 0.  0.
        -24    2    3    3    0    0 -0.11510481585E+02  0.11917026245E+02 -0.20734365858E+03  0.21852137269E+03  0.66975300440E+02 0.  0.
          6    2    1    2  501    0  0.33979198610E+02  0.31582522835E+02 -0.20789959321E+03  0.27372916841E+03  0.17191095106E+03 0.  0.
         24    2    5    5    0    0  0.21516592189E+02 -0.32187153204E+02 -0.47643486260E+02  0.10073784505E+03  0.79870113760E+02 0.  0.
          5    1    5    5  501    0  0.12462606421E+02  0.63769676039E+02 -0.16025610695E+03  0.17299132336E+03  0.47000000000E+01 0. -1.
        -11    1    6    6    0    0  0.24749749556E+02  0.22503226316E+02 -0.12830699811E+02  0.35826975247E+02  0.00000000000E+00 0.  1.
         12    1    6    6    0    0 -0.32331573673E+01 -0.54690379519E+02 -0.34812786449E+02  0.64910869806E+02  0.00000000000E+00 0. -1.
         -5    1    3    3    0  503 -0.22468717025E+02 -0.43499549080E+02  0.97151633926E+01  0.50135101622E+02  0.47000000000E+01 0.  1.
         13    1    4    4    0    0  0.21240251240E+02 -0.10720821779E+02 -0.40305102519E+02  0.46803691964E+02  0.00000000000E+00 0. -1.
        -14    1    4    4    0    0 -0.32750732825E+02  0.22637848024E+02 -0.16703855606E+03  0.17171768073E+03  0.00000000000E+00 0.  1.
</event>
<event>
12    1  0.8724767E-002  0.1743132E+03  0.7818608E-02  0.1175067E+00
         21   -1    0    0  503  502  0.00000000000E+00  0.00000000000E+00  0.63710463640E+03  0.63710463640E+03  0.00000000000E+00 0. -1.
         21   -1    0    0  501  503 -0.00000000000E+00 -0.00000000000E+00 -0.54843864020E+02  0.54843864020E+02  0.00000000000E+00 0. -1.
          6    2    1    2  501    0 -0.16411809932E+02 -0.18799134261E+02  0.14736559246E+03  0.22342003364E+03  0.16606365839E+03 0.  0.
         24    2    3    3    0    0 -0.32173501801E+01 -0.71260448562E+02  0.61623481207E+02  0.12193070953E+03  0.77338487310E+02 0.  0.
         -6    2    1    2    0  502  0.16411809932E+02  0.18799134261E+02  0.43489517992E+03  0.46852846678E+03  0.17251768520E+03 0.  0.
        -24    2    5    5    0    0  0.73549133051E+01  0.77631808882E+02  0.24543981557E+03  0.26988623546E+03  0.80728461685E+02 0.  0.
          5    1    3    3  501    0 -0.13194459752E+02  0.52461314301E+02  0.85742111248E+02  0.10148932411E+03  0.47000000000E+01 0. -1.
        -11    1    4    4    0    0  0.99602834303E+01 -0.30478111531E+02  0.71136640448E+02  0.78029123683E+02  0.00000000000E+00 0.  1.
         12    1    4    4    0    0 -0.13177633610E+02 -0.40782337031E+02 -0.95131592409E+01  0.43901585849E+02  0.00000000000E+00 0. -1.
         -5    1    5    5    0  502  0.90568966272E+01 -0.58832674622E+02  0.18945536435E+03  0.19864223131E+03  0.47000000000E+01 0.  1.
         13    1    6    6    0    0  0.16378950064E+02  0.71061160713E+02  0.24794429659E+03  0.25844599587E+03  0.00000000000E+00 0. -1.
        -14    1    6    6    0    0 -0.90240367593E+01  0.65706481693E+01 -0.25044810244E+01  0.11440239595E+02  0.00000000000E+00 0.  1.
</event>
<event>
12    1  0.8724767E-002  0.2007632E+03  0.7818608E-02  0.1149862E+00
         21   -1    0    0  503  502  0.00000000000E+00  0.00000000000E+00  0.57049947094E+03  0.57049947094E+03  0.00000000000E+00 0.  1.
         21   -1    0    0  501  503 -0.00000000000E+00 -0.00000000000E+00 -0.15862988861E+03  0.15862988861E+03  0.00000000000E+00 0.  1.
          6    2    1    2  501    0  0.53787158716E+02  0.87258425814E+02 -0.66690187402E+02  0.21155011135E+03  0.17262322323E+03 0.  0.
         24    2    3    3    0    0  0.11753525320E+02  0.11936471028E+03 -0.65555801150E+02  0.15843686752E+03  0.80116156346E+02 0.  0.
         -6    2    1    2    0  502 -0.53787158716E+02 -0.87258425814E+02  0.47855976973E+03  0.51757924820E+03  0.16840942268E+03 0.  0.
        -24    2    5    5    0    0 -0.29105344858E+02  0.82060932512E+00  0.11584316772E+03  0.14347694703E+03  0.79487107905E+02 0.  0.
          5    1    3    3  501    0  0.42033633396E+02 -0.32106284463E+02 -0.11343862519E+01  0.53113243835E+02  0.47000000000E+01 0. -1.
        -11    1    4    4    0    0 -0.33049169460E+02  0.32267148162E+02 -0.23833954196E+02  0.51975704181E+02  0.00000000000E+00 0.  1.
         12    1    4    4    0    0  0.44802694780E+02  0.87097562115E+02 -0.41721846955E+02  0.10646116334E+03  0.00000000000E+00 0. -1.
         -5    1    5    5    0  502 -0.24681813858E+02 -0.88079035139E+02  0.36271660202E+03  0.37410230117E+03  0.47000000000E+01 0.  1.
         11    1    6    6    0    0  0.11759625823E+02 -0.17855860527E+01 -0.71284449611E+01  0.13866933497E+02  0.00000000000E+00 0. -1.
        -12    1    6    6    0    0 -0.40864970681E+02  0.26061953778E+01  0.12297161268E+03  0.12961001353E+03  0.00000000000E+00 0.  1.
</event>
<event>
12    1  0.8724767E-002  0.2304962E+03  0.7818608E-02  0.1127175E+00
         21   -1    0    0  503  502  0.00000000000E+00  0.00000000000E+00  0.40207721839E+02  0.40207721839E+02  0.00000000000E+00 0. -1.
         21   -1    0    0  501  503 -0.00000000000E+00 -0.00000000000E+00 -0.12949055319E+04  0.12949055319E+04  0.00000000000E+00 0. -1.
          6    2    1    2  501    0  0.63136006149E+02  0.13226522017E+03 -0.64644757066E+03  0.68465430670E+03  0.17139665789E+03 0.  0.
         24    2    3    3    0    0 -0.31443624624E+02  0.51749341529E+02 -0.32967850836E+03  0.34437083355E+03  0.78972503109E+02 0.  0.
         -6    2    1    2    0  502 -0.63136006149E+02 -0.13226522017E+03 -0.60825023938E+03  0.65045894702E+03  0.17789953430E+03 0.  0.
        -24    2    5    5    0    0 -0.42201548459E+02 -0.10451191562E+03 -0.59832584443E+03  0.61400238317E+03  0.79381353157E+02 0.  0.
          5    1    3    3  501    0  0.94579630773E+02  0.80515878645E+02 -0.31676906230E+03  0.34028347315E+03  0.47000000000E+01 0. -1.
        -13    1    4    4    0    0 -0.36893338720E+02  0.43837164627E+02 -0.10606667216E+03  0.12055270378E+03  0.00000000000E+00 0.  1.
         14    1    4    4    0    0  0.54497140964E+01  0.79121769016E+01 -0.22361183620E+03  0.22381812978E+03  0.00000000000E+00 0. -1.
         -5    1    5    5    0  502 -0.20934457690E+02 -0.27753304550E+02 -0.99243949554E+01  0.36456563846E+02  0.47000000000E+01 0.  1.
         11    1    6    6    0    0 -0.26257175293E+02 -0.43592443757E+01 -0.52791665067E+02  0.59121926275E+02  0.00000000000E+00 0. -1.
        -12    1    6    6    0    0 -0.15944373166E+02 -0.10015267125E+03 -0.54553417936E+03  0.55488045689E+03  0.00000000000E+00 0.  1.
</event>
<event>
12    1  0.8724767E-002  0.1960195E+03  0.7818608E-02  0.1153291E+00
         21   -1    0    0  501  502  0.00000000000E+00  0.00000000000E+00  0.17093030764E+03  0.17093030764E+03  0.00000000000E+00 0. -1.
         21   -1    0    0  502  503 -0.00000000000E+00 -0.00000000000E+00 -0.39766479419E+03  0.39766479419E+03  0.00000000000E+00 0. -1.
         -6    2    1    2    0  503  0.42532557118E+02  0.85259728545E+02 -0.30135424567E+03  0.35949689917E+03  0.17130498943E+03 0.  0.
        -24    2    3    3    0    0  0.64504909612E+02 -0.30400107772E+01 -0.18999507980E+03  0.21561298046E+03  0.78871426811E+02 0.  0.
          6    2    1    2  501    0 -0.42532557118E+02 -0.85259728545E+02  0.74619759121E+02  0.20909820266E+03  0.17051601150E+03 0.  0.
         24    2    5    5    0    0 -0.90275634621E+02 -0.32078317565E+02  0.48272863819E+02  0.13278363776E+03  0.78246510538E+02 0.  0.
          5    1    5    5  501    0  0.47743077503E+02 -0.53181410980E+02  0.26346895302E+02  0.76314564897E+02  0.47000000000E+01 0. -1.
        -11    1    6    6    0    0 -0.56126584239E+02  0.20410712534E+02  0.33376644990E+02  0.68416307085E+02  0.00000000000E+00 0.  1.
         12    1    6    6    0    0 -0.34149050382E+02 -0.52489030099E+02  0.14896218829E+02  0.64367330674E+02  0.00000000000E+00 0. -1.
         -5    1    3    3    0  503 -0.21972352495E+02  0.88299739322E+02 -0.11135916587E+03  0.14388391871E+03  0.47000000000E+01 0.  1.
         11    1    4    4    0    0 -0.40507329093E+01  0.26752400367E+02 -0.55394562344E+02  0.61649467960E+02  0.00000000000E+00 0. -1.
        -12    1    4    4    0    0  0.68555642522E+02 -0.29792411144E+02 -0.13460051745E+03  0.15396351250E+03  0.00000000000E+00 0.  1.
</event>
<event>
12    1  0.8724767E-002  0.1755586E+03  0.7818608E-02  0.1172244E+00
         21   -1    0    0  501  502  0.00000000000E+00  0.00000000000E+00  0.19673900751E+03  0.19673900751E+03  0.00000000000E+00 0. -1.
         21   -1    0    0  502  503 -0.00000000000E+00 -0.00000000000E+00 -0.16588415520E+03  0.16588415520E+03  0.00000000000E+00 0. -1.
         -6    2    1    2    0  503 -0.20445111257E+02  0.31979844605E+02 -0.27910304121E+02  0.17776330108E+03  0.17140622247E+03 0.  0.
        -24    2    3    3    0    0 -0.72671694987E+02  0.22053392068E+02  0.12520100767E+02  0.11080915149E+03  0.79714413861E+02 0.  0.
          6    2    1    2  501    0  0.20445111257E+02 -0.31979844605E+02  0.58765156430E+02  0.18485986163E+03  0.17111140171E+03 0.  0.
         24    2    5    5    0    0 -0.26284123218E+02 -0.60607553516E+02  0.74006732201E+02  0.12778479962E+03  0.80547054105E+02 0.  0.
          5    1    5    5  501    0  0.46729234475E+02  0.28627708911E+02 -0.15241575771E+02  0.57075062016E+02  0.47000000000E+01 0. -1.
        -11    1    6    6    0    0  0.28130728218E+02 -0.26712619298E+02  0.18466715069E+02  0.42964188172E+02  0.00000000000E+00 0.  1.
         12    1    6    6    0    0 -0.54414851436E+02 -0.33894934218E+02  0.55540017133E+02  0.84820611443E+02  0.00000000000E+00 0. -1.
         -5    1    3    3    0  503  0.52226583730E+02  0.99264525379E+01 -0.40430404889E+02  0.66954149592E+02  0.47000000000E+01 0.  1.
         13    1    4    4    0    0 -0.23796844786E+01 -0.17286232428E+02  0.23757899735E+02  0.29477356218E+02  0.00000000000E+00 0. -1.
        -14    1    4    4    0    0 -0.70292010509E+02  0.39339624496E+02 -0.11237798968E+02  0.81331795274E+02  0.00000000000E+00 0.  1.
</event>
<event>
12    1  0.8724767E-002  0.1858608E+03  0.7818608E-02  0.1162689E+00
         21   -1    0    0  503  502  0.00000000000E+00  0.00000000000E+00  0.12180476136E+04  0.12180476136E+04  0.00000000000E+00 0. -1.
         21   -1    0    0  501  503 -0.00000000000E+00 -0.00000000000E+00 -0.32231738123E+02  0.32231738123E+02  0.00000000000E+00 0.  1.
          6    2    1    2  501    0 -0.31591261979E+02 -0.61847077617E+02  0.37098998455E+03  0.41494311305E+03  0.17239822965E+03 0.  0.
         24    2    3    3    0    0 -0.69144713792E+02 -0.56847134174E+02  0.15632202659E+03  0.19690714503E+03  0.79518926402E+02 0.  0.
         -6    2    1    2    0  502  0.31591261979E+02  0.61847077617E+02  0.81482589094E+03  0.83533623868E+03  0.17035941498E+03 0.  0.
        -24    2    5    5    0    0  0.13678807473E+02  0.10909531533E+03  0.56703670887E+03  0.58240379565E+03  0.74663608077E+02 0.  0.
          5    1    3    3  501    0  0.37553451813E+02 -0.49999434428E+01  0.21466795796E+03  0.21803596802E+03  0.47000000000E+01 0. -1.
        -11    1    4    4    0    0 -0.12581768749E+02 -0.58178919078E+02  0.10407684884E+03  0.11989611335E+03  0.00000000000E+00 0.  1.
         12    1    4    4    0    0 -0.56562945043E+02  0.13317849044E+01  0.52245177750E+02  0.77011031684E+02  0.00000000000E+00 0. -1.
         -5    1    5    5    0  502  0.17912454506E+02 -0.47248237712E+02  0.24778918206E+03  0.25293244304E+03  0.47000000000E+01 0.  1.
         13    1    6    6    0    0 -0.23369378620E+02  0.82975373605E+02  0.40950516543E+03  0.41848001266E+03  0.00000000000E+00 0. -1.
        -14    1    6    6    0    0  0.37048186094E+02  0.26119941724E+02  0.15753154345E+03  0.16392378299E+03  0.00000000000E+00 0.  1.
</event>
<event>
12    1  0.8724767E-002  0.2160944E+03  0.7818608E-02  0.1137586E+00
         21   -1    0    0  503  502  0.00000000000E+00  0.00000000000E+00  0.13449401076E+03  0.13449401076E+03  0.00000000000E+00 0. -1.
         21   -1    0    0  501  503 -0.00000000000E+00 -0.00000000000E+00 -0.38514396708E+03  0.38514396708E+03  0.00000000000E+00 0. -1.
          6    2    1    2  501    0 -0.25086757923E+02 -0.13094543485E+03 -0.21234515664E+03  0.30017485167E+03  0.16504067285E+03 0.  0.
         24    2    3    3    0    0  0.92670814423E+01 -0.21503451303E+02 -0.28441678875E+02  0.83379295499E+02  0.74799068205E+02 0.  0.
         -6    2    1    2    0  502  0.25086757923E+02  0.13094543485E+03 -0.38304799675E+02  0.21946312617E+03  0.17006102945E+03 0.  0.
        -24    2    5    5    0    0 -0.50169928356E+02  0.58266597716E+02 -0.30341089166E+02  0.11443316434E+03  0.79135006719E+02 0.  0.
          5    1    3    3  501    0 -0.34353839365E+02 -0.10944198355E+03 -0.18390347776E+03  0.21679555617E+03  0.47000000000E+01 0. -1.
        -11    1    4    4    0    0 -0.12249031890E+02 -0.42013169631E+02 -0.23470500556E+01  0.43825264958E+02  0.00000000000E+00 0.  1.
         12    1    4    4    0    0  0.21516113332E+02  0.20509718328E+02 -0.26094628820E+02  0.39554030541E+02  0.00000000000E+00 0. -1.
         -5    1    5    5    0  502  0.75256686279E+02  0.72678837137E+02 -0.79637105095E+01  0.10502996183E+03  0.47000000000E+01 0.  1.
         13    1    6    6    0    0 -0.56317337739E+00  0.39977880545E+02  0.17017984312E+02  0.43452961776E+02  0.00000000000E+00 0. -1.
        -14    1    6    6    0    0 -0.49606754978E+02  0.18288717171E+02 -0.47359073478E+02  0.70980202563E+02  0.00000000000E+00 0.  1.
</event>
<event>
12    1  0.8724767E-002  0.1998928E+03  0.7818608E-02  0.1150108E+00
         21   -1    0    0  503  502  0.00000000000E+00  0.00000000000E+00  0.94646010358E+02  0.94646010358E+02  0.00000000000E+00 0. -1.
         21   -1    0    0  501  503 -0.00000000000E+00 -0.00000000000E+00 -0.53508816623E+03  0.53508816623E+03  0.00000000000E+00 0. -1.
          6    2    1    2  501    0 -0.98105975023E+02 -0.11982745157E+02 -0.36605707838E+03  0.41644973439E+03  0.17223306341E+03 0.  0.
         24    2    3    3    0    0 -0.99716964912E+02 -0.63565949427E+02 -0.30410912871E+03  0.33568426703E+03  0.78850884243E+02 0.  0.
         -6    2    1    2    0  502  0.98105975023E+02  0.11982745157E+02 -0.74385077493E+02  0.21328444219E+03  0.17374908636E+03 0.  0.
        -24    2    5    5    0    0  0.69697649910E+02  0.38331653521E+02  0.13795294845E+02  0.11685225890E+03  0.84481135094E+02 0.  0.
          5    1    3    3  501    0  0.16109898889E+01  0.51583204270E+02 -0.61947949661E+02  0.80765467363E+02  0.47000000000E+01 0. -1.
        -11    1    4    4    0    0 -0.31091848369E+02 -0.65375979594E+01 -0.19183715402E+02  0.37114123440E+02  0.00000000000E+00 0.  1.
         12    1    4    4    0    0 -0.68625116543E+02 -0.57028351468E+02 -0.28492541331E+03  0.29857014359E+03  0.00000000000E+00 0. -1.
         -5    1    5    5    0  502  0.28408325113E+02 -0.26348908364E+02 -0.88180372337E+02  0.96432183286E+02  0.47000000000E+01 0.  1.
         11    1    6    6    0    0  0.66114090962E+02  0.62717270061E+02  0.76470053912E+01  0.91449470634E+02  0.00000000000E+00 0. -1.
        -12    1    6    6    0    0  0.35835589477E+01 -0.24385616540E+02  0.61482894534E+01  0.25402788271E+02  0.00000000000E+00 0.  1.
</event>
<event>
12    1  0.8724767E-002  0.2954500E+03  0.7818608E-02  0.1087598E+00
         21   -1    0    0  503  502  0.00000000000E+00  0.00000000000E+00  0.31492064643E+03  0.31492064643E+03  0.00000000000E+00 0.  1.
         21   -1    0    0  501  503 -0.00000000000E+00 -0.00000000000E+00 -0.38724678411E+03  0.38724678411E+03  0.00000000000E+00 0. -1.
          6    2    1    2  501    0 -0.13160340103E+03  0.19946876233E+03 -0.22369264055E+03  0.37019978290E+03  0.17292264026E+03 0.  0.
         24    2    3    3    0    0 -0.91688471688E+02  0.21025215220E+03 -0.14821972515E+03  0.28401548015E+03  0.77993350348E+02 0.  0.
         -6    2    1    2    0  502  0.13160340103E+03 -0.19946876233E+03  0.15136650286E+03  0.33196764765E+03  0.17373387288E+03 0.  0.
        -24    2    5    5    0    0  0.13276333898E+03 -0.22081311247E+03  0.12326735768E+03  0.29635053520E+03  0.79020651892E+02 0.  0.
          5    1    3    3  501    0 -0.39914929346E+02 -0.10783389866E+02 -0.75472915399E+02  0.86184302750E+02  0.47000000000E+01 0. -1.
        -11    1    4    4    0    0 -0.61350455734E+02  0.69412786291E+02 -0.29171656194E+02  0.97123626603E+02  0.00000000000E+00 0.  1.
         12    1    4    4    0    0 -0.30338015954E+02  0.14083936590E+03 -0.11904806895E+03  0.18689185355E+03  0.00000000000E+00 0. -1.
         -5    1    5    5    0  502 -0.11599379460E+01  0.21344350144E+02  0.28099145181E+02  0.35617112446E+02  0.47000000000E+01 0.  1.
         11    1    6    6    0    0  0.63947629713E+02 -0.12139488254E+03  0.22681079682E+02  0.13906994006E+03  0.00000000000E+00 0. -1.
        -12    1    6    6    0    0  0.68815709266E+02 -0.99418229932E+02  0.10058627800E+03  0.15728059514E+03  0.00000000000E+00 0.  1.
</event>
<event>
12    1  0.8724767E-002  0.2203882E+03  0.7818608E-02  0.1134087E+00
         21   -1    0    0  503  502  0.00000000000E+00  0.00000000000E+00  0.24183667244E+03  0.24183667244E+03  0.00000000000E+00 0.  1.
         21   -1    0    0  501  503 -0.00000000000E+00 -0.00000000000E+00 -0.26148802139E+03  0.26148802139E+03  0.00000000000E+00 0. -1.
          6    2    1    2  501    0  0.94482362925E+02 -0.99467874150E+02  0.11369296964E+03  0.24798594647E+03  0.17248235681E+03 0.  0.
         24    2    3    3    0    0  0.39876917949E+02 -0.10551517820E+03  0.20447796646E+02  0.13965738702E+03  0.79764979431E+02 0.  0.
         -6    2    1    2    0  502 -0.94482362925E+02  0.99467874150E+02 -0.13334431859E+03  0.25533874736E+03  0.16910468269E+03 0.  0.
        -24    2    5    5    0    0 -0.12955530865E+03  0.58940530619E+02 -0.79255655253E+02  0.17904818046E+03  0.74284775606E+02 0.  0.
          5    1    3    3  501    0  0.54605444977E+02  0.60473040543E+01  0.93245172994E+02  0.10832855946E+03  0.47000000000E+01 0. -1.
        -11    1    4    4    0    0 -0.20329319120E+02 -0.90535055695E+01  0.12844408422E+02  0.25694863430E+02  0.00000000000E+00 0.  1.
         12    1    4    4    0    0  0.60206237068E+02 -0.96461672635E+02  0.76033882244E+01  0.11396252359E+03  0.00000000000E+00 0. -1.
         -5    1    5    5    0  502  0.35072945726E+02  0.40527343531E+02 -0.54088663337E+02  0.76290566895E+02  0.47000000000E+01 0.  1.
         13    1    6    6    0    0 -0.13273885135E+03  0.60574488826E+02 -0.87449749174E+02  0.17010681934E+03  0.00000000000E+00 0. -1.
        -14    1    6    6    0    0  0.31835426994E+01 -0.16339582068E+01  0.81940939205E+01  0.89413611223E+01  0.00000000000E+00 0.  1.
</event>
<event>
12    1  0.8724767E-002  0.2476661E+03  0.7818608E-02  0.1114802E+00
         21   -1    0    0  501  502  0.00000000000E+00  0.00000000000E+00  0.91363774386E+03  0.91363774386E+03  0.00000000000E+00 0. -1.
         21   -1    0    0  502  503 -0.00000000000E+00 -0.00000000000E+00 -0.67117094840E+02  0.67117094840E+02  0.00000000000E+00 0.  1.
         -6    2    1    2    0  503 -0.15278931006E+03  0.91933812156E+02  0.42022420367E+03  0.48777750815E+03  0.17187820403E+03 0.  0.
        -24    2    3    3    0    0 -0.74897612283E+02 -0.17415263454E+01  0.29353246035E+03  0.31195068013E+03  0.74426045949E+02 0.  0.
          6    2    1    2  501    0  0.15278931006E+03 -0.91933812156E+02  0.42629644535E+03  0.49297733055E+03  0.17176026907E+03 0.  0.
         24    2    5    5    0    0  0.12506971579E+03 -0.11998207296E+03  0.26269477036E+03  0.32462449007E+03  0.79588853083E+02 0.  0.
          5    1    5    5  501    0  0.27719594272E+02  0.28048260802E+02  0.16360167498E+03  0.16835284048E+03  0.47000000000E+01 0. -1.
        -11    1    6    6    0    0  0.54419760872E+02 -0.50122009050E+02  0.48380565010E+02  0.88399124629E+02  0.00000000000E+00 0.  1.
         12    1    6    6    0    0  0.70649954918E+02 -0.69860063908E+02  0.21431420535E+03  0.23622536544E+03  0.00000000000E+00 0. -1.
         -5    1    3    3    0  503 -0.77891697778E+02  0.93675338501E+02  0.12669174332E+03  0.17582682802E+03  0.47000000000E+01 0.  1.
         13    1    4    4    0    0 -0.79629219798E+02  0.19938084039E+02  0.24925455791E+03  0.26242365458E+03  0.00000000000E+00 0. -1.
        -14    1    4    4    0    0  0.47316075150E+01 -0.21679610385E+02  0.44277902438E+02  0.49527025556E+02  0.00000000000E+00 0.  1.
</event>
<event>
12    1  0.8724767E-002  0.2222425E+03  0.7818608E-02  0.1132288E+00
         21   -1    0    0  503  502  0.00000000000E+00  0.00000000000E+00  0.11955397363E+03  0.11955397363E+03  0.00000000000E+00 0.  1.
         21   -1    0    0  501  503 -0.00000000000E+00 -0.00000000000E+00 -0.49767005482E+03  0.49767005482E+03  0.00000000000E+00 0.  1.
          6    2    1    2  501    0 -0.10011685195E+03 -0.98726097637E+02 -0.31662704491E+03  0.38663211379E+03  0.17164346608E+03 0.  0.
         24    2    3    3    0    0 -0.13770901965E+03 -0.81905236955E+02 -0.24230717893E+03  0.30153425891E+03  0.80857271800E+02 0.  0.
         -6    2    1    2    0  502  0.10011685195E+03  0.98726097637E+02 -0.61489036284E+02  0.23059191466E+03  0.17210898618E+03 0.  0.
        -24    2    5    5    0    0  0.86130412149E+02  0.11155196005E+03 -0.97747276428E+02  0.18939879359E+03  0.80343545331E+02 0.  0.
          5    1    3    3  501    0  0.37592167696E+02 -0.16820860682E+02 -0.74319865977E+02  0.85097854879E+02  0.47000000000E+01 0. -1.
        -13    1    4    4    0    0 -0.83599348459E+02 -0.91622009975E+02 -0.15761979001E+03  0.20056779895E+03  0.00000000000E+00 0.  1.
         14    1    4    4    0    0 -0.54109671188E+02  0.97167730194E+01 -0.84687388926E+02  0.10096645996E+03  0.00000000000E+00 0. -1.
         -5    1    5    5    0  502  0.13986439802E+02 -0.12825862416E+02  0.36258240143E+02  0.41193121068E+02  0.47000000000E+01 0.  1.
         11    1    6    6    0    0  0.19043026153E+02  0.87037009114E+02 -0.67750147207E+02  0.11192926448E+03  0.00000000000E+00 0. -1.
        -12    1    6    6    0    0  0.67087385996E+02  0.24514950939E+02 -0.29997129221E+02  0.77469529112E+02  0.00000000000E+00 0.  1.
</event>
<event>
12    1  0.8724767E-002  0.2324671E+03  0.7818608E-02  0.1127438E+00
         21   -1    0    0  501  502  0.00000000000E+00  0.00000000000E+00  0.20164808823E+03  0.20164808823E+03  0.00000000000E+00 0. -1.
         21   -1    0    0  502  503 -0.00000000000E+00 -0.00000000000E+00 -0.34618311270E+03  0.34618311270E+03  0.00000000000E+00 0. -1.
         -6    2    1    2    0  503  0.75333274029E+02  0.14010973470E+03 -0.21342485192E+03  0.30537137338E+03  0.14965182367E+03 0.  0.
        -24    2    3    3    0    0  0.11254491187E+02  0.38787575050E+02 -0.45199820096E+02  0.98746056006E+02  0.77952679812E+02 0.  0.
          6    2    1    2  501    0 -0.75333274029E+02 -0.14010973470E+03  0.68889827453E+02  0.24245982755E+03  0.16951436433E+03 0.  0.
         24    2    5    5    0    0 -0.11207107019E+03 -0.14373889237E+03  0.47491920678E+02  0.19953201761E+03  0.65854001906E+02 0.  0.
          5    1    5    5  501    0  0.36737796162E+02  0.36291576685E+01  0.21397906775E+02  0.42927809944E+02  0.47000000000E+01 0. -1.
        -11    1    6    6    0    0 -0.52177742683E+02 -0.29333382476E+02 -0.51510833406E+01  0.60079096353E+02  0.00000000000E+00 0.  1.
         12    1    6    6    0    0 -0.59893327508E+02 -0.11440550990E+03  0.52643004019E+02  0.13945292126E+03  0.00000000000E+00 0. -1.
         -5    1    3    3    0  503  0.64078782842E+02  0.10132215965E+03 -0.16822503182E+03  0.20662531737E+03  0.47000000000E+01 0.  1.
         13    1    4    4    0    0  0.10462300495E+02  0.62538798556E+02 -0.27500118022E+02  0.69114524868E+02  0.00000000000E+00 0. -1.
        -14    1    4    4    0    0  0.79219069154E+00 -0.23751223505E+02 -0.17699702074E+02  0.29631531138E+02  0.00000000000E+00 0.  1.
</event>
<event>
12    1  0.8724767E-002  0.2164931E+03  0.7818608E-02  0.1137648E+00
         21   -1    0    0  501  502  0.00000000000E+00  0.00000000000E+00  0.54250372832E+03  0.54250372832E+03  0.00000000000E+00 0.  1.
         21   -1    0    0  502  503 -0.00000000000E+00 -0.00000000000E+00 -0.10531697929E+03  0.10531697929E+03  0.00000000000E+00 0. -1.
         -6    2    1    2    0  503 -0.11171189115E+03 -0.59797235645E+02  0.36163042574E+03  0.41852169904E+03  0.16831099707E+03 0.  0.
        -24    2    3    3    0    0 -0.21453067627E+02 -0.35166164562E+02  0.52562491785E+02  0.95569035816E+02  0.68364697202E+02 0.  0.
          6    2    1    2  501    0  0.11171189115E+03  0.59797235645E+02  0.75556323294E+02  0.22929900857E+03  0.17553923017E+03 0.  0.
         24    2    5    5    0    0  0.11398435908E+03 -0.11121633420E+02  0.25228712113E+02  0.14218064916E+03  0.80391070618E+02 0.  0.
          5    1    5    5  501    0 -0.22724679367E+01  0.70918869065E+02  0.50327611181E+02  0.87118359415E+02  0.47000000000E+01 0. -1.
        -13    1    6    6    0    0  0.86362618422E+00 -0.20007245589E+02  0.20432967619E+02  0.28610171128E+02  0.00000000000E+00 0.  1.
         14    1    6    6    0    0  0.11312073290E+03  0.88856121693E+01  0.47957444939E+01  0.11357047803E+03  0.00000000000E+00 0. -1.
         -5    1    3    3    0  503 -0.90258823520E+02 -0.24631071083E+02  0.30906793395E+03  0.32295266322E+03  0.47000000000E+01 0.  1.
         13    1    4    4    0    0 -0.46024954587E+02 -0.28938451189E+02  0.38059968062E+02  0.66364836855E+02  0.00000000000E+00 0. -1.
        -14    1    4    4    0    0  0.24571886960E+02 -0.62277133725E+01  0.14502523723E+02  0.29204198961E+02  0.00000000000E+00 0.  1.
</event>
<event>
12    1  0.8724767E-002  0.1885218E+03  0.7818608E-02  0.1159950E+00
         21   -1    0    0  503  502  0.00000000000E+00  0.00000000000E+00  0.28368020563E+03  0.28368020563E+03  0.00000000000E+00 0.  1.
         21   -1    0    0  501  503 -0.00000000000E+00 -0.00000000000E+00 -0.53795824450E+03  0.53795824450E+03  0.00000000000E+00 0.  1.
          6    2    1    2  501    0  0.79723353366E+01 -0.73887031390E+02 -0.48719429977E+03  0.52239712628E+03  0.17325593865E+03 0.  0.
         24    2    3    3    0    0 -0.58813331912E+02 -0.46409728080E+02 -0.35204731415E+03  0.36909309741E+03  0.81728405586E+02 0.  0.
         -6    2    1    2    0  502 -0.79723353366E+01  0.73887031390E+02  0.23291626090E+03  0.29924132386E+03  0.17254719290E+03 0.  0.
        -24    2    5    5    0    0  0.17596440597E+02  0.58183700171E+02  0.46362437105E+02  0.11023133448E+03  0.79413436140E+02 0.  0.
          5    1    3    3  501    0  0.66785667249E+02 -0.27477303309E+02 -0.13514698561E+03  0.15330402887E+03  0.47000000000E+01 0. -1.
        -11    1    4    4    0    0 -0.70193071299E+02 -0.88062992559E+01 -0.24733013353E+03  0.25724854347E+03  0.00000000000E+00 0.  1.
         12    1    4    4    0    0  0.11379739386E+02 -0.37603428825E+02 -0.10471718063E+03  0.11184455394E+03  0.00000000000E+00 0. -1.
         -5    1    5    5    0  502 -0.25568775934E+02  0.15703331219E+02  0.18655382379E+03  0.18900998938E+03  0.47000000000E+01 0.  1.
         11    1    6    6    0    0  0.45506864319E+02  0.25401344697E+02  0.42043604661E+02  0.66960941641E+02  0.00000000000E+00 0. -1.
        -12    1    6    6    0    0 -0.27910423721E+02  0.32782355474E+02  0.43188324438E+01  0.43270392838E+02  0.00000000000E+00 0.  1.
</event>
<event>
12    1  0.8724767E-002  0.1774570E+03  0.7818608E-02  0.1170378E+00
         21   -1    0    0  503  502  0.00000000000E+00  0.00000000000E+00  0.25142134015E+03  0.25142134015E+03  0.00000000000E+00 0. -1.
         21   -1    0    0  501  503 -0.00000000000E+00 -0.00000000000E+00 -0.21542186970E+03  0.21542186970E+03  0.00000000000E+00 0.  1.
          6    2    1    2  501    0 -0.23038670195E+02 -0.33902351141E+02 -0.13324560604E+03  0.22161905975E+03  0.17228019729E+03 0.  0.
         24    2    3    3    0    0 -0.19655768618E+02 -0.78551313506E+02 -0.13554554975E+03  0.17653742707E+03  0.78969671444E+02 0.  0.
         -6    2    1    2    0  502  0.23038670195E+02  0.33902351141E+02  0.16924507648E+03  0.24522415010E+03  0.17265815399E+03 0.  0.
        -24    2    5    5    0    0 -0.36611871707E+02  0.65873321918E+02  0.11170557345E+03  0.15626789944E+03  0.79131520684E+02 0.  0.
          5    1    3    3  501    0 -0.33829015765E+01  0.44648962365E+02  0.22999437135E+01  0.45081632673E+02  0.47000000000E+01 0. -1.
        -13    1    4    4    0    0 -0.21328411300E+02 -0.18406306654E+02 -0.10566851288E+03  0.10935962632E+03  0.00000000000E+00 0.  1.
         14    1    4    4    0    0  0.16726426820E+01 -0.60145006853E+02 -0.29877036866E+02  0.67177800759E+02  0.00000000000E+00 0. -1.
         -5    1    5    5    0  502  0.59650541902E+02 -0.31970970777E+02  0.57539503036E+02  0.88956250659E+02  0.47000000000E+01 0.  1.
         13    1    6    6    0    0 -0.20786228790E+02  0.51957375375E+00  0.78626464070E+02  0.81329318922E+02  0.00000000000E+00 0. -1.
        -14    1    6    6    0    0 -0.15825642917E+02  0.65353748164E+02  0.33079109378E+02  0.74938580518E+02  0.00000000000E+00 0.  1.
</event>
<event>
12    1  0.8724767E-002  0.1769632E+03  0.7818608E-02  0.1171341E+00
         21   -1    0    0  503  502  0.00000000000E+00  0.00000000000E+00  0.98600773980E+03  0.98600773980E+03  0.00000000000E+00 0. -1.
         21   -1    0    0  501  503 -0.00000000000E+00 -0.00000000000E+00 -0.64360098152E+02  0.64360098152E+02  0.00000000000E+00 0. -1.
          6    2    1    2  501    0  0.31746308422E+01 -0.31229338626E+02  0.83276249108E+02  0.19352328825E+03  0.17184580169E+03 0.  0.
         24    2    3    3    0    0  0.52272370047E+02 -0.50491078109E+01 -0.22935064365E+00  0.93067986399E+02  0.76835560326E+02 0.  0.
         -6    2    1    2    0  502 -0.31746308422E+01  0.31229338626E+02  0.83837139254E+03  0.85684454970E+03  0.17415694258E+03 0.  0.
        -24    2    5    5    0    0 -0.11129104874E+02 -0.29760798091E+02  0.70320865686E+03  0.70827091291E+03  0.78330766029E+02 0.  0.
          5    1    3    3  501    0 -0.49097739205E+02 -0.26180230815E+02  0.83505599751E+02  0.10045530185E+03  0.47000000000E+01 0. -1.
        -11    1    4    4    0    0  0.46879493012E+02 -0.35768745196E+02  0.10874061041E+02  0.59961114078E+02  0.00000000000E+00 0.  1.
         12    1    4    4    0    0  0.53928770352E+01  0.30719637385E+02 -0.11103411685E+02  0.33106872321E+02  0.00000000000E+00 0. -1.
         -5    1    5    5    0  502  0.79544740321E+01  0.60990136718E+02  0.13516273567E+03  0.14857363679E+03  0.47000000000E+01 0.  1.
         11    1    6    6    0    0  0.21826033791E+02 -0.32269748146E+02  0.18751021979E+03  0.19151447705E+03  0.00000000000E+00 0. -1.
        -12    1    6    6    0    0 -0.32955138666E+02  0.25089500549E+01  0.51569843708E+03  0.51675643586E+03  0.00000000000E+00 0.  1.
</event>
<event>
12    1  0.8724767E-002  0.2028806E+03  0.7818608E-02  0.1147409E+00
         21   -1    0    0  503  502  0.00000000000E+00  0.00000000000E+00  0.10994110419E+03  0.10994110419E+03  0.00000000000E+00 0. -1.
         21   -1    0    0  501  503 -0.00000000000E+00 -0.00000000000E+00 -0.42403568166E+03  0.42403568166E+03  0.00000000000E+00 0. -1.
          6    2    1    2  501    0 -0.30890815492E+02 -0.10250946056E+03 -0.24890889603E+03  0.32088122694E+03  0.17189151024E+03 0.  0.
         24    2    3    3    0    0  0.33975086245E+02 -0.44494245804E+02 -0.63038101167E+02  0.11559266726E+03  0.79081085799E+02 0.  0.
         -6    2    1    2    0  502  0.30890815492E+02  0.10250946056E+03 -0.65185681440E+02  0.21309555891E+03  0.17233140217E+03 0.  0.
        -24    2    5    5    0    0 -0.35669854282E+02  0.65066430865E+02 -0.54774383626E+02  0.13587646570E+03  0.99780769186E+02 0.  0.
          5    1    3    3  501    0 -0.64865901737E+02 -0.58015214755E+02 -0.18587079486E+03  0.20528855968E+03  0.47000000000E+01 0. -1.
        -11    1    4    4    0    0 -0.14214506316E+02 -0.39204204655E+02 -0.83842355766E+01  0.42536070089E+02  0.00000000000E+00 0.  1.
         12    1    4    4    0    0  0.48189592561E+02 -0.52900411485E+01 -0.54653865590E+02  0.73056597173E+02  0.00000000000E+00 0. -1.
         -5    1    5    5    0  502  0.66560669774E+02  0.37443029694E+02 -0.10411297814E+02  0.77219093206E+02  0.47000000000E+01 0.  1.
         13    1    6    6    0    0 -0.96583670512E+01  0.32696189187E+02  0.27443896926E+02  0.43766337748E+02  0.00000000000E+00 0. -1.
        -14    1    6    6    0    0 -0.26011487230E+02  0.32370241678E+02 -0.82218280552E+02  0.92110127951E+02  0.00000000000E+00 0.  1.
</event>
<event>
12    1  0.8724767E-002  0.2118580E+03  0.7818608E-02  0.1140184E+00
         21   -1    0    0  503  502  0.00000000000E+00  0.00000000000E+00  0.16172407583E+03  0.16172407583E+03  0.00000000000E+00 0. -1.
         21   -1    0    0  501  503 -0.00000000000E+00 -0.00000000000E+00 -0.28309709281E+03  0.28309709281E+03  0.00000000000E+00 0.  1.
          6    2    1    2  501    0  0.12118746957E+03 -0.21518023884E+02 -0.27974977399E+02  0.21328925887E+03  0.17193103401E+03 0.  0.
         24    2    3    3    0    0  0.79340280562E+02 -0.71242248361E+02  0.16362479502E+02  0.13447564448E+03  0.80284681929E+02 0.  0.
         -6    2    1    2    0  502 -0.12118746957E+03  0.21518023884E+02 -0.93398039584E+02  0.23153190977E+03  0.17243666463E+03 0.  0.
        -24    2    5    5    0    0 -0.25882383687E+02  0.60098843146E+02 -0.16441241999E+02  0.10301740589E+03  0.77849230862E+02 0.  0.
          5    1    3    3  501    0  0.41847189012E+02  0.49724224478E+02 -0.44337456901E+02  0.78813614386E+02  0.47000000000E+01 0. -1.
        -11    1    4    4    0    0  0.83849519818E+02 -0.30652774679E+02 -0.28953112238E+01  0.89323666496E+02  0.00000000000E+00 0.  1.
         12    1    4    4    0    0 -0.45092392564E+01 -0.40589473682E+02  0.19257790726E+02  0.45151977987E+02  0.00000000000E+00 0. -1.
         -5    1    5    5    0  502 -0.95305085886E+02 -0.38580819263E+02 -0.76956797585E+02  0.12851450387E+03  0.47000000000E+01 0.  1.
         13    1    6    6    0    0  0.17974248219E+02 -0.79202551482E+01  0.27704938805E+01  0.19836322164E+02  0.00000000000E+00 0. -1.
        -14    1    6    6    0    0 -0.43856631907E+02  0.68019098295E+02 -0.19211735880E+02  0.83181083730E+02  0.00000000000E+00 0.  1.
</event>
<event>
12    1  0.8724767E-002  0.1777198E+03  0.7818608E-02  0.1171233E+00
         21   -1    0    0  503  502  0.00000000000E+00  0.00000000000E+00  0.45154273601E+02  0.45154273601E+02  0.00000000000E+00 0. -1.
         21   -1    0    0  501  503 -0.00000000000E+00 -0.00000000000E+00 -0.68238307413E+03  0.68238307413E+03  0.00000000000E+00 0. -1.
          6    2    1    2  501    0  0.33814637352E+02  0.98266810402E+00 -0.34149851653E+03  0.38497475728E+03  0.17447043192E+03 0.  0.
         24    2    3    3    0    0 -0.22827792380E+02  0.38438349292E+02 -0.27688074702E+03  0.29111934169E+03  0.78031456697E+02 0.  0.
         -6    2    1    2    0  502 -0.33814637352E+02 -0.98266810402E+00 -0.29573028400E+03  0.34256259045E+03  0.16955333133E+03 0.  0.
        -24    2    5    5    0    0 -0.28527258099E+00  0.55869030178E+02 -0.22889405991E+03  0.24851204685E+03  0.79020989978E+02 0.  0.
          5    1    3    3  501    0  0.56642429732E+02 -0.37455681188E+02 -0.64617769505E+02  0.93855415587E+02  0.47000000000E+01 0. -1.
        -11    1    4    4    0    0  0.23141830071E+02  0.19384720952E+02 -0.17670245743E+03  0.17926257325E+03  0.00000000000E+00 0.  1.
         12    1    4    4    0    0 -0.45969622451E+02  0.19053628340E+02 -0.10017828959E+03  0.11185676845E+03  0.00000000000E+00 0. -1.
         -5    1    5    5    0  502 -0.33529364771E+02 -0.56851698282E+02 -0.66836224089E+02  0.94050543592E+02  0.47000000000E+01 0.  1.
         11    1    6    6    0    0 -0.23040764974E+02  0.11098979762E+02 -0.16632997467E+03  0.16828465371E+03  0.00000000000E+00 0. -1.
        -12    1    6    6    0    0  0.22755492393E+02  0.44770050416E+02 -0.62564085240E+02  0.80227393141E+02  0.00000000000E+00 0.  1.
</event>
<event>
12    1  0.8724767E-002  0.2212131E+03  0.7818608E-02  0.1133319E+00
         21   -1    0    0  501  502  0.00000000000E+00  0.00000000000E+00  0.37679026179E+02  0.37679026179E+02  0.00000000000E+00 0. -1.
         21   -1    0    0  502  503 -0.00000000000E+00 -0.00000000000E+00 -0.13006954105E+04  0.13006954105E+04  0.00000000000E+00 0.  1.
         -6    2    1    2    0  503 -0.43398420769E+00 -0.13846823889E+03 -0.56311320028E+03  0.60434468137E+03  0.17018336009E+03 0.  0.
        -24    2    3    3    0    0  0.31569281848E+02 -0.14726139427E+03 -0.53150458428E+03  0.55827166079E+03  0.80545554435E+02 0.  0.
          6    2    1    2  501    0  0.43398420769E+00  0.13846823889E+03 -0.69990318401E+03  0.73402975528E+03  0.17251542864E+03 0.  0.
         24    2    5    5    0    0  0.65734500364E+02  0.66330030716E+02 -0.37457530268E+03  0.39442940360E+03  0.80914767078E+02 0.  0.
          5    1    5    5  501    0 -0.65300516156E+02  0.72138208169E+02 -0.32532788133E+03  0.33960035168E+03  0.47000000000E+01 0. -1.
        -13    1    6    6    0    0  0.75577234597E+02  0.75955783905E+02 -0.35238253057E+03  0.36831324623E+03  0.00000000000E+00 0.  1.
         14    1    6    6    0    0 -0.98427342336E+01 -0.96257531894E+01 -0.22192772108E+02  0.26116157365E+02  0.00000000000E+00 0. -1.
         -5    1    3    3    0  503 -0.32003266056E+02  0.87931553797E+01 -0.31608616001E+02  0.46073020579E+02  0.47000000000E+01 0.  1.
         11    1    4    4    0    0 -0.22123672313E+02 -0.16155112068E+02 -0.11912172449E+03  0.12223105075E+03  0.00000000000E+00 0. -1.
        -12    1    4    4    0    0  0.53692954161E+02 -0.13110628220E+03 -0.41238285979E+03  0.43604061004E+03  0.00000000000E+00 0.  1.
</event>
<event>
12    1  0.8724767E-002  0.2042308E+03  0.7818608E-02  0.1146344E+00
         21   -1    0    0  501  502  0.00000000000E+00  0.00000000000E+00  0.68571856591E+03  0.68571856591E+03  0.00000000000E+00 0. -1.
         21   -1    0    0  502  503 -0.00000000000E+00 -0.00000000000E+00 -0.13545079337E+03  0.13545079337E+03  0.00000000000E+00 0.  1.
         -6    2    1    2    0  503 -0.47999261687E+02 -0.98788676144E+02 -0.29807900002E+02  0.20639456204E+03  0.17218325319E+03 0.  0.
        -24    2    3    3    0    0 -0.13162728655E+02 -0.60887730394E+02  0.49016441255E+02  0.11213198995E+03  0.79312032617E+02 0.  0.
          6    2    1    2  501    0  0.47999261687E+02  0.98788676144E+02  0.58007567254E+03  0.61477479725E+03  0.17145592378E+03 0.  0.
         24    2    5    5    0    0 -0.13419045510E+02  0.87459818395E+02  0.22926627107E+03  0.25841840592E+03  0.79923456214E+02 0.  0.
          5    1    5    5  501    0  0.61418307197E+02  0.11328857749E+02  0.35080940148E+03  0.35635639133E+03  0.47000000000E+01 0. -1.
        -13    1    6    6    0    0 -0.36414600217E+02  0.87453295348E+02  0.19909071306E+03  0.22047950926E+03  0.00000000000E+00 0.  1.
         14    1    6    6    0    0  0.22995554707E+02  0.65230471223E-02  0.30175558005E+02  0.37938896659E+02  0.00000000000E+00 0. -1.
         -5    1    3    3    0  503 -0.34836533033E+02 -0.37900945750E+02 -0.78824341257E+02  0.94262572090E+02  0.47000000000E+01 0.  1.
         11    1    4    4    0    0  0.27262946541E+02 -0.21676415516E+02  0.43232405233E+02  0.55517349594E+02  0.00000000000E+00 0. -1.
        -12    1    4    4    0    0 -0.40425675196E+02 -0.39211314877E+02  0.57840360221E+01  0.56614640352E+02  0.00000000000E+00 0.  1.
</event>
<event>
12    1  0.8724767E-002  0.1853986E+03  0.7818608E-02  0.1162721E+00
         21   -1    0    0  501  502  0.00000000000E+00  0.00000000000E+00  0.15657608924E+03  0.15657608924E+03  0.00000000000E+00 0.  1.
         21   -1    0    0  502  503 -0.00000000000E+00 -0.00000000000E+00 -0.16794628244E+04  0.16794628244E+04  0.00000000000E+00 0.  1.
         -6    2    1    2    0  503  0.16723178290E+02 -0.66795585751E+02 -0.16174782263E+04  0.16280689390E+04  0.17213756921E+03 0.  0.
        -24    2    3    3    0    0 -0.65274211939E+01  0.30014849916E+02 -0.81505671049E+03  0.81948052095E+03  0.79293029058E+02 0.  0.
          6    2    1    2  501    0 -0.16723178290E+02  0.66795585751E+02  0.94591491087E+02  0.20796997465E+03  0.17193791089E+03 0.  0.
         24    2    5    5    0    0 -0.67183468222E+02  0.71960537136E+02  0.36111847662E+02  0.13041434121E+03  0.77536427209E+02 0.  0.
          5    1    5    5  501    0  0.50460289932E+02 -0.51649513850E+01  0.58479643425E+02  0.77555633438E+02  0.47000000000E+01 0. -1.
        -13    1    6    6    0    0 -0.78903447923E+02  0.35169432808E+02  0.29197810152E+02  0.91187472910E+02  0.00000000000E+00 0.  1.
         14    1    6    6    0    0  0.11719979701E+02  0.36791104328E+02  0.69140375093E+01  0.39226868299E+02  0.00000000000E+00 0. -1.
         -5    1    3    3    0  503  0.23250599484E+02 -0.96810435666E+02 -0.80242151577E+03  0.80858841805E+03  0.47000000000E+01 0.  1.
         11    1    4    4    0    0  0.31521768204E+01  0.17564950183E+01  0.25901167969E+00  0.36178143272E+01  0.00000000000E+00 0. -1.
        -12    1    4    4    0    0 -0.96795980142E+01  0.28258354898E+02 -0.81531572217E+03  0.81586270662E+03  0.00000000000E+00 0.  1.
</event>
<event>
12    1  0.8724767E-002  0.1818876E+03  0.7818608E-02  0.1166143E+00
         21   -1    0    0  501  502  0.00000000000E+00  0.00000000000E+00  0.73200877551E+02  0.73200877551E+02  0.00000000000E+00 0. -1.
         21   -1    0    0  502  503 -0.00000000000E+00 -0.00000000000E+00 -0.46268975117E+03  0.46268975117E+03  0.00000000000E+00 0. -1.
         -6    2    1    2    0  503 -0.42244954304E+02 -0.39033735279E+02 -0.23816645742E+03  0.29928636745E+03  0.17187437170E+03 0.  0.
        -24    2    3    3    0    0 -0.93323602254E+02 -0.38860615030E+02 -0.14919614077E+03  0.19658843421E+03  0.78537137119E+02 0.  0.
          6    2    1    2  501    0  0.42244954304E+02  0.39033735279E+02 -0.15132241620E+03  0.23660426127E+03  0.17255385870E+03 0.  0.
         24    2    5    5    0    0  0.90911735019E+02  0.30436974106E+01 -0.10322747131E+03  0.15915135884E+03  0.79993978081E+02 0.  0.
          5    1    5    5  501    0 -0.48666780715E+02  0.35990037868E+02 -0.48094944885E+02  0.77452902427E+02  0.47000000000E+01 0. -1.
        -13    1    6    6    0    0 -0.13727668960E+02  0.82622982252E+01 -0.98425467850E+01  0.18803994104E+02  0.00000000000E+00 0.  1.
         14    1    6    6    0    0  0.10463940398E+03 -0.52186008146E+01 -0.93384924527E+02  0.14034736474E+03  0.00000000000E+00 0. -1.
         -5    1    3    3    0  503  0.51078647950E+02 -0.17312024894E+00 -0.88970316653E+02  0.10269793324E+03  0.47000000000E+01 0.  1.
         13    1    4    4    0    0 -0.74092616442E+02 -0.61229128814E+02 -0.12885830693E+03  0.16075815777E+03  0.00000000000E+00 0. -1.
        -14    1    4    4    0    0 -0.19230985811E+02  0.22368513784E+02 -0.20337833842E+02  0.35830276437E+02  0.00000000000E+00 0.  1.
</event>
<event>
12    1  0.8724767E-002  0.1860462E+03  0.7818608E-02  0.1162540E+00
         21   -1    0    0  503  502  0.00000000000E+00  0.00000000000E+00  0.28060958949E+03  0.28060958949E+03  0.00000000000E+00 0. -1.
         21   -1    0    0  501  503 -0.00000000000E+00 -0.00000000000E+00 -0.28801259900E+03  0.28801259900E+03  0.00000000000E+00 0.  1.
          6    2    1    2  501    0  0.35832104584E+02 -0.60572867182E+02 -0.21953934821E+03  0.28776853834E+03  0.17222135258E+03 0.  0.
         24    2    3    3    0    0  0.53678908708E+01  0.32096272764E+02 -0.81598657414E+02  0.11875563352E+03  0.79909790537E+02 0.  0.
         -6    2    1    2    0  502 -0.35832104584E+02  0.60572867182E+02  0.21213633870E+03  0.28085365016E+03  0.17007038147E+03 0.  0.
        -24    2    5    5    0    0 -0.45332014000E+01  0.51357689625E+02  0.22518165971E+03  0.24540211651E+03  0.82808554617E+02 0.  0.
          5    1    3    3  501    0  0.30464213713E+02 -0.92669139946E+02 -0.13794069080E+03  0.16901290481E+03  0.47000000000E+01 0. -1.
        -13    1    4    4    0    0  0.35808606191E+02 -0.71924439153E+01 -0.36696482836E+02  0.51774698255E+02  0.00000000000E+00 0.  1.
         14    1    4    4    0    0 -0.30440715320E+02  0.39288716679E+02 -0.44902174577E+02  0.66980935267E+02  0.00000000000E+00 0. -1.
         -5    1    5    5    0  502 -0.31298903184E+02  0.92151775569E+01 -0.13045321013E+02  0.35451533651E+02  0.47000000000E+01 0.  1.
         11    1    6    6    0    0 -0.27561561606E+02  0.38183594156E+01  0.22014876712E+02  0.35480619265E+02  0.00000000000E+00 0. -1.
        -12    1    6    6    0    0  0.23028360206E+02  0.47539330209E+02  0.20316678300E+03  0.20992149724E+03  0.00000000000E+00 0.  1.
</event>
<event>
12    1  0.8724767E-002  0.1722406E+03  0.7818608E-02  0.1177769E+00
         21   -1    0    0  503  502  0.00000000000E+00  0.00000000000E+00  0.54558870772E+02  0.54558870772E+02  0.00000000000E+00 0.  1.
         21   -1    0    0  501  503 -0.00000000000E+00 -0.00000000000E+00 -0.79713249727E+03  0.79713249727E+03  0.00000000000E+00 0.  1.
          6    2    1    2  501    0 -0.33258998701E+02 -0.27318128291E+02 -0.62965764139E+03  0.65279060218E+03  0.16677644860E+03 0.  0.
         24    2    3    3    0    0  0.19231626480E+02  0.23726246178E+02 -0.28678283548E+03  0.30215401478E+03  0.90110286353E+02 0.  0.
         -6    2    1    2    0  502  0.33258998701E+02  0.27318128291E+02 -0.11291598511E+03  0.19890076586E+03  0.15798434682E+03 0.  0.
        -24    2    5    5    0    0  0.59820063687E+02  0.24661624876E+02 -0.13081353954E+03  0.16642062364E+03  0.79981285843E+02 0.  0.
          5    1    3    3  501    0 -0.52490625181E+02 -0.51044374469E+02 -0.34287480591E+03  0.35063658740E+03  0.47000000000E+01 0. -1.
        -11    1    4    4    0    0 -0.22395741954E+02  0.43074633376E+02 -0.12916289801E+03  0.13798567868E+03  0.00000000000E+00 0.  1.
         12    1    4    4    0    0  0.41627368435E+02 -0.19348387198E+02 -0.15761993747E+03  0.16416833610E+03  0.00000000000E+00 0. -1.
         -5    1    5    5    0  502 -0.26561064987E+02  0.26565034153E+01  0.17897554436E+02  0.32480142216E+02  0.47000000000E+01 0.  1.
         11    1    6    6    0    0 -0.13804416494E+02  0.38057238626E+01 -0.61595078884E+02  0.63237640623E+02  0.00000000000E+00 0. -1.
        -12    1    6    6    0    0  0.73624480181E+02  0.20855901013E+02 -0.69218460660E+02  0.10318298302E+03  0.00000000000E+00 0.  1.
</event>
<event>
12    1  0.8724767E-002  0.1844125E+03  0.7818608E-02  0.1165412E+00
         21   -1    0    0  503  502  0.00000000000E+00  0.00000000000E+00  0.20225096336E+03  0.20225096336E+03  0.00000000000E+00 0. -1.
         21   -1    0    0  501  503 -0.00000000000E+00 -0.00000000000E+00 -0.33043060493E+03  0.33043060493E+03  0.00000000000E+00 0. -1.
          6    2    1    2  501    0  0.19510985663E+02  0.39147741444E+02 -0.25525900205E+03  0.31490497718E+03  0.17915011108E+03 0.  0.
         24    2    3    3    0    0  0.73135124994E+02  0.53071273485E+02 -0.21363423119E+03  0.24544905869E+03  0.80251785643E+02 0.  0.
         -6    2    1    2    0  502 -0.19510985663E+02 -0.39147741444E+02  0.12707936048E+03  0.21777659112E+03  0.17136001738E+03 0.  0.
        -24    2    5    5    0    0 -0.80281155413E+02 -0.27890027702E+02  0.63243368234E+02  0.12879977641E+03  0.73258045412E+02 0.  0.
          5    1    3    3  501    0 -0.53624139331E+02 -0.13923532041E+02 -0.41624770865E+02  0.69455918488E+02  0.47000000000E+01 0. -1.
        -13    1    4    4    0    0  0.27156363224E+02 -0.10394016381E+02 -0.16788494475E+02  0.33576140142E+02  0.00000000000E+00 0.  1.
         14    1    4    4    0    0  0.45978761770E+02  0.63465289866E+02 -0.19684573671E+03  0.21187291855E+03  0.00000000000E+00 0. -1.
         -5    1    5    5    0  502  0.60770169750E+02 -0.11257713742E+02  0.63835992246E+02  0.88976814712E+02  0.47000000000E+01 0.  1.
         13    1    6    6    0    0 -0.38850005608E+01 -0.23934328278E+02  0.43488810364E+02  0.49791785732E+02  0.00000000000E+00 0. -1.
        -14    1    6    6    0    0 -0.76396154852E+02 -0.39556994239E+01  0.19754557870E+02  0.79007990677E+02  0.00000000000E+00 0.  1.
</event>
<event>
12    1  0.8724767E-002  0.1977221E+03  0.7818608E-02  0.1152052E+00
         21   -1    0    0  501  502  0.00000000000E+00  0.00000000000E+00  0.14865988032E+03  0.14865988032E+03  0.00000000000E+00 0.  1.
         21   -1    0    0  502  503 -0.00000000000E+00 -0.00000000000E+00 -0.45241781921E+03  0.45241781921E+03  0.00000000000E+00 0.  1.
         -6    2    1    2    0  503 -0.49038473678E+02 -0.81107729885E+02 -0.34793336473E+03  0.40018950404E+03  0.17352457205E+03 0.  0.
        -24    2    3    3    0    0 -0.89089728718E+01 -0.11785793966E+03 -0.23916952805E+03  0.27848240925E+03  0.79878190866E+02 0.  0.
          6    2    1    2  501    0  0.49038473678E+02  0.81107729885E+02  0.44175425841E+02  0.20088819549E+03  0.17152656673E+03 0.  0.
         24    2    5    5    0    0 -0.46680963699E+01 -0.69310973593E+01 -0.14438608059E+02  0.82174566374E+02  0.80463375033E+02 0.  0.
          5    1    5    5  501    0  0.53706570048E+02  0.88038827244E+02  0.58614033900E+02  0.11871362912E+03  0.47000000000E+01 0. -1.
        -11    1    6    6    0    0  0.36694952705E+02 -0.11964869771E+02 -0.12067772348E+02  0.40438951422E+02  0.00000000000E+00 0.  1.
         12    1    6    6    0    0 -0.41363049075E+02  0.50337724114E+01 -0.23708357114E+01  0.41735614952E+02  0.00000000000E+00 0. -1.
         -5    1    3    3    0  503 -0.40129500806E+02  0.36750209775E+02 -0.10876383667E+03  0.12170709479E+03  0.47000000000E+01 0.  1.
         13    1    4    4    0    0  0.58399267843E+00 -0.44249121272E+02 -0.22889272013E+02  0.49822129161E+02  0.00000000000E+00 0. -1.
        -14    1    4    4    0    0 -0.94929655502E+01 -0.73608818387E+02 -0.21628025604E+03  0.22866028009E+03  0.00000000000E+00 0.  1.
</event>
<event>
12    1  0.8724767E-002  0.1874878E+03  0.7818608E-02  0.1161168E+00
         21   -1    0    0  503  502  0.00000000000E+00  0.00000000000E+00  0.16396453934E+04  0.16396453934E+04  0.00000000000E+00 0. -1.
         21   -1    0    0  501  503 -0.00000000000E+00 -0.00000000000E+00 -0.23082775176E+02  0.23082775176E+02  0.00000000000E+00 0. -1.
          6    2    1    2  501    0  0.66396374079E+00 -0.76015031064E+02  0.57639915942E+03  0.60612512888E+03  0.17138539927E+03 0.  0.
         24    2    3    3    0    0 -0.60534668122E+02 -0.50553462701E+02  0.26694295397E+03  0.28961478608E+03  0.79988030409E+02 0.  0.
         -6    2    1    2    0  502 -0.66396374079E+00  0.76015031064E+02  0.10401634588E+04  0.10566030397E+04  0.16938487733E+03 0.  0.
        -24    2    5    5    0    0  0.50464974708E+02  0.11879425429E+02  0.41688337594E+03  0.42793166612E+03  0.81522557084E+02 0.  0.
          5    1    3    3  501    0  0.61198631862E+02 -0.25461568363E+02  0.30945620545E+03  0.31651034279E+03  0.47000000000E+01 0. -1.
        -13    1    4    4    0    0  0.12751781967E+02  0.10541413117E+02  0.48477078824E+02  0.51222617125E+02  0.00000000000E+00 0.  1.
         14    1    4    4    0    0 -0.73286450088E+02 -0.61094875818E+02  0.21846587515E+03  0.23839216896E+03  0.00000000000E+00 0. -1.
         -5    1    5    5    0  502 -0.51128938449E+02  0.64135605635E+02  0.62328008287E+03  0.62867137358E+03  0.47000000000E+01 0.  1.
         13    1    6    6    0    0  0.23884978029E+02  0.46578511733E+02  0.24980497697E+03  0.25523043794E+03  0.00000000000E+00 0. -1.
        -14    1    6    6    0    0  0.26579996679E+02 -0.34699086305E+02  0.16707839896E+03  0.17270122818E+03  0.00000000000E+00 0.  1.
</event>
<event>
12    1  0.8724767E-002  0.2396428E+03  0.7818608E-02  0.1120167E+00
         21   -1    0    0  501  502  0.00000000000E+00  0.00000000000E+00  0.13031593935E+03  0.13031593935E+03  0.00000000000E+00 0. -1.
         21   -1    0    0  502  503 -0.00000000000E+00 -0.00000000000E+00 -0.50406909008E+03  0.50406909008E+03  0.00000000000E+00 0. -1.
         -6    2    1    2    0  503 -0.86070351096E+02 -0.14214476267E+03 -0.73357220664E+02  0.25061912904E+03  0.17267144270E+03 0.  0.
        -24    2    3    3    0    0  0.19260375377E+02 -0.72229554826E+02 -0.18652563211E+02  0.11278811738E+03  0.82372147342E+02 0.  0.
          6    2    1    2  501    0  0.86070351096E+02  0.14214476267E+03 -0.30039593006E+03  0.38376590039E+03  0.17153807919E+03 0.  0.
         24    2    5    5    0    0  0.21039809788E+02  0.26324001852E+02 -0.19020764133E+03  0.21111895164E+03  0.85185904066E+02 0.  0.
          5    1    5    5  501    0  0.65030541308E+02  0.11582076082E+03 -0.11018828873E+03  0.17264694875E+03  0.47000000000E+01 0. -1.
        -11    1    6    6    0    0  0.21776162405E+02 -0.13474104490E+02 -0.11569765160E+02  0.28100039266E+02  0.00000000000E+00 0.  1.
         12    1    6    6    0    0 -0.73635261665E+00  0.39798106342E+02 -0.17863787617E+03  0.18301891238E+03  0.00000000000E+00 0. -1.
         -5    1    3    3    0  503 -0.10533072647E+03 -0.69915207843E+02 -0.54704657453E+02  0.13783101166E+03  0.47000000000E+01 0.  1.
         13    1    4    4    0    0  0.22147697340E+02 -0.90110429961E+02 -0.18787470509E+02  0.94675124152E+02  0.00000000000E+00 0. -1.
        -14    1    4    4    0    0 -0.28873219633E+01  0.17880875134E+02  0.13490729748E+00  0.18112993228E+02  0.00000000000E+00 0.  1.
</event>
<event>
12    1  0.8724767E-002  0.1732634E+03  0.7818608E-02  0.1174663E+00
         21   -1    0    0  503  502  0.00000000000E+00  0.00000000000E+00  0.20243221338E+03  0.20243221338E+03  0.00000000000E+00 0. -1.
         21   -1    0    0  501  503 -0.00000000000E+00 -0.00000000000E+00 -0.15817999974E+03  0.15817999974E+03  0.00000000000E+00 0. -1.
          6    2    1    2  501    0  0.32939484249E+01 -0.21543100658E+02  0.68480940740E+02  0.18566292592E+03  0.17119032547E+03 0.  0.
         24    2    3    3    0    0 -0.47459250867E+02 -0.31039797554E+02 -0.25105905375E+01  0.97754098129E+02  0.79584616046E+02 0.  0.
         -6    2    1    2    0  502 -0.32939484249E+01  0.21543100658E+02 -0.24228727103E+02  0.17494928720E+03  0.17188736601E+03 0.  0.
        -24    2    5    5    0    0 -0.15123098612E+02 -0.52462304927E+02 -0.24499311868E+02  0.99856730543E+02  0.79938406306E+02 0.  0.
          5    1    3    3  501    0  0.50753199292E+02  0.94966968959E+01  0.70991531278E+02  0.87908827791E+02  0.47000000000E+01 0. -1.
        -13    1    4    4    0    0  0.17933258413E+02  0.20722082495E+01 -0.14911306660E+02  0.23414586706E+02  0.00000000000E+00 0.  1.
         14    1    4    4    0    0 -0.65392509280E+02 -0.33112005803E+02  0.12400716122E+02  0.74339511423E+02  0.00000000000E+00 0. -1.
         -5    1    5    5    0  502  0.11829150187E+02  0.74005405584E+02  0.27058476560E+00  0.75092556662E+02  0.47000000000E+01 0.  1.
         13    1    6    6    0    0 -0.38449126775E+02 -0.24231025757E+02 -0.39565980430E+02  0.60257321268E+02  0.00000000000E+00 0. -1.
        -14    1    6    6    0    0  0.23326028163E+02 -0.28231279169E+02  0.15066668561E+02  0.39599409275E+02  0.00000000000E+00 0.  1.
</event>
<event>
12    1  0.8724767E-002  0.1809238E+03  0.7818608E-02  0.1167087E+00
         21   -1    0    0  503  502  0.00000000000E+00  0.00000000000E+00  0.22011442529E+03  0.22011442529E+03  0.00000000000E+00 0.  1.
         21   -1    0    0  501  503 -0.00000000000E+00 -0.00000000000E+00 -0.15234665079E+03  0.15234665079E+03  0.00000000000E+00 0.  1.
          6    2    1    2  501    0 -0.41410442604E+02  0.38278148506E+02  0.64857776980E+02  0.19151389688E+03  0.17114613654E+03 0.  0.
         24    2    3    3    0    0 -0.27406101516E+02  0.89701832726E+02  0.62074674558E+02  0.13793822584E+03  0.79850959493E+02 0.  0.
         -6    2    1    2    0  502  0.41410442604E+02 -0.38278148506E+02  0.29099975243E+01  0.18094717921E+03  0.17191094255E+03 0.  0.
        -24    2    5    5    0    0  0.79130432608E+02 -0.30145935827E+02 -0.39992712446E+02  0.12305362990E+03  0.79827163109E+02 0.  0.
          5    1    3    3  501    0 -0.14004341088E+02 -0.51423684220E+02  0.27831024215E+01  0.53575671038E+02  0.47000000000E+01 0. -1.
        -13    1    4    4    0    0 -0.21166954514E+02  0.64101828936E+02 -0.31630340484E+01  0.67580242828E+02  0.00000000000E+00 0.  1.
         14    1    4    4    0    0 -0.62391470016E+01  0.25600003790E+02  0.65237708607E+02  0.70357983013E+02  0.00000000000E+00 0. -1.
         -5    1    5    5    0  502 -0.37719990004E+02 -0.81322126788E+01  0.42902709971E+02  0.57893549310E+02  0.47000000000E+01 0.  1.
         13    1    6    6    0    0  0.64578567390E+02  0.14460922006E+02 -0.89179974967E+01  0.66776045936E+02  0.00000000000E+00 0. -1.
        -14    1    6    6    0    0  0.14551865217E+02 -0.44606857834E+02 -0.31074714950E+02  0.56277583959E+02  0.00000000000E+00 0.  1.
</event>
<event>
12    1  0.8724767E-002  0.3407733E+03  0.7818608E-02  0.1066518E+00
         21   -1    0    0  503  502  0.00000000000E+00  0.00000000000E+00  0.16394449178E+03  0.16394449178E+03  0.00000000000E+00 0. -1.
         21   -1    0    0  501  503 -0.00000000000E+00 -0.00000000000E+00 -0.87399762470E+03  0.87399762470E+03  0.00000000000E+00 0.  1.
          6    2    1    2  501    0  0.67590844458E+02  0.28575798340E+03 -0.58184796321E+03  0.67429480812E+03  0.17291699924E+03 0.  0.
         24    2    3    3    0    0  0.40712563211E+02  0.29768660529E+03 -0.52823950931E+03  0.61297034031E+03  0.80130088741E+02 0.  0.
         -6    2    1    2    0  502 -0.67590844458E+02 -0.28575798340E+03 -0.12820516971E+03  0.36364730836E+03  0.17197863821E+03 0.  0.
        -24    2    5    5    0    0 -0.86969383555E+02 -0.15939988689E+03 -0.12778168800E+03  0.23572480968E+03  0.79158249689E+02 0.  0.
          5    1    3    3  501    0  0.26878281247E+02 -0.11928621890E+02 -0.53608453901E+02  0.61324467813E+02  0.47000000000E+01 0. -1.
        -13    1    4    4    0    0 -0.13253003221E+02  0.12136840898E+03 -0.26273597259E+03  0.28971731755E+03  0.00000000000E+00 0.  1.
         14    1    4    4    0    0  0.53965566432E+02  0.17631819632E+03 -0.26550353672E+03  0.32325302276E+03  0.00000000000E+00 0. -1.
         -5    1    5    5    0  502  0.19378539097E+02 -0.12635809651E+03 -0.42348171519E+00  0.12792249868E+03  0.47000000000E+01 0.  1.
         13    1    6    6    0    0 -0.35661524171E+02 -0.57105045211E+02 -0.44436901987E+01  0.67472045155E+02  0.00000000000E+00 0. -1.
        -14    1    6    6    0    0 -0.51307859383E+02 -0.10229484168E+03 -0.12333799780E+03  0.16825276453E+03  0.00000000000E+00 0.  1.
</event>
<event>
12    1  0.8724767E-002  0.1869204E+03  0.7818608E-02  0.1161393E+00
         21   -1    0    0  501  502  0.00000000000E+00  0.00000000000E+00  0.53142363308E+03  0.53142363308E+03  0.00000000000E+00 0. -1.
         21   -1    0    0  502  503 -0.00000000000E+00 -0.00000000000E+00 -0.15175089131E+03  0.15175089131E+03  0.00000000000E+00 0. -1.
         -6    2    1    2    0  503  0.36146505059E+02 -0.64233810192E+02 -0.67483645636E+02  0.19872917606E+03  0.17177511691E+03 0.  0.
        -24    2    3    3    0    0  0.63723930999E+01 -0.10070617644E+03 -0.16188710250E+02  0.12894385067E+03  0.78626337316E+02 0.  0.
          6    2    1    2  501    0 -0.36146505059E+02  0.64233810192E+02  0.44715638740E+03  0.48444534832E+03  0.17118968578E+03 0.  0.
         24    2    5    5    0    0 -0.42951009706E+02 -0.26678573613E+02  0.28734945860E+03  0.30040267038E+03  0.71522845907E+02 0.  0.
          5    1    5    5  501    0  0.68045046473E+01  0.90912383804E+02  0.15980692880E+03  0.18404267794E+03  0.47000000000E+01 0. -1.
        -13    1    6    6    0    0 -0.28157136443E+01 -0.33713875755E+02  0.21254130376E+03  0.21521700552E+03  0.00000000000E+00 0.  1.
         14    1    6    6    0    0 -0.40135296062E+02  0.70353021420E+01  0.74808154845E+02  0.85185664859E+02  0.00000000000E+00 0. -1.
         -5    1    3    3    0  503  0.29774111959E+02  0.36472366251E+02 -0.51294935386E+02  0.69785325386E+02  0.47000000000E+01 0.  1.
         13    1    4    4    0    0  0.10818151545E+02 -0.11246515105E+03 -0.21980498277E+02  0.11510249740E+03  0.00000000000E+00 0. -1.
        -14    1    4    4    0    0 -0.44457584448E+01  0.11758974606E+02  0.57917880270E+01  0.13841353275E+02  0.00000000000E+00 0.  1.
</event>
<event>
12    1  0.8724767E-002  0.2702185E+03  0.7818608E-02  0.1101384E+00
         21   -1    0    0  501  502  0.00000000000E+00  0.00000000000E+00  0.99441940525E+03  0.99441940525E+03  0.00000000000E+00 0. -1.
         21   -1    0    0  502  503 -0.00000000000E+00 -0.00000000000E+00 -0.13563456165E+03  0.13563456165E+03  0.00000000000E+00 0.  1.
         -6    2    1    2    0  503 -0.13203994408E+03  0.16160220979E+03  0.46094477577E+02  0.27412175863E+03  0.17166309054E+03 0.  0.
        -24    2    3    3    0    0 -0.11490949317E+03  0.87891389088E+02  0.89772763709E+02  0.18661964371E+03  0.76411088324E+02 0.  0.
          6    2    1    2  501    0  0.13203994408E+03 -0.16160220979E+03  0.81269036602E+03  0.85593220826E+03  0.16912862878E+03 0.  0.
         24    2    5    5    0    0  0.51525445581E+02 -0.80817621467E+02  0.61400214775E+03  0.62678633276E+03  0.81707466071E+02 0.  0.
          5    1    5    5  501    0  0.80514498498E+02 -0.80784588319E+02  0.19868821827E+03  0.22914587550E+03  0.47000000000E+01 0. -1.
        -11    1    6    6    0    0 -0.15124279791E+02 -0.50512000106E+02  0.25514879698E+03  0.26054004412E+03  0.00000000000E+00 0.  1.
         12    1    6    6    0    0  0.66649725372E+02 -0.30305621361E+02  0.35885335078E+03  0.36624628864E+03  0.00000000000E+00 0. -1.
         -5    1    3    3    0  503 -0.17130450912E+02  0.73710820697E+02 -0.43678286132E+02  0.87502114922E+02  0.47000000000E+01 0.  1.
         11    1    4    4    0    0 -0.10529019120E+03  0.40800065763E+02  0.77680422714E+02  0.13705808185E+03  0.00000000000E+00 0. -1.
        -12    1    4    4    0    0 -0.96193019711E+01  0.47091323326E+02  0.12092340996E+02  0.49561561857E+02  0.00000000000E+00 0.  1.
</event>
<event>
12    1  0.8724767E-002  0.1747948E+03  0.7818608E-02  0.1173435E+00
         21   -1    0    0  503  502  0.00000000000E+00  0.00000000000E+00  0.85983627157E+02  0.85983627157E+02  0.00000000000E+00 0. -1.
         21   -1    0    0  501  503 -0.00000000000E+00 -0.00000000000E+00 -0.68397832060E+03  0.68397832060E+03  0.00000000000E+00 0. -1.
          6    2    1    2  501    0 -0.20054818594E+02  0.32216363939E+01 -0.29660013724E+02  0.17535490750E+03  0.17163056977E+03 0.  0.
         24    2    3    3    0    0  0.33343444551E+02 -0.43582874864E+02 -0.37794879958E+02  0.10372877519E+03  0.79498135676E+02 0.  0.
         -6    2    1    2    0  502  0.20054818594E+02 -0.32216363939E+01 -0.56833467972E+03  0.59460704026E+03  0.17361062600E+03 0.  0.
        -24    2    5    5    0    0  0.65365795914E+02 -0.26288515589E+02 -0.24087472968E+03  0.26318996999E+03  0.79275163695E+02 0.  0.
          5    1    3    3  501    0 -0.53398263145E+02  0.46804511258E+02  0.81348662342E+01  0.71626132310E+02  0.47000000000E+01 0. -1.
        -13    1    4    4    0    0  0.22419166364E+02 -0.17685365094E+02 -0.60952957311E+02  0.67310134185E+02  0.00000000000E+00 0.  1.
         14    1    4    4    0    0  0.10924278187E+02 -0.25897509770E+02  0.23158077353E+02  0.36418641008E+02  0.00000000000E+00 0. -1.
         -5    1    5    5    0  502 -0.45310977320E+02  0.23066879195E+02 -0.32745995005E+03  0.33141707027E+03  0.47000000000E+01 0.  1.
         11    1    6    6    0    0  0.66319081148E+02 -0.49511695102E+02 -0.18455329365E+03  0.20226108542E+03  0.00000000000E+00 0. -1.
        -12    1    6    6    0    0 -0.95328523379E+00  0.23223179513E+02 -0.56321436025E+02  0.60928884573E+02  0.00000000000E+00 0.  1.
</event>
<event>
12    1  0.8724767E-002  0.2353132E+03  0.7818608E-02  0.1123049E+00
         21   -1    0    0  503  502  0.00000000000E+00  0.00000000000E+00  0.26690960092E+03  0.26690960092E+03  0.00000000000E+00 0.  1.
         21   -1    0    0  501  503 -0.00000000000E+00 -0.00000000000E+00 -0.21129344657E+03  0.21129344657E+03  0.00000000000E+00 0.  1.
          6    2    1    2  501    0 -0.94701921367E+02  0.12967101799E+03  0.61975846565E+02  0.24280390509E+03  0.17125917188E+03 0.  0.
         24    2    3    3    0    0 -0.32028928205E+02 -0.28605854440E+00  0.46350535240E+02  0.97604090463E+02  0.79701018103E+02 0.  0.
         -6    2    1    2    0  502  0.94701921367E+02 -0.12967101799E+03 -0.63596922177E+01  0.23539914239E+03  0.17201535902E+03 0.  0.
        -24    2    5    5    0    0  0.65189460865E+02  0.59040210296E+01 -0.15529521683E+02  0.96267002677E+02  0.68859614351E+02 0.  0.
          5    1    3    3  501    0 -0.62672993161E+02  0.12995707653E+03  0.15625311325E+02  0.14519981463E+03  0.47000000000E+01 0. -1.
        -13    1    4    4    0    0 -0.32283099060E+02  0.41595408037E+01  0.68059759476E+02  0.75442899762E+02  0.00000000000E+00 0.  1.
         14    1    4    4    0    0  0.25417085498E+00 -0.44455993481E+01 -0.21709224236E+02  0.22161190701E+02  0.00000000000E+00 0. -1.
         -5    1    5    5    0  502  0.29512460502E+02 -0.13557503902E+03  0.91698294649E+01  0.13913213972E+03  0.47000000000E+01 0.  1.
         11    1    6    6    0    0  0.40791528131E+01  0.22397582186E+02  0.13675106618E+02  0.26557479483E+02  0.00000000000E+00 0. -1.
        -12    1    6    6    0    0  0.61110308052E+02 -0.16493561157E+02 -0.29204628300E+02  0.69709523194E+02  0.00000000000E+00 0.  1.
</event>
<event>
12    1  0.8724767E-002  0.1863462E+03  0.7818608E-02  0.1162119E+00
         21   -1    0    0  503  502  0.00000000000E+00  0.00000000000E+00  0.12019211029E+03  0.12019211029E+03  0.00000000000E+00 0.  1.
         21   -1    0    0  501  503 -0.00000000000E+00 -0.00000000000E+00 -0.28725690323E+03  0.28725690323E+03  0.00000000000E+00 0. -1.
          6    2    1    2  501    0  0.37868149863E+02 -0.58022552666E+02 -0.75527956187E+02  0.20107057575E+03  0.17298638928E+03 0.  0.
         24    2    3    3    0    0 -0.11914439352E+02  0.28695131612E+02 -0.26545860275E+02  0.89627322588E+02  0.79768476313E+02 0.  0.
         -6    2    1    2    0  502 -0.37868149863E+02  0.58022552666E+02 -0.91536836760E+02  0.20637843777E+03  0.17150059387E+03 0.  0.
        -24    2    5    5    0    0  0.26220629947E+02  0.77927932529E+02 -0.72985500179E+02  0.13659421366E+03  0.81060544451E+02 0.  0.
          5    1    3    3  501    0  0.49782589215E+02 -0.86717684278E+02 -0.48982095912E+02  0.11144325316E+03  0.47000000000E+01 0. -1.
        -11    1    4    4    0    0 -0.17118377645E+02  0.15795462998E+02 -0.54022755002E+02  0.58830209608E+02  0.00000000000E+00 0.  1.
         12    1    4    4    0    0  0.52039382933E+01  0.12899668613E+02  0.27476894727E+02  0.30797112980E+02  0.00000000000E+00 0. -1.
         -5    1    5    5    0  502 -0.64088779810E+02 -0.19905379863E+02 -0.18551336581E+02  0.69784224105E+02  0.47000000000E+01 0.  1.
         11    1    6    6    0    0  0.40674379516E+02  0.35014822509E+02 -0.73864385770E+02  0.91303835788E+02  0.00000000000E+00 0. -1.
        -12    1    6    6    0    0 -0.14453749569E+02  0.42913110020E+02  0.87888559090E+00  0.45290377875E+02  0.00000000000E+00 0.  1.
</event>
<event>
12    1  0.8724767E-002  0.2504631E+03  0.7818608E-02  0.1113348E+00
         21   -1    0    0  503  502  0.00000000000E+00  0.00000000000E+00  0.38159840598E+03  0.38159840598E+03  0.00000000000E+00 0. -1.
         21   -1    0    0  501  503 -0.00000000000E+00 -0.00000000000E+00 -0.31393763860E+03  0.31393763860E+03  0.00000000000E+00 0.  1.
          6    2    1    2  501    0  0.18010660991E+03  0.18794955025E+02 -0.20722897085E+03  0.32507786916E+03  0.17303217444E+03 0.  0.
         24    2    3    3    0    0  0.16963036908E+03  0.38801004635E+02 -0.22718754366E+03  0.29457494682E+03  0.69858709015E+02 0.  0.
         -6    2    1    2    0  502 -0.18010660991E+03 -0.18794955025E+02  0.27488973823E+03  0.37045817541E+03  0.16995072896E+03 0.  0.
        -24    2    5    5    0    0 -0.95228085536E+02  0.52150185861E+02  0.17911816353E+03  0.22406192738E+03  0.79576382398E+02 0.  0.
          5    1    3    3  501    0  0.10476240838E+02 -0.20006049611E+02  0.19958572807E+02  0.30502922345E+02  0.47000000000E+01 0. -1.
        -11    1    4    4    0    0  0.32838402780E+02 -0.96406747758E+00 -0.93926692652E+02  0.99506350128E+02  0.00000000000E+00 0.  1.
         12    1    4    4    0    0  0.13679196630E+03  0.39765072113E+02 -0.13326085101E+03  0.19506859669E+03  0.00000000000E+00 0. -1.
         -5    1    5    5    0  502 -0.84878524379E+02 -0.70945140886E+02  0.95771574699E+02  0.14639624803E+03  0.47000000000E+01 0.  1.
         11    1    6    6    0    0 -0.51409603901E+02  0.89684885572E+01  0.14413366071E+03  0.15329022574E+03  0.00000000000E+00 0. -1.
        -12    1    6    6    0    0 -0.43818481635E+02  0.43181697304E+02  0.34984502825E+02  0.70771701638E+02  0.00000000000E+00 0.  1.
</event>
<event>
12    1  0.8724767E-002  0.2899160E+03  0.7818608E-02  0.1090441E+00
         21   -1    0    0  503  502  0.00000000000E+00  0.00000000000E+00  0.21825462018E+04  0.21825462018E+04  0.00000000000E+00 0. -1.
         21   -1    0    0  501  503 -0.00000000000E+00 -0.00000000000E+00 -0.51391460412E+02  0.51391460412E+02  0.00000000000E+00 0.  1.
          6    2    1    2  501    0 -0.61211730691E+02 -0.22331698202E+03  0.50583100869E+03  0.58302338622E+03  0.17445317164E+03 0.  0.
         24    2    3    3    0    0 -0.39393435140E+02 -0.24081247389E+03  0.48179706885E+03  0.54585013614E+03  0.79255695483E+02 0.  0.
         -6    2    1    2    0  502  0.61211730691E+02  0.22331698202E+03  0.16253237327E+04  0.16509142760E+04  0.17384867032E+03 0.  0.
        -24    2    5    5    0    0  0.10852386807E+03  0.17418189571E+03  0.12315035456E+04  0.12512029741E+04  0.82408355021E+02 0.  0.
          5    1    3    3  501    0 -0.21818295550E+02  0.17495491875E+02  0.24033939843E+02  0.37173250074E+02  0.47000000000E+01 0. -1.
        -13    1    4    4    0    0 -0.14422026162E+02 -0.37038730887E+02  0.30665071857E+02  0.50201683800E+02  0.00000000000E+00 0.  1.
         14    1    4    4    0    0 -0.24971408978E+02 -0.20377374300E+03  0.45113199699E+03  0.49564845235E+03  0.00000000000E+00 0. -1.
         -5    1    5    5    0  502 -0.47312137380E+02  0.49135086304E+02  0.39382018711E+03  0.39971130185E+03  0.47000000000E+01 0.  1.
         11    1    6    6    0    0  0.94280099967E+01  0.58625866391E+02  0.53340045104E+03  0.53669537054E+03  0.00000000000E+00 0. -1.
        -12    1    6    6    0    0  0.99095858074E+02  0.11555602932E+03  0.69810309453E+03  0.71450760359E+03  0.00000000000E+00 0.  1.
</event>
<event>
12    1  0.8724767E-002  0.1779522E+03  0.7818608E-02  0.1170368E+00
         21   -1    0    0  503  502  0.00000000000E+00  0.00000000000E+00  0.12629761229E+03  0.12629761229E+03  0.00000000000E+00 0. -1.
         21   -1    0    0  501  503 -0.00000000000E+00 -0.00000000000E+00 -0.26417336963E+03  0.26417336963E+03  0.00000000000E+00 0. -1.
          6    2    1    2  501    0 -0.30841973306E+02  0.17801347870E+02 -0.11839654615E+03  0.21373984761E+03  0.17435270291E+03 0.  0.
         24    2    3    3    0    0 -0.12830732869E+02 -0.32971624031E+02 -0.35427082202E+01  0.86791852173E+02  0.79173980100E+02 0.  0.
         -6    2    1    2    0  502  0.30841973306E+02 -0.17801347870E+02 -0.19479211194E+02  0.17673113432E+03  0.17200679889E+03 0.  0.
        -24    2    5    5    0    0  0.18969772466E+02  0.50184134341E+02  0.17755809622E+02  0.98172164625E+02  0.80275809089E+02 0.  0.
          5    1    3    3  501    0 -0.18011240436E+02  0.50772971901E+02 -0.11485383793E+03  0.12694799543E+03  0.47000000000E+01 0. -1.
        -11    1    4    4    0    0  0.29425959214E+02 -0.27972689130E+02  0.10583878136E+02  0.41956845559E+02  0.00000000000E+00 0.  1.
         12    1    4    4    0    0 -0.42256692083E+02 -0.49989349005E+01 -0.14126586356E+02  0.44835006614E+02  0.00000000000E+00 0. -1.
         -5    1    5    5    0  502  0.11872200840E+02 -0.67985482211E+02 -0.37235020815E+02  0.78558969694E+02  0.47000000000E+01 0.  1.
         11    1    6    6    0    0  0.38194558922E+02  0.54311710498E+02  0.32181519944E+02  0.73785069319E+02  0.00000000000E+00 0. -1.
        -12    1    6    6    0    0 -0.19224786456E+02 -0.41275761566E+01 -0.14425710322E+02  0.24387095307E+02  0.00000000000E+00 0.  1.
</event>
<event>
12    1  0.8724767E-002  0.2424283E+03  0.7818608E-02  0.1118677E+00
         21   -1    0    0  503  502  0.00000000000E+00  0.00000000000E+00  0.20347170523E+03  0.20347170523E+03  0.00000000000E+00 0. -1.
         21   -1    0    0  501  503 -0.00000000000E+00 -0.00000000000E+00 -0.75708751830E+03  0.75708751830E+03  0.00000000000E+00 0.  1.
          6    2    1    2  501    0  0.97459514591E+02 -0.13495350817E+03 -0.65657826239E+03  0.69990462686E+03  0.17624036344E+03 0.  0.
         24    2    3    3    0    0  0.84966241094E+01 -0.18258214386E+02 -0.35784886622E+03  0.36704800666E+03  0.79138316419E+02 0.  0.
         -6    2    1    2    0  502 -0.97459514591E+02  0.13495350817E+03  0.10296244931E+03  0.26065459668E+03  0.17213002774E+03 0.  0.
        -24    2    5    5    0    0 -0.26775679056E+02  0.10966818351E+03  0.12073491909E+03  0.18336615685E+03  0.79386266625E+02 0.  0.
          5    1    3    3  501    0  0.88962890482E+02 -0.11669529378E+03 -0.29872939617E+03  0.33285662020E+03  0.47000000000E+01 0. -1.
        -11    1    4    4    0    0  0.30449286263E+02 -0.25024030084E+02 -0.32244360611E+03  0.32484340880E+03  0.00000000000E+00 0.  1.
         12    1    4    4    0    0 -0.21952662153E+02  0.67658156979E+01 -0.35405260103E+02  0.42204597861E+02  0.00000000000E+00 0. -1.
         -5    1    5    5    0  502 -0.70683835535E+02  0.25285324653E+02 -0.17772469775E+02  0.77288439825E+02  0.47000000000E+01 0.  1.
         11    1    6    6    0    0 -0.46572964474E+01  0.84373098948E+02  0.35331924023E+02  0.91590693258E+02  0.00000000000E+00 0. -1.
        -12    1    6    6    0    0 -0.22118382609E+02  0.25295084565E+02  0.85402995065E+02  0.91775463597E+02  0.00000000000E+00 0.  1.
</event>
<event>
12    1  0.8724767E-002  0.3363461E+03  0.7818608E-02  0.1068373E+00
         21   -1    0    0  501  502  0.00000000000E+00  0.00000000000E+00  0.43792909842E+03  0.43792909842E+03  0.00000000000E+00 0. -1.
         21   -1    0    0  502  503 -0.00000000000E+00 -0.00000000000E+00 -0.42277051792E+03  0.42277051792E+03  0.00000000000E+00 0. -1.
         -6    2    1    2    0  503  0.13647627895E+03  0.25449928790E+03 -0.26087761500E+03  0.42565928893E+03  0.17243270567E+03 0.  0.
        -24    2    3    3    0    0  0.41075031173E+02  0.81619594039E+02 -0.16847595003E+03  0.20760208470E+03  0.79784481673E+02 0.  0.
          6    2    1    2  501    0 -0.13647627895E+03 -0.25449928790E+03  0.27603619549E+03  0.43504032742E+03  0.17224529892E+03 0.  0.
         24    2    5    5    0    0 -0.14638570870E+03 -0.13459053118E+03  0.15654498824E+03  0.26540381794E+03  0.79934138155E+02 0.  0.
          5    1    5    5  501    0  0.99094297429E+01 -0.11990875672E+03  0.11949120725E+03  0.16963650947E+03  0.47000000000E+01 0. -1.
        -11    1    6    6    0    0 -0.40206664498E+02 -0.15304552655E+01  0.11737314669E+02  0.41912798988E+02  0.00000000000E+00 0.  1.
         12    1    6    6    0    0 -0.10617904420E+03 -0.13306007591E+03  0.14480767357E+03  0.22349101896E+03  0.00000000000E+00 0. -1.
         -5    1    3    3    0  503  0.95401247781E+02  0.17287969386E+03 -0.92401664964E+02  0.21805720423E+03  0.47000000000E+01 0.  1.
         13    1    4    4    0    0 -0.11561217166E+02  0.49146177790E+02 -0.37934725456E+02  0.63151024767E+02  0.00000000000E+00 0. -1.
        -14    1    4    4    0    0  0.52636248338E+02  0.32473416249E+02 -0.13054122457E+03  0.14445105993E+03  0.00000000000E+00 0.  1.
</event>
<event>
12    1  0.8724767E-002  0.2025603E+03  0.7818608E-02  0.1147735E+00
         21   -1    0    0  501  502  0.00000000000E+00  0.00000000000E+00  0.12034317777E+04  0.12034317777E+04  0.00000000000E+00 0. -1.
         21   -1    0    0  502  503 -0.00000000000E+00 -0.00000000000E+00 -0.40034807762E+02  0.40034807762E+02  0.00000000000E+00 0. -1.
         -6    2    1    2    0  503  0.92048032718E+01  0.10497276476E+03  0.34078179488E+03  0.39643777558E+03  0.17299326125E+03 0.  0.
        -24    2    3    3    0    0 -0.15250596043E+02  0.13848916723E+03  0.27619248497E+03  0.31952688723E+03  0.80020702277E+02 0.  0.
          6    2    1    2  501    0 -0.92048032718E+01 -0.10497276476E+03  0.82261517507E+03  0.84702880989E+03  0.17221518167E+03 0.  0.
         24    2    5    5    0    0 -0.72405984445E+02 -0.60093219483E+02  0.52985634797E+03  0.54414536082E+03  0.80576687677E+02 0.  0.
          5    1    5    5  501    0  0.63201181173E+02 -0.44879545272E+02  0.29275882709E+03  0.30288344908E+03  0.47000000000E+01 0. -1.
        -11    1    6    6    0    0 -0.12017704576E+02 -0.18282424092E+02  0.22078171538E+02  0.31082437363E+02  0.00000000000E+00 0.  1.
         12    1    6    6    0    0 -0.60388279869E+02 -0.41810795391E+02  0.50777817644E+03  0.51306292345E+03  0.00000000000E+00 0. -1.
         -5    1    3    3    0  503  0.24455399315E+02 -0.33516402476E+02  0.64589309916E+02  0.76910888345E+02  0.47000000000E+01 0.  1.
         13    1    4    4    0    0  0.76501887898E+01  0.16551806028E+02  0.17196396891E+01  0.18315153069E+02  0.00000000000E+00 0. -1.
        -14    1    4    4    0    0 -0.22900784833E+02  0.12193736120E+03  0.27447284528E+03  0.30121173417E+03  0.00000000000E+00 0.  1.
</event>
<event>
12    1  0.8724767E-002  0.1774830E+03  0.7818608E-02  0.1170496E+00
         21   -1    0    0  501  502  0.00000000000E+00  0.00000000000E+00  0.77354910974E+03  0.77354910974E+03  0.00000000000E+00 0. -1.
         21   -1    0    0  502  503 -0.00000000000E+00 -0.00000000000E+00 -0.41174629526E+02  0.41174629526E+02  0.00000000000E+00 0. -1.
         -6    2    1    2    0  503 -0.38009775193E+02 -0.43611557023E+01  0.41911774538E+03  0.45514821806E+03  0.17331028019E+03 0.  0.
        -24    2    3    3    0    0 -0.17653242777E+02 -0.47832416531E+02  0.38291853084E+03  0.39484388933E+03  0.81703847090E+02 0.  0.
          6    2    1    2  501    0  0.38009775193E+02  0.43611557023E+01  0.31325673483E+03  0.35957552121E+03  0.17233981213E+03 0.  0.
         24    2    5    5    0    0  0.48840488709E+02 -0.23566236483E+02  0.31415946861E+03  0.32924157129E+03  0.82237945664E+02 0.  0.
          5    1    5    5  501    0 -0.10830713516E+02  0.27927392185E+02 -0.90273377606E+00  0.30333949921E+02  0.47000000000E+01 0. -1.
        -11    1    6    6    0    0 -0.42712762467E+01 -0.32673889801E+02  0.51707998230E+02  0.61315120129E+02  0.00000000000E+00 0.  1.
         12    1    6    6    0    0  0.53111764956E+02  0.91076533174E+01  0.26245147038E+03  0.26792645116E+03  0.00000000000E+00 0. -1.
         -5    1    3    3    0  503 -0.20356532415E+02  0.43471260829E+02  0.36199214543E+02  0.60304328730E+02  0.47000000000E+01 0.  1.
         11    1    4    4    0    0 -0.29672279439E+01 -0.51142247734E+02  0.10821445243E+03  0.11972761444E+03  0.00000000000E+00 0. -1.
        -12    1    4    4    0    0 -0.14686014833E+02  0.33098312033E+01  0.27470407840E+03  0.27511627488E+03  0.00000000000E+00 0.  1.
</event>
<event>
12    1  0.8724767E-002  0.2598497E+03  0.7818608E-02  0.1108543E+00
         21   -1    0    0  503  502  0.00000000000E+00  0.00000000000E+00  0.97631881998E+03  0.97631881998E+03  0.00000000000E+00 0.  1.
         21   -1    0    0  501  503 -0.00000000000E+00 -0.00000000000E+00 -0.95493566045E+02  0.95493566045E+02  0.00000000000E+00 0. -1.
          6    2    1    2  501    0 -0.18537724159E+03  0.49883000701E+02  0.14203546926E+03  0.28865710399E+03  0.16215983996E+03 0.  0.
         24    2    3    3    0    0 -0.10912358555E+03  0.44078080636E+02  0.15526169229E+03  0.21090531859E+03  0.80771444211E+02 0.  0.
         -6    2    1    2    0  502  0.18537724159E+03 -0.49883000701E+02  0.73878978467E+03  0.78315528203E+03  0.17512513920E+03 0.  0.
        -24    2    5    5    0    0  0.21203955829E+03 -0.52611902168E+02  0.64768833604E+03  0.68807694603E+03  0.78872786715E+02 0.  0.
          5    1    3    3  501    0 -0.76253656045E+02  0.58049200647E+01 -0.13226223034E+02  0.77751785400E+02  0.47000000000E+01 0. -1.
        -11    1    4    4    0    0  0.76674993967E+01  0.22230536581E+02  0.20017739639E+02  0.30881988341E+02  0.00000000000E+00 0.  1.
         12    1    4    4    0    0 -0.11679108495E+03  0.21847544055E+02  0.13524395265E+03  0.18002333025E+03  0.00000000000E+00 0. -1.
         -5    1    5    5    0  502 -0.26662316692E+02  0.27289014670E+01  0.91101448633E+02  0.95078336006E+02  0.47000000000E+01 0.  1.
         13    1    6    6    0    0  0.56613348739E+02 -0.25649867316E+02  0.96698366825E+02  0.11495025487E+03  0.00000000000E+00 0. -1.
        -14    1    6    6    0    0  0.15542620955E+03 -0.26962034851E+02  0.55098996922E+03  0.57312669116E+03  0.00000000000E+00 0.  1.
</event>
<event>
12    1  0.8724767E-002  0.1757742E+03  0.7818608E-02  0.1173568E+00
         21   -1    0    0  501  502  0.00000000000E+00  0.00000000000E+00  0.43692427700E+03  0.43692427700E+03  0.00000000000E+00 0.  1.
         21   -1    0    0  502  503 -0.00000000000E+00 -0.00000000000E+00 -0.79286702650E+02  0.79286702650E+02  0.00000000000E+00 0.  1.
         -6    2    1    2    0  503 -0.26659154615E+01  0.21085186132E+01  0.85091782927E+02  0.19528746032E+03  0.17574136588E+03 0.  0.
        -24    2    3    3    0    0 -0.42699385914E+02  0.57344048915E+02  0.50512608152E+02  0.11866206054E+03  0.80109821654E+02 0.  0.
          6    2    1    2  501    0  0.26659154615E+01 -0.21085186132E+01  0.27254579142E+03  0.32092351933E+03  0.16940821668E+03 0.  0.
         24    2    5    5    0    0  0.23472231678E+02  0.24283124773E+02  0.58932413135E+02  0.10463161698E+03  0.79587248640E+02 0.  0.
          5    1    5    5  501    0 -0.20806316217E+02 -0.26391643386E+02  0.21361337829E+03  0.21629190234E+03  0.47000000000E+01 0. -1.
        -13    1    6    6    0    0 -0.87509491062E+01  0.46255626692E+02  0.37077209852E+02  0.59923965167E+02  0.00000000000E+00 0.  1.
         14    1    6    6    0    0  0.32223180784E+02 -0.21972501919E+02  0.21855203284E+02  0.44707651817E+02  0.00000000000E+00 0. -1.
         -5    1    3    3    0  503  0.40033470452E+02 -0.55235530302E+02  0.34579174775E+02  0.76625399785E+02  0.47000000000E+01 0.  1.
         13    1    4    4    0    0 -0.31934229404E+01  0.53159613055E+02  0.57446896963E+02  0.78334464834E+02  0.00000000000E+00 0. -1.
        -14    1    4    4    0    0 -0.39505962974E+02  0.41844358603E+01 -0.69342888107E+01  0.40327595704E+02  0.00000000000E+00 0.  1.
</event>
<event>
12    1  0.8724767E-002  0.1776452E+03  0.7818608E-02  0.1170322E+00
         21   -1    0    0  501  502  0.00000000000E+00  0.00000000000E+00  0.40048942286E+02  0.40048942286E+02  0.00000000000E+00 0.  1.
         21   -1    0    0  502  503 -0.00000000000E+00 -0.00000000000E+00 -0.91386655384E+03  0.91386655384E+03  0.00000000000E+00 0.  1.
         -6    2    1    2    0  503  0.22497863739E+02  0.35905199374E+02 -0.61574660943E+03  0.64061296490E+03  0.17159762982E+03 0.  0.
        -24    2    3    3    0    0 -0.17205285124E+02  0.54814492064E+02 -0.19491611413E+03  0.21746488544E+03  0.77446978472E+02 0.  0.
          6    2    1    2  501    0 -0.22497863739E+02 -0.35905199374E+02 -0.25807100212E+03  0.31330253122E+03  0.17251810548E+03 0.  0.
         24    2    5    5    0    0 -0.41978277902E+01  0.28837371090E+02 -0.22106087812E+03  0.23637184148E+03  0.78450748116E+02 0.  0.
          5    1    5    5  501    0 -0.18300035949E+02 -0.64742570463E+02 -0.37010124007E+02  0.76930689747E+02  0.47000000000E+01 0. -1.
        -13    1    6    6    0    0 -0.26801645507E+02  0.42533308669E+02 -0.94081912961E+02  0.10667153742E+03  0.00000000000E+00 0.  1.
         14    1    6    6    0    0  0.22603817716E+02 -0.13695937580E+02 -0.12697896516E+03  0.12970030406E+03  0.00000000000E+00 0. -1.
         -5    1    3    3    0  503  0.39703148863E+02 -0.18909292691E+02 -0.42083049530E+03  0.42314807946E+03  0.47000000000E+01 0.  1.
         11    1    4    4    0    0  0.18316539255E+02  0.56059445654E+02 -0.14156045692E+03  0.15335423053E+03  0.00000000000E+00 0. -1.
        -12    1    4    4    0    0 -0.35521824379E+02 -0.12449535896E+01 -0.53355657210E+02  0.64110654910E+02  0.00000000000E+00 0.  1.
</event>
<event>
12    1  0.8724767E-002  0.1767492E+03  0.7818608E-02  0.1171470E+00
         21   -1    0    0  501  502  0.00000000000E+00  0.00000000000E+00  0.25414671557E+04  0.25414671557E+04  0.00000000000E+00 0.  1.
         21   -1    0    0  502  503 -0.00000000000E+00 -0.00000000000E+00 -0.12271598298E+02  0.12271598298E+02  0.00000000000E+00 0.  1.
         -6    2    1    2    0  503  0.53060770940E+01 -0.33296886222E+02  0.13945209913E+04  0.14056774408E+04  0.17350341561E+03 0.  0.
        -24    2    3    3    0    0 -0.35700283528E+02 -0.15899379120E+02  0.32107328492E+03  0.33129563564E+03  0.71703859057E+02 0.  0.
          6    2    1    2  501    0 -0.53060770940E+01  0.33296886222E+02  0.11346745661E+04  0.11480613132E+04  0.17152717244E+03 0.  0.
         24    2    5    5    0    0  0.66975730630E+02  0.17418429951E+02  0.59514471696E+03  0.60345931799E+03  0.71949733491E+02 0.  0.
          5    1    5    5  501    0 -0.72281807724E+02  0.15878456271E+02  0.53952984910E+03  0.54460199520E+03  0.47000000000E+01 0. -1.
        -13    1    6    6    0    0  0.21328736070E+02  0.11393163979E+02  0.42481368226E+02  0.48881344234E+02  0.00000000000E+00 0.  1.
         14    1    6    6    0    0  0.45646994560E+02  0.60252659720E+01  0.55266334873E+03  0.55457797375E+03  0.00000000000E+00 0. -1.
         -5    1    3    3    0  503  0.41006360622E+02 -0.17397507103E+02  0.10734477064E+04  0.10743818051E+04  0.47000000000E+01 0.  1.
         11    1    4    4    0    0 -0.23025860182E+02  0.21890846318E+02  0.67434128794E+02  0.74543685955E+02  0.00000000000E+00 0. -1.
        -12    1    4    4    0    0 -0.12674423346E+02 -0.37790225438E+02  0.25363915613E+03  0.25675194969E+03  0.00000000000E+00 0.  1.
</event>
<event>
12    1  0.8724767E-002  0.1796869E+03  0.7818608E-02  0.1168475E+00
         21   -1    0    0  501  502  0.00000000000E+00  0.00000000000E+00  0.80980113396E+02  0.80980113396E+02  0.00000000000E+00 0.  1.
         21   -1    0    0  502  503 -0.00000000000E+00 -0.00000000000E+00 -0.39667675810E+03  0.39667675810E+03  0.00000000000E+00 0.  1.
         -6    2    1    2    0  503  0.12610371278E+02  0.47439692077E+02 -0.14473127008E+03  0.23072609198E+03  0.17285208455E+03 0.  0.
        -24    2    3    3    0    0  0.17272204593E+02  0.98276216583E+02 -0.97372793977E+02  0.16093354100E+03  0.80384076873E+02 0.  0.
          6    2    1    2  501    0 -0.12610371278E+02 -0.47439692077E+02 -0.17096537462E+03  0.24693077951E+03  0.17127785818E+03 0.  0.
         24    2    5    5    0    0 -0.55079736518E+02  0.10662505821E+02 -0.13187902631E+03  0.16489819447E+03  0.81559000443E+02 0.  0.
          5    1    5    5  501    0  0.42469365241E+02 -0.58102197897E+02 -0.39086348311E+02  0.82032585042E+02  0.47000000000E+01 0. -1.
        -13    1    6    6    0    0  0.12294629693E+02 -0.69036470971E+01 -0.71071430788E+02  0.72456652812E+02  0.00000000000E+00 0.  1.
         14    1    6    6    0    0 -0.67374366212E+02  0.17566152918E+02 -0.60807595526E+02  0.92441541660E+02  0.00000000000E+00 0. -1.
         -5    1    3    3    0  503 -0.46618333154E+01 -0.50836524506E+02 -0.47358476103E+02  0.69792550982E+02  0.47000000000E+01 0.  1.
         11    1    4    4    0    0 -0.29255901869E+02  0.33116643654E+02 -0.16604653714E+02  0.47205237062E+02  0.00000000000E+00 0. -1.
        -12    1    4    4    0    0  0.46528106462E+02  0.65159572929E+02 -0.80768140263E+02  0.11372830394E+03  0.00000000000E+00 0.  1.
</event>
<event>
12    1  0.8724767E-002  0.1926135E+03  0.7818608E-02  0.1156245E+00
         21   -1    0    0  503  502  0.00000000000E+00  0.00000000000E+00  0.59505894164E+03  0.59505894164E+03  0.00000000000E+00 0. -1.
         21   -1    0    0  501  503 -0.00000000000E+00 -0.00000000000E+00 -0.67162472501E+02  0.67162472501E+02  0.00000000000E+00 0. -1.
          6    2    1    2  501    0  0.66300898897E+02 -0.56437099897E+02  0.17334692843E+03  0.25873000006E+03  0.17120484776E+03 0.  0.
         24    2    3    3    0    0 -0.17808639982E+02 -0.65818151956E+01  0.34508219248E+02  0.88852864724E+02  0.79646383625E+02 0.  0.
         -6    2    1    2    0  502 -0.66300898897E+02  0.56437099897E+02  0.35454954071E+03  0.40349141408E+03  0.17181091054E+03 0.  0.
        -24    2    5    5    0    0 -0.10261368333E+03  0.25730371043E+02  0.31360515430E+03  0.34056245184E+03  0.80268118206E+02 0.  0.
          5    1    3    3  501    0  0.84109538879E+02 -0.49855284702E+02  0.13883870919E+03  0.16987713534E+03  0.47000000000E+01 0. -1.
        -13    1    4    4    0    0 -0.16316490796E+02 -0.19712632396E+02  0.57160783170E+02  0.62627237529E+02  0.00000000000E+00 0.  1.
         14    1    4    4    0    0 -0.14921491862E+01  0.13130817200E+02 -0.22652563922E+02  0.26225627195E+02  0.00000000000E+00 0. -1.
         -5    1    5    5    0  502  0.36312784433E+02  0.30706728854E+02  0.40944386411E+02  0.62928962241E+02  0.47000000000E+01 0.  1.
         13    1    6    6    0    0 -0.21005253785E+02  0.28748639769E+02  0.18371448559E+03  0.18713288644E+03  0.00000000000E+00 0. -1.
        -14    1    6    6    0    0 -0.81608429544E+02 -0.30182687257E+01  0.12989066871E+03  0.15342956539E+03  0.00000000000E+00 0.  1.
</event>
<event>
12    1  0.8724767E-002  0.1888673E+03  0.7818608E-02  0.1159499E+00
         21   -1    0    0  503  502  0.00000000000E+00  0.00000000000E+00  0.30099148596E+02  0.30099148596E+02  0.00000000000E+00 0. -1.
         21   -1    0    0  501  503 -0.00000000000E+00 -0.00000000000E+00 -0.16949171671E+04  0.16949171671E+04  0.00000000000E+00 0. -1.
          6    2    1    2  501    0 -0.30972203984E+02  0.71272631418E+02 -0.13055168888E+04  0.13190998723E+04  0.17207864705E+03 0.  0.
         24    2    3    3    0    0 -0.35916813973E+01 -0.20020216673E+02 -0.37202598456E+03  0.38074416394E+03  0.78416043856E+02 0.  0.
         -6    2    1    2    0  502  0.30972203984E+02 -0.71272631418E+02 -0.35930112965E+03  0.40591644334E+03  0.17213887357E+03 0.  0.
        -24    2    5    5    0    0  0.53102818967E+02 -0.22075970419E+00 -0.10703921384E+03  0.14286455347E+03  0.78313020768E+02 0.  0.
          5    1    3    3  501    0 -0.27380522587E+02  0.91292848091E+02 -0.93349090426E+03  0.93835570839E+03  0.47000000000E+01 0. -1.
        -13    1    4    4    0    0 -0.90265243420E+01 -0.26978007396E+02 -0.42752780855E+02  0.51352617223E+02  0.00000000000E+00 0.  1.
         14    1    4    4    0    0  0.54348429447E+01  0.69577907228E+01 -0.32927320371E+03  0.32939154672E+03  0.00000000000E+00 0. -1.
         -5    1    5    5    0  502 -0.22130614983E+02 -0.71051871714E+02 -0.25226191581E+03  0.26305188987E+03  0.47000000000E+01 0.  1.
         13    1    6    6    0    0  0.63709022056E+02 -0.21717124124E+02 -0.93890899981E+02  0.11552477687E+03  0.00000000000E+00 0. -1.
        -14    1    6    6    0    0 -0.10606203089E+02  0.21496364419E+02 -0.13148313858E+02  0.27339776600E+02  0.00000000000E+00 0.  1.
</event>
<event>
12    1  0.8724767E-002  0.1835707E+03  0.7818608E-02  0.1164761E+00
         21   -1    0    0  501  502  0.00000000000E+00  0.00000000000E+00  0.10600289148E+03  0.10600289148E+03  0.00000000000E+00 0. -1.
         21   -1    0    0  502  503 -0.00000000000E+00 -0.00000000000E+00 -0.31549467680E+03  0.31549467680E+03  0.00000000000E+00 0. -1.
         -6    2    1    2    0  503 -0.18811280580E+02  0.59210921441E+02 -0.11157007700E+03  0.21481640458E+03  0.17273797527E+03 0.  0.
        -24    2    3    3    0    0  0.35200756906E+02  0.55695620471E+02 -0.12050077505E+03  0.15975730086E+03  0.81614110083E+02 0.  0.
          6    2    1    2  501    0  0.18811280580E+02 -0.59210921441E+02 -0.97921708322E+02  0.20668116369E+03  0.17108081415E+03 0.  0.
         24    2    5    5    0    0  0.23966848359E+02  0.24114882382E+02 -0.13721967953E+02  0.88015853934E+02  0.80016003191E+02 0.  0.
          5    1    5    5  501    0 -0.51555677791E+01 -0.83325803822E+02 -0.84199740369E+02  0.11866530976E+03  0.47000000000E+01 0. -1.
        -11    1    6    6    0    0 -0.18806804178E+01  0.29609301197E+02 -0.40625157335E+02  0.50305577074E+02  0.00000000000E+00 0.  1.
         12    1    6    6    0    0  0.25847528777E+02 -0.54944188156E+01  0.26903189382E+02  0.37710276861E+02  0.00000000000E+00 0. -1.
         -5    1    3    3    0  503 -0.54012037486E+02  0.35153009700E+01  0.89306980554E+01  0.55059103717E+02  0.47000000000E+01 0.  1.
         11    1    4    4    0    0 -0.54978101717E+01  0.32953755555E+02 -0.32371455918E+01  0.33565682377E+02  0.00000000000E+00 0. -1.
        -12    1    4    4    0    0  0.40698567078E+02  0.22741864916E+02 -0.11726362946E+03  0.12619161849E+03  0.00000000000E+00 0.  1.
</event>
<event>
12    1  0.8724767E-002  0.2672418E+03  0.7818608E-02  0.1102954E+00
         21   -1    0    0  503  502  0.00000000000E+00  0.00000000000E+00  0.12474103253E+03  0.12474103253E+03  0.00000000000E+00 0. -1.
         21   -1    0    0  501  503 -0.00000000000E+00 -0.00000000000E+00 -0.64859292337E+03  0.64859292337E+03  0.00000000000E+00 0. -1.
          6    2    1    2  501    0  0.13480730968E+03 -0.15358927257E+03 -0.12816141417E+03  0.29585188261E+03  0.17129014265E+03 0.  0.
         24    2    3    3    0    0 -0.16608435383E+00 -0.74353207310E+02 -0.43907980989E+02  0.11804045964E+03  0.80481130064E+02 0.  0.
         -6    2    1    2    0  502 -0.13480730968E+03  0.15358927257E+03 -0.39569047668E+03  0.47748207329E+03  0.17220772801E+03 0.  0.
        -24    2    5    5    0    0 -0.16242311604E+03  0.15225644180E+03 -0.32946885477E+03  0.40556682868E+03  0.79821260137E+02 0.  0.
          5    1    3    3  501    0  0.13497339404E+03 -0.79236065260E+02 -0.84253433176E+02  0.17781142297E+03  0.47000000000E+01 0. -1.
        -11    1    4    4    0    0  0.26294807830E+01  0.39267231957E+01  0.17741335855E+02  0.18359965201E+02  0.00000000000E+00 0.  1.
         12    1    4    4    0    0 -0.27955651368E+01 -0.78279930505E+02 -0.61649316845E+02  0.99680494440E+02  0.00000000000E+00 0. -1.
         -5    1    5    5    0  502  0.27615806356E+02  0.13328307672E+01 -0.66221621908E+02  0.71915244606E+02  0.47000000000E+01 0.  1.
         13    1    6    6    0    0 -0.39323829780E+02 -0.15866999240E+01 -0.50177609481E+02  0.63770476699E+02  0.00000000000E+00 0. -1.
        -14    1    6    6    0    0 -0.12309928626E+03  0.15384314173E+03 -0.27929124529E+03  0.34179635198E+03  0.00000000000E+00 0.  1.
</event>
<event>
12    1  0.8724767E-002  0.1940472E+03  0.7818608E-02  0.1155541E+00
         21   -1    0    0  501  502  0.00000000000E+00  0.00000000000E+00  0.15255429966E+03  0.15255429966E+03  0.00000000000E+00 0.  1.
         21   -1    0    0  502  503 -0.00000000000E+00 -0.00000000000E+00 -0.32504463261E+03  0.32504463261E+03  0.00000000000E+00 0. -1.
         -6    2    1    2    0  503 -0.58012547730E+02  0.58196984088E+02 -0.20575082526E+03  0.28072191861E+03  0.17239213684E+03 0.  0.
        -24    2    3    3    0    0  0.32085800742E+02  0.57556385606E+01 -0.94618503371E+02  0.12827425518E+03  0.80243363445E+02 0.  0.
          6    2    1    2  501    0  0.58012547730E+02 -0.58196984088E+02  0.33260492303E+02  0.19687701366E+03  0.17578951478E+03 0.  0.
         24    2    5    5    0    0 -0.20285723106E+02 -0.59695681317E+02  0.53036126273E+02  0.11596946761E+03  0.81614960620E+02 0.  0.
          5    1    5    5  501    0  0.78298270836E+02  0.14986972291E+01 -0.19775633970E+02  0.80907546052E+02  0.47000000000E+01 0. -1.
        -11    1    6    6    0    0  0.96987524310E+00  0.13547619073E+01  0.51273525423E+02  0.51300589149E+02  0.00000000000E+00 0.  1.
         12    1    6    6    0    0 -0.21255598349E+02 -0.61050443225E+02  0.17626008499E+01  0.64668878457E+02  0.00000000000E+00 0. -1.
         -5    1    3    3    0  503 -0.90098348472E+02  0.52441345528E+02 -0.11113232189E+03  0.15244766343E+03  0.47000000000E+01 0.  1.
         13    1    4    4    0    0  0.50614489114E+02  0.25818889575E+02 -0.48632759623E+02  0.74790285972E+02  0.00000000000E+00 0. -1.
        -14    1    4    4    0    0 -0.18528688372E+02 -0.20063251014E+02 -0.45985743747E+02  0.53483969206E+02  0.00000000000E+00 0.  1.
</event>
<event>
12    1  0.8724767E-002  0.2456306E+03  0.7818608E-02  0.1116255E+00
         21   -1    0    0  503  502  0.00000000000E+00  0.00000000000E+00  0.40666401703E+03  0.40666401703E+03  0.00000000000E+00 0.  1.
         21   -1    0    0  501  503 -0.00000000000E+00 -0.00000000000E+00 -0.16649258088E+03  0.16649258088E+03  0.00000000000E+00 0. -1.
          6    2    1    2  501    0 -0.79802933144E+02 -0.15588145525E+03  0.24214648110E+02  0.24682127750E+03  0.17224069674E+03 0.  0.
         24    2    3    3    0    0 -0.91777780141E+02 -0.40762263123E+02  0.29367618750E+02  0.13087099305E+03  0.78613209891E+02 0.  0.
         -6    2    1    2    0  502  0.79802933144E+02  0.15588145525E+03  0.21595678804E+03  0.32633532041E+03  0.17085043405E+03 0.  0.
        -24    2    5    5    0    0 -0.23166486390E+02  0.55322674300E+02  0.10736888173E+03  0.14597957977E+03  0.78642714613E+02 0.  0.
          5    1    3    3  501    0  0.11974846997E+02 -0.11511919213E+03 -0.51529706401E+01  0.11595028445E+03  0.47000000000E+01 0. -1.
        -11    1    4    4    0    0 -0.28462213566E+02 -0.58721047436E+01  0.48093975314E+02  0.56192612296E+02  0.00000000000E+00 0.  1.
         12    1    4    4    0    0 -0.63315566574E+02 -0.34890158380E+02 -0.18726356564E+02  0.74678380758E+02  0.00000000000E+00 0. -1.
         -5    1    5    5    0  502  0.10296941953E+03  0.10055878095E+03  0.10858790630E+03  0.18035574064E+03  0.47000000000E+01 0.  1.
         13    1    6    6    0    0 -0.23530121653E+02  0.50970694431E+02  0.21681697044E+02  0.60181178972E+02  0.00000000000E+00 0. -1.
        -14    1    6    6    0    0  0.36363526231E+00  0.43519798694E+01  0.85687184691E+02  0.85798400799E+02  0.00000000000E+00 0.  1.
</event>
<event>
12    1  0.8724767E-002  0.1782562E+03  0.7818608E-02  0.1169943E+00
         21   -1    0    0  501  502  0.00000000000E+00  0.00000000000E+00  0.18180596995E+04  0.18180596995E+04  0.00000000000E+00 0. -1.
         21   -1    0    0  502  503 -0.00000000000E+00 -0.00000000000E+00 -0.45412574797E+02  0.45412574797E+02  0.00000000000E+00 0.  1.
         -6    2    1    2    0  503 -0.22553270773E+02  0.34248182436E+02  0.15497704508E+03  0.23620578977E+03  0.17347536597E+03 0.  0.
        -24    2    3    3    0    0  0.56749969514E+02  0.19595059437E+02  0.72635768084E+02  0.12085461366E+03  0.75666091765E+02 0.  0.
          6    2    1    2  501    0  0.22553270773E+02 -0.34248182436E+02  0.16176700796E+04  0.16272664845E+04  0.17163372958E+03 0.  0.
         24    2    5    5    0    0  0.29550903614E+02  0.17371821803E+02  0.36016334845E+03  0.36867248302E+03  0.70899408077E+02 0.  0.
          5    1    5    5  501    0 -0.69976328415E+01 -0.51620004239E+02  0.12575067312E+04  0.12585940015E+04  0.47000000000E+01 0. -1.
        -13    1    6    6    0    0  0.48728568489E+02 -0.53248083128E+01  0.22810582137E+03  0.23331329305E+03  0.00000000000E+00 0.  1.
         14    1    6    6    0    0 -0.19177664875E+02  0.22696630115E+02  0.13205752709E+03  0.13535918997E+03  0.00000000000E+00 0. -1.
         -5    1    3    3    0  503 -0.79303240286E+02  0.14653122999E+02  0.82341276998E+02  0.11535117612E+03  0.47000000000E+01 0.  1.
         11    1    4    4    0    0  0.58975670836E+02 -0.73241235246E+01  0.72628121338E+02  0.93843574874E+02  0.00000000000E+00 0. -1.
        -12    1    4    4    0    0 -0.22257013228E+01  0.26919182962E+02  0.76467464569E-02  0.27011038784E+02  0.00000000000E+00 0.  1.
</event>
<event>
12    1  0.8724767E-002  0.3058159E+03  0.7818608E-02  0.1082606E+00
         21   -1    0    0  501  502  0.00000000000E+00  0.00000000000E+00  0.15677236396E+03  0.15677236396E+03  0.00000000000E+00 0. -1.
         21   -1    0    0  502  503 -0.00000000000E+00 -0.00000000000E+00 -0.74901705023E+03  0.74901705023E+03  0.00000000000E+00 0.  1.
         -6    2    1    2    0  503  0.25068611305E+03 -0.25667464085E+02 -0.50221697338E+03  0.58699736052E+03  0.16982834544E+03 0.  0.
        -24    2    3    3    0    0  0.16549411453E+03 -0.76765936069E+02 -0.28158483542E+03  0.34498628484E+03  0.80275813939E+02 0.  0.
          6    2    1    2  501    0 -0.25068611305E+03  0.25667464085E+02 -0.90027712895E+02  0.31879205367E+03  0.17326580276E+03 0.  0.
         24    2    5    5    0    0 -0.23524850775E+03 -0.20860910084E+02 -0.99966456592E+02  0.26855185178E+03  0.79685423261E+02 0.  0.
          5    1    5    5  501    0 -0.15437605305E+02  0.46528374169E+02  0.99387436978E+01  0.50240201897E+02  0.47000000000E+01 0. -1.
        -11    1    6    6    0    0 -0.17135165804E+03  0.18830915174E+02 -0.55143145483E+02  0.18098828850E+03  0.00000000000E+00 0.  1.
         12    1    6    6    0    0 -0.63896849708E+02 -0.39691825258E+02 -0.44823311109E+02  0.87563563277E+02  0.00000000000E+00 0. -1.
         -5    1    3    3    0  503  0.85191998524E+02  0.51098471984E+02 -0.22063213796E+03  0.24201107568E+03  0.47000000000E+01 0.  1.
         13    1    4    4    0    0  0.31978537139E+02  0.25254150286E+01 -0.12736424466E+02  0.34514070562E+02  0.00000000000E+00 0. -1.
        -14    1    4    4    0    0  0.13351557739E+03 -0.79291351097E+02 -0.26884841095E+03  0.31047221427E+03  0.00000000000E+00 0.  1.
</event>
<event>
12    1  0.8724767E-002  0.1990128E+03  0.7818608E-02  0.1150759E+00
         21   -1    0    0  501  502  0.00000000000E+00  0.00000000000E+00  0.94596755154E+02  0.94596755154E+02  0.00000000000E+00 0. -1.
         21   -1    0    0  502  503 -0.00000000000E+00 -0.00000000000E+00 -0.42686374852E+03  0.42686374852E+03  0.00000000000E+00 0.  1.
         -6    2    1    2    0  503  0.91046527686E+02 -0.36623076643E+02 -0.20639385165E+03  0.28671332746E+03  0.17313402381E+03 0.  0.
        -24    2    3    3    0    0  0.12947735153E+03 -0.23383626201E+02 -0.13868051608E+03  0.20759697591E+03  0.80950851346E+02 0.  0.
          6    2    1    2  501    0 -0.91046527686E+02  0.36623076643E+02 -0.12587314172E+03  0.23474717621E+03  0.17213793593E+03 0.  0.
         24    2    5    5    0    0  0.30017073512E+01  0.54121990799E+02 -0.36163083833E+02  0.10351735111E+03  0.80435522086E+02 0.  0.
          5    1    5    5  501    0 -0.94048235037E+02 -0.17498914156E+02 -0.89710057885E+02  0.13122982510E+03  0.47000000000E+01 0. -1.
        -13    1    6    6    0    0  0.14591076532E+02  0.18542423759E+02 -0.56285183270E+02  0.61030671379E+02  0.00000000000E+00 0.  1.
         14    1    6    6    0    0 -0.11589369181E+02  0.35579567040E+02  0.20122099437E+02  0.42486679730E+02  0.00000000000E+00 0. -1.
         -5    1    3    3    0  503 -0.38430823844E+02 -0.13239450442E+02 -0.67713335569E+02  0.79116351554E+02  0.47000000000E+01 0.  1.
         13    1    4    4    0    0  0.57147682457E+02  0.29355379152E+02 -0.67917937574E+02  0.93490331798E+02  0.00000000000E+00 0. -1.
        -14    1    4    4    0    0  0.72329669073E+02 -0.52739005354E+02 -0.70762578503E+02  0.11410664411E+03  0.00000000000E+00 0.  1.
</event>
<event>
12    1  0.8724767E-002  0.1956383E+03  0.7818608E-02  0.1154702E+00
         21   -1    0    0  503  502  0.00000000000E+00  0.00000000000E+00  0.49456515984E+02  0.49456515984E+02  0.00000000000E+00 0.  1.
         21   -1    0    0  501  503 -0.00000000000E+00 -0.00000000000E+00 -0.89671489656E+03  0.89671489656E+03  0.00000000000E+00 0.  1.
          6    2    1    2  501    0  0.72383739628E+02  0.56325152323E+02 -0.61880902205E+03  0.64899841663E+03  0.17280743755E+03 0.  0.
         24    2    3    3    0    0  0.36412242670E+02  0.42500514455E+02 -0.59622602803E+03  0.60408571437E+03  0.79384687805E+02 0.  0.
         -6    2    1    2    0  502 -0.72383739628E+02 -0.56325152323E+02 -0.22844935852E+03  0.29717299591E+03  0.16646546651E+03 0.  0.
        -24    2    5    5    0    0  0.21437857003E+02 -0.23549744657E+02 -0.12826524158E+03  0.15597927569E+03  0.82845579608E+02 0.  0.
          5    1    3    3  501    0  0.35971496957E+02  0.13824637868E+02 -0.22582994017E+02  0.44912702260E+02  0.47000000000E+01 0. -1.
        -13    1    4    4    0    0  0.79202174065E+01 -0.18371768993E+02 -0.28419525174E+03  0.28489856590E+03  0.00000000000E+00 0.  1.
         14    1    4    4    0    0  0.28492025264E+02  0.60872283447E+02 -0.31203077629E+03  0.31918714847E+03  0.00000000000E+00 0. -1.
         -5    1    5    5    0  502 -0.93821596631E+02 -0.32775407666E+02 -0.10018411695E+03  0.14119372022E+03  0.47000000000E+01 0.  1.
         13    1    6    6    0    0  0.32055985722E+02 -0.21675768081E+02 -0.13683802930E+03  0.14220432977E+03  0.00000000000E+00 0. -1.
        -14    1    6    6    0    0 -0.10618128718E+02 -0.18739765765E+01  0.85727877228E+01  0.13774945917E+02  0.00000000000E+00 0.  1.
</event>
<event>
12    1  0.8724767E-002  0.1785190E+03  0.7818608E-02  0.1169546E+00
         21   -1    0    0  503  502  0.00000000000E+00  0.00000000000E+00  0.38660976444E+03  0.38660976444E+03  0.00000000000E+00 0. -1.
         21   -1    0    0  501  503 -0.00000000000E+00 -0.00000000000E+00 -0.10748923910E+03  0.10748923910E+03  0.00000000000E+00 0.  1.
          6    2    1    2  501    0 -0.40961598202E+02 -0.20127137358E+02  0.25981541866E+03  0.31453920942E+03  0.17131231217E+03 0.  0.
         24    2    3    3    0    0 -0.57888716902E+02 -0.57147723449E+02  0.16442064429E+03  0.21071578182E+03  0.10368233503E+03 0.  0.
         -6    2    1    2    0  502  0.40961598202E+02  0.20127137358E+02  0.19305106677E+02  0.17955979412E+03  0.17258643729E+03 0.  0.
        -24    2    5    5    0    0  0.10185110564E+02  0.45719333895E+01  0.80072567442E+02  0.10953172226E+03  0.73898193965E+02 0.  0.
          5    1    3    3  501    0  0.16927118700E+02  0.37020586092E+02  0.95394774370E+02  0.10382342760E+03  0.47000000000E+01 0. -1.
        -13    1    4    4    0    0 -0.88050302044E+02 -0.37930828124E+02  0.11522720977E+03  0.14989634179E+03  0.00000000000E+00 0.  1.
         14    1    4    4    0    0  0.30161585142E+02 -0.19216895326E+02  0.49193434525E+02  0.60819440022E+02  0.00000000000E+00 0. -1.
         -5    1    5    5    0  502  0.30776487638E+02  0.15555203968E+02 -0.60767460765E+02  0.70028071869E+02  0.47000000000E+01 0.  1.
         13    1    6    6    0    0  0.12170484619E+02  0.36136586420E+02  0.23708477581E+02  0.44900617848E+02  0.00000000000E+00 0. -1.
        -14    1    6    6    0    0 -0.19853740553E+01 -0.31564653030E+02  0.56364089861E+02  0.64631104407E+02  0.00000000000E+00 0.  1.
</event>
<event>
12    1  0.8724767E-002  0.1800309E+03  0.7818608E-02  0.1169551E+00
         21   -1    0    0  503  502  0.00000000000E+00  0.00000000000E+00  0.10710471801E+03  0.10710471801E+03  0.00000000000E+00 0. -1.
         21   -1    0    0  501  503 -0.00000000000E+00 -0.00000000000E+00 -0.39410967330E+03  0.39410967330E+03  0.00000000000E+00 0. -1.
          6    2    1    2  501    0  0.28061687209E+02  0.55973393806E+01 -0.26973006192E+03  0.32035661566E+03  0.17045605415E+03 0.  0.
         24    2    3    3    0    0  0.50101499070E+02  0.24454738988E+02 -0.73311065517E+02  0.12175181467E+03  0.79629125203E+02 0.  0.
         -6    2    1    2    0  502 -0.28061687209E+02 -0.55973393806E+01 -0.17274893362E+02  0.18085777564E+03  0.17774229821E+03 0.  0.
        -24    2    5    5    0    0 -0.59926331940E+02 -0.51309670119E+02 -0.44786589963E+02  0.11853638112E+03  0.76296707011E+02 0.  0.
          5    1    3    3  501    0 -0.22039811861E+02 -0.18857399608E+02 -0.19641899641E+03  0.19860480099E+03  0.47000000000E+01 0. -1.
        -13    1    4    4    0    0 -0.38998190177E+01  0.31964423920E+02 -0.23816170681E+01  0.32289395857E+02  0.00000000000E+00 0.  1.
         14    1    4    4    0    0  0.54001318087E+02 -0.75096849323E+01 -0.70929448449E+02  0.89462418815E+02  0.00000000000E+00 0. -1.
         -5    1    5    5    0  502  0.31864644731E+02  0.45712330738E+02  0.27511696601E+02  0.62321394522E+02  0.47000000000E+01 0.  1.
         11    1    6    6    0    0 -0.49663627203E+02 -0.33246151910E+02  0.94041477518E+01  0.60499756022E+02  0.00000000000E+00 0. -1.
        -12    1    6    6    0    0 -0.10262704737E+02 -0.18063518209E+02 -0.54190737715E+02  0.58036625097E+02  0.00000000000E+00 0.  1.
</event>
<event>
12    1  0.8724767E-002  0.2028457E+03  0.7818608E-02  0.1147363E+00
         21   -1    0    0  501  502  0.00000000000E+00  0.00000000000E+00  0.19496998453E+03  0.19496998453E+03  0.00000000000E+00 0. -1.
         21   -1    0    0  502  503 -0.00000000000E+00 -0.00000000000E+00 -0.28954824503E+03  0.28954824503E+03  0.00000000000E+00 0. -1.
         -6    2    1    2    0  503  0.10763750842E+03 -0.63320570815E+00 -0.17344773136E+03  0.26687917327E+03  0.17191318577E+03 0.  0.
        -24    2    3    3    0    0  0.11445767495E+03 -0.13222780754E+02 -0.19522625696E+03  0.24039509789E+03  0.80006939689E+02 0.  0.
          6    2    1    2  501    0 -0.10763750842E+03  0.63320570815E+00  0.78869470857E+02  0.21763905629E+03  0.17193060002E+03 0.  0.
         24    2    5    5    0    0 -0.59588798206E+02  0.66987793250E+02  0.35598286759E+02  0.12487001397E+03  0.79291191512E+02 0.  0.
          5    1    5    5  501    0 -0.48048710216E+02 -0.66354587542E+02  0.43271184097E+02  0.92769042328E+02  0.47000000000E+01 0. -1.
        -11    1    6    6    0    0  0.16191830980E+02  0.26013596226E+02 -0.23550940554E+01  0.30731564345E+02  0.00000000000E+00 0.  1.
         12    1    6    6    0    0 -0.75780629187E+02  0.40974197024E+02  0.37953380815E+02  0.94138449621E+02  0.00000000000E+00 0. -1.
         -5    1    3    3    0  503 -0.68201665245E+01  0.12589575046E+02  0.21778525602E+02  0.26484075378E+02  0.47000000000E+01 0.  1.
         13    1    4    4    0    0  0.12231275327E+03 -0.86836831323E+01 -0.14749229701E+03  0.19180665693E+03  0.00000000000E+00 0. -1.
        -14    1    4    4    0    0 -0.78550783209E+01 -0.45390976218E+01 -0.47733959953E+02  0.48588440965E+02  0.00000000000E+00 0.  1.
</event>
<event>
12    1  0.8724767E-002  0.2148025E+03  0.7818608E-02  0.1137948E+00
         21   -1    0    0  501  502  0.00000000000E+00  0.00000000000E+00  0.99969350926E+03  0.99969350926E+03  0.00000000000E+00 0. -1.
         21   -1    0    0  502  503 -0.00000000000E+00 -0.00000000000E+00 -0.23435194195E+03  0.23435194195E+03  0.00000000000E+00 0.  1.
         -6    2    1    2    0  503  0.67482287333E+02  0.10899636705E+03 -0.17035814854E+03  0.27415693612E+03  0.17235445950E+03 0.  0.
        -24    2    3    3    0    0  0.10907890273E+03  0.10761465083E+03 -0.14496306375E+03  0.22517543059E+03  0.78807135442E+02 0.  0.
          6    2    1    2  501    0 -0.67482287333E+02 -0.10899636705E+03  0.93569971585E+03  0.95988851510E+03  0.17151657655E+03 0.  0.
         24    2    5    5    0    0 -0.78161198413E+02 -0.75177388552E+01  0.46243866698E+03  0.47572938681E+03  0.79392943146E+02 0.  0.
          5    1    5    5  501    0  0.10678911079E+02 -0.10147862820E+03  0.47326104887E+03  0.48415912828E+03  0.47000000000E+01 0. -1.
        -13    1    6    6    0    0 -0.75963882962E+01  0.30467979476E+02  0.14050857806E+03  0.14397452343E+03  0.00000000000E+00 0.  1.
         14    1    6    6    0    0 -0.70564810117E+02 -0.37985718332E+02  0.32193008892E+03  0.33175486338E+03  0.00000000000E+00 0. -1.
         -5    1    3    3    0  503 -0.41596615394E+02  0.13817162250E+01 -0.25395084798E+02  0.48981505529E+02  0.47000000000E+01 0.  1.
         11    1    4    4    0    0  0.24906245494E+02 -0.10192348302E+02 -0.29963863000E+02  0.40274534316E+02  0.00000000000E+00 0. -1.
        -12    1    4    4    0    0  0.84172657234E+02  0.11780699913E+03 -0.11499920075E+03  0.18490089627E+03  0.00000000000E+00 0.  1.
</event>
<event>
12    1  0.8724767E-002  0.2133001E+03  0.7818608E-02  0.1139005E+00
         21   -1    0    0  501  502  0.00000000000E+00  0.00000000000E+00  0.28252674868E+03  0.28252674868E+03  0.00000000000E+00 0. -1.
         21   -1    0    0  502  503 -0.00000000000E+00 -0.00000000000E+00 -0.21674548915E+03  0.21674548915E+03  0.00000000000E+00 0. -1.
         -6    2    1    2    0  503  0.11654805340E+03 -0.47932568348E+02 -0.93775062880E+02  0.23300359741E+03  0.17209280674E+03 0.  0.
        -24    2    3    3    0    0  0.35934969515E+02 -0.75588846796E+02 -0.92143962947E+02  0.14763328924E+03  0.79373058342E+02 0.  0.
          6    2    1    2  501    0 -0.11654805340E+03  0.47932568348E+02  0.15955632241E+03  0.26626864042E+03  0.17192960476E+03 0.  0.
         24    2    5    5    0    0 -0.13822684155E+03  0.37239510701E+01  0.13902347713E+03  0.21271437418E+03  0.82458172753E+02 0.  0.
          5    1    5    5  501    0  0.21678788152E+02  0.44208617278E+02  0.20532845276E+02  0.53554266240E+02  0.47000000000E+01 0. -1.
        -11    1    6    6    0    0 -0.31002398309E+02 -0.31714646990E+02  0.20028468119E+02  0.48663200366E+02  0.00000000000E+00 0.  1.
         12    1    6    6    0    0 -0.10722444324E+03  0.35438598060E+02  0.11899500901E+03  0.16405117382E+03  0.00000000000E+00 0. -1.
         -5    1    3    3    0  503  0.80613083883E+02  0.27656278448E+02 -0.16310999331E+01  0.85370308174E+02  0.47000000000E+01 0.  1.
         11    1    4    4    0    0  0.75682245817E+01 -0.22843227566E+01 -0.63476670420E+02  0.63967052780E+02  0.00000000000E+00 0. -1.
        -12    1    4    4    0    0  0.28366744933E+02 -0.73304524039E+02 -0.28667292527E+02  0.83666236461E+02  0.00000000000E+00 0.  1.
</event>
<event>
12    1  0.8724767E-002  0.2198104E+03  0.7818608E-02  0.1134132E+00
         21   -1    0    0  501  502  0.00000000000E+00  0.00000000000E+00  0.95145374170E+03  0.95145374170E+03  0.00000000000E+00 0.  1.
         21   -1    0    0  502  503 -0.00000000000E+00 -0.00000000000E+00 -0.36460539356E+03  0.36460539356E+03  0.00000000000E+00 0. -1.
         -6    2    1    2    0  503  0.13502995921E+03 -0.79158050906E+01 -0.31724563589E+03  0.38562776633E+03  0.17253472350E+03 0.  0.
        -24    2    3    3    0    0  0.14965649354E+02 -0.12879219686E+02 -0.20323152657E+03  0.21991300805E+03  0.81662921555E+02 0.  0.
          6    2    1    2  501    0 -0.13502995921E+03  0.79158050906E+01  0.90409398403E+03  0.93043136893E+03  0.17326526046E+03 0.  0.
         24    2    5    5    0    0 -0.15528339466E+03  0.34246028348E+02  0.64502854103E+03  0.66920258786E+03  0.80526776548E+02 0.  0.
          5    1    5    5  501    0  0.20253435449E+02 -0.26330223257E+02  0.25906544300E+03  0.26122878107E+03  0.47000000000E+01 0. -1.
        -13    1    6    6    0    0 -0.65183841256E+02  0.39538722616E+02  0.41792560534E+03  0.42482238094E+03  0.00000000000E+00 0.  1.
         14    1    6    6    0    0 -0.90099553407E+02 -0.52926942682E+01  0.22710293569E+03  0.24438020692E+03  0.00000000000E+00 0. -1.
         -5    1    3    3    0  503  0.12006430986E+03  0.49634145958E+01 -0.11401410933E+03  0.16571475828E+03  0.47000000000E+01 0.  1.
         13    1    4    4    0    0  0.22985088275E+02  0.24992172578E+02 -0.15174251081E+03  0.15549505638E+03  0.00000000000E+00 0. -1.
        -14    1    4    4    0    0 -0.80194389210E+01 -0.37871392265E+02 -0.51489015757E+02  0.64417951662E+02  0.00000000000E+00 0.  1.
</event>
<event>
12    1  0.8724767E-002  0.1909671E+03  0.7818608E-02  0.1157697E+00
         21   -1    0    0  503  502  0.00000000000E+00  0.00000000000E+00  0.59461155277E+03  0.59461155277E+03  0.00000000000E+00 0.  1.
         21   -1    0    0  501  503 -0.00000000000E+00 -0.00000000000E+00 -0.78934775836E+02  0.78934775836E+02  0.00000000000E+00 0.  1.
          6    2    1    2  501    0 -0.79378314717E+02  0.19903714893E+02  0.41730864438E+03  0.45873313858E+03  0.17202474544E+03 0.  0.
         24    2    3    3    0    0 -0.77519073281E+02  0.75115996381E+02  0.31442646845E+03  0.34186276197E+03  0.79715270328E+02 0.  0.
         -6    2    1    2    0  502  0.79378314717E+02 -0.19903714893E+02  0.98368132558E+02  0.21481319003E+03  0.17254374052E+03 0.  0.
        -24    2    5    5    0    0  0.11891856669E+03  0.18928602996E+01  0.86942496310E+02  0.16800338999E+03  0.80752293828E+02 0.  0.
          5    1    3    3  501    0 -0.18592414352E+01 -0.55212281488E+02  0.10288217593E+03  0.11687037661E+03  0.47000000000E+01 0. -1.
        -11    1    4    4    0    0 -0.15303240962E+01 -0.51027980074E+01  0.10446684586E+03  0.10460259233E+03  0.00000000000E+00 0.  1.
         12    1    4    4    0    0 -0.75988749185E+02  0.80218794389E+02  0.20995962259E+03  0.23726016964E+03  0.00000000000E+00 0. -1.
         -5    1    5    5    0  502 -0.39540251973E+02 -0.21796575193E+02  0.11425636248E+02  0.46809800042E+02  0.47000000000E+01 0.  1.
         13    1    6    6    0    0  0.79995369927E+02  0.39070315058E+02  0.63173752697E+02  0.10916350928E+03  0.00000000000E+00 0. -1.
        -14    1    6    6    0    0  0.38923196763E+02 -0.37177454759E+02  0.23768743613E+02  0.58839880707E+02  0.00000000000E+00 0.  1.
</event>
<event>
12    1  0.8724767E-002  0.1842337E+03  0.7818608E-02  0.1164411E+00
         21   -1    0    0  501  502  0.00000000000E+00  0.00000000000E+00  0.67169384394E+02  0.67169384394E+02  0.00000000000E+00 0.  1.
         21   -1    0    0  502  503 -0.00000000000E+00 -0.00000000000E+00 -0.63408927262E+03  0.63408927262E+03  0.00000000000E+00 0.  1.
         -6    2    1    2    0  503 -0.62493298952E+02  0.16139501902E+01 -0.44430648704E+03  0.47995321340E+03  0.17040779140E+03 0.  0.
        -24    2    3    3    0    0 -0.45856074061E+02  0.56306428468E+02 -0.37235914712E+03  0.38793922449E+03  0.81069809666E+02 0.  0.
          6    2    1    2  501    0  0.62493298952E+02 -0.16139501902E+01 -0.12261340118E+03  0.22130544361E+03  0.17330330630E+03 0.  0.
         24    2    5    5    0    0  0.10428548677E+02 -0.63699130260E+02 -0.69005076314E+02  0.12403648505E+03  0.80355555146E+02 0.  0.
          5    1    5    5  501    0  0.52064750274E+02  0.62085180070E+02 -0.53608324863E+02  0.97268958564E+02  0.47000000000E+01 0. -1.
        -13    1    6    6    0    0 -0.30192380938E+02 -0.73974322861E+01 -0.92397850946E+01  0.32429546709E+02  0.00000000000E+00 0.  1.
         14    1    6    6    0    0  0.40620929615E+02 -0.56301697974E+02 -0.59765291219E+02  0.91606938340E+02  0.00000000000E+00 0. -1.
         -5    1    3    3    0  503 -0.16637224891E+02 -0.54692478277E+02 -0.71947339923E+02  0.92013988905E+02  0.47000000000E+01 0.  1.
         11    1    4    4    0    0 -0.43080079491E+02  0.28406129434E+02 -0.86605015481E+02  0.10081284712E+03  0.00000000000E+00 0. -1.
        -12    1    4    4    0    0 -0.27759945701E+01  0.27900299034E+02 -0.28575413164E+03  0.28712637737E+03  0.00000000000E+00 0.  1.
</event>
<event>
12    1  0.8724767E-002  0.2170163E+03  0.7818608E-02  0.1136659E+00
         21   -1    0    0  501  502  0.00000000000E+00  0.00000000000E+00  0.79015289310E+03  0.79015289310E+03  0.00000000000E+00 0.  1.
         21   -1    0    0  502  503 -0.00000000000E+00 -0.00000000000E+00 -0.59674052221E+02  0.59674052221E+02  0.00000000000E+00 0.  1.
         -6    2    1    2    0  503 -0.11534560742E+03 -0.66517247049E+02  0.31738558069E+03  0.38448624837E+03  0.17136777716E+03 0.  0.
        -24    2    3    3    0    0 -0.70441223010E+02 -0.27740689283E+02  0.29228021331E+03  0.31989217246E+03  0.10569658068E+03 0.  0.
          6    2    1    2  501    0  0.11534560742E+03  0.66517247049E+02  0.41309326019E+03  0.46534069695E+03  0.16782958416E+03 0.  0.
         24    2    5    5    0    0  0.10876392666E+03  0.10747088817E+03  0.31383312628E+03  0.35765976351E+03  0.77779764337E+02 0.  0.
          5    1    5    5  501    0  0.65816807662E+01 -0.40953641118E+02  0.99260133908E+02  0.10768093344E+03  0.47000000000E+01 0. -1.
        -11    1    6    6    0    0  0.10872442418E+02  0.63166940588E+02  0.11616345055E+03  0.13267335690E+03  0.00000000000E+00 0.  1.
         12    1    6    6    0    0  0.97891484238E+02  0.44303947578E+02  0.19766967573E+03  0.22498640662E+03  0.00000000000E+00 0. -1.
         -5    1    3    3    0  503 -0.44904384412E+02 -0.38776557765E+02  0.25105367383E+02  0.64594075912E+02  0.47000000000E+01 0.  1.
         13    1    4    4    0    0  0.21908345780E+02 -0.27119632106E+02  0.11251173552E+03  0.11778939124E+03  0.00000000000E+00 0. -1.
        -14    1    4    4    0    0 -0.92349568790E+02 -0.62105717773E+00  0.17976847779E+03  0.20210278122E+03  0.00000000000E+00 0.  1.
</event>
<event>
12    1  0.8724767E-002  0.2002878E+03  0.7818608E-02  0.1153333E+00
         21   -1    0    0  501  502  0.00000000000E+00  0.00000000000E+00  0.17439925334E+03  0.17439925334E+03  0.00000000000E+00 0. -1.
         21   -1    0    0  502  503 -0.00000000000E+00 -0.00000000000E+00 -0.49453512238E+03  0.49453512238E+03  0.00000000000E+00 0. -1.
         -6    2    1    2    0  503  0.22516867069E+02  0.57991685440E+02 -0.41034314295E+03  0.44926972545E+03  0.17202251701E+03 0.  0.
        -24    2    3    3    0    0 -0.27961468760E+00  0.21469925463E+01 -0.36609407316E+03  0.37431387523E+03  0.77982812381E+02 0.  0.
          6    2    1    2  501    0 -0.22516867069E+02 -0.57991685440E+02  0.90207273906E+02  0.21966465027E+03  0.19038162052E+03 0.  0.
         24    2    5    5    0    0  0.39625709859E+02  0.89339987670E+01  0.91085993632E+02  0.12821187982E+03  0.80570557130E+02 0.  0.
          5    1    5    5  501    0 -0.62142576928E+02 -0.66925684207E+02 -0.87871972622E+00  0.91452770446E+02  0.47000000000E+01 0. -1.
        -13    1    6    6    0    0 -0.14139384569E+02 -0.12659207446E+02 -0.14501067906E+01  0.19033668560E+02  0.00000000000E+00 0.  1.
         14    1    6    6    0    0  0.53765094428E+02  0.21593206213E+02  0.92536100422E+02  0.10917821126E+03  0.00000000000E+00 0. -1.
         -5    1    3    3    0  503  0.22796481757E+02  0.55844692894E+02 -0.44249069788E+02  0.74955850219E+02  0.47000000000E+01 0.  1.
         11    1    4    4    0    0  0.32795825303E+02 -0.14556930149E+02 -0.11406542806E+03  0.11957588491E+03  0.00000000000E+00 0. -1.
        -12    1    4    4    0    0 -0.33075439991E+02  0.16703922696E+02 -0.25202864510E+03  0.25473799032E+03  0.00000000000E+00 0.  1.
</event>
<event>
12    1  0.8724767E-002  0.1724265E+03  0.7818608E-02  0.1175395E+00
         21   -1    0    0  503  502  0.00000000000E+00  0.00000000000E+00  0.10266634402E+04  0.10266634402E+04  0.00000000000E+00 0. -1.
         21   -1    0    0  501  503 -0.00000000000E+00 -0.00000000000E+00 -0.36604464377E+02  0.36604464377E+02  0.00000000000E+00 0. -1.
          6    2    1    2  501    0  0.10426044837E+02  0.29016112437E+01  0.25125822950E+03  0.30461288011E+03  0.17187549877E+03 0.  0.
         24    2    3    3    0    0 -0.60985577888E+02  0.17700767528E+01  0.13886363892E+03  0.17136298622E+03  0.79748284933E+02 0.  0.
         -6    2    1    2    0  502 -0.10426044837E+02 -0.29016112437E+01  0.73880074633E+03  0.75865502447E+03  0.17208655270E+03 0.  0.
        -24    2    5    5    0    0 -0.28894796637E+02 -0.65407340272E+02  0.46207385104E+03  0.47431732818E+03  0.79697268245E+02 0.  0.
          5    1    3    3  501    0  0.71411622725E+02  0.11315344909E+01  0.11239459058E+03  0.13324989389E+03  0.47000000000E+01 0. -1.
        -11    1    4    4    0    0 -0.52782767838E+02 -0.33332837547E+02  0.10347083452E+03  0.12084416509E+03  0.00000000000E+00 0.  1.
         12    1    4    4    0    0 -0.82028100498E+01  0.35102914300E+02  0.35392804394E+02  0.50518821126E+02  0.00000000000E+00 0. -1.
         -5    1    5    5    0  502  0.18468751800E+02  0.62505729028E+02  0.27672689529E+03  0.28433769629E+03  0.47000000000E+01 0.  1.
         11    1    6    6    0    0  0.10108398161E+02 -0.67266442992E+02  0.29554423367E+03  0.30327108026E+03  0.00000000000E+00 0. -1.
        -12    1    6    6    0    0 -0.39003194798E+02  0.18591027198E+01  0.16652961737E+03  0.17104624792E+03  0.00000000000E+00 0.  1.
</event>
<event>
12    1  0.8724767E-002  0.2178039E+03  0.7818608E-02  0.1135587E+00
         21   -1    0    0  501  502  0.00000000000E+00  0.00000000000E+00  0.10235854240E+04  0.10235854240E+04  0.00000000000E+00 0.  1.
         21   -1    0    0  502  503 -0.00000000000E+00 -0.00000000000E+00 -0.72860352985E+02  0.72860352985E+02  0.00000000000E+00 0.  1.
         -6    2    1    2    0  503 -0.11067333535E+03  0.73584254811E+02  0.14404888736E+03  0.26088309464E+03  0.17218210536E+03 0.  0.
        -24    2    3    3    0    0 -0.13572283062E+02  0.88156349031E+02  0.82961149338E+02  0.14514735244E+03  0.78926883125E+02 0.  0.
          6    2    1    2  501    0  0.11067333535E+03 -0.73584254811E+02  0.80667618367E+03  0.83556268236E+03  0.17255521184E+03 0.  0.
         24    2    5    5    0    0  0.11591029390E+03 -0.95968453345E+02  0.51254927814E+03  0.54050132495E+03  0.82400118203E+02 0.  0.
          5    1    5    5  501    0 -0.52369585535E+01  0.22384198534E+02  0.29412690553E+03  0.29506135741E+03  0.47000000000E+01 0. -1.
        -11    1    6    6    0    0 -0.55781052460E+00 -0.40796297859E+02  0.91825795403E+02  0.10048196740E+03  0.00000000000E+00 0.  1.
         12    1    6    6    0    0  0.11646810443E+03 -0.55172155486E+02  0.42072348274E+03  0.44001935755E+03  0.00000000000E+00 0. -1.
         -5    1    3    3    0  503 -0.97101052288E+02 -0.14572094220E+02  0.61087738017E+02  0.11573574219E+03  0.47000000000E+01 0.  1.
         11    1    4    4    0    0  0.14198825488E+01  0.23350075866E+01  0.52922776725E+02  0.52993288473E+02  0.00000000000E+00 0. -1.
        -12    1    4    4    0    0 -0.14992165611E+02  0.85821341444E+02  0.30038372613E+02  0.92154063970E+02  0.00000000000E+00 0.  1.
</event>
<event>
12    1  0.8724767E-002  0.2043872E+03  0.7818608E-02  0.1146246E+00
         21   -1    0    0  501  502  0.00000000000E+00  0.00000000000E+00  0.60293842580E+03  0.60293842580E+03  0.00000000000E+00 0. -1.
         21   -1    0    0  502  503 -0.00000000000E+00 -0.00000000000E+00 -0.89513240614E+02  0.89513240614E+02  0.00000000000E+00 0. -1.
         -6    2    1    2    0  503 -0.41171922513E+02  0.99975822599E+02  0.91447172949E+02  0.22391232712E+03  0.17344697313E+03 0.  0.
        -24    2    3    3    0    0 -0.67285667467E+02  0.98787564376E+02  0.17225346355E+02  0.14508143739E+03  0.80408749493E+02 0.  0.
          6    2    1    2  501    0  0.41171922513E+02 -0.99975822599E+02  0.42197801223E+03  0.46853933929E+03  0.17254963734E+03 0.  0.
         24    2    5    5    0    0  0.87506118384E+02 -0.80093292323E+02  0.36724503502E+03  0.39397418984E+03  0.79211680251E+02 0.  0.
          5    1    5    5  501    0 -0.46334195871E+02 -0.19882530276E+02  0.54732977213E+02  0.74565149445E+02  0.47000000000E+01 0. -1.
        -11    1    6    6    0    0 -0.12524542393E+02  0.63263089108E+00  0.19019043731E+02  0.22781317092E+02  0.00000000000E+00 0.  1.
         12    1    6    6    0    0  0.10003066078E+03 -0.80725923214E+02  0.34822599129E+03  0.37119287275E+03  0.00000000000E+00 0. -1.
         -5    1    3    3    0  503  0.26113744954E+02  0.11882582232E+01  0.74221826594E+02  0.78830889733E+02  0.47000000000E+01 0.  1.
         11    1    4    4    0    0  0.14852964741E+02  0.40471310719E+02  0.87565679999E+01  0.43991079050E+02  0.00000000000E+00 0. -1.
        -12    1    4    4    0    0 -0.82138632208E+02  0.58316253657E+02  0.84687783550E+01  0.10109035834E+03  0.00000000000E+00 0.  1.
</event>
<event>
12    1  0.8724767E-002  0.2242072E+03  0.7818608E-02  0.1130897E+00
         21   -1    0    0  503  502  0.00000000000E+00  0.00000000000E+00  0.14843418572E+04  0.14843418572E+04  0.00000000000E+00 0. -1.
         21   -1    0    0  501  503 -0.00000000000E+00 -0.00000000000E+00 -0.63997986150E+02  0.63997986150E+02  0.00000000000E+00 0. -1.
          6    2    1    2  501    0 -0.13945125253E+03  0.26824507988E+02  0.17762284103E+03  0.28555545327E+03  0.17270158417E+03 0.  0.
         24    2    3    3    0    0 -0.12713776518E+03 -0.24602617834E+02  0.17541046465E+03  0.23242019332E+03  0.80504751495E+02 0.  0.
         -6    2    1    2    0  502  0.13945125253E+03 -0.26824507988E+02  0.12427210300E+04  0.12627843901E+04  0.17350115657E+03 0.  0.
        -24    2    5    5    0    0  0.99229826021E+02 -0.84896037285E+02  0.87783641349E+03  0.89109508563E+03  0.79998670424E+02 0.  0.
          5    1    3    3  501    0 -0.12313487347E+02  0.51427125822E+02  0.22123763861E+01  0.53135259953E+02  0.47000000000E+01 0. -1.
        -11    1    4    4    0    0 -0.43533147087E+01  0.14461129953E+02  0.51461226381E+02  0.53631459509E+02  0.00000000000E+00 0.  1.
         12    1    4    4    0    0 -0.12278445047E+03 -0.39063747787E+02  0.12394923827E+03  0.17878873381E+03  0.00000000000E+00 0. -1.
         -5    1    5    5    0  502  0.40221426508E+02  0.58071529298E+02  0.36488461656E+03  0.37168930448E+03  0.47000000000E+01 0.  1.
         13    1    6    6    0    0  0.34187744476E+02 -0.73526650551E+02  0.60358290062E+03  0.60900516265E+03  0.00000000000E+00 0. -1.
        -14    1    6    6    0    0  0.65042081544E+02 -0.11369386734E+02  0.27425351286E+03  0.28208992298E+03  0.00000000000E+00 0.  1.
</event>
<event>
12    1  0.8724767E-002  0.2568567E+03  0.7818608E-02  0.1109102E+00
         21   -1    0    0  503  502  0.00000000000E+00  0.00000000000E+00  0.63001153569E+03  0.63001153569E+03  0.00000000000E+00 0.  1.
         21   -1    0    0  501  503 -0.00000000000E+00 -0.00000000000E+00 -0.26244417559E+03  0.26244417559E+03  0.00000000000E+00 0.  1.
          6    2    1    2  501    0  0.18279747706E+03 -0.56020693484E+02 -0.16235840744E+03  0.30356126216E+03  0.17098523824E+03 0.  0.
         24    2    3    3    0    0  0.13772998833E+03 -0.22110255317E+02 -0.18303894539E+03  0.24330538272E+03  0.78967339178E+02 0.  0.
         -6    2    1    2    0  502 -0.18279747706E+03  0.56020693484E+02  0.52992576755E+03  0.58889444912E+03  0.17152876544E+03 0.  0.
        -24    2    5    5    0    0 -0.90653423487E+02  0.98728321651E+02  0.25801755104E+03  0.29860039765E+03  0.67998648130E+02 0.  0.
          5    1    3    3  501    0  0.45067488726E+02 -0.33910438166E+02  0.20680537945E+02  0.60255879434E+02  0.47000000000E+01 0. -1.
        -13    1    4    4    0    0  0.79225696966E+02  0.60628324698E+01 -0.15159929952E+03  0.17116020744E+03  0.00000000000E+00 0.  1.
         14    1    4    4    0    0  0.58504291365E+02 -0.28173087787E+02 -0.31439645868E+02  0.72145175278E+02  0.00000000000E+00 0. -1.
         -5    1    5    5    0  502 -0.92144053571E+02 -0.42707628167E+02  0.27190821651E+03  0.29029405147E+03  0.47000000000E+01 0.  1.
         11    1    6    6    0    0 -0.42585015805E+02  0.24098280994E+02  0.39988493578E+02  0.63192486393E+02  0.00000000000E+00 0. -1.
        -12    1    6    6    0    0 -0.48068407682E+02  0.74630040657E+02  0.21802905746E+03  0.23540791126E+03  0.00000000000E+00 0.  1.
</event>
<event>
12    1  0.8724767E-002  0.1888386E+03  0.7818608E-02  0.1159667E+00
         21   -1    0    0  503  502  0.00000000000E+00  0.00000000000E+00  0.41806806628E+03  0.41806806628E+03  0.00000000000E+00 0. -1.
         21   -1    0    0  501  503 -0.00000000000E+00 -0.00000000000E+00 -0.87307079448E+02  0.87307079448E+02  0.00000000000E+00 0. -1.
          6    2    1    2  501    0 -0.67428308400E+02  0.31653052509E+02  0.12451819025E+03  0.22619636633E+03  0.17352672397E+03 0.  0.
         24    2    3    3    0    0  0.11460588613E+02 -0.10750337823E+02  0.12631370413E+02  0.82800913001E+02  0.80308933629E+02 0.  0.
         -6    2    1    2    0  502  0.67428308400E+02 -0.31653052509E+02  0.20624279658E+03  0.27917877940E+03  0.17278948815E+03 0.  0.
        -24    2    5    5    0    0  0.10607244305E+03 -0.19833123388E+02  0.19597155548E+03  0.23721846170E+03  0.78886196897E+02 0.  0.
          5    1    3    3  501    0 -0.78888897013E+02  0.42403390332E+02  0.11188681984E+03  0.14339545333E+03  0.47000000000E+01 0. -1.
        -11    1    4    4    0    0  0.28518471927E+01  0.27711738104E+02  0.28918892701E+02  0.40154399712E+02  0.00000000000E+00 0.  1.
         12    1    4    4    0    0  0.86087414204E+01 -0.38462075927E+02 -0.16287522288E+02  0.42646513289E+02  0.00000000000E+00 0. -1.
         -5    1    5    5    0  502 -0.38644134645E+02 -0.11819929121E+02  0.10271241109E+02  0.41960317692E+02  0.47000000000E+01 0.  1.
         13    1    6    6    0    0  0.71162525627E+02 -0.50334388228E+02  0.12254975252E+03  0.15038649386E+03  0.00000000000E+00 0. -1.
        -14    1    6    6    0    0  0.34909917418E+02  0.30501264840E+02  0.73421802956E+02  0.86831967847E+02  0.00000000000E+00 0.  1.
</event>
<event>
12    1  0.8724767E-002  0.3525673E+03  0.7818608E-02  0.1061567E+00
         21   -1    0    0  501  502  0.00000000000E+00  0.00000000000E+00  0.17132948852E+03  0.17132948852E+03  0.00000000000E+00 0.  1.
         21   -1    0    0  502  503 -0.00000000000E+00 -0.00000000000E+00 -0.81371206344E+03  0.81371206344E+03  0.00000000000E+00 0. -1.
         -6    2    1    2    0  503 -0.27559400994E+03  0.13758516280E+03 -0.15904515589E+03  0.38678035958E+03  0.17152827642E+03 0.  0.
        -24    2    3    3    0    0 -0.29235061403E+03  0.11850491502E+03 -0.13722624195E+03  0.35297215582E+03  0.79031670220E+02 0.  0.
          6    2    1    2  501    0  0.27559400994E+03 -0.13758516280E+03 -0.48333741902E+03  0.59826119238E+03  0.17152159729E+03 0.  0.
         24    2    5    5    0    0  0.25499095524E+03 -0.16787650721E+03 -0.43306519649E+03  0.53587980278E+03  0.80117349535E+02 0.  0.
          5    1    5    5  501    0  0.20603054701E+02  0.30291344406E+02 -0.50272222534E+02  0.62381389592E+02  0.47000000000E+01 0. -1.
        -13    1    6    6    0    0  0.64025877218E+02 -0.78061699995E+02 -0.10387616230E+03  0.14485578709E+03  0.00000000000E+00 0.  1.
         14    1    6    6    0    0  0.19096507802E+03 -0.89814807211E+02 -0.32918903419E+03  0.39102401570E+03  0.00000000000E+00 0. -1.
         -5    1    3    3    0  503  0.16756604092E+02  0.19080247779E+02 -0.21818913941E+02  0.33808203762E+02  0.47000000000E+01 0.  1.
         13    1    4    4    0    0 -0.15472617296E+03  0.35406333494E+02 -0.10112483193E+03  0.18820209532E+03  0.00000000000E+00 0. -1.
        -14    1    4    4    0    0 -0.13762444107E+03  0.83098581527E+02 -0.36101410016E+02  0.16477006050E+03  0.00000000000E+00 0.  1.
</event>
<event>
12    1  0.8724767E-002  0.2383703E+03  0.7818608E-02  0.1121250E+00
         21   -1    0    0  503  502  0.00000000000E+00  0.00000000000E+00  0.21022744068E+03  0.21022744068E+03  0.00000000000E+00 0.  1.
         21   -1    0    0  501  503 -0.00000000000E+00 -0.00000000000E+00 -0.27118964216E+03  0.27118964216E+03  0.00000000000E+00 0. -1.
          6    2    1    2  501    0  0.99565037733E+02  0.13015009217E+03 -0.57450119100E+02  0.24519565456E+03  0.17311311215E+03 0.  0.
         24    2    3    3    0    0  0.17022235750E+02  0.97829380127E+02 -0.83946093039E+02  0.15255619633E+03  0.79787858573E+02 0.  0.
         -6    2    1    2    0  502 -0.99565037733E+02 -0.13015009217E+03 -0.35120823803E+01  0.23622142828E+03  0.17010580598E+03 0.  0.
        -24    2    5    5    0    0  0.15595042759E+02 -0.56264881092E+02 -0.63611132240E+01  0.99286861676E+02  0.80052950833E+02 0.  0.
          5    1    3    3  501    0  0.82542801983E+02  0.32320712047E+02  0.26495973939E+02  0.92639458231E+02  0.47000000000E+01 0. -1.
        -11    1    4    4    0    0  0.33386106775E+02  0.81409520397E+01 -0.35120230851E+02  0.49135911925E+02  0.00000000000E+00 0.  1.
         12    1    4    4    0    0 -0.16363871025E+02  0.89688428087E+02 -0.48825862188E+02  0.10342028440E+03  0.00000000000E+00 0. -1.
         -5    1    5    5    0  502 -0.11516008049E+03 -0.73885211082E+02  0.28490308437E+01  0.13693456661E+03  0.47000000000E+01 0.  1.
         13    1    6    6    0    0 -0.27306090817E+02 -0.18945371048E+02 -0.22553230105E+02  0.40164634544E+02  0.00000000000E+00 0. -1.
        -14    1    6    6    0    0  0.42901133576E+02 -0.37319510044E+02  0.16192116881E+02  0.59122227132E+02  0.00000000000E+00 0.  1.
</event>
<event>
12    1  0.8724767E-002  0.1839477E+03  0.7818608E-02  0.1164320E+00
         21   -1    0    0  503  502  0.00000000000E+00  0.00000000000E+00  0.69502328423E+03  0.69502328423E+03  0.00000000000E+00 0. -1.
         21   -1    0    0  501  503 -0.00000000000E+00 -0.00000000000E+00 -0.48680879045E+02  0.48680879045E+02  0.00000000000E+00 0. -1.
          6    2    1    2  501    0  0.15394352814E+02  0.63003980845E+02  0.29436191900E+03  0.34711051750E+03  0.17213449481E+03 0.  0.
         24    2    3    3    0    0 -0.48279770143E+02  0.62903199172E+02  0.21632728211E+03  0.24628443633E+03  0.87010240309E+02 0.  0.
         -6    2    1    2    0  502 -0.15394352814E+02 -0.63003980845E+02  0.35198048619E+03  0.39659364577E+03  0.17085013758E+03 0.  0.
        -24    2    5    5    0    0  0.27100778679E+02 -0.29196184235E+02  0.88198861069E+02  0.12723953115E+03  0.82607444070E+02 0.  0.
          5    1    3    3  501    0  0.63674122957E+02  0.10078167309E+00  0.78034636884E+02  0.10082608117E+03  0.47000000000E+01 0. -1.
        -11    1    4    4    0    0  0.16886084434E+02  0.19420787731E+02  0.11691466015E+03  0.11971359405E+03  0.00000000000E+00 0.  1.
         12    1    4    4    0    0 -0.65165854577E+02  0.43482411441E+02  0.99412621963E+02  0.12657084227E+03  0.00000000000E+00 0. -1.
         -5    1    5    5    0  502 -0.42495131493E+02 -0.33807796610E+02  0.26378162512E+03  0.26935411462E+03  0.47000000000E+01 0.  1.
         11    1    6    6    0    0 -0.29499644925E+02 -0.15740406351E+02  0.35024536824E+02  0.48422181100E+02  0.00000000000E+00 0. -1.
        -12    1    6    6    0    0  0.56600423605E+02 -0.13455777884E+02  0.53174324245E+02  0.78817350054E+02  0.00000000000E+00 0.  1.
</event>
<event>
12    1  0.8724767E-002  0.2150621E+03  0.7818608E-02  0.1138173E+00
         21   -1    0    0  503  502  0.00000000000E+00  0.00000000000E+00  0.28985936603E+03  0.28985936603E+03  0.00000000000E+00 0.  1.
         21   -1    0    0  501  503 -0.00000000000E+00 -0.00000000000E+00 -0.16418666695E+03  0.16418666695E+03  0.00000000000E+00 0. -1.
          6    2    1    2  501    0  0.12729016979E+03 -0.19915225853E+02  0.17247751272E+02  0.21575260618E+03  0.17219842800E+03 0.  0.
         24    2    3    3    0    0  0.41458853926E+02  0.21947065966E+02 -0.44896915113E+02  0.10171964683E+03  0.78298424573E+02 0.  0.
         -6    2    1    2    0  502 -0.12729016979E+03  0.19915225853E+02  0.10842494781E+03  0.23829342679E+03  0.16860718964E+03 0.  0.
        -24    2    5    5    0    0 -0.54508686514E+02  0.73754705960E+02  0.61417712839E+02  0.13617778614E+03  0.79757760941E+02 0.  0.
          5    1    3    3  501    0  0.85831315866E+02 -0.41862291819E+02  0.62144666386E+02  0.11403295936E+03  0.47000000000E+01 0. -1.
        -13    1    4    4    0    0 -0.16163372943E+02  0.26452698351E+02 -0.47868584843E+01  0.31367401694E+02  0.00000000000E+00 0.  1.
         14    1    4    4    0    0  0.57622226868E+02 -0.45056323848E+01 -0.40110056629E+02  0.70352245133E+02  0.00000000000E+00 0. -1.
         -5    1    5    5    0  502 -0.72781483278E+02 -0.53839480106E+02  0.47007234975E+02  0.10211564065E+03  0.47000000000E+01 0.  1.
         11    1    6    6    0    0 -0.70003400306E+02  0.69058997465E+02  0.67069406049E+02  0.11902909902E+03  0.00000000000E+00 0. -1.
        -12    1    6    6    0    0  0.15494713792E+02  0.46957084943E+01 -0.56516932101E+01  0.17148687119E+02  0.00000000000E+00 0.  1.
</event>
<event>
12    1  0.8724767E-002  0.2084913E+03  0.7818608E-02  0.1143211E+00
         21   -1    0    0  501  502  0.00000000000E+00  0.00000000000E+00  0.14772013997E+03  0.14772013997E+03  0.00000000000E+00 0.  1.
         21   -1    0    0  502  503 -0.00000000000E+00 -0.00000000000E+00 -0.50151015617E+03  0.50151015617E+03  0.00000000000E+00 0.  1.
         -6    2    1    2    0  503 -0.27599898285E+00 -0.11840363533E+03 -0.38767760503E+03  0.44018468230E+03  0.17160749417E+03 0.  0.
        -24    2    3    3    0    0  0.22136732560E+02 -0.14932354151E+03 -0.31098886812E+03  0.35438477844E+03  0.78018844644E+02 0.  0.
          6    2    1    2  501    0  0.27599898285E+00  0.11840363533E+03  0.33887588833E+02  0.20904561384E+03  0.16891478015E+03 0.  0.
         24    2    5    5    0    0 -0.42922218199E+02  0.52712376390E+02 -0.27533616057E+02  0.10916527604E+03  0.80858184739E+02 0.  0.
          5    1    5    5  501    0  0.43198217182E+02  0.65691258945E+02  0.61421204890E+02  0.99880337803E+02  0.47000000000E+01 0. -1.
        -11    1    6    6    0    0  0.24138117437E+02  0.11133082229E+02 -0.94801269820E+01  0.28221747659E+02  0.00000000000E+00 0.  1.
         12    1    6    6    0    0 -0.67060335636E+02  0.41579294161E+02 -0.18053489075E+02  0.80943528378E+02  0.00000000000E+00 0. -1.
         -5    1    3    3    0  503 -0.22412731543E+02  0.30919906177E+02 -0.76688736906E+02  0.85799903854E+02  0.47000000000E+01 0.  1.
         11    1    4    4    0    0  0.17290410311E+02 -0.92167302839E+02 -0.10602350797E+03  0.14154417771E+03  0.00000000000E+00 0. -1.
        -12    1    4    4    0    0  0.48463222494E+01 -0.57156238673E+02 -0.20496536016E+03  0.21284060074E+03  0.00000000000E+00 0.  1.
</event>
<event>
12    1  0.8724767E-002  0.2034064E+03  0.7818608E-02  0.1147449E+00
         21   -1    0    0  503  502  0.00000000000E+00  0.00000000000E+00  0.19117962746E+03  0.19117962746E+03  0.00000000000E+00 0. -1.
         21   -1    0    0  501  503 -0.00000000000E+00 -0.00000000000E+00 -0.36058460177E+03  0.36058460177E+03  0.00000000000E+00 0. -1.
          6    2    1    2  501    0 -0.10393626865E+03  0.11533456250E+01  0.91766074777E+02  0.22072878117E+03  0.17174429892E+03 0.  0.
         24    2    3    3    0    0 -0.63256074426E+02  0.68000331117E+02  0.60760720246E+02  0.13642682579E+03  0.79341273544E+02 0.  0.
         -6    2    1    2    0  502  0.10393626865E+03 -0.11533456250E+01 -0.26117104909E+03  0.33103544806E+03  0.17484299483E+03 0.  0.
        -24    2    5    5    0    0  0.38845092754E+02  0.50372039685E+02 -0.21035396593E+03  0.23358703888E+03  0.79169628877E+02 0.  0.
          5    1    3    3  501    0 -0.40680194220E+02 -0.66846985492E+02  0.31005354531E+02  0.84301955379E+02  0.47000000000E+01 0. -1.
        -11    1    4    4    0    0 -0.31708252555E+02 -0.66821569007E+01 -0.40181012322E+01  0.32652865701E+02  0.00000000000E+00 0.  1.
         12    1    4    4    0    0 -0.31547821870E+02  0.74682488017E+02  0.64778821478E+02  0.10377396009E+03  0.00000000000E+00 0. -1.
         -5    1    5    5    0  502  0.65091175892E+02 -0.51525385310E+02 -0.50817083163E+02  0.97448409179E+02  0.47000000000E+01 0.  1.
         11    1    6    6    0    0  0.24436647742E+02  0.35172299706E+01 -0.16489434900E+03  0.16673232137E+03  0.00000000000E+00 0. -1.
        -12    1    6    6    0    0  0.14408445012E+02  0.46854809714E+02 -0.45459616935E+02  0.66854717507E+02  0.00000000000E+00 0.  1.
</event>
<event>
12    1  0.8724767E-002  0.1948196E+03  0.7818608E-02  0.1154257E+00
         21   -1    0    0  503  502  0.00000000000E+00  0.00000000000E+00  0.51138683773E+03  0.51138683773E+03  0.00000000000E+00 0. -1.
         21   -1    0    0  501  503 -0.00000000000E+00 -0.00000000000E+00 -0.78001465886E+02  0.78001465886E+02  0.00000000000E+00 0. -1.
          6    2    1    2  501    0 -0.22886390369E+02 -0.87910864817E+02  0.15055921987E+03  0.24595661659E+03  0.17197229875E+03 0.  0.
         24    2    3    3    0    0  0.32572358523E+02 -0.28880548759E+02  0.22725689652E+02  0.94550696983E+02  0.80798098327E+02 0.  0.
         -6    2    1    2    0  502  0.22886390369E+02  0.87910864817E+02  0.28282615198E+03  0.34343168703E+03  0.17234437734E+03 0.  0.
        -24    2    5    5    0    0 -0.18998931745E+01 -0.18890385184E+02  0.97254020122E+02  0.12783954206E+03  0.80772197184E+02 0.  0.
          5    1    3    3  501    0 -0.55458748892E+02 -0.59030316058E+02  0.12783353022E+03  0.15140591960E+03  0.47000000000E+01 0. -1.
        -13    1    4    4    0    0  0.21046454784E+02  0.25355701528E+02  0.21002572735E+02  0.39076500872E+02  0.00000000000E+00 0.  1.
         14    1    4    4    0    0  0.11525903739E+02 -0.54236250287E+02  0.17231169174E+01  0.55474196110E+02  0.00000000000E+00 0. -1.
         -5    1    5    5    0  502  0.24786283544E+02  0.10680125000E+03  0.18557213185E+03  0.21559214497E+03  0.47000000000E+01 0.  1.
         11    1    6    6    0    0  0.16316943365E+02  0.28109756143E+02  0.40596447554E+02  0.52004543890E+02  0.00000000000E+00 0. -1.
        -12    1    6    6    0    0 -0.18216836540E+02 -0.47000141327E+02  0.56657572569E+02  0.75834998171E+02  0.00000000000E+00 0.  1.
</event>
<event>
12    1  0.8724767E-002  0.2320141E+03  0.7818608E-02  0.1125462E+00
         21   -1    0    0  501  502  0.00000000000E+00  0.00000000000E+00  0.55650395060E+03  0.55650395060E+03  0.00000000000E+00 0. -1.
         21   -1    0    0  502  503 -0.00000000000E+00 -0.00000000000E+00 -0.12536992427E+03  0.12536992427E+03  0.00000000000E+00 0. -1.
         -6    2    1    2    0  503 -0.12952532512E+03  0.82113182579E+02  0.51523393662E+02  0.23766616130E+03  0.17410100382E+03 0.  0.
        -24    2    3    3    0    0 -0.17994341053E+01  0.47496187994E+02 -0.57560494741E+01  0.93391201048E+02  0.80185151310E+02 0.  0.
          6    2    1    2  501    0  0.12952532512E+03 -0.82113182579E+02  0.37961063266E+03  0.44420771357E+03  0.17232781483E+03 0.  0.
         24    2    5    5    0    0  0.76174059963E+01 -0.71885644024E+02  0.18878171420E+03  0.21748341092E+03  0.80218001218E+02 0.  0.
          5    1    5    5  501    0  0.12190791912E+03 -0.10227538554E+02  0.19082891847E+03  0.22672430265E+03  0.47000000000E+01 0. -1.
        -11    1    6    6    0    0 -0.28777916670E+02 -0.16413803854E+02  0.27386741607E+02  0.42983893038E+02  0.00000000000E+00 0.  1.
         12    1    6    6    0    0  0.36395322666E+02 -0.55471840170E+02  0.16139497259E+03  0.17449951788E+03  0.00000000000E+00 0. -1.
         -5    1    3    3    0  503 -0.12772589101E+03  0.34616994584E+02  0.57279443136E+02  0.14427496025E+03  0.47000000000E+01 0.  1.
         11    1    4    4    0    0 -0.32267424236E+02  0.50381744955E+01  0.16500795334E+02  0.36590246183E+02  0.00000000000E+00 0. -1.
        -12    1    4    4    0    0  0.30467990130E+02  0.42458013499E+02 -0.22256844808E+02  0.56800954866E+02  0.00000000000E+00 0.  1.
</event>
<event>
12    1  0.8724767E-002  0.2216799E+03  0.7818608E-02  0.1132842E+00
         21   -1    0    0  503  502  0.00000000000E+00  0.00000000000E+00  0.71843115813E+03  0.71843115813E+03  0.00000000000E+00 0.  1.
         21   -1    0    0  501  503 -0.00000000000E+00 -0.00000000000E+00 -0.68802814959E+02  0.68802814959E+02  0.00000000000E+00 0. -1.
          6    2    1    2  501    0  0.37808865324E+02 -0.13399944964E+03  0.28471355432E+03  0.36083761885E+03  0.17250106194E+03 0.  0.
         24    2    3    3    0    0  0.48789414249E+02 -0.16145061539E+03  0.21992844182E+03  0.28946998083E+03  0.83532281969E+02 0.  0.
         -6    2    1    2    0  502 -0.37808865324E+02  0.13399944964E+03  0.36491478886E+03  0.42639635424E+03  0.17107216307E+03 0.  0.
        -24    2    5    5    0    0 -0.70867101065E+02  0.13786968387E+03  0.23184610958E+03  0.28914771465E+03  0.76312427674E+02 0.  0.
          5    1    3    3  501    0 -0.10980548926E+02  0.27451165748E+02  0.64785112495E+02  0.71367638020E+02  0.47000000000E+01 0. -1.
        -11    1    4    4    0    0  0.56619539261E+02 -0.47700446048E+02  0.92448582954E+02  0.11843920495E+03  0.00000000000E+00 0.  1.
         12    1    4    4    0    0 -0.78301250122E+01 -0.11375016934E+03  0.12747985887E+03  0.17103077588E+03  0.00000000000E+00 0. -1.
         -5    1    5    5    0  502  0.33058235742E+02 -0.38702342287E+01  0.13306867928E+03  0.13724863959E+03  0.47000000000E+01 0.  1.
         13    1    6    6    0    0 -0.67788429455E+02  0.66692078047E+02  0.92590508079E+02  0.13272568187E+03  0.00000000000E+00 0. -1.
        -14    1    6    6    0    0 -0.30786716097E+01  0.71177605821E+02  0.13925560150E+03  0.15642203278E+03  0.00000000000E+00 0.  1.
</event>
<event>
12    1  0.8724767E-002  0.1915795E+03  0.7818608E-02  0.1157204E+00
         21   -1    0    0  503  502  0.00000000000E+00  0.00000000000E+00  0.24023930465E+03  0.24023930465E+03  0.00000000000E+00 0.  1.
         21   -1    0    0  501  503 -0.00000000000E+00 -0.00000000000E+00 -0.16967617594E+03  0.16967617594E+03  0.00000000000E+00 0.  1.
          6    2    1    2  501    0  0.84021423954E+02 -0.21974509965E+01 -0.30539267934E+02  0.19329505418E+03  0.17136482314E+03 0.  0.
         24    2    3    3    0    0  0.62193771262E+02 -0.47387161554E+02 -0.67313645773E+02  0.13090113438E+03  0.80562843861E+02 0.  0.
         -6    2    1    2    0  502 -0.84021423954E+02  0.21974509965E+01  0.10110239664E+03  0.21662042642E+03  0.17215773599E+03 0.  0.
        -24    2    5    5    0    0 -0.94422911747E+02 -0.47677240448E+02  0.50781432855E+02  0.14485716847E+03  0.84947276674E+02 0.  0.
          5    1    3    3  501    0  0.21827652692E+02  0.45189710558E+02  0.36774377840E+02  0.62393919799E+02  0.47000000000E+01 0. -1.
        -13    1    4    4    0    0  0.34869596128E+02 -0.14893024465E+02 -0.78342980509E+02  0.87036276959E+02  0.00000000000E+00 0.  1.
         14    1    4    4    0    0  0.27324175134E+02 -0.32494137089E+02  0.11029334736E+02  0.43864857422E+02  0.00000000000E+00 0. -1.
         -5    1    5    5    0  502  0.10401487792E+02  0.49874691445E+02  0.50320963786E+02  0.71763257949E+02  0.47000000000E+01 0.  1.
         11    1    6    6    0    0 -0.17777476699E+01  0.20204916960E+02  0.12341364468E+02  0.23742542684E+02  0.00000000000E+00 0. -1.
        -12    1    6    6    0    0 -0.92645164077E+02 -0.67882157409E+02  0.38440068387E+02  0.12111462578E+03  0.00000000000E+00 0.  1.
</event>
<event>
12    1  0.8724767E-002  0.2015038E+03  0.7818608E-02  0.1148620E+00
         21   -1    0    0  501  502  0.00000000000E+00  0.00000000000E+00  0.18870375265E+03  0.18870375265E+03  0.00000000000E+00 0. -1.
         21   -1    0    0  502  503 -0.00000000000E+00 -0.00000000000E+00 -0.26520242114E+03  0.26520242114E+03  0.00000000000E+00 0.  1.
         -6    2    1    2    0  503 -0.56039371812E+02 -0.88383363365E+02 -0.13759545604E+03  0.24400062602E+03  0.17219688110E+03 0.  0.
        -24    2    3    3    0    0  0.10437155863E+01  0.15405439147E+02 -0.73030034509E+02  0.10901404131E+03  0.79449722246E+02 0.  0.
          6    2    1    2  501    0  0.56039371812E+02  0.88383363365E+02  0.61096787556E+02  0.20990554777E+03  0.17139279863E+03 0.  0.
         24    2    5    5    0    0 -0.85681752484E+01  0.79520497321E+02  0.83865244352E+02  0.14067276539E+03  0.79740357348E+02 0.  0.
          5    1    5    5  501    0  0.64607547060E+02  0.88628660436E+01 -0.22768456797E+02  0.69232782383E+02  0.47000000000E+01 0. -1.
        -13    1    6    6    0    0  0.18981216509E+02 -0.48653591761E+01  0.16237751466E+01  0.19662017847E+02  0.00000000000E+00 0.  1.
         14    1    6    6    0    0 -0.27549391758E+02  0.84385856497E+02  0.82241469206E+02  0.12101074754E+03  0.00000000000E+00 0. -1.
         -5    1    3    3    0  503 -0.57083087398E+02 -0.10378880251E+03 -0.64565421531E+02  0.13498658471E+03  0.47000000000E+01 0.  1.
         13    1    4    4    0    0 -0.96198770285E+01  0.34163513475E+02 -0.28665029328E+01  0.35607647017E+02  0.00000000000E+00 0. -1.
        -14    1    4    4    0    0  0.10663592615E+02 -0.18758074329E+02 -0.70163531576E+02  0.73406394294E+02  0.00000000000E+00 0.  1.
</event>
<event>
12    1  0.8724767E-002  0.1894438E+03  0.7818608E-02  0.1159125E+00
         21   -1    0    0  501  502  0.00000000000E+00  0.00000000000E+00  0.49225791812E+02  0.49225791812E+02  0.00000000000E+00 0. -1.
         21   -1    0    0  502  503 -0.00000000000E+00 -0.00000000000E+00 -0.73730755272E+03  0.73730755272E+03  0.00000000000E+00 0. -1.
         -6    2    1    2    0  503 -0.76470553621E+02 -0.19257053384E+02 -0.39138344277E+03  0.43451227471E+03  0.17146818341E+03 0.  0.
        -24    2    3    3    0    0  0.25822892523E+01 -0.44584388947E+02 -0.28622999529E+03  0.30045943658E+03  0.79710895567E+02 0.  0.
          6    2    1    2  501    0  0.76470553621E+02  0.19257053384E+02 -0.29669831814E+03  0.35202106982E+03  0.17225086919E+03 0.  0.
         24    2    5    5    0    0 -0.29219305325E+01 -0.30766189758E+02 -0.19912843988E+03  0.21656826425E+03  0.79338398016E+02 0.  0.
          5    1    5    5  501    0  0.79392484154E+02  0.50023243142E+02 -0.97569878256E+02  0.13545280557E+03  0.47000000000E+01 0. -1.
        -11    1    6    6    0    0 -0.37612592218E+02  0.16727313739E+01 -0.88515476371E+02  0.96189888662E+02  0.00000000000E+00 0.  1.
         12    1    6    6    0    0  0.34690661685E+02 -0.32438921132E+02 -0.11061296351E+03  0.12037837559E+03  0.00000000000E+00 0. -1.
         -5    1    3    3    0  503 -0.79052842873E+02  0.25327335563E+02 -0.10515344748E+03  0.13405283813E+03  0.47000000000E+01 0.  1.
         11    1    4    4    0    0 -0.53303400345E+01 -0.47147026211E+02 -0.72983622968E+02  0.87050926629E+02  0.00000000000E+00 0. -1.
        -12    1    4    4    0    0  0.79126292868E+01  0.25626372644E+01 -0.21324637232E+03  0.21340850995E+03  0.00000000000E+00 0.  1.
</event>
<event>
12    1  0.8724767E-002  0.2001377E+03  0.7818608E-02  0.1149757E+00
         21   -1    0    0  503  502  0.00000000000E+00  0.00000000000E+00  0.78211165589E+02  0.78211165589E+02  0.00000000000E+00 0.  1.
         21   -1    0    0  501  503 -0.00000000000E+00 -0.00000000000E+00 -0.51461948629E+03  0.51461948629E+03  0.00000000000E+00 0.  1.
          6    2    1    2  501    0 -0.60320943530E+02 -0.83939373850E+02 -0.19208171289E+03  0.27739949871E+03  0.17137871148E+03 0.  0.
         24    2    3    3    0    0 -0.70397363145E+02 -0.36462413061E+01 -0.59119458960E+02  0.12167675684E+03  0.79630640544E+02 0.  0.
         -6    2    1    2    0  502  0.60320943530E+02  0.83939373850E+02 -0.24432660781E+03  0.31543115317E+03  0.17063670881E+03 0.  0.
        -24    2    5    5    0    0  0.68604245977E+02  0.31978413640E+01 -0.83088031847E+02  0.13485491845E+03  0.81027521483E+02 0.  0.
          5    1    3    3  501    0  0.10076419615E+02 -0.80293132544E+02 -0.13296225394E+03  0.15572274188E+03  0.47000000000E+01 0. -1.
        -11    1    4    4    0    0  0.63881146210E+01  0.12413915503E+02  0.99599202289E+01  0.17149732286E+02  0.00000000000E+00 0.  1.
         12    1    4    4    0    0 -0.76785477766E+02 -0.16060156809E+02 -0.69079379188E+02  0.10452702455E+03  0.00000000000E+00 0. -1.
         -5    1    5    5    0  502 -0.82833024467E+01  0.80741532486E+02 -0.16123857596E+03  0.18057623472E+03  0.47000000000E+01 0.  1.
         13    1    6    6    0    0  0.57587032902E+02  0.11874091829E+02 -0.90383822875E+01  0.59489097905E+02  0.00000000000E+00 0. -1.
        -14    1    6    6    0    0  0.11017213075E+02 -0.86762504649E+01 -0.74049649560E+02  0.75365820542E+02  0.00000000000E+00 0.  1.
</event>
<event>
12    1  0.8724767E-002  0.2261366E+03  0.7818608E-02  0.1129395E+00
         21   -1    0    0  503  502  0.00000000000E+00  0.00000000000E+00  0.66322986457E+03  0.66322986457E+03  0.00000000000E+00 0.  1.
         21   -1    0    0  501  503 -0.00000000000E+00 -0.00000000000E+00 -0.80967149210E+02  0.80967149210E+02  0.00000000000E+00 0.  1.
          6    2    1    2  501    0 -0.70061853404E+02 -0.13034737353E+03  0.20970332647E+03  0.30837792713E+03  0.17094548757E+03 0.  0.
         24    2    3    3    0    0 -0.74293729716E+02 -0.63709035277E+02  0.50941695352E+02  0.13608189578E+03  0.79654419737E+02 0.  0.
         -6    2    1    2    0  502  0.70061853404E+02  0.13034737353E+03  0.37255938888E+03  0.43581908665E+03  0.17099320733E+03 0.  0.
        -24    2    5    5    0    0  0.10449460616E+03  0.10887143542E+03  0.22412757930E+03  0.28186804743E+03  0.80276473457E+02 0.  0.
          5    1    3    3  501    0  0.42318763115E+01 -0.66638338249E+02  0.15876163112E+03  0.17229603135E+03  0.47000000000E+01 0. -1.
        -13    1    4    4    0    0 -0.42966644409E+02 -0.45532851859E+02  0.71017017274E+02  0.94672012087E+02  0.00000000000E+00 0.  1.
         14    1    4    4    0    0 -0.31327085307E+02 -0.18176183418E+02 -0.20075321922E+02  0.41409883696E+02  0.00000000000E+00 0. -1.
         -5    1    5    5    0  502 -0.34432752758E+02  0.21475938106E+02  0.14843180959E+03  0.15395103922E+03  0.47000000000E+01 0.  1.
         13    1    6    6    0    0  0.65713863390E+01 -0.96899720227E+01  0.41521893124E+02  0.43141004680E+02  0.00000000000E+00 0. -1.
        -14    1    6    6    0    0  0.97923219823E+02  0.11856140744E+03  0.18260568617E+03  0.23872704275E+03  0.00000000000E+00 0.  1.
</event>
<event>
12    1  0.8724767E-002  0.1865972E+03  0.7818608E-02  0.1163504E+00
         21   -1    0    0  501  502  0.00000000000E+00  0.00000000000E+00  0.63706337245E+03  0.63706337245E+03  0.00000000000E+00 0.  1.
         21   -1    0    0  502  503 -0.00000000000E+00 -0.00000000000E+00 -0.77878088700E+02  0.77878088700E+02  0.00000000000E+00 0.  1.
         -6    2    1    2    0  503 -0.43930472014E+01  0.46433071262E+02  0.70475533139E+02  0.19182030578E+03  0.17220017412E+03 0.  0.
        -24    2    3    3    0    0  0.63272549234E+02  0.45679265959E+02  0.47547781452E+02  0.12021742203E+03  0.78111626623E+02 0.  0.
          6    2    1    2  501    0  0.43930472014E+01 -0.46433071262E+02  0.48870975061E+03  0.52312115537E+03  0.18067427566E+03 0.  0.
         24    2    5    5    0    0 -0.11032492684E+02 -0.85125947020E+02  0.45314189289E+03  0.46814617545E+03  0.80343784689E+02 0.  0.
          5    1    5    5  501    0  0.15425539885E+02  0.38692875759E+02  0.35567857714E+02  0.54974979924E+02  0.47000000000E+01 0. -1.
        -13    1    6    6    0    0 -0.35114181615E+02 -0.26197318655E+02  0.98038538292E+02  0.10738184318E+03  0.00000000000E+00 0.  1.
         14    1    6    6    0    0  0.24081688931E+02 -0.58928628366E+02  0.35510335460E+03  0.36076433226E+03  0.00000000000E+00 0. -1.
         -5    1    3    3    0  503 -0.67665596436E+02  0.75380530307E+00  0.22927751687E+02  0.71602883747E+02  0.47000000000E+01 0.  1.
         13    1    4    4    0    0 -0.11160864723E+02 -0.15046047565E+01  0.27671188192E+02  0.29875130005E+02  0.00000000000E+00 0. -1.
        -14    1    4    4    0    0  0.74433413957E+02  0.47183870715E+02  0.19876593260E+02  0.90342292026E+02  0.00000000000E+00 0.  1.
</event>
<event>
12    1  0.8724767E-002  0.1992769E+03  0.7818608E-02  0.1150801E+00
         21   -1    0    0  501  502  0.00000000000E+00  0.00000000000E+00  0.13834349604E+03  0.13834349604E+03  0.00000000000E+00 0. -1.
         21   -1    0    0  502  503 -0.00000000000E+00 -0.00000000000E+00 -0.49220433725E+03  0.49220433725E+03  0.00000000000E+00 0. -1.
         -6    2    1    2    0  503 -0.77398614934E+02  0.67891099577E+02 -0.38142873038E+03  0.42937310848E+03  0.16814768192E+03 0.  0.
        -24    2    3    3    0    0  0.16278897867E+02  0.61133709389E+02 -0.17808331870E+03  0.20533609105E+03  0.80292645686E+02 0.  0.
          6    2    1    2  501    0  0.77398614934E+02 -0.67891099577E+02  0.27567889161E+02  0.20117472481E+03  0.17062102565E+03 0.  0.
         24    2    5    5    0    0  0.63962711926E+02 -0.99194289166E+02 -0.20953491462E+02  0.14170349189E+03  0.75565172455E+02 0.  0.
          5    1    5    5  501    0  0.13435903008E+02  0.31303189589E+02  0.48521380622E+02  0.59471232925E+02  0.47000000000E+01 0. -1.
        -11    1    6    6    0    0 -0.66664270912E+01 -0.97544020774E+01 -0.25016698911E+02  0.27666312267E+02  0.00000000000E+00 0.  1.
         12    1    6    6    0    0  0.70629139017E+02 -0.89439887089E+02  0.40632074490E+01  0.11403717962E+03  0.00000000000E+00 0. -1.
         -5    1    3    3    0  503 -0.93677512801E+02  0.67573901887E+01 -0.20334541168E+03  0.22403701743E+03  0.47000000000E+01 0.  1.
         13    1    4    4    0    0  0.12760786236E+02  0.56462067902E+02 -0.18639306265E+03  0.19517473346E+03  0.00000000000E+00 0. -1.
        -14    1    4    4    0    0  0.35181116317E+01  0.46716414871E+01  0.83097439509E+01  0.10161357595E+02  0.00000000000E+00 0.  1.
</event>
<event>
12    1  0.8724767E-002  0.2619235E+03  0.7818608E-02  0.1106022E+00
         21   -1    0    0  503  502  0.00000000000E+00  0.00000000000E+00  0.82856385772E+02  0.82856385772E+02  0.00000000000E+00 0. -1.
         21   -1    0    0  501  503 -0.00000000000E+00 -0.00000000000E+00 -0.86393829934E+03  0.86393829934E+03  0.00000000000E+00 0.  1.
          6    2    1    2  501    0  0.18727505478E+03  0.62775789219E+02 -0.48808877801E+03  0.55392652765E+03  0.17202092011E+03 0.  0.
         24    2    3    3    0    0  0.16318531029E+03 -0.25218719115E+01 -0.41466303952E+03  0.45264706570E+03  0.79423701836E+02 0.  0.
         -6    2    1    2    0  502 -0.18727505478E+03 -0.62775789219E+02 -0.29299313556E+03  0.39286815746E+03  0.17171973040E+03 0.  0.
        -24    2    5    5    0    0 -0.17738116666E+03 -0.66359099275E+01 -0.27574642319E+03  0.33312609392E+03  0.58555878975E+02 0.  0.
          5    1    3    3  501    0  0.24089744497E+02  0.65297661131E+02 -0.73425738496E+02  0.10127946195E+03  0.47000000000E+01 0. -1.
        -13    1    4    4    0    0  0.90878895218E+02  0.18865065944E+02 -0.31036896230E+03  0.32395023857E+03  0.00000000000E+00 0.  1.
         14    1    4    4    0    0  0.72306415070E+02 -0.21386937855E+02 -0.10429407721E+03  0.12869682713E+03  0.00000000000E+00 0. -1.
         -5    1    5    5    0  502 -0.98938881223E+01 -0.56139879292E+02 -0.17246712370E+02  0.59742063545E+02  0.47000000000E+01 0.  1.
         13    1    6    6    0    0 -0.47117338856E+02 -0.27411721002E+02 -0.91936229962E+02  0.10688178726E+03  0.00000000000E+00 0. -1.
        -14    1    6    6    0    0 -0.13026382781E+03  0.20775811074E+02 -0.18381019322E+03  0.22624430665E+03  0.00000000000E+00 0.  1.
</event>
<event>
12    1  0.8724767E-002  0.1995962E+03  0.7818608E-02  0.1150529E+00
         21   -1    0    0  503  502  0.00000000000E+00  0.00000000000E+00  0.61603899003E+02  0.61603899003E+02  0.00000000000E+00 0.  1.
         21   -1    0    0  501  503 -0.00000000000E+00 -0.00000000000E+00 -0.83843968083E+03  0.83843968083E+03  0.00000000000E+00 0. -1.
          6    2    1    2  501    0  0.88752836043E+02  0.34696460912E+02 -0.60584653893E+03  0.63722051943E+03  0.17297124426E+03 0.  0.
         24    2    3    3    0    0 -0.59086037313E+01  0.35578495970E+01 -0.14621926470E+03  0.16689114281E+03  0.80156161874E+02 0.  0.
         -6    2    1    2    0  502 -0.88752836043E+02 -0.34696460912E+02 -0.17098924289E+03  0.26282306040E+03  0.17537881739E+03 0.  0.
        -24    2    5    5    0    0 -0.93037013827E+02 -0.13815757560E+02 -0.39283343459E+02  0.12932065631E+03  0.79585739786E+02 0.  0.
          5    1    3    3  501    0  0.94661439775E+02  0.31138611315E+02 -0.45962727423E+03  0.47032937662E+03  0.47000000000E+01 0. -1.
        -11    1    4    4    0    0 -0.53174038815E+01  0.29784447452E+02 -0.13501833639E+03  0.13836668405E+03  0.00000000000E+00 0.  1.
         12    1    4    4    0    0 -0.59119984980E+00 -0.26226597855E+02 -0.11200928312E+02  0.28524458757E+02  0.00000000000E+00 0. -1.
         -5    1    5    5    0  502  0.42841777834E+01 -0.20880703352E+02 -0.13170589943E+03  0.13350240409E+03  0.47000000000E+01 0.  1.
         13    1    6    6    0    0 -0.21451219561E+02  0.18085149481E+02  0.17023927546E+02  0.32818311375E+02  0.00000000000E+00 0. -1.
        -14    1    6    6    0    0 -0.71585794266E+02 -0.31900907040E+02 -0.56307271005E+02  0.96502344939E+02  0.00000000000E+00 0.  1.
</event>
<event>
12    1  0.8724767E-002  0.3319957E+03  0.7818608E-02  0.1070264E+00
         21   -1    0    0  501  502  0.00000000000E+00  0.00000000000E+00  0.18474290581E+04  0.18474290581E+04  0.00000000000E+00 0.  1.
         21   -1    0    0  502  503 -0.00000000000E+00 -0.00000000000E+00 -0.95802537904E+02  0.95802537904E+02  0.00000000000E+00 0.  1.
         -6    2    1    2    0  503  0.25977467822E+03  0.11545594481E+03  0.27891154750E+03  0.43355926679E+03  0.17137394159E+03 0.  0.
        -24    2    3    3    0    0  0.50405758981E+02  0.50084210451E+02  0.13145981483E+03  0.16922441956E+03  0.79410657868E+02 0.  0.
          6    2    1    2  501    0 -0.25977467822E+03 -0.11545594481E+03  0.14727149727E+04  0.15096723292E+04  0.17148816913E+03 0.  0.
         24    2    5    5    0    0 -0.27255129288E+03 -0.93226672667E+02  0.12475222683E+04  0.12829759981E+04  0.82098611883E+02 0.  0.
          5    1    5    5  501    0  0.12776614663E+02 -0.22229272143E+02  0.22519270439E+03  0.22669633110E+03  0.47000000000E+01 0. -1.
        -11    1    6    6    0    0 -0.69350582396E+02 -0.63324003699E+02  0.36872804608E+03  0.38049941483E+03  0.00000000000E+00 0.  1.
         12    1    6    6    0    0 -0.20320071049E+03 -0.29902668968E+02  0.87879422223E+03  0.90247658329E+03  0.00000000000E+00 0. -1.
         -5    1    3    3    0  503  0.20936891924E+03  0.65371734360E+02  0.14745173266E+03  0.26433484723E+03  0.47000000000E+01 0.  1.
         11    1    4    4    0    0  0.20219823649E+02 -0.16146237246E+02  0.10232561898E+02  0.27825304466E+02  0.00000000000E+00 0. -1.
        -12    1    4    4    0    0  0.30185935331E+02  0.66230447697E+02  0.12122725294E+03  0.14139911509E+03  0.00000000000E+00 0.  1.
</event>
<event>
12    1  0.8724767E-002  0.1880941E+03  0.7818608E-02  0.1160299E+00
         21   -1    0    0  501  502  0.00000000000E+00  0.00000000000E+00  0.14789317175E+02  0.14789317175E+02  0.00000000000E+00 0.  1.
         21   -1    0    0  502  503 -0.00000000000E+00 -0.00000000000E+00 -0.23937936095E+04  0.23937936095E+04  0.00000000000E+00 0.  1.
         -6    2    1    2    0  503 -0.57467937711E+02  0.50859929688E+02 -0.12585887934E+04  0.12725663653E+04  0.17172683793E+03 0.  0.
        -24    2    3    3    0    0 -0.43598789766E+02  0.93173281577E+02 -0.69361068790E+03  0.70581675328E+03  0.80618781744E+02 0.  0.
          6    2    1    2  501    0  0.57467937711E+02 -0.50859929688E+02 -0.11204154989E+04  0.11360165614E+04  0.17121168539E+03 0.  0.
         24    2    5    5    0    0 -0.12314996565E+02 -0.56399255013E+02 -0.39579804605E+03  0.40801045904E+03  0.80522706909E+02 0.  0.
          5    1    5    5  501    0  0.69782934276E+02  0.55393253250E+01 -0.72461745285E+03  0.72800610232E+03  0.47000000000E+01 0. -1.
        -11    1    6    6    0    0 -0.32519464225E+02 -0.82257948792E+01 -0.65322722026E+02  0.73431854585E+02  0.00000000000E+00 0.  1.
         12    1    6    6    0    0  0.20204467661E+02 -0.48173460133E+02 -0.33047532402E+03  0.33457860446E+03  0.00000000000E+00 0. -1.
         -5    1    3    3    0  503 -0.13869147945E+02 -0.42313351889E+02 -0.56497810553E+03  0.56674961204E+03  0.47000000000E+01 0.  1.
         13    1    4    4    0    0 -0.47959344608E+02  0.12338045245E+02 -0.28352176243E+03  0.28781403001E+03  0.00000000000E+00 0. -1.
        -14    1    4    4    0    0  0.43605548419E+01  0.80835236332E+02 -0.41008892547E+03  0.41800272327E+03  0.00000000000E+00 0.  1.
</event>
<event>
12    1  0.8724767E-002  0.2695895E+03  0.7818608E-02  0.1101945E+00
         21   -1    0    0  501  502  0.00000000000E+00  0.00000000000E+00  0.15181471279E+03  0.15181471279E+03  0.00000000000E+00 0. -1.
         21   -1    0    0  502  503 -0.00000000000E+00 -0.00000000000E+00 -0.85038061094E+03  0.85038061094E+03  0.00000000000E+00 0. -1.
         -6    2    1    2    0  503  0.17834700971E+03  0.10383979501E+03 -0.68397862749E+03  0.73519062780E+03  0.17345932508E+03 0.  0.
        -24    2    3    3    0    0  0.14800080237E+03  0.92219428068E+02 -0.67319396572E+03  0.70063163249E+03  0.85357533662E+02 0.  0.
          6    2    1    2  501    0 -0.17834700971E+03 -0.10383979501E+03 -0.14587270659E+02  0.26700469593E+03  0.16878495278E+03 0.  0.
         24    2    5    5    0    0 -0.48371509988E+02 -0.43788033474E+02  0.42212112165E+02  0.11290049586E+03  0.81899112922E+02 0.  0.
          5    1    5    5  501    0 -0.12997549972E+03 -0.60051761532E+02 -0.56799382824E+02  0.15410420007E+03  0.47000000000E+01 0. -1.
        -11    1    6    6    0    0  0.23341911926E+02 -0.11084927905E+02  0.11993664255E+02  0.28488040671E+02  0.00000000000E+00 0.  1.
         12    1    6    6    0    0 -0.71713421914E+02 -0.32703105569E+02  0.30218447910E+02  0.84412455186E+02  0.00000000000E+00 0. -1.
         -5    1    3    3    0  503  0.30346207338E+02  0.11620366938E+02 -0.10784661767E+02  0.34558995313E+02  0.47000000000E+01 0.  1.
         13    1    4    4    0    0  0.13492361135E+03  0.99907456018E+02 -0.51415460481E+03  0.54087044503E+03  0.00000000000E+00 0. -1.
        -14    1    4    4    0    0  0.13077191022E+02 -0.76880279500E+01 -0.15903936091E+03  0.15976118746E+03  0.00000000000E+00 0.  1.
</event>
<event>
12    1  0.8724767E-002  0.2016739E+03  0.7818608E-02  0.1148471E+00
         21   -1    0    0  501  502  0.00000000000E+00  0.00000000000E+00  0.21235196826E+03  0.21235196826E+03  0.00000000000E+00 0. -1.
         21   -1    0    0  502  503 -0.00000000000E+00 -0.00000000000E+00 -0.22955407033E+03  0.22955407033E+03  0.00000000000E+00 0. -1.
         -6    2    1    2    0  503  0.91075037259E+02 -0.48427237264E+02 -0.99265398923E+02  0.22477980765E+03  0.17329882511E+03 0.  0.
        -24    2    3    3    0    0  0.93766508087E+02 -0.68285463862E+02 -0.12787019474E+03  0.18953895745E+03  0.78225105146E+02 0.  0.
          6    2    1    2  501    0 -0.91075037259E+02  0.48427237264E+02  0.82063296851E+02  0.21712623094E+03  0.17253856308E+03 0.  0.
         24    2    5    5    0    0  0.12888023939E+02 -0.87456240707E+01  0.21974545938E+02  0.84048050331E+02  0.79615369081E+02 0.  0.
          5    1    5    5  501    0 -0.10396306120E+03  0.57172861335E+02  0.60088750912E+02  0.13307818060E+03  0.47000000000E+01 0. -1.
        -11    1    6    6    0    0  0.29926177041E+02  0.11500333339E+02  0.40568460416E+02  0.51707192146E+02  0.00000000000E+00 0.  1.
         12    1    6    6    0    0 -0.17038153102E+02 -0.20245957410E+02 -0.18593914477E+02  0.32340858185E+02  0.00000000000E+00 0. -1.
         -5    1    3    3    0  503 -0.26914708285E+01  0.19858226598E+02  0.28604795819E+02  0.35240850198E+02  0.47000000000E+01 0.  1.
         13    1    4    4    0    0  0.50685040411E+01 -0.43995625190E+02 -0.22477888719E+02  0.49664476745E+02  0.00000000000E+00 0. -1.
        -14    1    4    4    0    0  0.88698004046E+02 -0.24289838673E+02 -0.10539230602E+03  0.13987448071E+03  0.00000000000E+00 0.  1.
</event>
<event>
12    1  0.8724767E-002  0.2138455E+03  0.7818608E-02  0.1139035E+00
         21   -1    0    0  501  502  0.00000000000E+00  0.00000000000E+00  0.43483003100E+03  0.43483003100E+03  0.00000000000E+00 0.  1.
         21   -1    0    0  502  503 -0.00000000000E+00 -0.00000000000E+00 -0.10527643444E+03  0.10527643444E+03  0.00000000000E+00 0. -1.
         -6    2    1    2    0  503  0.23871033686E+02 -0.12463569371E+03  0.19402568091E+03  0.28693118607E+03  0.16905519303E+03 0.  0.
        -24    2    3    3    0    0  0.45890824306E+00 -0.73264882530E+02  0.29704472751E+02  0.11311911137E+03  0.80905031040E+02 0.  0.
          6    2    1    2  501    0 -0.23871033686E+02  0.12463569371E+03  0.13552791565E+03  0.25317527938E+03  0.17212211878E+03 0.  0.
         24    2    5    5    0    0  0.44423258269E+02  0.68790608893E+02  0.36185389177E+02  0.12023239173E+03  0.80255042726E+02 0.  0.
          5    1    5    5  501    0 -0.68294291955E+02  0.55845084817E+02  0.99342526473E+02  0.13294288765E+03  0.47000000000E+01 0. -1.
        -11    1    6    6    0    0  0.32444251885E+02  0.86386682056E+01 -0.18260861106E+02  0.38219302938E+02  0.00000000000E+00 0.  1.
         12    1    6    6    0    0  0.11979006384E+02  0.60151940687E+02  0.54446250284E+02  0.82013088787E+02  0.00000000000E+00 0. -1.
         -5    1    3    3    0  503  0.23412125443E+02 -0.51370811179E+02  0.16432120816E+03  0.17381207470E+03  0.47000000000E+01 0.  1.
         11    1    4    4    0    0  0.34082810044E+02 -0.18658508750E+02  0.29838235334E+02  0.48990796861E+02  0.00000000000E+00 0. -1.
        -12    1    4    4    0    0 -0.33623901801E+02 -0.54606373780E+02 -0.13376258296E+00  0.64128314512E+02  0.00000000000E+00 0.  1.
</event>
<event>
12    1  0.8724767E-002  0.2097286E+03  0.7818608E-02  0.1141865E+00
         21   -1    0    0  503  502  0.00000000000E+00  0.00000000000E+00  0.13945991151E+03  0.13945991151E+03  0.00000000000E+00 0. -1.
         21   -1    0    0  501  503 -0.00000000000E+00 -0.00000000000E+00 -0.33920180587E+03  0.33920180587E+03  0.00000000000E+00 0.  1.
          6    2    1    2  501    0 -0.42568698463E+01 -0.11989125509E+03 -0.16401356849E+03  0.26591165979E+03  0.17151246652E+03 0.  0.
         24    2    3    3    0    0  0.15590698877E+02 -0.13906709850E+03 -0.17287753443E+03  0.23654673434E+03  0.80529422208E+02 0.  0.
         -6    2    1    2    0  502  0.42568698463E+01  0.11989125509E+03 -0.35728325860E+02  0.21275005759E+03  0.17202918284E+03 0.  0.
        -24    2    5    5    0    0  0.39475684515E+02  0.45023211972E+02 -0.71133413719E+02  0.12263236214E+03  0.79958204167E+02 0.  0.
          5    1    3    3  501    0 -0.19847568723E+02  0.19175843407E+02  0.88639659322E+01  0.29364925449E+02  0.47000000000E+01 0. -1.
        -13    1    4    4    0    0 -0.26675655156E+02 -0.68871945246E+02 -0.51262645023E+02  0.89904361377E+02  0.00000000000E+00 0.  1.
         14    1    4    4    0    0  0.42266354032E+02 -0.70195153251E+02 -0.12161488940E+03  0.14664237296E+03  0.00000000000E+00 0. -1.
         -5    1    5    5    0  502 -0.35218814668E+02  0.74868043118E+02  0.35405087859E+02  0.90117695450E+02  0.47000000000E+01 0.  1.
         13    1    6    6    0    0 -0.23482015256E+02  0.10466131491E+02 -0.77690907498E+01  0.26857098130E+02  0.00000000000E+00 0. -1.
        -14    1    6    6    0    0  0.62957699770E+02  0.34557080481E+02 -0.63364322969E+02  0.95775264015E+02  0.00000000000E+00 0.  1.
</event>
<event>
12    1  0.8724767E-002  0.1733355E+03  0.7818608E-02  0.1174460E+00
         21   -1    0    0  503  502  0.00000000000E+00  0.00000000000E+00  0.81189956287E+03  0.81189956287E+03  0.00000000000E+00 0.  1.
         21   -1    0    0  501  503 -0.00000000000E+00 -0.00000000000E+00 -0.23093317008E+03  0.23093317008E+03  0.00000000000E+00 0.  1.
          6    2    1    2  501    0  0.19913932096E+01 -0.27951302884E+02 -0.18740483124E+03  0.25515289613E+03  0.17087184862E+03 0.  0.
         24    2    3    3    0    0  0.58924983411E+02 -0.43378017001E+02 -0.85523882031E+02  0.13733424305E+03  0.78692781671E+02 0.  0.
         -6    2    1    2    0  502 -0.19913932096E+01  0.27951302884E+02  0.76837122403E+03  0.78767983682E+03  0.17105538998E+03 0.  0.
        -24    2    5    5    0    0 -0.47361657876E+01 -0.26250360189E+02  0.20688506284E+03  0.22355737382E+03  0.80404959344E+02 0.  0.
          5    1    3    3  501    0 -0.56933590201E+02  0.15426714117E+02 -0.10188094921E+03  0.11781865308E+03  0.47000000000E+01 0. -1.
        -11    1    4    4    0    0  0.73163993732E+02 -0.24444989528E+02 -0.83313533791E+02  0.11354150080E+03  0.00000000000E+00 0.  1.
         12    1    4    4    0    0 -0.14239010321E+02 -0.18933027473E+02 -0.22103482402E+01  0.23792742245E+02  0.00000000000E+00 0. -1.
         -5    1    5    5    0  502  0.27447725780E+01  0.54201663073E+02  0.56148616119E+03  0.56412246300E+03  0.47000000000E+01 0.  1.
         13    1    6    6    0    0  0.18616206937E+02 -0.36066048297E+02  0.48877442512E+02  0.63532097297E+02  0.00000000000E+00 0. -1.
        -14    1    6    6    0    0 -0.23352372725E+02  0.98156881080E+01  0.15800762033E+03  0.16002527652E+03  0.00000000000E+00 0.  1.
</event>
<event>
12    1  0.8724767E-002  0.1878181E+03  0.7818608E-02  0.1160631E+00
         21   -1    0    0  501  502  0.00000000000E+00  0.00000000000E+00  0.44814682162E+02  0.44814682162E+02  0.00000000000E+00 0. -1.
         21   -1    0    0  502  503 -0.00000000000E+00 -0.00000000000E+00 -0.90856868931E+03  0.90856868931E+03  0.00000000000E+00 0. -1.
         -6    2    1    2    0  503 -0.39773676146E+02 -0.64398435129E+02 -0.60938805740E+03  0.63767502495E+03  0.17189103868E+03 0.  0.
        -24    2    3    3    0    0 -0.50334172277E+02  0.59231393734E+01 -0.48745575223E+03  0.49644392014E+03  0.79213906543E+02 0.  0.
          6    2    1    2  501    0  0.39773676146E+02  0.64398435129E+02 -0.25436594975E+03  0.31570834653E+03  0.17099888863E+03 0.  0.
         24    2    5    5    0    0 -0.26590827101E+02 -0.39405508253E+01 -0.16177377530E+03  0.18278030185E+03  0.80717311292E+02 0.  0.
          5    1    5    5  501    0  0.66364503247E+02  0.68338985954E+02 -0.92592174449E+02  0.13292804468E+03  0.47000000000E+01 0. -1.
        -11    1    6    6    0    0  0.16755063389E+02 -0.18163440215E+02 -0.11429804458E+03  0.11693881179E+03  0.00000000000E+00 0.  1.
         12    1    6    6    0    0 -0.43345890490E+02  0.14222889390E+02 -0.47475730724E+02  0.65841490056E+02  0.00000000000E+00 0. -1.
         -5    1    3    3    0  503  0.10560496130E+02 -0.70321574502E+02 -0.12193230517E+03  0.14123110480E+03  0.47000000000E+01 0.  1.
         11    1    4    4    0    0 -0.51648002752E+02 -0.20828883955E+02 -0.19594234981E+03  0.20370263387E+03  0.00000000000E+00 0. -1.
        -12    1    4    4    0    0  0.13138304752E+01  0.26752023329E+02 -0.29151340241E+03  0.29274128628E+03  0.00000000000E+00 0.  1.
</event>
<event>
12    1  0.8724767E-002  0.2296889E+03  0.7818608E-02  0.1127024E+00
         21   -1    0    0  503  502  0.00000000000E+00  0.00000000000E+00  0.14195369598E+04  0.14195369598E+04  0.00000000000E+00 0.  1.
         21   -1    0    0  501  503 -0.00000000000E+00 -0.00000000000E+00 -0.37394409839E+02  0.37394409839E+02  0.00000000000E+00 0. -1.
          6    2    1    2  501    0 -0.96774838688E+02 -0.11633079658E+03  0.76594107687E+03  0.79963912190E+03  0.17279689926E+03 0.  0.
         24    2    3    3    0    0 -0.10288223938E+03 -0.13630879002E+03  0.53027691622E+03  0.56300415579E+03  0.81334065152E+02 0.  0.
         -6    2    1    2    0  502  0.96774838688E+02  0.11633079658E+03  0.61620147308E+03  0.65729224773E+03  0.17155354810E+03 0.  0.
        -24    2    5    5    0    0 -0.13455742879E+02  0.45004982556E+02  0.27016041870E+03  0.28715085019E+03  0.85220029688E+02 0.  0.
          5    1    3    3  501    0  0.61074006876E+01  0.19977993440E+02  0.23566416066E+03  0.23663496610E+03  0.47000000000E+01 0. -1.
        -13    1    4    4    0    0 -0.11156550619E+03 -0.94932621849E+02  0.42598024987E+03  0.45046446935E+03  0.00000000000E+00 0.  1.
         14    1    4    4    0    0  0.86832668151E+01 -0.41376168175E+02  0.10429666634E+03  0.11253968645E+03  0.00000000000E+00 0. -1.
         -5    1    5    5    0  502  0.11023058157E+03  0.71325814028E+02  0.34604105438E+03  0.37014139754E+03  0.47000000000E+01 0.  1.
         13    1    6    6    0    0  0.20977901083E+02  0.37006387611E+02  0.57240600521E+02  0.71316417506E+02  0.00000000000E+00 0. -1.
        -14    1    6    6    0    0 -0.34433643962E+02  0.79985949445E+01  0.21291981818E+03  0.21583443268E+03  0.00000000000E+00 0.  1.
</event>
<event>
12    1  0.8724767E-002  0.3134812E+03  0.7818608E-02  0.1078967E+00
         21   -1    0    0  501  502  0.00000000000E+00  0.00000000000E+00  0.36998129906E+03  0.36998129906E+03  0.00000000000E+00 0. -1.
         21   -1    0    0  502  503 -0.00000000000E+00 -0.00000000000E+00 -0.26502397395E+03  0.26502397395E+03  0.00000000000E+00 0.  1.
         -6    2    1    2    0  503  0.14313886547E+03 -0.21638300503E+03  0.29226573819E+02  0.31250629677E+03  0.17174298597E+03 0.  0.
        -24    2    3    3    0    0  0.10731233064E+03 -0.16858618472E+03 -0.42251987663E+02  0.21923598326E+03  0.79636347928E+02 0.  0.
          6    2    1    2  501    0 -0.14313886547E+03  0.21638300503E+03  0.75730751291E+02  0.32249897623E+03  0.17595483314E+03 0.  0.
         24    2    5    5    0    0  0.72691378683E+01  0.82247092339E+02  0.37319860119E+02  0.11728567963E+03  0.74469685935E+02 0.  0.
          5    1    5    5  501    0 -0.15040800334E+03  0.13413591269E+03  0.38410891172E+02  0.20521329660E+03  0.47000000000E+01 0. -1.
        -13    1    6    6    0    0  0.15993047525E+02  0.76228602106E+01  0.38243070171E+02  0.42147573869E+02  0.00000000000E+00 0.  1.
         14    1    6    6    0    0 -0.87239096569E+01  0.74624232128E+02 -0.92321005232E+00  0.75138105760E+02  0.00000000000E+00 0. -1.
         -5    1    3    3    0  503  0.35826534833E+02 -0.47796820311E+02  0.71478561483E+02  0.93270313506E+02  0.47000000000E+01 0.  1.
         13    1    4    4    0    0 -0.92096914278E+01 -0.40280309286E+02 -0.14009499813E+02  0.43630125113E+02  0.00000000000E+00 0. -1.
        -14    1    4    4    0    0  0.11652202207E+03 -0.12830587543E+03 -0.28242487850E+02  0.17560585815E+03  0.00000000000E+00 0.  1.
</event>
<event>
12    1  0.8724767E-002  0.2001227E+03  0.7818608E-02  0.1149696E+00
         21   -1    0    0  501  502  0.00000000000E+00  0.00000000000E+00  0.42627504942E+03  0.42627504942E+03  0.00000000000E+00 0.  1.
         21   -1    0    0  502  503 -0.00000000000E+00 -0.00000000000E+00 -0.93936274260E+02  0.93936274260E+02  0.00000000000E+00 0.  1.
         -6    2    1    2    0  503 -0.72299289087E+02 -0.72314087866E+02  0.15675096275E+03  0.25397798901E+03  0.17168995333E+03 0.  0.
        -24    2    3    3    0    0 -0.76665472868E+02  0.82152400084E+01  0.12774193559E+03  0.16814297363E+03  0.77517563011E+02 0.  0.
          6    2    1    2  501    0  0.72299289087E+02  0.72314087866E+02  0.17558781241E+03  0.26623333466E+03  0.17202498107E+03 0.  0.
         24    2    5    5    0    0  0.50610323777E+02 -0.18146395072E+02  0.45611501692E+02  0.10632885837E+03  0.79590957462E+02 0.  0.
          5    1    5    5  501    0  0.21688965310E+02  0.90460482938E+02  0.12997631071E+03  0.15990447629E+03  0.47000000000E+01 0. -1.
        -13    1    6    6    0    0  0.39530540016E+02  0.27603982206E+02  0.29755827504E+02  0.56657326958E+02  0.00000000000E+00 0.  1.
         14    1    6    6    0    0  0.11079783761E+02 -0.45750377278E+02  0.15855674188E+02  0.49671531416E+02  0.00000000000E+00 0. -1.
         -5    1    3    3    0  503  0.43661837808E+01 -0.80529327875E+02  0.29009027158E+02  0.85835015381E+02  0.47000000000E+01 0.  1.
         13    1    4    4    0    0 -0.20775223597E+02  0.36972975835E+02  0.30048673158E+02  0.51976279360E+02  0.00000000000E+00 0. -1.
        -14    1    4    4    0    0 -0.55890249271E+02 -0.28757735826E+02  0.97693262434E+02  0.11616669427E+03  0.00000000000E+00 0.  1.
</event>
<event>
12    1  0.8724767E-002  0.2204795E+03  0.7818608E-02  0.1133949E+00
         21   -1    0    0  503  502  0.00000000000E+00  0.00000000000E+00  0.51979776935E+02  0.51979776935E+02  0.00000000000E+00 0. -1.
         21   -1    0    0  501  503 -0.00000000000E+00 -0.00000000000E+00 -0.92803434976E+03  0.92803434976E+03  0.00000000000E+00 0. -1.
          6    2    1    2  501    0 -0.90747143321E+02 -0.99028515222E+02 -0.46074442274E+03  0.50980809114E+03  0.17198016122E+03 0.  0.
         24    2    3    3    0    0 -0.49558527346E+02  0.13403362062E+02 -0.15727281722E+03  0.18353438016E+03  0.79463399861E+02 0.  0.
         -6    2    1    2    0  502  0.90747143321E+02  0.99028515222E+02 -0.41531015008E+03  0.47020603556E+03  0.17484136886E+03 0.  0.
        -24    2    5    5    0    0 -0.83535355166E+01  0.84037594325E+02 -0.25871733575E+03  0.28422466080E+03  0.81956690854E+02 0.  0.
          5    1    3    3  501    0 -0.41188615974E+02 -0.11243187728E+03 -0.30347160552E+03  0.32627371097E+03  0.47000000000E+01 0. -1.
        -13    1    4    4    0    0  0.36289568912E+01  0.18815715820E+02 -0.11155862184E+03  0.11319243171E+03  0.00000000000E+00 0.  1.
         14    1    4    4    0    0 -0.53187484237E+02 -0.54123537582E+01 -0.45714195388E+02  0.70341948457E+02  0.00000000000E+00 0. -1.
         -5    1    5    5    0  502  0.99100678837E+02  0.14990920897E+02 -0.15659281434E+03  0.18598137476E+03  0.47000000000E+01 0.  1.
         13    1    6    6    0    0  0.20053528851E+02  0.85657960754E+02 -0.17623507219E+03  0.19697266544E+03  0.00000000000E+00 0. -1.
        -14    1    6    6    0    0 -0.28407064367E+02 -0.16203664291E+01 -0.82482263554E+02  0.87251995360E+02  0.00000000000E+00 0.  1.
</event>
<event>
12    1  0.8724767E-002  0.1902502E+03  0.7818608E-02  0.1158403E+00
         21   -1    0    0  503  502  0.00000000000E+00  0.00000000000E+00  0.10941252324E+03  0.10941252324E+03  0.00000000000E+00 0.  1.
         21   -1    0    0  501  503 -0.00000000000E+00 -0.00000000000E+00 -0.55099020051E+03  0.55099020051E+03  0.00000000000E+00 0.  1.
          6    2    1    2  501    0 -0.28974603440E+02  0.74507460822E+02 -0.42987346428E+03  0.46979285355E+03  0.17182328303E+03 0.  0.
         24    2    3    3    0    0  0.45143995359E+02  0.52130011225E+02 -0.30832065211E+03  0.32560029797E+03  0.78729988775E+02 0.  0.
         -6    2    1    2    0  502  0.28974603440E+02 -0.74507460822E+02 -0.11704212985E+02  0.19060987020E+03  0.17263905889E+03 0.  0.
        -24    2    5    5    0    0  0.84964204249E+02 -0.63239865937E+02 -0.14821634651E+02  0.13321995461E+03  0.79433486679E+02 0.  0.
          5    1    3    3  501    0 -0.74118598798E+02  0.22377449597E+02 -0.12155281218E+03  0.14419255559E+03  0.47000000000E+01 0. -1.
        -11    1    4    4    0    0 -0.21760340790E+02  0.22105702804E+02 -0.10346418650E+03  0.10801394547E+03  0.00000000000E+00 0.  1.
         12    1    4    4    0    0  0.66904336149E+02  0.30024308421E+02 -0.20485646560E+03  0.21758635249E+03  0.00000000000E+00 0. -1.
         -5    1    5    5    0  502 -0.55989600810E+02 -0.11267594885E+02  0.31174216659E+01  0.57389915588E+02  0.47000000000E+01 0.  1.
         13    1    6    6    0    0 -0.13474647492E+02 -0.43401637195E+01 -0.11859179522E+02  0.18467357284E+02  0.00000000000E+00 0. -1.
        -14    1    6    6    0    0  0.98438851741E+02 -0.58899702217E+02 -0.29624551285E+01  0.11475259733E+03  0.00000000000E+00 0.  1.
</event>
<event>
12    1  0.8724767E-002  0.1763216E+03  0.7818608E-02  0.1172464E+00
         21   -1    0    0  503  502  0.00000000000E+00  0.00000000000E+00  0.11129067602E+03  0.11129067602E+03  0.00000000000E+00 0.  1.
         21   -1    0    0  501  503 -0.00000000000E+00 -0.00000000000E+00 -0.81757683028E+03  0.81757683028E+03  0.00000000000E+00 0.  1.
          6    2    1    2  501    0  0.24359883217E+02 -0.12756291862E+02 -0.73367152084E+03  0.75456159350E+03  0.17416420698E+03 0.  0.
         24    2    3    3    0    0 -0.38551742277E+02 -0.11688155393E+02 -0.60209684159E+03  0.60864038271E+03  0.79370391217E+02 0.  0.
         -6    2    1    2    0  502 -0.24359883217E+02  0.12756291862E+02  0.27385366580E+02  0.17430591280E+03  0.16993076838E+03 0.  0.
        -24    2    5    5    0    0  0.10086465085E+02 -0.27800620350E+02  0.66907157232E+02  0.10785686483E+03  0.79258591534E+02 0.  0.
          5    1    3    3  501    0  0.62911625494E+02 -0.10681364684E+01 -0.13157467925E+03  0.14592121079E+03  0.47000000000E+01 0. -1.
        -13    1    4    4    0    0 -0.51293687088E+02 -0.34925497354E+02 -0.39261253569E+03  0.39748639710E+03  0.00000000000E+00 0.  1.
         14    1    4    4    0    0  0.12741944811E+02  0.23237341961E+02 -0.20948430590E+03  0.21115398561E+03  0.00000000000E+00 0. -1.
         -5    1    5    5    0  502 -0.34446348302E+02  0.40556912212E+02 -0.39521790652E+02  0.66449047968E+02  0.47000000000E+01 0.  1.
         13    1    6    6    0    0  0.42864609823E+02 -0.29071552988E+02  0.40803962478E+02  0.65935523979E+02  0.00000000000E+00 0. -1.
        -14    1    6    6    0    0 -0.32778144738E+02  0.12709326385E+01  0.26103194754E+02  0.41921340850E+02  0.00000000000E+00 0.  1.
</event>
<event>
12    1  0.8724767E-002  0.1819654E+03  0.7818608E-02  0.1166075E+00
         21   -1    0    0  501  502  0.00000000000E+00  0.00000000000E+00  0.18357435110E+03  0.18357435110E+03  0.00000000000E+00 0.  1.
         21   -1    0    0  502  503 -0.00000000000E+00 -0.00000000000E+00 -0.20189219970E+03  0.20189219970E+03  0.00000000000E+00 0.  1.
         -6    2    1    2    0  503 -0.13116547196E+02 -0.56211671085E+02 -0.73065430989E+02  0.19608660461E+03  0.17256767810E+03 0.  0.
        -24    2    3    3    0    0  0.53716556834E+02 -0.55354744231E+01 -0.39501420851E+02  0.10562460442E+03  0.81731786065E+02 0.  0.
          6    2    1    2  501    0  0.13116547196E+02  0.56211671085E+02  0.54747582386E+02  0.18937994619E+03  0.17185944974E+03 0.  0.
         24    2    5    5    0    0  0.71489221708E+02  0.45987355040E+02  0.13699862903E+02  0.11713791519E+03  0.79423291843E+02 0.  0.
          5    1    5    5  501    0 -0.58372674512E+02  0.10224316045E+02  0.41047719483E+02  0.72242031000E+02  0.47000000000E+01 0. -1.
        -13    1    6    6    0    0  0.49748607910E+02 -0.66497557206E+01  0.29263997647E+02  0.58099266763E+02  0.00000000000E+00 0.  1.
         14    1    6    6    0    0  0.21740613798E+02  0.52637110760E+02 -0.15564134744E+02  0.59038648425E+02  0.00000000000E+00 0. -1.
         -5    1    3    3    0  503 -0.66833104031E+02 -0.50676196662E+02 -0.33564010138E+02  0.90462000193E+02  0.47000000000E+01 0.  1.
         13    1    4    4    0    0  0.39812008683E+02  0.35946391123E+02 -0.16068138874E+02  0.55993965363E+02  0.00000000000E+00 0. -1.
        -14    1    4    4    0    0  0.13904548152E+02 -0.41481865547E+02 -0.23433281977E+02  0.49630639053E+02  0.00000000000E+00 0.  1.
</event>
<event>
12    1  0.8724767E-002  0.1914418E+03  0.7818608E-02  0.1157246E+00
         21   -1    0    0  503  502  0.00000000000E+00  0.00000000000E+00  0.47860903280E+03  0.47860903280E+03  0.00000000000E+00 0.  1.
         21   -1    0    0  501  503 -0.00000000000E+00 -0.00000000000E+00 -0.22955646031E+03  0.22955646031E+03  0.00000000000E+00 0. -1.
          6    2    1    2  501    0  0.82354634912E+02  0.73816330420E+01 -0.16469896169E+03  0.25227042812E+03  0.17227259366E+03 0.  0.
         24    2    3    3    0    0  0.32252781707E+02 -0.55836522533E+02 -0.12500164364E+03  0.16224433219E+03  0.80869359077E+02 0.  0.
         -6    2    1    2    0  502 -0.82354634912E+02 -0.73816330420E+01  0.41375153418E+03  0.45589506499E+03  0.17266500470E+03 0.  0.
        -24    2    5    5    0    0 -0.93239640875E+02  0.47163982364E+02  0.23825793315E+03  0.27173806263E+03  0.78464387534E+02 0.  0.
          5    1    3    3  501    0  0.50101853206E+02  0.63218155575E+02 -0.39697318044E+02  0.90026095933E+02  0.47000000000E+01 0. -1.
        -11    1    4    4    0    0  0.33842246520E+02  0.63487086982E+01 -0.18969769217E+02  0.39312286830E+02  0.00000000000E+00 0.  1.
         12    1    4    4    0    0 -0.15894648135E+01 -0.62185231232E+02 -0.10603187443E+03  0.12293204536E+03  0.00000000000E+00 0. -1.
         -5    1    5    5    0  502  0.10885005963E+02 -0.54545615406E+02  0.17549360103E+03  0.18415700236E+03  0.47000000000E+01 0.  1.
         13    1    6    6    0    0  0.70359982534E+01 -0.75324155982E+01  0.38891709844E+01  0.11016723974E+02  0.00000000000E+00 0. -1.
        -14    1    6    6    0    0 -0.10027563913E+03  0.54696397962E+02  0.23436876217E+03  0.26072133866E+03  0.00000000000E+00 0.  1.
</event>
<event>
12    1  0.8724767E-002  0.1803535E+03  0.7818608E-02  0.1168162E+00
         21   -1    0    0  503  502  0.00000000000E+00  0.00000000000E+00  0.78877171130E+02  0.78877171130E+02  0.00000000000E+00 0. -1.
         21   -1    0    0  501  503 -0.00000000000E+00 -0.00000000000E+00 -0.68238874730E+03  0.68238874730E+03  0.00000000000E+00 0. -1.
          6    2    1    2  501    0  0.47562963510E+02  0.28976287077E+02 -0.54262728066E+03  0.57091283363E+03  0.16850886380E+03 0.  0.
         24    2    3    3    0    0 -0.21539565647E+01  0.61474926181E+02 -0.44538693997E+03  0.45687026464E+03  0.81099360894E+02 0.  0.
         -6    2    1    2    0  502 -0.47562963510E+02 -0.28976287077E+02 -0.60884295516E+02  0.19035308480E+03  0.17153873832E+03 0.  0.
        -24    2    5    5    0    0 -0.24441128001E+02 -0.60979809903E+02 -0.93105299286E+02  0.13917566953E+03  0.79908474390E+02 0.  0.
          5    1    3    3  501    0  0.49716920074E+02 -0.32498639105E+02 -0.97240340689E+02  0.11404256899E+03  0.47000000000E+01 0. -1.
        -11    1    4    4    0    0 -0.39157959970E+02  0.29851313054E+02 -0.16145740119E+03  0.16879851634E+03  0.00000000000E+00 0.  1.
         12    1    4    4    0    0  0.37004003406E+02  0.31623613127E+02 -0.28392953877E+03  0.28807174829E+03  0.00000000000E+00 0. -1.
         -5    1    5    5    0  502 -0.23121835508E+02  0.32003522826E+02  0.32221003769E+02  0.51177415277E+02  0.47000000000E+01 0.  1.
         13    1    6    6    0    0 -0.19095326026E+02 -0.53672811744E+02 -0.12835001831E+02  0.58396399449E+02  0.00000000000E+00 0. -1.
        -14    1    6    6    0    0 -0.53458019756E+01 -0.73069981584E+01 -0.80270297455E+02  0.80779270078E+02  0.00000000000E+00 0.  1.
</event>
<event>
12    1  0.8724767E-002  0.1743016E+03  0.7818608E-02  0.1173575E+00
         21   -1    0    0  501  502  0.00000000000E+00  0.00000000000E+00  0.10208289673E+04  0.10208289673E+04  0.00000000000E+00 0.  1.
         21   -1    0    0  502  503 -0.00000000000E+00 -0.00000000000E+00 -0.39695319500E+02  0.39695319500E+02  0.00000000000E+00 0.  1.
         -6    2    1    2    0  503  0.11434675219E+02 -0.20371031276E+02  0.22461944704E+03  0.28431486021E+03  0.17272901620E+03 0.  0.
        -24    2    3    3    0    0  0.24611229104E+02  0.50372142794E+01  0.23637933321E+03  0.25301653059E+03  0.86666541728E+02 0.  0.
          6    2    1    2  501    0 -0.11434675219E+02  0.20371031276E+02  0.75651420081E+03  0.77620942663E+03  0.17216738151E+03 0.  0.
         24    2    5    5    0    0  0.47936447747E+02  0.40891692867E+02  0.57564549764E+03  0.58468500108E+03  0.80738949554E+02 0.  0.
          5    1    5    5  501    0 -0.59371122965E+02 -0.20520661591E+02  0.18086870317E+03  0.19152442554E+03  0.47000000000E+01 0. -1.
        -13    1    6    6    0    0  0.14683137751E+02  0.16621113538E+02  0.48054016696E+03  0.48105166875E+03  0.00000000000E+00 0.  1.
         14    1    6    6    0    0  0.33253309996E+02  0.24270579329E+02  0.95105330680E+02  0.10363333233E+03  0.00000000000E+00 0. -1.
         -5    1    3    3    0  503 -0.13176553885E+02 -0.25408245555E+02 -0.11759886176E+02  0.31298329626E+02  0.47000000000E+01 0.  1.
         13    1    4    4    0    0 -0.22205967828E+02 -0.12381594368E+02  0.24427292284E+02  0.35257644485E+02  0.00000000000E+00 0. -1.
        -14    1    4    4    0    0  0.46817196932E+02  0.17418808647E+02  0.21195204093E+03  0.21775888610E+03  0.00000000000E+00 0.  1.
</event>
<event>
12    1  0.8724767E-002  0.2113679E+03  0.7818608E-02  0.1142990E+00
         21   -1    0    0  503  502  0.00000000000E+00  0.00000000000E+00  0.11778668323E+03  0.11778668323E+03  0.00000000000E+00 0. -1.
         21   -1    0    0  501  503 -0.00000000000E+00 -0.00000000000E+00 -0.42903148929E+03  0.42903148929E+03  0.00000000000E+00 0.  1.
          6    2    1    2  501    0 -0.72802228186E+02 -0.75719793770E+02 -0.27114446442E+03  0.34379602390E+03  0.18341955694E+03 0.  0.
         24    2    3    3    0    0 -0.44459459565E+02 -0.12377966892E+03 -0.17826222028E+03  0.23534204560E+03  0.79438084488E+02 0.  0.
         -6    2    1    2    0  502  0.72802228186E+02  0.75719793770E+02 -0.40100341638E+02  0.20302214862E+03  0.16904527155E+03 0.  0.
        -24    2    5    5    0    0 -0.22309873655E+02  0.38450404866E+02 -0.41691660185E+02  0.10074829292E+03  0.80223811304E+02 0.  0.
          5    1    3    3  501    0 -0.28342768621E+02  0.48059875146E+02 -0.92882244142E+02  0.10845397830E+03  0.47000000000E+01 0. -1.
        -13    1    4    4    0    0 -0.38440880114E+02 -0.15491898322E+02 -0.27955207878E+02  0.49991937601E+02  0.00000000000E+00 0.  1.
         14    1    4    4    0    0 -0.60185794505E+01 -0.10828777059E+03 -0.15030701240E+03  0.18535010800E+03  0.00000000000E+00 0. -1.
         -5    1    5    5    0  502  0.95112101841E+02  0.37269388904E+02  0.15913185471E+01  0.10227385570E+03  0.47000000000E+01 0.  1.
         11    1    6    6    0    0  0.26871448278E+00  0.43711810624E+02  0.93382527737E+01  0.44698965988E+02  0.00000000000E+00 0. -1.
        -12    1    6    6    0    0 -0.22578588138E+02 -0.52614057577E+01 -0.51029912958E+02  0.56049326931E+02  0.00000000000E+00 0.  1.
</event>
<event>
12    1  0.8724767E-002  0.1737026E+03  0.7818608E-02  0.1174148E+00
         21   -1    0    0  501  502  0.00000000000E+00  0.00000000000E+00  0.92974598459E+02  0.92974598459E+02  0.00000000000E+00 0. -1.
         21   -1    0    0  502  503 -0.00000000000E+00 -0.00000000000E+00 -0.33203771197E+03  0.33203771197E+03  0.00000000000E+00 0. -1.
         -6    2    1    2    0  503 -0.85739040505E+01 -0.20415762098E+02 -0.15299118264E+03  0.23115418906E+03  0.17185936687E+03 0.  0.
        -24    2    3    3    0    0  0.62399047177E+02 -0.23348125385E+02 -0.91814899867E+02  0.13729053191E+03  0.77330060556E+02 0.  0.
          6    2    1    2  501    0  0.85739040505E+01  0.20415762098E+02 -0.86071930870E+02  0.19385812137E+03  0.17228545721E+03 0.  0.
         24    2    5    5    0    0  0.38285953005E+02 -0.53568116322E+01 -0.11449914821E+03  0.14510129523E+03  0.80310779520E+02 0.  0.
          5    1    5    5  501    0 -0.29712048954E+02  0.25772573730E+02  0.28427217342E+02  0.48756826143E+02  0.47000000000E+01 0. -1.
        -11    1    6    6    0    0  0.60660367759E+02 -0.13767133070E+01 -0.56902428457E+02  0.83183303135E+02  0.00000000000E+00 0.  1.
         12    1    6    6    0    0 -0.22374414754E+02 -0.39800983252E+01 -0.57596719755E+02  0.61917992093E+02  0.00000000000E+00 0. -1.
         -5    1    3    3    0  503 -0.70972951228E+02  0.29323632872E+01 -0.61176282777E+02  0.93863657157E+02  0.47000000000E+01 0.  1.
         11    1    4    4    0    0 -0.15727571624E+02 -0.15305868834E+02 -0.30883534196E+02  0.37886921416E+02  0.00000000000E+00 0. -1.
        -12    1    4    4    0    0  0.78126618801E+02 -0.80422565513E+01 -0.60931365671E+02  0.99403610489E+02  0.00000000000E+00 0.  1.
</event>
<event>
12    1  0.8724767E-002  0.1790343E+03  0.7818608E-02  0.1173930E+00
         21   -1    0    0  501  502  0.00000000000E+00  0.00000000000E+00  0.18752865390E+03  0.18752865390E+03  0.00000000000E+00 0. -1.
         21   -1    0    0  502  503 -0.00000000000E+00 -0.00000000000E+00 -0.54426402734E+03  0.54426402734E+03  0.00000000000E+00 0. -1.
         -6    2    1    2    0  503 -0.45433504045E+02  0.25232481818E+02 -0.48574551706E+03  0.51111891493E+03  0.15030953539E+03 0.  0.
        -24    2    3    3    0    0  0.16542082684E+02  0.33760642181E+02 -0.35777755308E+03  0.36860016994E+03  0.80298731815E+02 0.  0.
          6    2    1    2  501    0  0.45433504045E+02 -0.25232481818E+02  0.12901014362E+03  0.22067376630E+03  0.17132545797E+03 0.  0.
         24    2    5    5    0    0  0.56819169605E+02 -0.72205959240E+02  0.60700751284E+02  0.13686204849E+03  0.81268201203E+02 0.  0.
          5    1    5    5  501    0 -0.11385665561E+02  0.46973477422E+02  0.68309392333E+02  0.83811717810E+02  0.47000000000E+01 0. -1.
        -11    1    6    6    0    0  0.41445621576E+02  0.65490733540E+01  0.26559867820E+02  0.49659404831E+02  0.00000000000E+00 0.  1.
         12    1    6    6    0    0  0.15373548030E+02 -0.78755032594E+02  0.34140883464E+02  0.87202643661E+02  0.00000000000E+00 0. -1.
         -5    1    3    3    0  503 -0.61975586729E+02 -0.85281603628E+01 -0.12796796398E+03  0.14251874499E+03  0.47000000000E+01 0.  1.
         13    1    4    4    0    0 -0.32236251325E+02  0.18232657007E+02 -0.16854372870E+03  0.17256475355E+03  0.00000000000E+00 0. -1.
        -14    1    4    4    0    0  0.48778334009E+02  0.15527985174E+02 -0.18923382438E+03  0.19603541640E+03  0.00000000000E+00 0.  1.
</event>
<event>
12    1  0.8724767E-002  0.1859834E+03  0.7818608E-02  0.1162227E+00
         21   -1    0    0  501  502  0.00000000000E+00  0.00000000000E+00  0.12304697426E+03  0.12304697426E+03  0.00000000000E+00 0. -1.
         21   -1    0    0  502  503 -0.00000000000E+00 -0.00000000000E+00 -0.50120037331E+03  0.50120037331E+03  0.00000000000E+00 0. -1.
         -6    2    1    2    0  503 -0.17135095293E+02 -0.71482602177E+02 -0.39630532729E+03  0.43777591959E+03  0.17084047949E+03 0.  0.
        -24    2    3    3    0    0  0.45492199754E+02 -0.69851372100E+02 -0.14151213662E+03  0.17535164669E+03  0.61430943048E+02 0.  0.
          6    2    1    2  501    0  0.17135095293E+02  0.71482602177E+02  0.18151928241E+02  0.18647142798E+03  0.17040753225E+03 0.  0.
         24    2    5    5    0    0 -0.33917729953E+02  0.80976915201E+02 -0.23969109160E+02  0.11944304043E+03  0.77359217371E+02 0.  0.
          5    1    5    5  501    0  0.51052825246E+02 -0.94943130238E+01  0.42121037401E+02  0.67028387547E+02  0.47000000000E+01 0. -1.
        -11    1    6    6    0    0 -0.78096900379E+01  0.90011144406E+01 -0.39552400399E+02  0.41308639496E+02  0.00000000000E+00 0.  1.
         12    1    6    6    0    0 -0.26108039915E+02  0.71975800760E+02  0.15583291239E+02  0.78134400933E+02  0.00000000000E+00 0. -1.
         -5    1    3    3    0  503 -0.62627295047E+02 -0.16312300773E+01 -0.25479319067E+03  0.26242427291E+03  0.47000000000E+01 0.  1.
         13    1    4    4    0    0 -0.56995406100E+01 -0.14960920117E+02 -0.69555304427E+02  0.71374044777E+02  0.00000000000E+00 0. -1.
        -14    1    4    4    0    0  0.51191740364E+02 -0.54890451983E+02 -0.71956832189E+02  0.10397760191E+03  0.00000000000E+00 0.  1.
</event>
<event>
12    1  0.8724767E-002  0.1907395E+03  0.7818608E-02  0.1158400E+00
         21   -1    0    0  503  502  0.00000000000E+00  0.00000000000E+00  0.14266359338E+03  0.14266359338E+03  0.00000000000E+00 0.  1.
         21   -1    0    0  501  503 -0.00000000000E+00 -0.00000000000E+00 -0.25154830664E+03  0.25154830664E+03  0.00000000000E+00 0.  1.
          6    2    1    2  501    0 -0.20542087967E+02  0.78224623821E+02 -0.50247977583E+02  0.19466288103E+03  0.16978724584E+03 0.  0.
         24    2    3    3    0    0  0.43226912336E+02  0.57241982248E+02  0.42797891169E+01  0.10804807867E+03  0.80689901647E+02 0.  0.
         -6    2    1    2    0  502  0.20542087967E+02 -0.78224623821E+02 -0.58636735673E+02  0.19954901898E+03  0.17274395809E+03 0.  0.
        -24    2    5    5    0    0  0.14741063486E+02  0.22321248616E+02 -0.62720115852E+02  0.98643675504E+02  0.71282709628E+02 0.  0.
          5    1    3    3  501    0 -0.63769000303E+02  0.20982641573E+02 -0.54527766700E+02  0.86614802363E+02  0.47000000000E+01 0. -1.
        -11    1    4    4    0    0 -0.63048658806E+01  0.34025326862E+02 -0.28015331868E+02  0.44523398585E+02  0.00000000000E+00 0.  1.
         12    1    4    4    0    0  0.49531778216E+02  0.23216655386E+02  0.32295120985E+02  0.63524680086E+02  0.00000000000E+00 0. -1.
         -5    1    5    5    0  502  0.58010244806E+01 -0.10054587244E+03  0.40833801795E+01  0.10090534348E+03  0.47000000000E+01 0.  1.
         13    1    6    6    0    0  0.12022414152E+02  0.27898936560E+02  0.48720596980E+01  0.30767288943E+02  0.00000000000E+00 0. -1.
        -14    1    6    6    0    0  0.27186493347E+01 -0.55776879436E+01 -0.67592175550E+02  0.67876386561E+02  0.00000000000E+00 0.  1.
</event>
<event>
12    1  0.8724767E-002  0.2133142E+03  0.7818608E-02  0.1139945E+00
         21   -1    0    0  503  502  0.00000000000E+00  0.00000000000E+00  0.36555681448E+03  0.36555681448E+03  0.00000000000E+00 0.  1.
         21   -1    0    0  501  503 -0.00000000000E+00 -0.00000000000E+00 -0.18599294174E+03  0.18599294174E+03  0.00000000000E+00 0.  1.
          6    2    1    2  501    0  0.65249371266E+02 -0.10751257013E+03 -0.73177405816E+02  0.22082164777E+03  0.16610488920E+03 0.  0.
         24    2    3    3    0    0 -0.10162511859E+02 -0.22693177409E+02 -0.66524947697E+02  0.10703400918E+03  0.80077796585E+02 0.  0.
         -6    2    1    2    0  502 -0.65249371266E+02  0.10751257013E+03  0.25274127856E+03  0.33072810845E+03  0.17229769195E+03 0.  0.
        -24    2    5    5    0    0 -0.32328434342E+02  0.11139824149E+03  0.26129804308E+03  0.29617098547E+03  0.77368530053E+02 0.  0.
          5    1    3    3  501    0  0.75411883125E+02 -0.84819392717E+02 -0.66524581187E+01  0.11378763859E+03  0.47000000000E+01 0. -1.
        -13    1    4    4    0    0  0.61736502106E+00  0.12304683900E+02  0.13954300847E+02  0.18614749463E+02  0.00000000000E+00 0.  1.
         14    1    4    4    0    0 -0.10779876880E+02 -0.34997861309E+02 -0.80479248544E+02  0.88419259712E+02  0.00000000000E+00 0. -1.
         -5    1    5    5    0  502 -0.32920936924E+02 -0.38856713612E+01 -0.85567645247E+01  0.34557122985E+02  0.47000000000E+01 0.  1.
         11    1    6    6    0    0  0.22659444900E+01  0.71039803523E+02  0.78937188371E+02  0.10622084493E+03  0.00000000000E+00 0. -1.
        -12    1    6    6    0    0 -0.34594378832E+02  0.40358437964E+02  0.18236085471E+03  0.18995014054E+03  0.00000000000E+00 0.  1.
</event>
<event>
12    1  0.8724767E-002  0.1981906E+03  0.7818608E-02  0.1152889E+00
         21   -1    0    0  501  502  0.00000000000E+00  0.00000000000E+00  0.94793317042E+02  0.94793317042E+02  0.00000000000E+00 0. -1.
         21   -1    0    0  502  503 -0.00000000000E+00 -0.00000000000E+00 -0.43390581755E+03  0.43390581755E+03  0.00000000000E+00 0. -1.
         -6    2    1    2    0  503  0.16328431278E+01  0.97272242367E+02 -0.24746954210E+03  0.31705000379E+03  0.17267013444E+03 0.  0.
        -24    2    3    3    0    0  0.57766128463E+01  0.79229962621E+02 -0.57603566282E+02  0.12622580863E+03  0.79397907297E+02 0.  0.
          6    2    1    2  501    0 -0.16328431278E+01 -0.97272242367E+02 -0.91642958406E+02  0.21164913080E+03  0.16411083886E+03 0.  0.
         24    2    5    5    0    0  0.15084793323E+01 -0.54091090901E+02 -0.12413001701E+03  0.15731701575E+03  0.80076592696E+02 0.  0.
          5    1    5    5  501    0 -0.31413224601E+01 -0.43181151466E+02  0.32487058602E+02  0.54332115046E+02  0.47000000000E+01 0. -1.
        -11    1    6    6    0    0  0.37046551980E+02 -0.73643693716E+01 -0.53179720113E+02  0.65228548819E+02  0.00000000000E+00 0.  1.
         12    1    6    6    0    0 -0.35538072647E+02 -0.46726721530E+02 -0.70950296895E+02  0.92088466932E+02  0.00000000000E+00 0. -1.
         -5    1    3    3    0  503 -0.41437697184E+01  0.18042279746E+02 -0.18986597582E+03  0.19082419516E+03  0.47000000000E+01 0.  1.
         11    1    4    4    0    0 -0.19768266411E+02  0.23021542323E+02 -0.56894770009E+02  0.64480932237E+02  0.00000000000E+00 0. -1.
        -12    1    4    4    0    0  0.25544879257E+02  0.56208420298E+02 -0.70879627307E+00  0.61744876393E+02  0.00000000000E+00 0.  1.
</event>
<event>
12    1  0.8724767E-002  0.2706640E+03  0.7818608E-02  0.1100949E+00
         21   -1    0    0  501  502  0.00000000000E+00  0.00000000000E+00  0.26392161604E+03  0.26392161604E+03  0.00000000000E+00 0. -1.
         21   -1    0    0  502  503 -0.00000000000E+00 -0.00000000000E+00 -0.28906107087E+03  0.28906107087E+03  0.00000000000E+00 0.  1.
         -6    2    1    2    0  503  0.20756967239E+03 -0.25171894310E+02  0.43371613839E+02  0.27378244173E+03  0.17133865692E+03 0.  0.
        -24    2    3    3    0    0  0.19715266079E+03 -0.37134726951E+02 -0.11312184706E+02  0.21665074021E+03  0.81002580876E+02 0.  0.
          6    2    1    2  501    0 -0.20756967239E+03  0.25171894310E+02 -0.68511068670E+02  0.27920024517E+03  0.17187267734E+03 0.  0.
         24    2    5    5    0    0 -0.21743575469E+03 -0.11092279188E+02 -0.67813219183E+02  0.24131876087E+03  0.78960531766E+02 0.  0.
          5    1    5    5  501    0  0.98660822956E+01  0.36264173498E+02 -0.69784948715E+00  0.37881484307E+02  0.47000000000E+01 0. -1.
        -11    1    6    6    0    0 -0.63952499293E+02 -0.27318127951E+02  0.68307758284E+01  0.69877476908E+02  0.00000000000E+00 0.  1.
         12    1    6    6    0    0 -0.15348325539E+03  0.16225848763E+02 -0.74643995012E+02  0.17144128396E+03  0.00000000000E+00 0. -1.
         -5    1    3    3    0  503  0.10417011599E+02  0.11962832641E+02  0.54683798545E+02  0.57131701522E+02  0.47000000000E+01 0.  1.
         11    1    4    4    0    0  0.17233486476E+03 -0.54140909431E+02  0.81432457985E+01  0.18082272019E+03  0.00000000000E+00 0. -1.
        -12    1    4    4    0    0  0.24817796034E+02  0.17006182480E+02 -0.19455430505E+02  0.35828020021E+02  0.00000000000E+00 0.  1.
</event>
<event>
12    1  0.8724767E-002  0.1949356E+03  0.7818608E-02  0.1155919E+00
         21   -1    0    0  501  502  0.00000000000E+00  0.00000000000E+00  0.79622148800E+03  0.79622148800E+03  0.00000000000E+00 0. -1.
         21   -1    0    0  502  503 -0.00000000000E+00 -0.00000000000E+00 -0.47005584958E+02  0.47005584958E+02  0.00000000000E+00 0. -1.
         -6    2    1    2    0  503  0.60507419465E+02 -0.40426145177E+02  0.31310422972E+03  0.36882806591E+03  0.18084375166E+03 0.  0.
        -24    2    3    3    0    0  0.17132504374E+02 -0.84260096777E+02  0.26713309536E+03  0.29176812972E+03  0.79845252020E+02 0.  0.
          6    2    1    2  501    0 -0.60507419465E+02  0.40426145177E+02  0.43611167333E+03  0.47439900705E+03  0.17194651857E+03 0.  0.
         24    2    5    5    0    0  0.29310233583E+02  0.53618632370E+02  0.21124377423E+03  0.23185228049E+03  0.73467681935E+02 0.  0.
          5    1    5    5  501    0 -0.89817653048E+02 -0.13192487193E+02  0.22486789910E+03  0.24254672655E+03  0.47000000000E+01 0. -1.
        -11    1    6    6    0    0  0.37580908874E+02  0.57941633352E+02  0.21152696850E+03  0.22251565336E+03  0.00000000000E+00 0.  1.
         12    1    6    6    0    0 -0.82706752912E+01 -0.43230009815E+01 -0.28319426838E+00  0.93366271347E+01  0.00000000000E+00 0. -1.
         -5    1    3    3    0  503  0.43374915091E+02  0.43833951600E+02  0.45971134363E+02  0.77059936197E+02  0.47000000000E+01 0.  1.
         11    1    4    4    0    0  0.19628656772E+02 -0.37672533173E+02  0.35139089101E+02  0.55129479457E+02  0.00000000000E+00 0. -1.
        -12    1    4    4    0    0 -0.24961523986E+01 -0.46587563603E+02  0.23199400625E+03  0.23663865026E+03  0.00000000000E+00 0.  1.
</event>
<event>
12    1  0.8724767E-002  0.2224016E+03  0.7818608E-02  0.1132510E+00
         21   -1    0    0  503  502  0.00000000000E+00  0.00000000000E+00  0.49455336128E+03  0.49455336128E+03  0.00000000000E+00 0. -1.
         21   -1    0    0  501  503 -0.00000000000E+00 -0.00000000000E+00 -0.21142282612E+03  0.21142282612E+03  0.00000000000E+00 0. -1.
          6    2    1    2  501    0 -0.13539927273E+03  0.31785855549E+02 -0.11612718573E+03  0.24895407883E+03  0.17073167963E+03 0.  0.
         24    2    3    3    0    0 -0.14247329014E+03 -0.17284845369E+02 -0.10778331299E+03  0.19845966702E+03  0.84685256048E+02 0.  0.
         -6    2    1    2    0  502  0.13539927273E+03 -0.31785855549E+02  0.39925772089E+03  0.45702210857E+03  0.17354877229E+03 0.  0.
        -24    2    5    5    0    0  0.10647050008E+03 -0.44597660068E+02  0.14919859114E+03  0.20492555049E+03  0.80058372310E+02 0.  0.
          5    1    3    3  501    0  0.70740174132E+01  0.49070700918E+02 -0.83438727440E+01  0.50494411803E+02  0.47000000000E+01 0. -1.
        -11    1    4    4    0    0 -0.30453873233E+02 -0.77791168499E+01  0.12492924052E+02  0.33823456435E+02  0.00000000000E+00 0.  1.
         12    1    4    4    0    0 -0.11201941691E+03 -0.95057285187E+01 -0.12027623704E+03  0.16463621059E+03  0.00000000000E+00 0. -1.
         -5    1    5    5    0  502  0.28928772655E+02  0.12811804519E+02  0.25005912975E+03  0.25209655807E+03  0.47000000000E+01 0.  1.
         11    1    6    6    0    0  0.46158033745E+02 -0.47238359740E+02  0.12195991386E+03  0.13869479910E+03  0.00000000000E+00 0. -1.
        -12    1    6    6    0    0  0.60312466333E+02  0.26406996717E+01  0.27238677285E+02  0.66230751393E+02  0.00000000000E+00 0.  1.
</event>
<event>
12    1  0.8724767E-002  0.1787892E+03  0.7818608E-02  0.1169125E+00
         21   -1    0    0  501  502  0.00000000000E+00  0.00000000000E+00  0.11608835739E+04  0.11608835739E+04  0.00000000000E+00 0. -1.
         21   -1    0    0  502  503 -0.00000000000E+00 -0.00000000000E+00 -0.29781307237E+02  0.29781307237E+02  0.00000000000E+00 0. -1.
         -6    2    1    2    0  503  0.25312819684E+02 -0.35511866907E+02  0.73318693232E+03  0.75467121356E+03  0.17338895962E+03 0.  0.
        -24    2    3    3    0    0 -0.37485247353E+02 -0.73579404743E+02  0.49252539632E+03  0.50301112620E+03  0.60165226562E+02 0.  0.
          6    2    1    2  501    0 -0.25312819684E+02  0.35511866907E+02  0.39791533434E+03  0.43599366757E+03  0.17277740978E+03 0.  0.
         24    2    5    5    0    0  0.34142207018E+02 -0.26211413347E+02  0.23848989787E+03  0.25493228760E+03  0.79122129547E+02 0.  0.
          5    1    5    5  501    0 -0.59455026702E+02  0.61723280254E+02  0.15942543646E+03  0.18106137997E+03  0.47000000000E+01 0. -1.
        -11    1    6    6    0    0  0.14662963413E+01 -0.48099607532E+02  0.10016665010E+03  0.11112641478E+03  0.00000000000E+00 0.  1.
         12    1    6    6    0    0  0.32675910677E+02  0.21888194184E+02  0.13832324777E+03  0.14380587282E+03  0.00000000000E+00 0. -1.
         -5    1    3    3    0  503  0.62798067037E+02  0.38067537836E+02  0.24066153600E+03  0.25166008736E+03  0.47000000000E+01 0.  1.
         13    1    4    4    0    0 -0.51155290414E+02 -0.37844671100E+02  0.32522614973E+03  0.33139271467E+03  0.00000000000E+00 0. -1.
        -14    1    4    4    0    0  0.13670043062E+02 -0.35734733642E+02  0.16729924659E+03  0.17161841153E+03  0.00000000000E+00 0.  1.
</event>
<event>
12    1  0.8724767E-002  0.1847656E+03  0.7818608E-02  0.1163583E+00
         21   -1    0    0  503  502  0.00000000000E+00  0.00000000000E+00  0.37720722721E+03  0.37720722721E+03  0.00000000000E+00 0. -1.
         21   -1    0    0  501  503 -0.00000000000E+00 -0.00000000000E+00 -0.98883187241E+02  0.98883187241E+02  0.00000000000E+00 0. -1.
          6    2    1    2  501    0  0.60332959493E+02 -0.27652894253E+02  0.21065822178E+03  0.27932412116E+03  0.17099804004E+03 0.  0.
         24    2    3    3    0    0  0.47125134887E+02  0.33904327172E+02  0.18772547285E+03  0.21215464064E+03  0.79990353471E+02 0.  0.
         -6    2    1    2    0  502 -0.60332959493E+02  0.27652894253E+02  0.67665818188E+02  0.19676629329E+03  0.17243422706E+03 0.  0.
        -24    2    5    5    0    0 -0.76732773088E+02 -0.26268333206E+02  0.80128781208E+02  0.13885370309E+03  0.79257715640E+02 0.  0.
          5    1    3    3  501    0  0.13207824606E+02 -0.61557221425E+02  0.22932748936E+02  0.67169480526E+02  0.47000000000E+01 0. -1.
        -13    1    4    4    0    0  0.24767674951E+02  0.27592989106E-01  0.16247548925E+03  0.16435243561E+03  0.00000000000E+00 0.  1.
         14    1    4    4    0    0  0.22357459935E+02  0.33876734183E+02  0.25249983598E+02  0.47802205026E+02  0.00000000000E+00 0. -1.
         -5    1    5    5    0  502  0.16399813596E+02  0.53921227460E+02 -0.12462963019E+02  0.57912590202E+02  0.47000000000E+01 0.  1.
         11    1    6    6    0    0 -0.13082768524E+02 -0.44429737756E+02  0.24529707593E+02  0.52410561759E+02  0.00000000000E+00 0. -1.
        -12    1    6    6    0    0 -0.63650004564E+02  0.18161404550E+02  0.55599073614E+02  0.86443141330E+02  0.00000000000E+00 0.  1.
</event>
<event>
12    1  0.8724767E-002  0.2285963E+03  0.7818608E-02  0.1127931E+00
         21   -1    0    0  501  502  0.00000000000E+00  0.00000000000E+00  0.93181023650E+02  0.93181023650E+02  0.00000000000E+00 0. -1.
         21   -1    0    0  502  503 -0.00000000000E+00 -0.00000000000E+00 -0.11062546500E+04  0.11062546500E+04  0.00000000000E+00 0.  1.
         -6    2    1    2    0  503  0.10760124601E+03 -0.10291775597E+03 -0.92829235741E+03  0.95562400906E+03  0.17123216179E+03 0.  0.
        -24    2    3    3    0    0  0.15909045501E+02 -0.83985626981E+02 -0.33880078504E+03  0.35872511558E+03  0.81185302467E+02 0.  0.
          6    2    1    2  501    0 -0.10760124601E+03  0.10291775597E+03 -0.84781268970E+02  0.24381166462E+03  0.17345365837E+03 0.  0.
         24    2    5    5    0    0 -0.46300659073E+02  0.14173529520E+02 -0.98990147079E+02  0.13492051758E+03  0.77845082541E+02 0.  0.
          5    1    5    5  501    0 -0.61300586936E+02  0.88744226446E+02  0.14208878109E+02  0.10889114704E+03  0.47000000000E+01 0. -1.
        -13    1    6    6    0    0 -0.24695233403E+02 -0.20490308455E+02 -0.86418487778E+02  0.92183850664E+02  0.00000000000E+00 0.  1.
         14    1    6    6    0    0 -0.21605425670E+02  0.34663837975E+02 -0.12571659301E+02  0.42736666916E+02  0.00000000000E+00 0. -1.
         -5    1    3    3    0  503  0.91692200509E+02 -0.18932128985E+02 -0.58949157237E+03  0.59689889348E+03  0.47000000000E+01 0.  1.
         11    1    4    4    0    0 -0.17248174285E+02  0.87904141463E+01 -0.57057345613E+02  0.60252067063E+02  0.00000000000E+00 0. -1.
        -12    1    4    4    0    0  0.33157219785E+02 -0.92776041127E+02 -0.28174343943E+03  0.29847304852E+03  0.00000000000E+00 0.  1.
</event>
<event>
12    1  0.8724767E-002  0.1733086E+03  0.7818608E-02  0.1174567E+00
         21   -1    0    0  503  502  0.00000000000E+00  0.00000000000E+00  0.26437498768E+03  0.26437498768E+03  0.00000000000E+00 0.  1.
         21   -1    0    0  501  503 -0.00000000000E+00 -0.00000000000E+00 -0.11772781485E+03  0.11772781485E+03  0.00000000000E+00 0.  1.
          6    2    1    2  501    0 -0.18961682409E+02  0.34949958151E+01  0.36114525849E+02  0.17654661954E+03  0.17173435736E+03 0.  0.
         24    2    3    3    0    0 -0.68672099745E+02 -0.34323037602E+02  0.23953368469E+02  0.11273977828E+03  0.79009907931E+02 0.  0.
         -6    2    1    2    0  502  0.18961682409E+02 -0.34949958151E+01  0.11053264699E+03  0.20555618299E+03  0.17223274346E+03 0.  0.
        -24    2    5    5    0    0 -0.12382475403E+02 -0.60946955991E+02  0.94263808202E+02  0.13795478454E+03  0.79233830523E+02 0.  0.
          5    1    3    3  501    0  0.49710417336E+02  0.37818033417E+02  0.12161157380E+02  0.63806841263E+02  0.47000000000E+01 0. -1.
        -11    1    4    4    0    0 -0.56441742585E+02 -0.33734389980E+02  0.50892277828E+02  0.83148681985E+02  0.00000000000E+00 0.  1.
         12    1    4    4    0    0 -0.12230357160E+02 -0.58864762203E+00 -0.26938909359E+02  0.29591096292E+02  0.00000000000E+00 0. -1.
         -5    1    5    5    0  502  0.31344157812E+02  0.57451960175E+02  0.16268838788E+02  0.67601398450E+02  0.47000000000E+01 0.  1.
         11    1    6    6    0    0 -0.40487424967E+02 -0.10400715160E+02  0.29718744412E+02  0.51289474804E+02  0.00000000000E+00 0. -1.
        -12    1    6    6    0    0  0.28104949564E+02 -0.50546240830E+02  0.64545063790E+02  0.86665309736E+02  0.00000000000E+00 0.  1.
</event>
<event>
12    1  0.8724767E-002  0.2206207E+03  0.7818608E-02  0.1133641E+00
         21   -1    0    0  501  502  0.00000000000E+00  0.00000000000E+00  0.37493207299E+03  0.37493207299E+03  0.00000000000E+00 0. -1.
         21   -1    0    0  502  503 -0.00000000000E+00 -0.00000000000E+00 -0.12959834266E+03  0.12959834266E+03  0.00000000000E+00 0.  1.
         -6    2    1    2    0  503  0.12133320085E+03  0.67306419033E+02  0.13758275481E+03  0.25900289216E+03  0.17000465892E+03 0.  0.
        -24    2    3    3    0    0  0.12889841149E+02  0.25220256050E+02  0.86001342101E+02  0.13166892373E+03  0.95594274481E+02 0.  0.
          6    2    1    2  501    0 -0.12133320085E+03 -0.67306419033E+02  0.10775097553E+03  0.24552752350E+03  0.17152723514E+03 0.  0.
         24    2    5    5    0    0 -0.39955113653E+02 -0.40738760418E+02 -0.93093240945E+01  0.10042949695E+03  0.82117979972E+02 0.  0.
          5    1    5    5  501    0 -0.81378087195E+02 -0.26567658615E+02  0.11706029963E+03  0.14509802655E+03  0.47000000000E+01 0. -1.
        -11    1    6    6    0    0  0.14988688616E+02  0.59901032930E+01 -0.21905492171E+02  0.27210158234E+02  0.00000000000E+00 0.  1.
         12    1    6    6    0    0 -0.54943802269E+02 -0.46728863711E+02  0.12596168076E+02  0.73219338714E+02  0.00000000000E+00 0. -1.
         -5    1    3    3    0  503  0.10844335970E+03  0.42086162983E+02  0.51581412707E+02  0.12733396842E+03  0.47000000000E+01 0.  1.
         13    1    4    4    0    0  0.50669892692E+02  0.24595192222E+02  0.71908594827E+02  0.91341160031E+02  0.00000000000E+00 0. -1.
        -14    1    4    4    0    0 -0.37780051543E+02  0.62506382784E+00  0.14092747274E+02  0.40327763701E+02  0.00000000000E+00 0.  1.
</event>
<event>
12    1  0.8724767E-002  0.1933817E+03  0.7818608E-02  0.1155483E+00
         21   -1    0    0  501  502  0.00000000000E+00  0.00000000000E+00  0.17135029987E+03  0.17135029987E+03  0.00000000000E+00 0.  1.
         21   -1    0    0  502  503 -0.00000000000E+00 -0.00000000000E+00 -0.24473409167E+03  0.24473409167E+03  0.00000000000E+00 0.  1.
         -6    2    1    2    0  503  0.77945445346E+02  0.40400117009E+02 -0.10536367476E+03  0.22007628873E+03  0.17211742213E+03 0.  0.
        -24    2    3    3    0    0  0.57732186017E+02  0.52747289372E+02 -0.10148416559E+02  0.12184663989E+03  0.92888812323E+02 0.  0.
          6    2    1    2  501    0 -0.77945445346E+02 -0.40400117009E+02  0.31979882951E+02  0.19600810281E+03  0.17230438633E+03 0.  0.
         24    2    5    5    0    0 -0.29226599235E+02 -0.51800433967E-01 -0.47160733416E+02  0.94584043649E+02  0.76601630208E+02 0.  0.
          5    1    5    5  501    0 -0.48718846112E+02 -0.40348316575E+02  0.79140616368E+02  0.10142405916E+03  0.47000000000E+01 0. -1.
        -11    1    6    6    0    0 -0.23890082576E+02 -0.29349116661E+02  0.11180431622E+01  0.37859697764E+02  0.00000000000E+00 0.  1.
         12    1    6    6    0    0 -0.53365166586E+01  0.29297316227E+02 -0.48278776578E+02  0.56724345885E+02  0.00000000000E+00 0. -1.
         -5    1    3    3    0  503  0.20213259329E+02 -0.12347172363E+02 -0.95215258202E+02  0.98229648847E+02  0.47000000000E+01 0.  1.
         11    1    4    4    0    0  0.51915856978E+02 -0.13162611351E+02  0.55456260712E+01  0.53844818802E+02  0.00000000000E+00 0. -1.
        -12    1    4    4    0    0  0.58163290389E+01  0.65909900723E+02 -0.15694042630E+02  0.68001821085E+02  0.00000000000E+00 0.  1.
</event>
<event>
12    1  0.8724767E-002  0.1744158E+03  0.7818608E-02  0.1173851E+00
         21   -1    0    0  503  502  0.00000000000E+00  0.00000000000E+00  0.10229786376E+03  0.10229786376E+03  0.00000000000E+00 0.  1.
         21   -1    0    0  501  503 -0.00000000000E+00 -0.00000000000E+00 -0.29397976334E+03  0.29397976334E+03  0.00000000000E+00 0.  1.
          6    2    1    2  501    0 -0.10439036823E+02  0.11815068141E+02 -0.99952939246E+02  0.19921146090E+03  0.17159850456E+03 0.  0.
         24    2    3    3    0    0  0.53321524171E+02  0.35009723960E+02 -0.60912840515E+02  0.12079194480E+03  0.82531533840E+02 0.  0.
         -6    2    1    2    0  502  0.10439036823E+02 -0.11815068141E+02 -0.91728960332E+02  0.19706616619E+03  0.17370176271E+03 0.  0.
        -24    2    5    5    0    0 -0.60713583875E+02  0.80350740727E+01 -0.51726499488E+02  0.11292931070E+03  0.79540535478E+02 0.  0.
          5    1    3    3  501    0 -0.63760560993E+02 -0.23194655819E+02 -0.39040098731E+02  0.78419516102E+02  0.47000000000E+01 0. -1.
        -11    1    4    4    0    0  0.45875638113E+02  0.10228047656E+02 -0.77080203197E+02  0.90280368055E+02  0.00000000000E+00 0.  1.
         12    1    4    4    0    0  0.74458860573E+01  0.24781676304E+02  0.16167362682E+02  0.30511576749E+02  0.00000000000E+00 0. -1.
         -5    1    5    5    0  502  0.71152620698E+02 -0.19850142214E+02 -0.40002460845E+02  0.84136855490E+02  0.47000000000E+01 0.  1.
         13    1    6    6    0    0  0.85387766804E+01  0.39426382516E+01 -0.41805440465E+02  0.42850320373E+02  0.00000000000E+00 0. -1.
        -14    1    6    6    0    0 -0.69252360555E+02  0.40924358211E+01 -0.99210590226E+01  0.70078990329E+02  0.00000000000E+00 0.  1.
</event>
<event>
12    1  0.8724767E-002  0.2588635E+03  0.7818608E-02  0.1107857E+00
         21   -1    0    0  503  502  0.00000000000E+00  0.00000000000E+00  0.13653921743E+03  0.13653921743E+03  0.00000000000E+00 0.  1.
         21   -1    0    0  501  503 -0.00000000000E+00 -0.00000000000E+00 -0.58421304809E+03  0.58421304809E+03  0.00000000000E+00 0.  1.
          6    2    1    2  501    0 -0.38104305050E+02 -0.18953039620E+03 -0.36830392335E+03  0.45017562130E+03  0.17215284171E+03 0.  0.
         24    2    3    3    0    0 -0.73912319199E+02 -0.85756542641E+02 -0.13984300062E+03  0.19666485274E+03  0.79396372374E+02 0.  0.
         -6    2    1    2    0  502  0.38104305050E+02  0.18953039620E+03 -0.79369907307E+02  0.27057664423E+03  0.17186747531E+03 0.  0.
        -24    2    5    5    0    0 -0.20219703050E+02  0.18181764845E+03 -0.50705127557E+02  0.20496463316E+03  0.77285168089E+02 0.  0.
          5    1    3    3  501    0  0.35808014149E+02 -0.10377385356E+03 -0.22846092273E+03  0.25351076856E+03  0.47000000000E+01 0. -1.
        -11    1    4    4    0    0 -0.53156603267E+02 -0.20538690336E+02 -0.10592294764E+03  0.12027939603E+03  0.00000000000E+00 0.  1.
         12    1    4    4    0    0 -0.20755715932E+02 -0.65217852305E+02 -0.33920052976E+02  0.76385456711E+02  0.00000000000E+00 0. -1.
         -5    1    5    5    0  502  0.58324008100E+02  0.77127477514E+01 -0.28664779750E+02  0.65612011071E+02  0.47000000000E+01 0.  1.
         13    1    6    6    0    0 -0.42342289903E+02  0.55789838857E+02 -0.10362940315E+02  0.70800890997E+02  0.00000000000E+00 0. -1.
        -14    1    6    6    0    0  0.22122586853E+02  0.12602780959E+03 -0.40342187243E+02  0.13416374216E+03  0.00000000000E+00 0.  1.
</event>
<event>
12    1  0.8724767E-002  0.2361264E+03  0.7818608E-02  0.1123118E+00
         21   -1    0    0  501  502  0.00000000000E+00  0.00000000000E+00  0.69283853058E+02  0.69283853058E+02  0.00000000000E+00 0. -1.
         21   -1    0    0  502  503 -0.00000000000E+00 -0.00000000000E+00 -0.10772132417E+04  0.10772132417E+04  0.00000000000E+00 0. -1.
         -6    2    1    2    0  503 -0.12858279827E+03 -0.86795142915E+02 -0.80297395085E+03  0.83697241861E+03  0.17801328861E+03 0.  0.
        -24    2    3    3    0    0 -0.12087420568E+03 -0.46711808257E+02 -0.76763749636E+03  0.78277969647E+03  0.81756716884E+02 0.  0.
          6    2    1    2  501    0  0.12858279827E+03  0.86795142915E+02 -0.20495543782E+03  0.30952467618E+03  0.17242929226E+03 0.  0.
         24    2    5    5    0    0  0.64946583994E+02 -0.96021656665E+01 -0.14951095071E+03  0.18131317116E+03  0.78807875848E+02 0.  0.
          5    1    5    5  501    0  0.63636214272E+02  0.96397308582E+02 -0.55444487110E+02  0.12821150502E+03  0.47000000000E+01 0. -1.
        -13    1    6    6    0    0  0.75205740866E+02 -0.28883573398E+02 -0.11321318977E+03  0.13895103673E+03  0.00000000000E+00 0.  1.
         14    1    6    6    0    0 -0.10259156872E+02  0.19281407731E+02 -0.36297760946E+02  0.42362134431E+02  0.00000000000E+00 0. -1.
         -5    1    3    3    0  503 -0.77085925847E+01 -0.40083334658E+02 -0.35336454492E+02  0.54192722141E+02  0.47000000000E+01 0.  1.
         13    1    4    4    0    0 -0.94517768281E+02 -0.68442922145E+02 -0.52966991831E+03  0.54237280949E+03  0.00000000000E+00 0. -1.
        -14    1    4    4    0    0 -0.26356437401E+02  0.21731113888E+02 -0.23796757805E+03  0.24040688698E+03  0.00000000000E+00 0.  1.
</event>
<event>
12    1  0.8724767E-002  0.1998249E+03  0.7818608E-02  0.1149925E+00
         21   -1    0    0  501  502  0.00000000000E+00  0.00000000000E+00  0.12790975636E+03  0.12790975636E+03  0.00000000000E+00 0. -1.
         21   -1    0    0  502  503 -0.00000000000E+00 -0.00000000000E+00 -0.31416658108E+03  0.31416658108E+03  0.00000000000E+00 0. -1.
         -6    2    1    2    0  503 -0.83433295556E+02  0.57885001891E+02 -0.74361793742E+02  0.21321277328E+03  0.17209945401E+03 0.  0.
        -24    2    3    3    0    0 -0.12202525628E+03  0.67411041989E+02 -0.59085410681E+02  0.17036953867E+03  0.78104303336E+02 0.  0.
          6    2    1    2  501    0  0.83433295556E+02 -0.57885001891E+02 -0.11189503098E+03  0.22886356416E+03  0.17189021145E+03 0.  0.
         24    2    5    5    0    0 -0.24199119021E+00 -0.71843539480E+02 -0.31225336785E+02  0.11170519295E+03  0.79633383388E+02 0.  0.
          5    1    5    5  501    0  0.83675286746E+02  0.13958537589E+02 -0.80669694192E+02  0.11715837121E+03  0.47000000000E+01 0. -1.
        -13    1    6    6    0    0 -0.19702906161E+02 -0.34189128861E+02 -0.51369348315E+02  0.64775851903E+02  0.00000000000E+00 0.  1.
         14    1    6    6    0    0  0.19460914971E+02 -0.37654410619E+02  0.20144011530E+02  0.46929341047E+02  0.00000000000E+00 0. -1.
         -5    1    3    3    0  503  0.38591960725E+02 -0.95260400973E+01 -0.15276383061E+02  0.42843234611E+02  0.47000000000E+01 0.  1.
         13    1    4    4    0    0 -0.62926242177E+02  0.24078808415E+02  0.11813558520E+02  0.68403663163E+02  0.00000000000E+00 0. -1.
        -14    1    4    4    0    0 -0.59099014104E+02  0.43332233573E+02 -0.70898969201E+02  0.10196587551E+03  0.00000000000E+00 0.  1.
</event>
<event>
12    1  0.8724767E-002  0.2367597E+03  0.7818608E-02  0.1122079E+00
         21   -1    0    0  503  502  0.00000000000E+00  0.00000000000E+00  0.11542702801E+03  0.11542702801E+03  0.00000000000E+00 0.  1.
         21   -1    0    0  501  503 -0.00000000000E+00 -0.00000000000E+00 -0.11925413303E+04  0.11925413303E+04  0.00000000000E+00 0.  1.
          6    2    1    2  501    0  0.88863818845E+02 -0.13584169279E+03 -0.10428355753E+04  0.10693741997E+04  0.17235254016E+03 0.  0.
         24    2    3    3    0    0 -0.19905651066E+02 -0.47860885782E+02 -0.39720076931E+03  0.40873979802E+03  0.81319567245E+02 0.  0.
         -6    2    1    2    0  502 -0.88863818845E+02  0.13584169279E+03 -0.34278726940E+02  0.23859415854E+03  0.17147127331E+03 0.  0.
        -24    2    5    5    0    0 -0.32624277888E+02  0.15291046943E+03 -0.12528222339E+02  0.17574987834E+03  0.79278674391E+02 0.  0.
          5    1    3    3  501    0  0.10876946991E+03 -0.87980807007E+02 -0.64563480600E+03  0.66063440170E+03  0.47000000000E+01 0. -1.
        -13    1    4    4    0    0 -0.23632677166E+02  0.76774878053E+01 -0.39023989177E+02  0.46263581577E+02  0.00000000000E+00 0.  1.
         14    1    4    4    0    0  0.37270261001E+01 -0.55538373587E+02 -0.35817678013E+03  0.36247621645E+03  0.00000000000E+00 0. -1.
         -5    1    5    5    0  502 -0.56239540957E+02 -0.17068776644E+02 -0.21750504601E+02  0.62844280198E+02  0.47000000000E+01 0.  1.
         11    1    6    6    0    0 -0.55227515244E+02  0.68887995775E+02 -0.64485151100E+01  0.88528061930E+02  0.00000000000E+00 0. -1.
        -12    1    6    6    0    0  0.22603237357E+02  0.84022473658E+02 -0.60797072291E+01  0.87221816414E+02  0.00000000000E+00 0.  1.
</event>
<event>
12    1  0.8724767E-002  0.1853716E+03  0.7818608E-02  0.1163053E+00
         21   -1    0    0  503  502  0.00000000000E+00  0.00000000000E+00  0.40253316612E+03  0.40253316612E+03  0.00000000000E+00 0.  1.
         21   -1    0    0  501  503 -0.00000000000E+00 -0.00000000000E+00 -0.94859587211E+02  0.94859587211E+02  0.00000000000E+00 0.  1.
          6    2    1    2  501    0 -0.68773472508E+02 -0.15173465287E+02  0.72917295059E+02  0.19919724790E+03  0.17147182592E+03 0.  0.
         24    2    3    3    0    0 -0.39178785769E+02 -0.90071364506E+01 -0.28076577855E+02  0.93671319995E+02  0.79811754799E+02 0.  0.
         -6    2    1    2    0  502  0.68773472508E+02  0.15173465287E+02  0.23475628385E+03  0.29819550542E+03  0.16985294251E+03 0.  0.
        -24    2    5    5    0    0  0.10520709435E+03  0.40471139148E+02  0.19057092353E+03  0.23541161283E+03  0.79968148362E+02 0.  0.
          5    1    3    3  501    0 -0.29594686740E+02 -0.61663288365E+01  0.10099387291E+03  0.10552592791E+03  0.47000000000E+01 0. -1.
        -11    1    4    4    0    0 -0.52054391100E+01  0.33865477554E+02 -0.15150487335E+02  0.37463374552E+02  0.00000000000E+00 0.  1.
         12    1    4    4    0    0 -0.33973346659E+02 -0.42872614005E+02 -0.12926090521E+02  0.56207945443E+02  0.00000000000E+00 0. -1.
         -5    1    5    5    0  502 -0.36433621845E+02 -0.25297673861E+02  0.44185360312E+02  0.62783892595E+02  0.47000000000E+01 0.  1.
         11    1    6    6    0    0  0.55613404438E+01  0.20233841005E+02  0.18800373553E+01  0.21068255025E+02  0.00000000000E+00 0. -1.
        -12    1    6    6    0    0  0.99645753909E+02  0.20237298143E+02  0.18869088618E+03  0.21434335780E+03  0.00000000000E+00 0.  1.
</event>
<event>
12    1  0.8724767E-002  0.1734639E+03  0.7818608E-02  0.1175140E+00
         21   -1    0    0  503  502  0.00000000000E+00  0.00000000000E+00  0.15318300556E+03  0.15318300556E+03  0.00000000000E+00 0.  1.
         21   -1    0    0  501  503 -0.00000000000E+00 -0.00000000000E+00 -0.21959973361E+03  0.21959973361E+03  0.00000000000E+00 0.  1.
          6    2    1    2  501    0 -0.16678949251E+01  0.99697451927E+01 -0.98200556115E+02  0.19643100720E+03  0.16982230029E+03 0.  0.
         24    2    3    3    0    0  0.12485761078E+02  0.32461089889E+02 -0.12879952639E+03  0.15563182159E+03  0.80139436645E+02 0.  0.
         -6    2    1    2    0  502  0.16678949251E+01 -0.99697451927E+01  0.31783828069E+02  0.17635173196E+03  0.17316911949E+03 0.  0.
        -24    2    5    5    0    0 -0.82305029692E+01  0.43135132932E+02 -0.25772317802E+02  0.97276411609E+02  0.82886108718E+02 0.  0.
          5    1    3    3  501    0 -0.14153656003E+02 -0.22491344696E+02  0.30598970278E+02  0.40799185612E+02  0.47000000000E+01 0. -1.
        -13    1    4    4    0    0 -0.32446718947E+02  0.25439515511E+02 -0.70775098292E+02  0.81908931491E+02  0.00000000000E+00 0.  1.
         14    1    4    4    0    0  0.44932480025E+02  0.70215743781E+01 -0.58024428102E+02  0.73722890099E+02  0.00000000000E+00 0. -1.
         -5    1    5    5    0  502  0.98983978943E+01 -0.53104878125E+02  0.57556145871E+02  0.79075320354E+02  0.47000000000E+01 0.  1.
         11    1    6    6    0    0 -0.71668962394E+01  0.38596660162E+02 -0.55059206316E+02  0.67620875309E+02  0.00000000000E+00 0. -1.
        -12    1    6    6    0    0 -0.10636067298E+01  0.45384727705E+01  0.29286888515E+02  0.29655536300E+02  0.00000000000E+00 0.  1.
</event>
<event>
12    1  0.8724767E-002  0.2105248E+03  0.7818608E-02  0.1141284E+00
         21   -1    0    0  503  502  0.00000000000E+00  0.00000000000E+00  0.67284027559E+03  0.67284027559E+03  0.00000000000E+00 0.  1.
         21   -1    0    0  501  503 -0.00000000000E+00 -0.00000000000E+00 -0.66974132304E+02  0.66974132304E+02  0.00000000000E+00 0.  1.
          6    2    1    2  501    0 -0.48738136805E+02  0.11146742540E+03  0.25065983739E+03  0.32690735934E+03  0.17099027635E+03 0.  0.
         24    2    3    3    0    0 -0.59334176352E-01  0.32039170109E+02  0.36405425672E+02  0.93229126499E+02  0.79622880303E+02 0.  0.
         -6    2    1    2    0  502  0.48738136805E+02 -0.11146742540E+03  0.35520630590E+03  0.41290704856E+03  0.17181477844E+03 0.  0.
        -24    2    5    5    0    0  0.88192003984E+02 -0.11849649828E+03  0.30670873463E+03  0.34981885695E+03  0.80521643734E+02 0.  0.
          5    1    3    3  501    0 -0.48678802628E+02  0.79428255291E+02  0.21425441171E+03  0.23367823284E+03  0.47000000000E+01 0. -1.
        -11    1    4    4    0    0  0.15406196352E+02  0.48102013919E+02  0.46590149576E+02  0.68715330653E+02  0.00000000000E+00 0.  1.
         12    1    4    4    0    0 -0.15465530529E+02 -0.16062843811E+02 -0.10184723904E+02  0.24513795847E+02  0.00000000000E+00 0. -1.
         -5    1    5    5    0  502 -0.39453867179E+02  0.70290728788E+01  0.48497571278E+02  0.63088191611E+02  0.47000000000E+01 0.  1.
         11    1    6    6    0    0  0.48893265416E+02 -0.38515920354E+02  0.55936100284E+02  0.83683181337E+02  0.00000000000E+00 0. -1.
        -12    1    6    6    0    0  0.39298738568E+02 -0.79980577925E+02  0.25077263434E+03  0.26613567561E+03  0.00000000000E+00 0.  1.
</event>
<event>
12    1  0.8724767E-002  0.1996627E+03  0.7818608E-02  0.1150131E+00
         21   -1    0    0  503  502  0.00000000000E+00  0.00000000000E+00  0.86361562728E+02  0.86361562728E+02  0.00000000000E+00 0. -1.
         21   -1    0    0  501  503 -0.00000000000E+00 -0.00000000000E+00 -0.47051629439E+03  0.47051629439E+03  0.00000000000E+00 0. -1.
          6    2    1    2  501    0  0.85302717812E+02 -0.52449158975E+02 -0.23307526492E+03  0.30690273879E+03  0.17273605304E+03 0.  0.
         24    2    3    3    0    0 -0.60391746364E+01  0.21171398000E+02 -0.11250329681E+03  0.13860830270E+03  0.77913863089E+02 0.  0.
         -6    2    1    2    0  502 -0.85302717812E+02  0.52449158975E+02 -0.15107946674E+03  0.24997511832E+03  0.17214844340E+03 0.  0.
        -24    2    5    5    0    0 -0.89343825861E+01  0.53795540596E+01 -0.55033299877E+01  0.78913223312E+02  0.78027222035E+02 0.  0.
          5    1    3    3  501    0  0.91341892449E+02 -0.73620556975E+02 -0.12057196810E+03  0.16829443609E+03  0.47000000000E+01 0. -1.
        -11    1    4    4    0    0 -0.29227970151E+02 -0.82250764710E+01 -0.89862504764E+02  0.94853549668E+02  0.00000000000E+00 0.  1.
         12    1    4    4    0    0  0.23188795515E+02  0.29396474471E+02 -0.22640792048E+02  0.43754753037E+02  0.00000000000E+00 0. -1.
         -5    1    5    5    0  502 -0.76368335226E+02  0.47069604916E+02 -0.14557613675E+03  0.17106189501E+03  0.47000000000E+01 0.  1.
         11    1    6    6    0    0 -0.34966977076E+02  0.19499759137E+00 -0.27463305337E+02  0.44463025650E+02  0.00000000000E+00 0. -1.
        -12    1    6    6    0    0  0.26032594490E+02  0.51845564682E+01  0.21959975350E+02  0.34450197663E+02  0.00000000000E+00 0.  1.
</event>
<event>
12    1  0.8724767E-002  0.2372284E+03  0.7818608E-02  0.1122369E+00
         21   -1    0    0  501  502  0.00000000000E+00  0.00000000000E+00  0.68476430836E+03  0.68476430836E+03  0.00000000000E+00 0. -1.
         21   -1    0    0  502  503 -0.00000000000E+00 -0.00000000000E+00 -0.81045937165E+02  0.81045937165E+02  0.00000000000E+00 0. -1.
         -6    2    1    2    0  503  0.71582303096E+02 -0.14586370749E+03  0.32278675599E+03  0.39811487491E+03  0.16704465421E+03 0.  0.
        -24    2    3    3    0    0  0.95346061191E+02 -0.14454189494E+03  0.32152561797E+03  0.37382199825E+03  0.79880739776E+02 0.  0.
          6    2    1    2  501    0 -0.71582303096E+02  0.14586370749E+03  0.28093161521E+03  0.36769537062E+03  0.17284983620E+03 0.  0.
         24    2    5    5    0    0 -0.11218015822E+03  0.91419093989E+02  0.17288871343E+03  0.23999352880E+03  0.82246872219E+02 0.  0.
          5    1    5    5  501    0  0.40597855127E+02  0.54444613498E+02  0.10804290178E+03  0.12770184182E+03  0.47000000000E+01 0. -1.
        -11    1    6    6    0    0 -0.33308439214E+02 -0.15742668615E+01  0.69356998679E+01  0.34059277322E+02  0.00000000000E+00 0.  1.
         12    1    6    6    0    0 -0.78871719009E+02  0.92993360851E+02  0.16595301356E+03  0.20593425148E+03  0.00000000000E+00 0. -1.
         -5    1    3    3    0  503 -0.23763758095E+02 -0.13218125516E+01  0.12611380184E+01  0.24292876658E+02  0.47000000000E+01 0.  1.
         13    1    4    4    0    0  0.87107882760E+02 -0.88182295062E+02  0.15900807417E+03  0.20161217238E+03  0.00000000000E+00 0. -1.
        -14    1    4    4    0    0  0.82381784303E+01 -0.56359599873E+02  0.16251754381E+03  0.17220982587E+03  0.00000000000E+00 0.  1.
</event>
<event>
12    1  0.8724767E-002  0.1896312E+03  0.7818608E-02  0.1158921E+00
         21   -1    0    0  503  502  0.00000000000E+00  0.00000000000E+00  0.52047189854E+03  0.52047189854E+03  0.00000000000E+00 0. -1.
         21   -1    0    0  501  503 -0.00000000000E+00 -0.00000000000E+00 -0.14326267309E+03  0.14326267309E+03  0.00000000000E+00 0. -1.
          6    2    1    2  501    0 -0.78162673184E+02 -0.14916819297E+02 -0.50378746277E+02  0.19620907116E+03  0.17212805278E+03 0.  0.
         24    2    3    3    0    0 -0.83358404138E+02  0.38663161307E+02 -0.67558610468E+02  0.13950768074E+03  0.80341543148E+02 0.  0.
         -6    2    1    2    0  502  0.78162673184E+02  0.14916819297E+02  0.42758797173E+03  0.46752550046E+03  0.17151298796E+03 0.  0.
        -24    2    5    5    0    0  0.59509628302E+02  0.53324816080E+02  0.40185296139E+03  0.41745064592E+03  0.79964412903E+02 0.  0.
          5    1    3    3  501    0  0.51957309537E+01 -0.53579980604E+02  0.17179864191E+02  0.56701390418E+02  0.47000000000E+01 0. -1.
        -13    1    4    4    0    0 -0.78958741312E+02  0.87336511220E+01 -0.18013105843E+02  0.81456930176E+02  0.00000000000E+00 0.  1.
         14    1    4    4    0    0 -0.43996628252E+01  0.29929510185E+02 -0.49545504625E+02  0.58050750567E+02  0.00000000000E+00 0. -1.
         -5    1    5    5    0  502  0.18653044882E+02 -0.38407996783E+02  0.25735010334E+02  0.50074854539E+02  0.47000000000E+01 0.  1.
         11    1    6    6    0    0  0.48365749830E+02  0.11289477493E+02  0.91901406948E+02  0.10446323113E+03  0.00000000000E+00 0. -1.
        -12    1    6    6    0    0  0.11143878473E+02  0.42035338588E+02  0.30995155445E+03  0.31298741480E+03  0.00000000000E+00 0.  1.
</event>
<event>
12    1  0.8724767E-002  0.2250588E+03  0.7818608E-02  0.1130342E+00
         21   -1    0    0  501  502  0.00000000000E+00  0.00000000000E+00  0.30264580940E+03  0.30264580940E+03  0.00000000000E+00 0.  1.
         21   -1    0    0  502  503 -0.00000000000E+00 -0.00000000000E+00 -0.19413766127E+03  0.19413766127E+03  0.00000000000E+00 0. -1.
         -6    2    1    2    0  503 -0.13411672253E+03 -0.58738483010E+02 -0.39317339547E+02  0.22751807456E+03  0.16964998207E+03 0.  0.
        -24    2    3    3    0    0 -0.43283017204E+02 -0.77480663472E+02  0.13962233878E+02  0.12045344784E+03  0.80233511267E+02 0.  0.
          6    2    1    2  501    0  0.13411672253E+03  0.58738483010E+02  0.14782548768E+03  0.26926539610E+03  0.17092095858E+03 0.  0.
         24    2    5    5    0    0  0.11779501191E+03 -0.18724258449E+02  0.11604969951E+03  0.18383316995E+03  0.78107867293E+02 0.  0.
          5    1    5    5  501    0  0.16321710625E+02  0.77462741458E+02  0.31775788170E+02  0.85432226155E+02  0.47000000000E+01 0. -1.
        -11    1    6    6    0    0  0.73443302936E+02 -0.26560558308E+01  0.11520880764E+03  0.13665300120E+03  0.00000000000E+00 0.  1.
         12    1    6    6    0    0  0.44351708969E+02 -0.16068202618E+02  0.84089186499E+00  0.47180168747E+02  0.00000000000E+00 0. -1.
         -5    1    3    3    0  503 -0.90833705326E+02  0.18742180462E+02 -0.53279573425E+02  0.10706462673E+03  0.47000000000E+01 0.  1.
         13    1    4    4    0    0 -0.18773368403E+02 -0.78700388509E+02 -0.15216749525E+02  0.82327030668E+02  0.00000000000E+00 0. -1.
        -14    1    4    4    0    0 -0.24509648801E+02  0.12197250365E+01  0.29178983403E+02  0.38126417167E+02  0.00000000000E+00 0.  1.
</event>
<event>
12    1  0.8724767E-002  0.2625413E+03  0.7818608E-02  0.1105648E+00
         21   -1    0    0  503  502  0.00000000000E+00  0.00000000000E+00  0.11119689046E+03  0.11119689046E+03  0.00000000000E+00 0. -1.
         21   -1    0    0  501  503 -0.00000000000E+00 -0.00000000000E+00 -0.76923901724E+03  0.76923901724E+03  0.00000000000E+00 0. -1.
          6    2    1    2  501    0  0.52003535593E+02 -0.19211512981E+03 -0.52315923454E+03  0.58527269052E+03  0.17098522383E+03 0.  0.
         24    2    3    3    0    0  0.85632607051E+02 -0.86950848999E+02 -0.34829799633E+03  0.37841770983E+03  0.83636566986E+02 0.  0.
         -6    2    1    2    0  502 -0.52003535593E+02  0.19211512981E+03 -0.13488289223E+03  0.29516321718E+03  0.17121722852E+03 0.  0.
        -24    2    5    5    0    0 -0.85905506523E+02  0.11202506334E+03 -0.35830344654E+02  0.16326454561E+03  0.73770775974E+02 0.  0.
          5    1    3    3  501    0 -0.33629071458E+02 -0.10516428081E+03 -0.17486123821E+03  0.20685498069E+03  0.47000000000E+01 0. -1.
        -13    1    4    4    0    0  0.70041579557E+02 -0.12853351166E+02 -0.14674854133E+03  0.16311396595E+03  0.00000000000E+00 0.  1.
         14    1    4    4    0    0  0.15591027494E+02 -0.74097497832E+02 -0.20154945500E+03  0.21530374389E+03  0.00000000000E+00 0. -1.
         -5    1    5    5    0  502  0.33901970930E+02  0.80090066471E+02 -0.99052547580E+02  0.13189867157E+03  0.47000000000E+01 0.  1.
         13    1    6    6    0    0  0.52157738199E+00  0.43982012409E+01  0.15405130232E+02  0.16029168868E+02  0.00000000000E+00 0. -1.
        -14    1    6    6    0    0 -0.86427083905E+02  0.10762686210E+03 -0.51235474886E+02  0.14723537674E+03  0.00000000000E+00 0.  1.
</event>
<event>
12    1  0.8724767E-002  0.4259033E+03  0.7818608E-02  0.1035181E+00
         21   -1    0    0  503  502  0.00000000000E+00  0.00000000000E+00  0.91011375916E+02  0.91011375916E+02  0.00000000000E+00 0.  1.
         21   -1    0    0  501  503 -0.00000000000E+00 -0.00000000000E+00 -0.34827762075E+04  0.34827762075E+04  0.00000000000E+00 0. -1.
          6    2    1    2  501    0  0.40310161395E+02  0.38735997090E+03 -0.28646945903E+04  0.28961470856E+04  0.17181440491E+03 0.  0.
         24    2    3    3    0    0  0.38326039463E+01  0.13601129287E+03 -0.15002482847E+04  0.15082556702E+04  0.74675901833E+02 0.  0.
         -6    2    1    2    0  502 -0.40310161395E+02 -0.38735997090E+03 -0.52707024130E+03  0.67764049780E+03  0.17239764741E+03 0.  0.
        -24    2    5    5    0    0  0.15683476817E+02 -0.88903768319E+02 -0.16941352238E+03  0.20843711869E+03  0.81211079404E+02 0.  0.
          5    1    3    3  501    0  0.36477557449E+02  0.25134867803E+03 -0.13644463056E+04  0.13878914154E+04  0.47000000000E+01 0. -1.
        -13    1    4    4    0    0 -0.30483420602E+02  0.99903203558E+02 -0.93473999515E+03  0.94055767901E+03  0.00000000000E+00 0.  1.
         14    1    4    4    0    0  0.34316024549E+02  0.36108089311E+02 -0.56550828959E+03  0.56769799123E+03  0.00000000000E+00 0. -1.
         -5    1    5    5    0  502 -0.55993638212E+02 -0.29845620258E+03 -0.35765671892E+03  0.46920337911E+03  0.47000000000E+01 0.  1.
         13    1    6    6    0    0 -0.33179465493E+02 -0.41682790168E+02 -0.80449142593E+02  0.96490395743E+02  0.00000000000E+00 0. -1.
        -14    1    6    6    0    0  0.48862942310E+02 -0.47220978151E+02 -0.88964379786E+02  0.11194672295E+03  0.00000000000E+00 0.  1.
</event>
<event>
12    1  0.8724767E-002  0.1776624E+03  0.7818608E-02  0.1170289E+00
         21   -1    0    0  503  502  0.00000000000E+00  0.00000000000E+00  0.37804342293E+03  0.37804342293E+03  0.00000000000E+00 0. -1.
         21   -1    0    0  501  503 -0.00000000000E+00 -0.00000000000E+00 -0.30100059120E+03  0.30100059120E+03  0.00000000000E+00 0. -1.
          6    2    1    2  501    0  0.44423767586E+01 -0.44593281578E+02 -0.25032849334E+03  0.30696627874E+03  0.17191755649E+03 0.  0.
         24    2    3    3    0    0  0.16413911125E+02 -0.27504114306E+02 -0.41653942432E+02  0.97198513173E+02  0.81771677620E+02 0.  0.
         -6    2    1    2    0  502 -0.44423767586E+01  0.44593281578E+02  0.32737132507E+03  0.37207773539E+03  0.17106010996E+03 0.  0.
        -24    2    5    5    0    0 -0.89158786786E+01  0.77440883610E+02  0.31926919981E+03  0.33762905453E+03  0.77356145034E+02 0.  0.
          5    1    3    3  501    0 -0.11971534366E+02 -0.17089167271E+02 -0.20867455091E+03  0.20976776556E+03  0.47000000000E+01 0. -1.
        -13    1    4    4    0    0 -0.29946298102E+02  0.31751314840E+00 -0.17482097869E+01  0.29998963683E+02  0.00000000000E+00 0.  1.
         14    1    4    4    0    0  0.46360209227E+02 -0.27821627455E+02 -0.39905732645E+02  0.67199549490E+02  0.00000000000E+00 0. -1.
         -5    1    5    5    0  502  0.44735019200E+01 -0.32847602032E+02  0.81021252657E+01  0.34448680853E+02  0.47000000000E+01 0.  1.
         13    1    6    6    0    0 -0.29379030885E+02  0.19034060254E+01  0.60473038944E+02  0.67258745523E+02  0.00000000000E+00 0. -1.
        -14    1    6    6    0    0  0.20463152207E+02  0.75537477585E+02  0.25879616086E+03  0.27037030901E+03  0.00000000000E+00 0.  1.
</event>
<event>
12    1  0.8724767E-002  0.1814779E+03  0.7818608E-02  0.1166761E+00
         21   -1    0    0  501  502  0.00000000000E+00  0.00000000000E+00  0.10209843414E+03  0.10209843414E+03  0.00000000000E+00 0. -1.
         21   -1    0    0  502  503 -0.00000000000E+00 -0.00000000000E+00 -0.34531861943E+03  0.34531861943E+03  0.00000000000E+00 0. -1.
         -6    2    1    2    0  503  0.20103313277E+02  0.51328598120E+02 -0.18295416383E+03  0.25769446881E+03  0.17290299304E+03 0.  0.
        -24    2    3    3    0    0  0.74653005456E+02  0.14242249811E+02 -0.14264240104E+03  0.18024645808E+03  0.79787330896E+02 0.  0.
          6    2    1    2  501    0 -0.20103313277E+02 -0.51328598120E+02 -0.60266021458E+02  0.18972258476E+03  0.17124221920E+03 0.  0.
         24    2    5    5    0    0 -0.53857171881E+02  0.22675069828E+02 -0.31045958755E+02  0.10316758545E+03  0.79151407940E+02 0.  0.
          5    1    5    5  501    0  0.33753858604E+02 -0.74003667947E+02 -0.29220062703E+02  0.86554999305E+02  0.47000000000E+01 0. -1.
        -11    1    6    6    0    0 -0.35343059683E+02  0.20951779404E+02 -0.57599058069E+02  0.70751398703E+02  0.00000000000E+00 0.  1.
         12    1    6    6    0    0 -0.18514112198E+02  0.17232904234E+01  0.26553099314E+02  0.32416186752E+02  0.00000000000E+00 0. -1.
         -5    1    3    3    0  503 -0.54549692178E+02  0.37086348309E+02 -0.40311762793E+02  0.77448010737E+02  0.47000000000E+01 0.  1.
         11    1    4    4    0    0  0.27619171784E+02  0.45766615001E+02 -0.65167991895E+02  0.84286824986E+02  0.00000000000E+00 0. -1.
        -12    1    4    4    0    0  0.47033833671E+02 -0.31524365190E+02 -0.77474409144E+02  0.95959633089E+02  0.00000000000E+00 0.  1.
</event>
<event>
12    1  0.8724767E-002  0.2151531E+03  0.7818608E-02  0.1138090E+00
         21   -1    0    0  501  502  0.00000000000E+00  0.00000000000E+00  0.10854689458E+04  0.10854689458E+04  0.00000000000E+00 0.  1.
         21   -1    0    0  502  503 -0.00000000000E+00 -0.00000000000E+00 -0.63202853484E+02  0.63202853484E+02  0.00000000000E+00 0.  1.
         -6    2    1    2    0  503  0.29467091701E+02 -0.11990992781E+03  0.84528228726E+03  0.87223447560E+03  0.17619345900E+03 0.  0.
        -24    2    3    3    0    0  0.25664801526E+02 -0.12333472918E+03  0.38317772942E+03  0.41007768506E+03  0.73948617270E+02 0.  0.
          6    2    1    2  501    0 -0.29467091701E+02  0.11990992781E+03  0.17698380505E+03  0.27643732368E+03  0.17276465608E+03 0.  0.
         24    2    5    5    0    0 -0.19896947343E+02  0.92195377164E+02  0.30354692712E+02  0.12683160665E+03  0.79176846317E+02 0.  0.
          5    1    5    5  501    0 -0.95701443581E+01  0.27714550642E+02  0.14662911234E+03  0.14960571702E+03  0.47000000000E+01 0. -1.
        -11    1    6    6    0    0 -0.50200990422E+02  0.66212565965E+02  0.23282257413E+02  0.86291985962E+02  0.00000000000E+00 0.  1.
         12    1    6    6    0    0  0.30304043079E+02  0.25982811199E+02  0.70724352985E+01  0.40539620691E+02  0.00000000000E+00 0. -1.
         -5    1    3    3    0  503  0.38022901753E+01  0.34248013698E+01  0.46210455783E+03  0.46215679054E+03  0.47000000000E+01 0.  1.
         11    1    4    4    0    0  0.26740240395E+01 -0.11981154054E+03  0.34657637678E+03  0.36671124962E+03  0.00000000000E+00 0. -1.
        -12    1    4    4    0    0  0.22990777487E+02 -0.35231886366E+01  0.36601352640E+02  0.43366435439E+02  0.00000000000E+00 0.  1.
</event>
<event>
12    1  0.8724767E-002  0.1962936E+03  0.7818608E-02  0.1153077E+00
         21   -1    0    0  501  502  0.00000000000E+00  0.00000000000E+00  0.10043957288E+04  0.10043957288E+04  0.00000000000E+00 0.  1.
         21   -1    0    0  502  503 -0.00000000000E+00 -0.00000000000E+00 -0.38631262451E+02  0.38631262451E+02  0.00000000000E+00 0. -1.
         -6    2    1    2    0  503  0.54522995742E+02  0.75707713783E+02  0.53659053661E+03  0.57109327894E+03  0.17179555954E+03 0.  0.
        -24    2    3    3    0    0 -0.40604341041E+02  0.15844333000E+02  0.25630341862E+03  0.26907375462E+03  0.69350469542E+02 0.  0.
          6    2    1    2  501    0 -0.54522995742E+02 -0.75707713783E+02  0.42917392977E+03  0.47193371234E+03  0.17270423232E+03 0.  0.
         24    2    5    5    0    0 -0.32413548117E+02 -0.10203424613E+03  0.41169719865E+03  0.43308219873E+03  0.81264887847E+02 0.  0.
          5    1    5    5  501    0 -0.22109447624E+02  0.26326532342E+02  0.17476731119E+02  0.38851513613E+02  0.47000000000E+01 0. -1.
        -11    1    6    6    0    0 -0.38468005527E+01  0.70321386783E+01  0.12132885144E+03  0.12159333469E+03  0.00000000000E+00 0.  1.
         12    1    6    6    0    0 -0.28566747565E+02 -0.10906638480E+03  0.29036834721E+03  0.31148886404E+03  0.00000000000E+00 0. -1.
         -5    1    3    3    0  503  0.95127336783E+02  0.59863380783E+02  0.28028711799E+03  0.30201952432E+03  0.47000000000E+01 0.  1.
         13    1    4    4    0    0 -0.24256583872E+02 -0.24732855886E+02  0.15330014139E+03  0.15716561129E+03  0.00000000000E+00 0. -1.
        -14    1    4    4    0    0 -0.16347757169E+02  0.40577188886E+02  0.10300327724E+03  0.11190814333E+03  0.00000000000E+00 0.  1.
</event>
<event>
12    1  0.8724767E-002  0.2045280E+03  0.7818608E-02  0.1147380E+00
         21   -1    0    0  501  502  0.00000000000E+00  0.00000000000E+00  0.29033102604E+02  0.29033102604E+02  0.00000000000E+00 0. -1.
         21   -1    0    0  502  503 -0.00000000000E+00 -0.00000000000E+00 -0.14986942037E+04  0.14986942037E+04  0.00000000000E+00 0. -1.
         -6    2    1    2    0  503  0.93586151729E+02  0.17349808524E+02 -0.92550880467E+03  0.94640690464E+03  0.17337848188E+03 0.  0.
        -24    2    3    3    0    0  0.21513397430E+02 -0.48676036755E+02 -0.35709856285E+03  0.36963469036E+03  0.79235332438E+02 0.  0.
          6    2    1    2  501    0 -0.93586151729E+02 -0.17349808524E+02 -0.54415229642E+03  0.58132040166E+03  0.18103122392E+03 0.  0.
         24    2    5    5    0    0  0.46066373630E+01 -0.92957600287E+01 -0.38713552714E+03  0.39589373863E+03  0.82160231559E+02 0.  0.
          5    1    5    5  501    0 -0.98192789092E+02 -0.80540484955E+01 -0.15701676928E+03  0.18542666303E+03  0.47000000000E+01 0. -1.
        -13    1    6    6    0    0 -0.34137976292E+02 -0.28015799623E+01 -0.27397781727E+03  0.27611065650E+03  0.00000000000E+00 0.  1.
         14    1    6    6    0    0  0.38744613655E+02 -0.64941800664E+01 -0.11315770987E+03  0.11978308213E+03  0.00000000000E+00 0. -1.
         -5    1    3    3    0  503  0.72072754299E+02  0.66025845279E+02 -0.56841024183E+03  0.57677221429E+03  0.47000000000E+01 0.  1.
         13    1    4    4    0    0  0.53237271713E+01 -0.13714002441E+02 -0.30224133829E+03  0.30259914492E+03  0.00000000000E+00 0. -1.
        -14    1    4    4    0    0  0.16189670258E+02 -0.34962034313E+02 -0.54857224554E+02  0.67035545438E+02  0.00000000000E+00 0.  1.
</event>
<event>
12    1  0.8724767E-002  0.1804419E+03  0.7818608E-02  0.1167482E+00
         21   -1    0    0  503  502  0.00000000000E+00  0.00000000000E+00  0.42350535282E+03  0.42350535282E+03  0.00000000000E+00 0. -1.
         21   -1    0    0  501  503 -0.00000000000E+00 -0.00000000000E+00 -0.10668120670E+03  0.10668120670E+03  0.00000000000E+00 0. -1.
          6    2    1    2  501    0  0.22482763162E+02  0.50402040970E+02  0.18002877318E+02  0.18133776700E+03  0.17179476644E+03 0.  0.
         24    2    3    3    0    0  0.66170226472E+02  0.57861596968E+02  0.53962107379E+02  0.12407175917E+03  0.68959619455E+02 0.  0.
         -6    2    1    2    0  502 -0.22482763162E+02 -0.50402040970E+02  0.29882126881E+03  0.34884879252E+03  0.17133443605E+03 0.  0.
        -24    2    5    5    0    0  0.29185953625E+02 -0.75591598294E+02  0.24399778320E+03  0.26927571500E+03  0.80053624883E+02 0.  0.
          5    1    3    3  501    0 -0.43687463310E+02 -0.74595559982E+01 -0.35959230061E+02  0.57266007830E+02  0.47000000000E+01 0. -1.
        -11    1    4    4    0    0  0.51907886851E+02  0.18268373141E+02 -0.76599098947E+00  0.55034070509E+02  0.00000000000E+00 0.  1.
         12    1    4    4    0    0  0.14262339621E+02  0.39593223827E+02  0.54728098368E+02  0.69037688660E+02  0.00000000000E+00 0. -1.
         -5    1    5    5    0  502 -0.51668716786E+02  0.25189557324E+02  0.54823485605E+02  0.79573077522E+02  0.47000000000E+01 0.  1.
         13    1    6    6    0    0  0.12737183068E+00  0.78066438496E+01  0.10033309121E+03  0.10063642037E+03  0.00000000000E+00 0. -1.
        -14    1    6    6    0    0  0.29058581794E+02 -0.83398242143E+02  0.14366469199E+03  0.16863929463E+03  0.00000000000E+00 0.  1.
</event>
<event>
12    1  0.8724767E-002  0.1931378E+03  0.7818608E-02  0.1155818E+00
         21   -1    0    0  503  502  0.00000000000E+00  0.00000000000E+00  0.30641787359E+03  0.30641787359E+03  0.00000000000E+00 0. -1.
         21   -1    0    0  501  503 -0.00000000000E+00 -0.00000000000E+00 -0.23787634051E+03  0.23787634051E+03  0.00000000000E+00 0.  1.
          6    2    1    2  501    0 -0.52640771119E+01 -0.84440438649E+02 -0.15628556632E+03  0.24790014142E+03  0.17283345652E+03 0.  0.
         24    2    3    3    0    0 -0.64866828221E+02 -0.53846390799E+02 -0.59426701649E+02  0.13003490750E+03  0.79185889485E+02 0.  0.
         -6    2    1    2    0  502  0.52640771119E+01  0.84440438649E+02  0.22482709940E+03  0.29639407268E+03  0.17362120697E+03 0.  0.
        -24    2    5    5    0    0 -0.86945529143E+00  0.34497182869E+02  0.22912955570E+03  0.24567375971E+03  0.81635968397E+02 0.  0.
          5    1    3    3  501    0  0.59602751109E+02 -0.30594047850E+02 -0.96858864669E+02  0.11786523393E+03  0.47000000000E+01 0. -1.
        -11    1    4    4    0    0 -0.68789843031E+02 -0.52463840574E+02 -0.74641239181E+02  0.11426203069E+03  0.00000000000E+00 0.  1.
         12    1    4    4    0    0  0.39230148102E+01 -0.13825502247E+01  0.15214537532E+02  0.15772876803E+02  0.00000000000E+00 0. -1.
         -5    1    5    5    0  502  0.61335324034E+01  0.49943255780E+02 -0.43024563014E+01  0.50720312971E+02  0.47000000000E+01 0.  1.
         13    1    6    6    0    0 -0.92241912456E+01  0.43324704466E+02  0.22927886729E+03  0.23351855324E+03  0.00000000000E+00 0. -1.
        -14    1    6    6    0    0  0.83547359541E+01 -0.88275215970E+01 -0.14931158887E+00  0.12155206471E+02  0.00000000000E+00 0.  1.
</event>
<event>
12    1  0.8724767E-002  0.3197758E+03  0.7818608E-02  0.1075826E+00
         21   -1    0    0  501  502  0.00000000000E+00  0.00000000000E+00  0.43009433656E+03  0.43009433656E+03  0.00000000000E+00 0.  1.
         21   -1    0    0  502  503 -0.00000000000E+00 -0.00000000000E+00 -0.23769758861E+03  0.23769758861E+03  0.00000000000E+00 0.  1.
         -6    2    1    2    0  503  0.26548688498E+03 -0.46421441450E+02  0.11029679422E+03  0.33826316060E+03  0.17209981604E+03 0.  0.
        -24    2    3    3    0    0  0.15757225354E+03  0.27783244701E+02  0.17003983667E+02  0.17739818111E+03  0.74699768602E+02 0.  0.
          6    2    1    2  501    0 -0.26548688498E+03  0.46421441450E+02  0.82099953734E+02  0.32952876457E+03  0.17091099423E+03 0.  0.
         24    2    5    5    0    0 -0.18635525743E+03  0.12874413926E+02 -0.14892601115E+02  0.19984891559E+03  0.69453343962E+02 0.  0.
          5    1    5    5  501    0 -0.79131627554E+02  0.33547027525E+02  0.96992554849E+02  0.12967984898E+03  0.47000000000E+01 0. -1.
        -13    1    6    6    0    0 -0.10880455291E+03 -0.26486744514E+02 -0.25628775148E+01  0.11201136867E+03  0.00000000000E+00 0.  1.
         14    1    6    6    0    0 -0.77550704517E+02  0.39361158440E+02 -0.12329723600E+02  0.87837546919E+02  0.00000000000E+00 0. -1.
         -5    1    3    3    0  503  0.10791463144E+03 -0.74204686152E+02  0.93292810550E+02  0.16086497949E+03  0.47000000000E+01 0.  1.
         13    1    4    4    0    0  0.62040449467E+01 -0.17998435326E+01 -0.18103041547E+02  0.19221074988E+02  0.00000000000E+00 0. -1.
        -14    1    4    4    0    0  0.15136820860E+03  0.29583088234E+02  0.35107025213E+02  0.15817710613E+03  0.00000000000E+00 0.  1.
</event>
<event>
12    1  0.8724767E-002  0.1901205E+03  0.7818608E-02  0.1158419E+00
         21   -1    0    0  501  502  0.00000000000E+00  0.00000000000E+00  0.41527253387E+03  0.41527253387E+03  0.00000000000E+00 0. -1.
         21   -1    0    0  502  503 -0.00000000000E+00 -0.00000000000E+00 -0.12409411534E+03  0.12409411534E+03  0.00000000000E+00 0.  1.
         -6    2    1    2    0  503 -0.80187157583E+01  0.79908090307E+02 -0.21223029964E+01  0.18983681785E+03  0.17199973995E+03 0.  0.
        -24    2    3    3    0    0 -0.16152454513E+02  0.74546223584E+01  0.53222342899E+02  0.98181034871E+02  0.80563171756E+02 0.  0.
          6    2    1    2  501    0  0.80187157583E+01 -0.79908090307E+02  0.29330072153E+03  0.34952983136E+03  0.17232581658E+03 0.  0.
         24    2    5    5    0    0  0.22611839172E+02 -0.10676150064E+03  0.14716774827E+03  0.20016115736E+03  0.80602912448E+02 0.  0.
          5    1    5    5  501    0 -0.14593123414E+02  0.26853410334E+02  0.14613297327E+03  0.14936867400E+03  0.47000000000E+01 0. -1.
        -13    1    6    6    0    0  0.26517104348E+02 -0.13910643192E+02  0.80215484597E+02  0.85622349806E+02  0.00000000000E+00 0.  1.
         14    1    6    6    0    0 -0.39052651767E+01 -0.92850857449E+02  0.66952263670E+02  0.11453880755E+03  0.00000000000E+00 0. -1.
         -5    1    3    3    0  503  0.81337387546E+01  0.72453467949E+02 -0.55344645895E+02  0.91655782977E+02  0.47000000000E+01 0.  1.
         13    1    4    4    0    0  0.15665552529E+02  0.23567646701E+02  0.55651142082E+02  0.62433109182E+02  0.00000000000E+00 0. -1.
        -14    1    4    4    0    0 -0.31818007042E+02 -0.16113024342E+02 -0.24287991838E+01  0.35747925689E+02  0.00000000000E+00 0.  1.
</event>
<event>
12    1  0.8724767E-002  0.1787456E+03  0.7818608E-02  0.1169096E+00
         21   -1    0    0  501  502  0.00000000000E+00  0.00000000000E+00  0.51841758374E+02  0.51841758374E+02  0.00000000000E+00 0.  1.
         21   -1    0    0  502  503 -0.00000000000E+00 -0.00000000000E+00 -0.10961853789E+04  0.10961853789E+04  0.00000000000E+00 0.  1.
         -6    2    1    2    0  503 -0.50208468310E+01 -0.47277960296E+02 -0.90212942728E+03  0.91960899311E+03  0.17199645992E+03 0.  0.
        -24    2    3    3    0    0  0.23661148935E+02 -0.12604298540E+02 -0.83168188774E+03  0.83588405341E+03  0.79301135236E+02 0.  0.
          6    2    1    2  501    0  0.50208468310E+01  0.47277960296E+02 -0.14221419323E+03  0.22841814414E+03  0.17230657963E+03 0.  0.
         24    2    5    5    0    0  0.70672481455E+01  0.96929373796E+02 -0.89691816070E+02  0.15596028933E+03  0.82666441061E+02 0.  0.
          5    1    5    5  501    0 -0.20464013144E+01 -0.49651413500E+02 -0.52522377158E+02  0.72457854807E+02  0.47000000000E+01 0. -1.
        -13    1    6    6    0    0 -0.35645494486E+02  0.27165332756E+02 -0.41136623022E+02  0.60834022837E+02  0.00000000000E+00 0.  1.
         14    1    6    6    0    0  0.42712742631E+02  0.69764041040E+02 -0.48555193048E+02  0.95126266495E+02  0.00000000000E+00 0. -1.
         -5    1    3    3    0  503 -0.28681995766E+02 -0.34673661756E+02 -0.70447539539E+02  0.83724939700E+02  0.47000000000E+01 0.  1.
         13    1    4    4    0    0 -0.13112020213E+02 -0.16204206123E+02 -0.63906515014E+02  0.67220116270E+02  0.00000000000E+00 0. -1.
        -14    1    4    4    0    0  0.36773169148E+02  0.35999075833E+01 -0.76777537272E+03  0.76866393714E+03  0.00000000000E+00 0.  1.
</event>
<event>
12    1  0.8724767E-002  0.2326557E+03  0.7818608E-02  0.1125909E+00
         21   -1    0    0  503  502  0.00000000000E+00  0.00000000000E+00  0.24292552268E+03  0.24292552268E+03  0.00000000000E+00 0.  1.
         21   -1    0    0  501  503 -0.00000000000E+00 -0.00000000000E+00 -0.94806434916E+03  0.94806434916E+03  0.00000000000E+00 0.  1.
          6    2    1    2  501    0  0.10202947169E+03 -0.10589331566E+03 -0.87444997541E+03  0.90324876249E+03  0.17196557805E+03 0.  0.
         24    2    3    3    0    0  0.11255008629E+03 -0.50653343283E+02 -0.78135128447E+03  0.79438373534E+03  0.72817622313E+02 0.  0.
         -6    2    1    2    0  502 -0.10202947169E+03  0.10589331566E+03  0.16931114893E+03  0.28774110935E+03  0.18029218914E+03 0.  0.
        -24    2    5    5    0    0 -0.11113270838E+03  0.87186319324E+02  0.55059477248E+02  0.17151565985E+03  0.80213106093E+02 0.  0.
          5    1    3    3  501    0 -0.10520614594E+02 -0.55239972381E+02 -0.93098690941E+02  0.10886502714E+03  0.47000000000E+01 0. -1.
        -13    1    4    4    0    0  0.58250381624E+02 -0.60171132856E+02 -0.37029423868E+03  0.37964654007E+03  0.00000000000E+00 0.  1.
         14    1    4    4    0    0  0.54299704662E+02  0.95177895732E+01 -0.41105704580E+03  0.41473719528E+03  0.00000000000E+00 0. -1.
         -5    1    5    5    0  502  0.91032366924E+01  0.18706996340E+02  0.11425167168E+03  0.11622544950E+03  0.47000000000E+01 0.  1.
         11    1    6    6    0    0 -0.28331694904E+02  0.45011750725E+01 -0.17714272059E+02  0.33715589090E+02  0.00000000000E+00 0. -1.
        -12    1    6    6    0    0 -0.82801013480E+02  0.82685144251E+02  0.72773749307E+02  0.13780007076E+03  0.00000000000E+00 0.  1.
</event>
<event>
12    1  0.8724767E-002  0.2012146E+03  0.7818608E-02  0.1152447E+00
         21   -1    0    0  503  502  0.00000000000E+00  0.00000000000E+00  0.28401631155E+03  0.28401631155E+03  0.00000000000E+00 0.  1.
         21   -1    0    0  501  503 -0.00000000000E+00 -0.00000000000E+00 -0.15480567375E+03  0.15480567375E+03  0.00000000000E+00 0.  1.
          6    2    1    2  501    0 -0.38757004233E+02 -0.54805605684E+02 -0.24192732927E+02  0.18580038720E+03  0.17155388589E+03 0.  0.
         24    2    3    3    0    0  0.12418666340E+02  0.40881609190E+01  0.30740051521E+02  0.90264394972E+02  0.83855673026E+02 0.  0.
         -6    2    1    2    0  502  0.38757004233E+02  0.54805605684E+02  0.15340337073E+03  0.25302159810E+03  0.18968809969E+03 0.  0.
        -24    2    5    5    0    0 -0.13237694828E+02  0.73486671753E+02  0.14499229973E+02  0.10345929911E+03  0.70128962725E+02 0.  0.
          5    1    3    3  501    0 -0.51175670573E+02 -0.58893766603E+02 -0.54932784448E+02  0.95535992226E+02  0.47000000000E+01 0. -1.
        -13    1    4    4    0    0 -0.61998510202E+01 -0.31921088658E+02 -0.87468875991E+01  0.33673462793E+02  0.00000000000E+00 0.  1.
         14    1    4    4    0    0  0.18618517360E+02  0.36009249577E+02  0.39486939120E+02  0.56590932179E+02  0.00000000000E+00 0. -1.
         -5    1    5    5    0  502  0.51994699061E+02 -0.18681066069E+02  0.13890414076E+03  0.14956229899E+03  0.47000000000E+01 0.  1.
         11    1    6    6    0    0  0.24566730892E+02  0.34736489355E+02 -0.10510858684E+02  0.43824948485E+02  0.00000000000E+00 0. -1.
        -12    1    6    6    0    0 -0.37804425720E+02  0.38750182398E+02  0.25010088657E+02  0.59634350625E+02  0.00000000000E+00 0.  1.
</event>
<event>
12    1  0.8724767E-002  0.1908031E+03  0.7818608E-02  0.1157803E+00
         21   -1    0    0  501  502  0.00000000000E+00  0.00000000000E+00  0.40703881236E+02  0.40703881236E+02  0.00000000000E+00 0. -1.
         21   -1    0    0  502  503 -0.00000000000E+00 -0.00000000000E+00 -0.99050356363E+03  0.99050356363E+03  0.00000000000E+00 0. -1.
         -6    2    1    2    0  503 -0.62031746155E+02 -0.55359349348E+02 -0.63693230137E+03  0.66489741199E+03  0.17173589274E+03 0.  0.
        -24    2    3    3    0    0  0.22709107669E+02 -0.24284971727E+02 -0.39164106975E+03  0.40348488827E+03  0.91169425361E+02 0.  0.
          6    2    1    2  501    0  0.62031746155E+02  0.55359349348E+02 -0.31286738103E+03  0.36631003288E+03  0.17141892248E+03 0.  0.
         24    2    5    5    0    0  0.81249703910E+01  0.84698817878E+02 -0.12388958588E+03  0.16756033616E+03  0.74080576876E+02 0.  0.
          5    1    5    5  501    0  0.53906775764E+02 -0.29339468531E+02 -0.18897779515E+03  0.19874969672E+03  0.47000000000E+01 0. -1.
        -11    1    6    6    0    0  0.35933811059E+01  0.81209058382E+02 -0.13354403161E+03  0.15633883692E+03  0.00000000000E+00 0.  1.
         12    1    6    6    0    0  0.45315892851E+01  0.34897594958E+01  0.96544457302E+01  0.11221499238E+02  0.00000000000E+00 0. -1.
         -5    1    3    3    0  503 -0.84740853824E+02 -0.31074377620E+02 -0.24529123162E+03  0.26141252372E+03  0.47000000000E+01 0.  1.
         11    1    4    4    0    0  0.14407693034E+02  0.20658453853E+02 -0.30919154051E+02  0.39879160239E+02  0.00000000000E+00 0. -1.
        -12    1    4    4    0    0  0.83014146353E+01 -0.44943425580E+02 -0.36072191570E+03  0.36360572803E+03  0.00000000000E+00 0.  1.
</event>
<event>
12    1  0.8724767E-002  0.2285767E+03  0.7818608E-02  0.1127649E+00
         21   -1    0    0  501  502  0.00000000000E+00  0.00000000000E+00  0.47451234660E+03  0.47451234660E+03  0.00000000000E+00 0.  1.
         21   -1    0    0  502  503 -0.00000000000E+00 -0.00000000000E+00 -0.12844830749E+03  0.12844830749E+03  0.00000000000E+00 0.  1.
         -6    2    1    2    0  503  0.16234023372E+02  0.15049128401E+03  0.59090608687E+02  0.23609105989E+03  0.17127789830E+03 0.  0.
        -24    2    3    3    0    0  0.61317824514E+02  0.10629291397E+03  0.81398457243E+02  0.16896598896E+03  0.82859745478E+02 0.  0.
          6    2    1    2  501    0 -0.16234023372E+02 -0.15049128401E+03  0.28697343043E+03  0.36686959421E+03  0.17125530445E+03 0.  0.
         24    2    5    5    0    0 -0.16910896143E+02 -0.15947441108E+03  0.30053667803E+03  0.34992242883E+03  0.80033400282E+02 0.  0.
          5    1    5    5  501    0  0.67687277074E+00  0.89831270712E+01 -0.13563247602E+02  0.16947165374E+02  0.47000000000E+01 0. -1.
        -13    1    6    6    0    0 -0.40130773267E+02 -0.83353216674E+02  0.11192628990E+03  0.14520926990E+03  0.00000000000E+00 0.  1.
         14    1    6    6    0    0  0.23219877124E+02 -0.76121194408E+02  0.18861038812E+03  0.20471315893E+03  0.00000000000E+00 0. -1.
         -5    1    3    3    0  503 -0.45083801141E+02  0.44198370044E+02 -0.22307848556E+02  0.67125070928E+02  0.47000000000E+01 0.  1.
         11    1    4    4    0    0  0.84654132682E+01  0.38662270574E+02  0.72594869602E+02  0.82682824578E+02  0.00000000000E+00 0. -1.
        -12    1    4    4    0    0  0.52852411246E+02  0.67630643393E+02  0.88035876415E+01  0.86283164381E+02  0.00000000000E+00 0.  1.
</event>
<event>
12    1  0.8724767E-002  0.2066303E+03  0.7818608E-02  0.1144345E+00
         21   -1    0    0  503  502  0.00000000000E+00  0.00000000000E+00  0.22790341383E+03  0.22790341383E+03  0.00000000000E+00 0.  1.
         21   -1    0    0  501  503 -0.00000000000E+00 -0.00000000000E+00 -0.33300099651E+03  0.33300099651E+03  0.00000000000E+00 0.  1.
          6    2    1    2  501    0 -0.11356659709E+03 -0.13481763950E+02 -0.23829389296E+03  0.31540459510E+03  0.17209575606E+03 0.  0.
         24    2    3    3    0    0 -0.71090801588E+02  0.19882190437E+02 -0.23760918138E+03  0.26118369981E+03  0.79432980599E+02 0.  0.
         -6    2    1    2    0  502  0.11356659709E+03  0.13481763950E+02  0.13319631029E+03  0.24549981524E+03  0.17160935952E+03 0.  0.
        -24    2    5    5    0    0  0.10923289088E+03 -0.48014815130E+02  0.80684420703E+02  0.16438139072E+03  0.79208705016E+02 0.  0.
          5    1    3    3  501    0 -0.42475795501E+02 -0.33363954387E+02 -0.68471158769E+00  0.54220895288E+02  0.47000000000E+01 0. -1.
        -11    1    4    4    0    0 -0.52259238962E+02  0.48045982709E+02 -0.18934714192E+03  0.20221717203E+03  0.00000000000E+00 0.  1.
         12    1    4    4    0    0 -0.18831562627E+02 -0.28163792272E+02 -0.48262039458E+02  0.58966527783E+02  0.00000000000E+00 0. -1.
         -5    1    5    5    0  502  0.43337062113E+01  0.61496579080E+02  0.52511889586E+02  0.81118424516E+02  0.47000000000E+01 0.  1.
         13    1    6    6    0    0 -0.74672679199E+01  0.34317224217E+01  0.22965429402E+02  0.24391550927E+02  0.00000000000E+00 0. -1.
        -14    1    6    6    0    0  0.11670015880E+03 -0.51446537551E+02  0.57718991301E+02  0.13998983980E+03  0.00000000000E+00 0.  1.
</event>
<event>
12    1  0.8724767E-002  0.2094112E+03  0.7818608E-02  0.1142244E+00
         21   -1    0    0  503  502  0.00000000000E+00  0.00000000000E+00  0.15719557008E+04  0.15719557008E+04  0.00000000000E+00 0.  1.
         21   -1    0    0  501  503 -0.00000000000E+00 -0.00000000000E+00 -0.38882824912E+02  0.38882824912E+02  0.00000000000E+00 0. -1.
          6    2    1    2  501    0 -0.79408680877E+01 -0.12014752161E+03  0.11987688390E+04  0.12169222639E+04  0.17133179139E+03 0.  0.
         24    2    3    3    0    0 -0.36170229060E+02 -0.11027149881E+03  0.11572362771E+04  0.11655269689E+04  0.76086959467E+02 0.  0.
         -6    2    1    2    0  502  0.79408680877E+01  0.12014752161E+03  0.33430403692E+03  0.39391626182E+03  0.17003631345E+03 0.  0.
        -24    2    5    5    0    0  0.19963573378E+02  0.10480056802E+03  0.34600306750E+03  0.37069920466E+03  0.79486315160E+02 0.  0.
          5    1    3    3  501    0  0.28229360972E+02 -0.98760227976E+01  0.41532561906E+02  0.51395294976E+02  0.47000000000E+01 0. -1.
        -11    1    4    4    0    0 -0.16614473140E+02 -0.81742168700E+02  0.46466721125E+03  0.47209473634E+03  0.00000000000E+00 0.  1.
         12    1    4    4    0    0 -0.19555755920E+02 -0.28529330110E+02  0.69256906580E+03  0.69343223257E+03  0.00000000000E+00 0. -1.
         -5    1    5    5    0  502 -0.12022705291E+02  0.15346953592E+02 -0.11699030574E+02  0.23217057166E+02  0.47000000000E+01 0.  1.
         13    1    6    6    0    0  0.13349791323E+02  0.24029186607E+02  0.18058825965E+02  0.32889815028E+02  0.00000000000E+00 0. -1.
        -14    1    6    6    0    0  0.66137820556E+01  0.80771381409E+02  0.32794424153E+03  0.33780938963E+03  0.00000000000E+00 0.  1.
</event>
<event>
12    1  0.8724767E-002  0.2668002E+03  0.7818608E-02  0.1103616E+00
         21   -1    0    0  503  502  0.00000000000E+00  0.00000000000E+00  0.16297158159E+03  0.16297158159E+03  0.00000000000E+00 0. -1.
         21   -1    0    0  501  503 -0.00000000000E+00 -0.00000000000E+00 -0.43723724786E+03  0.43723724786E+03  0.00000000000E+00 0.  1.
          6    2    1    2  501    0 -0.11117101532E+03  0.16574118419E+03 -0.10130384936E+03  0.28224950792E+03  0.17196854377E+03 0.  0.
         24    2    3    3    0    0 -0.14494612821E+03  0.11282501767E+03 -0.73075260007E+02  0.21325804333E+03  0.80000842031E+02 0.  0.
         -6    2    1    2    0  502  0.11117101532E+03 -0.16574118419E+03 -0.17296181691E+03  0.31795932153E+03  0.17706836323E+03 0.  0.
        -24    2    5    5    0    0  0.14353046231E+03 -0.96846032139E+02 -0.12213346318E+03  0.22631169566E+03  0.79500020208E+02 0.  0.
          5    1    3    3  501    0  0.33775112891E+02  0.52916166518E+02 -0.28228589351E+02  0.68991464592E+02  0.47000000000E+01 0. -1.
        -11    1    4    4    0    0 -0.68649715601E+02  0.81991912292E+02 -0.75545852590E+02  0.13092987809E+03  0.00000000000E+00 0.  1.
         12    1    4    4    0    0 -0.76296412610E+02  0.30833105377E+02  0.24705925830E+01  0.82328165241E+02  0.00000000000E+00 0. -1.
         -5    1    5    5    0  502 -0.32359446989E+02 -0.68895152047E+02 -0.50828353730E+02  0.91647625872E+02  0.47000000000E+01 0.  1.
         13    1    6    6    0    0 -0.38612337421E+01  0.44003876572E+01  0.43417462956E+01  0.72885731416E+01  0.00000000000E+00 0. -1.
        -14    1    6    6    0    0  0.14739169605E+03 -0.10124641980E+03 -0.12647520948E+03  0.21902312252E+03  0.00000000000E+00 0.  1.
</event>
<event>
12    1  0.8724767E-002  0.1866044E+03  0.7818608E-02  0.1163452E+00
         21   -1    0    0  503  502  0.00000000000E+00  0.00000000000E+00  0.38501141650E+02  0.38501141650E+02  0.00000000000E+00 0.  1.
         21   -1    0    0  501  503 -0.00000000000E+00 -0.00000000000E+00 -0.14532426607E+04  0.14532426607E+04  0.00000000000E+00 0.  1.
          6    2    1    2  501    0  0.33372853942E+02  0.37678744728E+02 -0.11721860664E+04  0.11857138296E+04  0.17135832689E+03 0.  0.
         24    2    3    3    0    0  0.21569008293E+02  0.87203766999E+02 -0.64466719843E+03  0.65572297620E+03  0.79417288279E+02 0.  0.
         -6    2    1    2    0  502 -0.33372853942E+02 -0.37678744728E+02 -0.24255545269E+03  0.30602997281E+03  0.17968795577E+03 0.  0.
        -24    2    5    5    0    0  0.25894624295E+02  0.20123546177E+02 -0.56943557972E+02  0.10273805396E+03  0.78974997684E+02 0.  0.
          5    1    3    3  501    0  0.11803845649E+02 -0.49525022271E+02 -0.52751886797E+03  0.52999085338E+03  0.47000000000E+01 0. -1.
        -13    1    4    4    0    0  0.27254751656E+02  0.41955966428E+02 -0.13420000557E+03  0.14322278485E+03  0.00000000000E+00 0.  1.
         14    1    4    4    0    0 -0.56857433625E+01  0.45247800571E+02 -0.51046719287E+03  0.51250019134E+03  0.00000000000E+00 0. -1.
         -5    1    5    5    0  502 -0.59267478238E+02 -0.57802290905E+02 -0.18561189471E+03  0.20329191885E+03  0.47000000000E+01 0.  1.
         13    1    6    6    0    0  0.40018396707E+02  0.39777750343E+02 -0.54440922528E+02  0.78406348869E+02  0.00000000000E+00 0. -1.
        -14    1    6    6    0    0 -0.14123772411E+02 -0.19654204166E+02 -0.25026354436E+01  0.24331705092E+02  0.00000000000E+00 0.  1.
</event>
<event>
12    1  0.8724767E-002  0.3195271E+03  0.7818608E-02  0.1076025E+00
         21   -1    0    0  503  502  0.00000000000E+00  0.00000000000E+00  0.20616946799E+03  0.20616946799E+03  0.00000000000E+00 0.  1.
         21   -1    0    0  501  503 -0.00000000000E+00 -0.00000000000E+00 -0.51275323761E+03  0.51275323761E+03  0.00000000000E+00 0. -1.
          6    2    1    2  501    0 -0.19233680155E+03 -0.18796574335E+03 -0.83229412459E+02  0.33018888531E+03  0.17254854093E+03 0.  0.
         24    2    3    3    0    0 -0.64811067197E+02 -0.12797194304E+03  0.45225389188E+01  0.16410287154E+03  0.79573905601E+02 0.  0.
         -6    2    1    2    0  502  0.19233680155E+03  0.18796574335E+03 -0.22335435716E+03  0.38873382030E+03  0.17000661245E+03 0.  0.
        -24    2    5    5    0    0  0.46707809684E+02  0.12576758622E+03 -0.14464282023E+03  0.21183268952E+03  0.77152042606E+02 0.  0.
          5    1    3    3  501    0 -0.12752573436E+03 -0.59993800309E+02 -0.87751951378E+02  0.16608601377E+03  0.47000000000E+01 0. -1.
        -11    1    4    4    0    0  0.50374640912E+01  0.88453260303E+01 -0.18910218131E+01  0.10353347311E+02  0.00000000000E+00 0.  1.
         12    1    4    4    0    0 -0.69848531288E+02 -0.13681726907E+03  0.64135607320E+01  0.15374952423E+03  0.00000000000E+00 0. -1.
         -5    1    5    5    0  502  0.14562899187E+03  0.62198157128E+02 -0.78711536937E+02  0.17690113078E+03  0.47000000000E+01 0.  1.
         11    1    6    6    0    0  0.45755730049E+02  0.24182258591E+02 -0.62799117192E+02  0.81376271621E+02  0.00000000000E+00 0. -1.
        -12    1    6    6    0    0  0.95207963496E+00  0.10158532763E+03 -0.81843703033E+02  0.13045641790E+03  0.00000000000E+00 0.  1.
</event>
<event>
12    1  0.8724767E-002  0.2111831E+03  0.7818608E-02  0.1140637E+00
         21   -1    0    0  503  502  0.00000000000E+00  0.00000000000E+00  0.58433253963E+03  0.58433253963E+03  0.00000000000E+00 0.  1.
         21   -1    0    0  501  503 -0.00000000000E+00 -0.00000000000E+00 -0.78083347938E+02  0.78083347938E+02  0.00000000000E+00 0.  1.
          6    2    1    2  501    0  0.10099428852E+03  0.69735210012E+02  0.30298971339E+03  0.36932512635E+03  0.17185876966E+03 0.  0.
         24    2    3    3    0    0  0.10308770452E+03  0.28521477817E+02  0.11758805472E+03  0.17932823388E+03  0.83012741995E+02 0.  0.
         -6    2    1    2    0  502 -0.10099428852E+03 -0.69735210012E+02  0.20325947830E+03  0.29309076121E+03  0.17182820770E+03 0.  0.
        -24    2    5    5    0    0 -0.70386858059E+02 -0.41409297396E+02  0.33742368953E+02  0.11845596374E+03  0.78893777866E+02 0.  0.
          5    1    3    3  501    0 -0.20934160057E+01  0.41213732195E+02  0.18540165866E+03  0.18999689247E+03  0.47000000000E+01 0. -1.
        -13    1    4    4    0    0  0.82045322662E+02  0.28942876665E+01  0.12075391185E+03  0.14601821496E+03  0.00000000000E+00 0.  1.
         14    1    4    4    0    0  0.21042381861E+02  0.25627190150E+02 -0.31658571307E+01  0.33310018925E+02  0.00000000000E+00 0. -1.
         -5    1    5    5    0  502 -0.30607430459E+02 -0.28325912617E+02  0.16951710935E+03  0.17463479747E+03  0.47000000000E+01 0.  1.
         11    1    6    6    0    0 -0.39099844267E+02 -0.59341621790E+01  0.54055728650E+02  0.66977861285E+02  0.00000000000E+00 0. -1.
        -12    1    6    6    0    0 -0.31287013792E+02 -0.35475135217E+02 -0.20313359697E+02  0.51478102460E+02  0.00000000000E+00 0.  1.
</event>
<event>
12    1  0.8724767E-002  0.1779561E+03  0.7818608E-02  0.1169891E+00
         21   -1    0    0  501  502  0.00000000000E+00  0.00000000000E+00  0.18500979502E+03  0.18500979502E+03  0.00000000000E+00 0.  1.
         21   -1    0    0  502  503 -0.00000000000E+00 -0.00000000000E+00 -0.17114480521E+03  0.17114480521E+03  0.00000000000E+00 0.  1.
         -6    2    1    2    0  503  0.38542056008E+02  0.24193663678E+02 -0.10890090442E+01  0.17757127483E+03  0.17163784041E+03 0.  0.
        -24    2    3    3    0    0 -0.72897468334E+01 -0.49991868531E+02  0.40210440237E+01  0.90094135058E+02  0.74487965798E+02 0.  0.
          6    2    1    2  501    0 -0.38542056008E+02 -0.24193663678E+02  0.14953998857E+02  0.17858332539E+03  0.17203940997E+03 0.  0.
         24    2    5    5    0    0 -0.48744451711E+02  0.43412228119E+02  0.31788745044E+02  0.10801318891E+03  0.79973005102E+02 0.  0.
          5    1    5    5  501    0  0.10202395703E+02 -0.67605891797E+02 -0.16834746187E+02  0.70570136480E+02  0.47000000000E+01 0. -1.
        -13    1    6    6    0    0 -0.55746047449E+02  0.39186831008E+02 -0.68813690516E+01  0.68487829361E+02  0.00000000000E+00 0.  1.
         14    1    6    6    0    0  0.70015957374E+01  0.42253971113E+01  0.38670114096E+02  0.39525359553E+02  0.00000000000E+00 0. -1.
         -5    1    3    3    0  503  0.45831802841E+02  0.74185532208E+02 -0.51100530679E+01  0.87477139774E+02  0.47000000000E+01 0.  1.
         11    1    4    4    0    0 -0.15363871414E+02  0.15472295903E+02 -0.76533830831E+01  0.23108759333E+02  0.00000000000E+00 0. -1.
        -12    1    4    4    0    0  0.80741245802E+01 -0.65464164433E+02  0.11674427107E+02  0.66985375725E+02  0.00000000000E+00 0.  1.
</event>
<event>
12    1  0.8724767E-002  0.2248699E+03  0.7818608E-02  0.1130764E+00
         21   -1    0    0  503  502  0.00000000000E+00  0.00000000000E+00  0.32086437154E+03  0.32086437154E+03  0.00000000000E+00 0. -1.
         21   -1    0    0  501  503 -0.00000000000E+00 -0.00000000000E+00 -0.30160347517E+03  0.30160347517E+03  0.00000000000E+00 0.  1.
          6    2    1    2  501    0 -0.13550840379E+03 -0.40387175116E+02 -0.20671647384E+03  0.30544747354E+03  0.17485081391E+03 0.  0.
         24    2    3    3    0    0 -0.10142874382E+03 -0.84602310081E+02 -0.19417127456E+03  0.24803777568E+03  0.79843054520E+02 0.  0.
         -6    2    1    2    0  502  0.13550840379E+03  0.40387175116E+02  0.22597737021E+03  0.31702037317E+03  0.17158815153E+03 0.  0.
        -24    2    5    5    0    0  0.48990774499E+02  0.31125076276E+02  0.32385163809E+02  0.10472077583E+03  0.80924506149E+02 0.  0.
          5    1    3    3  501    0 -0.34079659971E+02  0.44215134965E+02 -0.12545199279E+02  0.57409697862E+02  0.47000000000E+01 0. -1.
        -11    1    4    4    0    0 -0.67774202945E+02 -0.45250357493E+02 -0.17460157361E+03  0.19268276245E+03  0.00000000000E+00 0.  1.
         12    1    4    4    0    0 -0.33654540871E+02 -0.39351952588E+02 -0.19569700944E+02  0.55355013221E+02  0.00000000000E+00 0. -1.
         -5    1    5    5    0  502  0.86517629288E+02  0.92620988398E+01  0.19359220640E+03  0.21229959734E+03  0.47000000000E+01 0.  1.
         13    1    6    6    0    0  0.27548735429E+02  0.52626499792E+02  0.42135917892E+02  0.72827995172E+02  0.00000000000E+00 0. -1.
        -14    1    6    6    0    0  0.21442039070E+02 -0.21501423516E+02 -0.97507540829E+01  0.31892780654E+02  0.00000000000E+00 0.  1.
</event>
<event>
12    1  0.8724767E-002  0.1944274E+03  0.7818608E-02  0.1154584E+00
         21   -1    0    0  503  502  0.00000000000E+00  0.00000000000E+00  0.16379175836E+03  0.16379175836E+03  0.00000000000E+00 0. -1.
         21   -1    0    0  501  503 -0.00000000000E+00 -0.00000000000E+00 -0.35822213120E+03  0.35822213120E+03  0.00000000000E+00 0.  1.
          6    2    1    2  501    0 -0.17059959613E+02 -0.88204727084E+02 -0.25303288914E+03  0.31894677158E+03  0.17213449395E+03 0.  0.
         24    2    3    3    0    0 -0.75314007035E+02 -0.49910871598E+02 -0.12975207414E+03  0.17724213948E+03  0.80099191663E+02 0.  0.
         -6    2    1    2    0  502  0.17059959613E+02  0.88204727084E+02  0.58602516305E+02  0.20306711799E+03  0.17242645791E+03 0.  0.
        -24    2    5    5    0    0 -0.52824687146E+02  0.38862627011E+02  0.51188016132E+02  0.11706960927E+03  0.82367038734E+02 0.  0.
          5    1    3    3  501    0  0.58254047422E+02 -0.38293855486E+02 -0.12328081501E+03  0.14170463210E+03  0.47000000000E+01 0. -1.
        -13    1    4    4    0    0 -0.54016563697E+02 -0.50487152196E+02 -0.13620665805E+03  0.15498062907E+03  0.00000000000E+00 0.  1.
         14    1    4    4    0    0 -0.21297443338E+02  0.57628059765E+00  0.64545839143E+01  0.22261510406E+02  0.00000000000E+00 0. -1.
         -5    1    5    5    0  502  0.69884646759E+02  0.49342100072E+02  0.74145001731E+01  0.85997508714E+02  0.47000000000E+01 0.  1.
         11    1    6    6    0    0 -0.14983018684E+02  0.23338638949E+02  0.67545689060E+02  0.73017826779E+02  0.00000000000E+00 0. -1.
        -12    1    6    6    0    0 -0.37841668462E+02  0.15523988063E+02 -0.16357672929E+02  0.44051782495E+02  0.00000000000E+00 0.  1.
</event>
<event>
12    1  0.8724767E-002  0.1843197E+03  0.7818608E-02  0.1163902E+00
         21   -1    0    0  501  502  0.00000000000E+00  0.00000000000E+00  0.23566058378E+03  0.23566058378E+03  0.00000000000E+00 0.  1.
         21   -1    0    0  502  503 -0.00000000000E+00 -0.00000000000E+00 -0.14354349483E+03  0.14354349483E+03  0.00000000000E+00 0.  1.
         -6    2    1    2    0  503  0.20234058272E+02 -0.51298403496E+02  0.41088925186E+02  0.18795125883E+03  0.17491835984E+03 0.  0.
        -24    2    3    3    0    0 -0.29822617979E+02 -0.55424430035E+02  0.74461344031E+02  0.12746569632E+03  0.82108196890E+02 0.  0.
          6    2    1    2  501    0 -0.20234058272E+02  0.51298403496E+02  0.51028163763E+02  0.19125281979E+03  0.17587729889E+03 0.  0.
         24    2    5    5    0    0 -0.57650415049E+02  0.33029740977E+02 -0.36609946476E+02  0.94112425765E+02  0.55698531022E+02 0.  0.
          5    1    5    5  501    0  0.37416356777E+02  0.18268662519E+02  0.87638110239E+02  0.97140394024E+02  0.47000000000E+01 0. -1.
        -11    1    6    6    0    0  0.92441247745E+01 -0.32006307366E+01 -0.86594381971E+01  0.13064599108E+02  0.00000000000E+00 0.  1.
         12    1    6    6    0    0 -0.66894539823E+02  0.36230371714E+02 -0.27950508279E+02  0.81047826657E+02  0.00000000000E+00 0. -1.
         -5    1    3    3    0  503  0.50056676250E+02  0.41260265381E+01 -0.33372418844E+02  0.60485562507E+02  0.47000000000E+01 0.  1.
         13    1    4    4    0    0  0.25010991855E+02  0.98688859424E-01  0.13364723668E+02  0.28357984621E+02  0.00000000000E+00 0. -1.
        -14    1    4    4    0    0 -0.54833609834E+02 -0.55523118894E+02  0.61096620363E+02  0.99107711702E+02  0.00000000000E+00 0.  1.
</event>
<event>
12    1  0.8724767E-002  0.2121138E+03  0.7818608E-02  0.1140157E+00
         21   -1    0    0  503  502  0.00000000000E+00  0.00000000000E+00  0.31776922216E+03  0.31776922216E+03  0.00000000000E+00 0. -1.
         21   -1    0    0  501  503 -0.00000000000E+00 -0.00000000000E+00 -0.14388139144E+03  0.14388139144E+03  0.00000000000E+00 0.  1.
          6    2    1    2  501    0  0.15037209935E+02  0.12132103759E+03  0.52495980157E+02  0.21725697969E+03  0.17175521956E+03 0.  0.
         24    2    3    3    0    0  0.30390536514E+02  0.80295807894E+01  0.56971287699E+02  0.10274585709E+03  0.79516819920E+02 0.  0.
         -6    2    1    2    0  502 -0.15037209935E+02 -0.12132103759E+03  0.12139185056E+03  0.24439363391E+03  0.17334172917E+03 0.  0.
        -24    2    5    5    0    0  0.37275247523E+02 -0.12500566444E+03  0.11863792873E+03  0.19166941020E+03  0.75142161630E+02 0.  0.
          5    1    3    3  501    0 -0.15353326579E+02  0.11329145680E+03 -0.44753075421E+01  0.11451112260E+03  0.47000000000E+01 0. -1.
        -13    1    4    4    0    0  0.33647951686E+02  0.19081431064E+02 -0.56332527588E+01  0.39089886170E+02  0.00000000000E+00 0.  1.
         14    1    4    4    0    0 -0.32574151721E+01 -0.11051850274E+02  0.62604540457E+02  0.63655970922E+02  0.00000000000E+00 0. -1.
         -5    1    5    5    0  502 -0.52312457458E+02  0.36846268511E+01  0.27539218295E+01  0.52724223710E+02  0.47000000000E+01 0.  1.
         13    1    6    6    0    0  0.35415197828E+02 -0.36286647709E+02  0.80377262459E+02  0.95034001071E+02  0.00000000000E+00 0. -1.
        -14    1    6    6    0    0  0.18600496953E+01 -0.88719016731E+02  0.38260666267E+02  0.96635409130E+02  0.00000000000E+00 0.  1.
</event>
<event>
12    1  0.8724767E-002  0.1857434E+03  0.7818608E-02  0.1164076E+00
         21   -1    0    0  501  502  0.00000000000E+00  0.00000000000E+00  0.28350544284E+03  0.28350544284E+03  0.00000000000E+00 0. -1.
         21   -1    0    0  502  503 -0.00000000000E+00 -0.00000000000E+00 -0.16664454617E+03  0.16664454617E+03  0.00000000000E+00 0. -1.
         -6    2    1    2    0  503  0.42122210395E+02 -0.28131098181E+01 -0.65222925213E+02  0.19004401983E+03  0.17343732385E+03 0.  0.
        -24    2    3    3    0    0  0.18758209816E+02  0.91069869478E+01 -0.10893551016E+03  0.13884982766E+03  0.83531560630E+02 0.  0.
          6    2    1    2  501    0 -0.42122210395E+02  0.28131098181E+01  0.18208382188E+03  0.26010596917E+03  0.18088228994E+03 0.  0.
         24    2    5    5    0    0  0.12178573595E+02  0.64065769254E+02  0.11299954758E+03  0.15289034352E+03  0.79710845825E+02 0.  0.
          5    1    5    5  501    0 -0.54300783990E+02 -0.61252659436E+02  0.69084274299E+02  0.10721562566E+03  0.47000000000E+01 0. -1.
        -13    1    6    6    0    0 -0.30893416931E+02  0.21596616758E+02  0.22070107366E+02  0.43679591393E+02  0.00000000000E+00 0.  1.
         14    1    6    6    0    0  0.43071990526E+02  0.42469152495E+02  0.90929440214E+02  0.10921075212E+03  0.00000000000E+00 0. -1.
         -5    1    3    3    0  503  0.23364000579E+02 -0.11920096766E+02  0.43712584943E+02  0.51194192174E+02  0.47000000000E+01 0.  1.
         13    1    4    4    0    0 -0.65719833626E+01  0.34020101047E+02 -0.13799004179E+02  0.37295720356E+02  0.00000000000E+00 0. -1.
        -14    1    4    4    0    0  0.25330193179E+02 -0.24913114099E+02 -0.95136505977E+02  0.10155410730E+03  0.00000000000E+00 0.  1.
</event>
<event>
12    1  0.8724767E-002  0.3073579E+03  0.7818608E-02  0.1081721E+00
         21   -1    0    0  501  502  0.00000000000E+00  0.00000000000E+00  0.11383350694E+04  0.11383350694E+04  0.00000000000E+00 0. -1.
         21   -1    0    0  502  503 -0.00000000000E+00 -0.00000000000E+00 -0.16785927997E+03  0.16785927997E+03  0.00000000000E+00 0.  1.
         -6    2    1    2    0  503 -0.13777098861E+03 -0.21366516160E+03  0.20556556892E+02  0.30804453561E+03  0.17272873908E+03 0.  0.
        -24    2    3    3    0    0 -0.31817393442E+02 -0.16792278713E+03 -0.11983976740E+01  0.19051199884E+03  0.84160421715E+02 0.  0.
          6    2    1    2  501    0  0.13777098861E+03  0.21366516160E+03  0.94991923257E+03  0.99814981378E+03  0.17123917710E+03 0.  0.
         24    2    5    5    0    0  0.79023564391E+02  0.17844357094E+03  0.85864066080E+03  0.88393209202E+03  0.77364896323E+02 0.  0.
          5    1    5    5  501    0  0.58747424220E+02  0.35221590664E+02  0.91278571762E+02  0.11421772176E+03  0.47000000000E+01 0. -1.
        -11    1    6    6    0    0  0.59437140727E+02  0.43704129379E+02  0.29964928439E+03  0.30859766405E+03  0.00000000000E+00 0.  1.
         12    1    6    6    0    0  0.19586423664E+02  0.13473944156E+03  0.55899137641E+03  0.57533442797E+03  0.00000000000E+00 0. -1.
         -5    1    3    3    0  503 -0.10595359517E+03 -0.45742374471E+02  0.21754954566E+02  0.11753253677E+03  0.47000000000E+01 0.  1.
         13    1    4    4    0    0 -0.54646232470E+00 -0.93851346658E+02 -0.39041507514E+02  0.10164946237E+03  0.00000000000E+00 0. -1.
        -14    1    4    4    0    0 -0.31270931117E+02 -0.74071440469E+02  0.37843109840E+02  0.88862536474E+02  0.00000000000E+00 0.  1.
</event>
<event>
12    1  0.8724767E-002  0.2260739E+03  0.7818608E-02  0.1131657E+00
         21   -1    0    0  503  502  0.00000000000E+00  0.00000000000E+00  0.74046184350E+02  0.74046184350E+02  0.00000000000E+00 0.  1.
         21   -1    0    0  501  503 -0.00000000000E+00 -0.00000000000E+00 -0.66756831502E+03  0.66756831502E+03  0.00000000000E+00 0. -1.
          6    2    1    2  501    0  0.12706848530E+03 -0.14504168142E+02 -0.23615034646E+03  0.31873863327E+03  0.17166991396E+03 0.  0.
         24    2    3    3    0    0  0.88868530635E+02  0.57182256254E+02 -0.13507446657E+03  0.18898269517E+03  0.79384642001E+02 0.  0.
         -6    2    1    2    0  502 -0.12706848530E+03  0.14504168142E+02 -0.35737178421E+03  0.42287586610E+03  0.18642058665E+03 0.  0.
        -24    2    5    5    0    0 -0.22403228591E+02 -0.20966237042E+02 -0.26653133963E+03  0.27974291399E+03  0.79219032942E+02 0.  0.
          5    1    3    3  501    0  0.38199954662E+02 -0.71686424396E+02 -0.10107587988E+03  0.12975593810E+03  0.47000000000E+01 0. -1.
        -11    1    4    4    0    0  0.79769415416E+02  0.27810663533E+02 -0.49181601677E+02  0.97751841852E+02  0.00000000000E+00 0.  1.
         12    1    4    4    0    0  0.90991152186E+01  0.29371592721E+02 -0.85892864897E+02  0.91230853317E+02  0.00000000000E+00 0. -1.
         -5    1    5    5    0  502 -0.10466525671E+03  0.35470405184E+02 -0.90840444588E+02  0.14313295210E+03  0.47000000000E+01 0.  1.
         13    1    6    6    0    0  0.16690637466E+02 -0.11964195514E+02 -0.16035037180E+02  0.26054592122E+02  0.00000000000E+00 0. -1.
        -14    1    6    6    0    0 -0.39093866057E+02 -0.90020415276E+01 -0.25049630245E+03  0.25368832187E+03  0.00000000000E+00 0.  1.
</event>
<event>
12    1  0.8724767E-002  0.2493365E+03  0.7818608E-02  0.1113862E+00
         21   -1    0    0  501  502  0.00000000000E+00  0.00000000000E+00  0.24875024457E+03  0.24875024457E+03  0.00000000000E+00 0.  1.
         21   -1    0    0  502  503 -0.00000000000E+00 -0.00000000000E+00 -0.82338277444E+03  0.82338277444E+03  0.00000000000E+00 0.  1.
         -6    2    1    2    0  503 -0.15368449682E+03 -0.91777050143E+02 -0.73487431964E+03  0.77574457864E+03  0.17232943487E+03 0.  0.
        -24    2    3    3    0    0 -0.16140988132E+03 -0.91009626888E+02 -0.73887226205E+03  0.76582772190E+03  0.78892192412E+02 0.  0.
          6    2    1    2  501    0  0.15368449682E+03  0.91777050143E+02  0.16024178978E+03  0.29638844037E+03  0.17357051852E+03 0.  0.
         24    2    5    5    0    0 -0.18040478035E+01  0.25145522990E+02  0.75940450684E+02  0.10732428805E+03  0.71526210861E+02 0.  0.
          5    1    5    5  501    0  0.15548854462E+03  0.66631527153E+02  0.84301339095E+02  0.18906415232E+03  0.47000000000E+01 0. -1.
        -11    1    6    6    0    0  0.13173514284E+02  0.37381881260E+02  0.78379039075E+02  0.87830634129E+02  0.00000000000E+00 0.  1.
         12    1    6    6    0    0 -0.14977562088E+02 -0.12236358270E+02 -0.24385883907E+01  0.19493653920E+02  0.00000000000E+00 0. -1.
         -5    1    3    3    0  503  0.77253845030E+01 -0.76742325477E+00  0.39979424073E+01  0.99168567432E+01  0.47000000000E+01 0.  1.
         13    1    4    4    0    0 -0.83709904942E+02 -0.34869806657E+02 -0.21636034281E+03  0.23459550197E+03  0.00000000000E+00 0. -1.
        -14    1    4    4    0    0 -0.77699976381E+02 -0.56139820231E+02 -0.52251191923E+03  0.53123221993E+03  0.00000000000E+00 0.  1.
</event>
<event>
12    1  0.8724767E-002  0.2471160E+03  0.7818608E-02  0.1115590E+00
         21   -1    0    0  503  502  0.00000000000E+00  0.00000000000E+00  0.17951218530E+03  0.17951218530E+03  0.00000000000E+00 0.  1.
         21   -1    0    0  501  503 -0.00000000000E+00 -0.00000000000E+00 -0.17002041338E+04  0.17002041338E+04  0.00000000000E+00 0. -1.
          6    2    1    2  501    0  0.11226639942E+03 -0.13334864666E+03 -0.16029668467E+04  0.16219029096E+04  0.17515915780E+03 0.  0.
         24    2    3    3    0    0  0.11674654313E+03 -0.10608381798E+03 -0.80413661870E+03  0.82258115603E+03  0.71557843387E+02 0.  0.
         -6    2    1    2    0  502 -0.11226639942E+03  0.13334864666E+03  0.82274898291E+02  0.25781340940E+03  0.17121036527E+03 0.  0.
        -24    2    5    5    0    0 -0.14116739181E+03  0.88571982387E+02  0.39266555828E+02  0.18916922141E+03  0.80435709407E+02 0.  0.
          5    1    3    3  501    0 -0.44801437169E+01 -0.27264828679E+02 -0.79883022805E+03  0.79932175362E+03  0.47000000000E+01 0. -1.
        -11    1    4    4    0    0  0.17498146733E+02 -0.33205029123E+02 -0.84146333232E+02  0.92137747392E+02  0.00000000000E+00 0.  1.
         12    1    4    4    0    0  0.99248396400E+02 -0.72878788855E+02 -0.71999028547E+03  0.73044340864E+03  0.00000000000E+00 0. -1.
         -5    1    5    5    0  502  0.28900992390E+02  0.44776664270E+02  0.43008342463E+02  0.68644187996E+02  0.47000000000E+01 0.  1.
         11    1    6    6    0    0 -0.61540782254E+02  0.85504073744E+02  0.23558168548E+02  0.10794999682E+03  0.00000000000E+00 0. -1.
        -12    1    6    6    0    0 -0.79626609552E+02  0.30679086429E+01  0.15708387279E+02  0.81219224591E+02  0.00000000000E+00 0.  1.
</event>
<event>
12    1  0.8724767E-002  0.2296550E+03  0.7818608E-02  0.1127738E+00
         21   -1    0    0  501  502  0.00000000000E+00  0.00000000000E+00  0.15095567201E+03  0.15095567201E+03  0.00000000000E+00 0. -1.
         21   -1    0    0  502  503 -0.00000000000E+00 -0.00000000000E+00 -0.54327645330E+03  0.54327645330E+03  0.00000000000E+00 0.  1.
         -6    2    1    2    0  503  0.82042193173E+02  0.12163910961E+03 -0.40606606698E+03  0.46416619639E+03  0.17039252527E+03 0.  0.
        -24    2    3    3    0    0  0.11064627984E+03  0.11894529440E+03 -0.39104253347E+03  0.43140574808E+03  0.82498934478E+02 0.  0.
          6    2    1    2  501    0 -0.82042193173E+02 -0.12163910961E+03  0.13745285697E+02  0.23006592892E+03  0.17667598683E+03 0.  0.
         24    2    5    5    0    0 -0.11884852608E+03 -0.11644326634E+03 -0.11771551388E+02  0.18473490308E+03  0.79400305825E+02 0.  0.
          5    1    5    5  501    0  0.36806332905E+02 -0.51958432715E+01  0.25516837085E+02  0.45331025844E+02  0.47000000000E+01 0. -1.
        -11    1    6    6    0    0 -0.92378303389E+02 -0.12256104178E+03 -0.23276471895E+02  0.15523129209E+03  0.00000000000E+00 0.  1.
         12    1    6    6    0    0 -0.26470222689E+02  0.61177754377E+01  0.11504920507E+02  0.29503610989E+02  0.00000000000E+00 0. -1.
         -5    1    3    3    0  503 -0.28604086666E+02  0.26938152115E+01 -0.15023533513E+02  0.32760448312E+02  0.47000000000E+01 0.  1.
         11    1    4    4    0    0  0.95299631752E+02  0.79505155860E+02 -0.19725352612E+03  0.23304944366E+03  0.00000000000E+00 0. -1.
        -12    1    4    4    0    0  0.15346648087E+02  0.39440138542E+02 -0.19378900735E+03  0.19835630442E+03  0.00000000000E+00 0.  1.
</event>
<event>
12    1  0.8724767E-002  0.2467050E+03  0.7818608E-02  0.1115608E+00
         21   -1    0    0  501  502  0.00000000000E+00  0.00000000000E+00  0.53728883370E+03  0.53728883370E+03  0.00000000000E+00 0.  1.
         21   -1    0    0  502  503 -0.00000000000E+00 -0.00000000000E+00 -0.12769283909E+03  0.12769283909E+03  0.00000000000E+00 0.  1.
         -6    2    1    2    0  503  0.11234189665E+03 -0.13668326997E+03  0.31825967485E+03  0.40191193489E+03  0.17012044188E+03 0.  0.
        -24    2    3    3    0    0 -0.71348865641E+01 -0.36351809767E+02  0.88820065804E+02  0.12441287574E+03  0.78849216112E+02 0.  0.
          6    2    1    2  501    0 -0.11234189665E+03  0.13668326997E+03  0.91336319760E+02  0.26306973790E+03  0.17193122362E+03 0.  0.
         24    2    5    5    0    0 -0.61964709328E+02  0.10131271870E+03  0.12853262410E+03  0.19099622018E+03  0.76518157913E+02 0.  0.
          5    1    5    5  501    0 -0.50377187322E+02  0.35370551269E+02 -0.37196304343E+02  0.72073517719E+02  0.47000000000E+01 0. -1.
        -13    1    6    6    0    0 -0.71363999614E+02  0.10424742868E+03  0.10096513382E+03  0.16172292687E+03  0.00000000000E+00 0.  1.
         14    1    6    6    0    0  0.93992902864E+01 -0.29347099828E+01  0.27567490282E+02  0.29273293306E+02  0.00000000000E+00 0. -1.
         -5    1    3    3    0  503  0.11947678321E+03 -0.10033146020E+03  0.22943960904E+03  0.27749905915E+03  0.47000000000E+01 0.  1.
         13    1    4    4    0    0 -0.35394287884E+02 -0.22182785150E+01  0.65142634872E+02  0.74170339439E+02  0.00000000000E+00 0. -1.
        -14    1    4    4    0    0  0.28259401320E+02 -0.34133531252E+02  0.23677430932E+02  0.50242536304E+02  0.00000000000E+00 0.  1.
</event>
<event>
12    1  0.8724767E-002  0.1888895E+03  0.7818608E-02  0.1160913E+00
         21   -1    0    0  501  502  0.00000000000E+00  0.00000000000E+00  0.70034215451E+03  0.70034215451E+03  0.00000000000E+00 0. -1.
         21   -1    0    0  502  503 -0.00000000000E+00 -0.00000000000E+00 -0.66309834109E+02  0.66309834109E+02  0.00000000000E+00 0. -1.
         -6    2    1    2    0  503  0.38110111951E+02  0.51538947123E+02  0.12670076664E+03  0.22744744761E+03  0.17768121301E+03 0.  0.
        -24    2    3    3    0    0  0.74568704343E+02  0.50713720959E+02  0.33290711249E+02  0.12706100229E+03  0.83089431854E+02 0.  0.
          6    2    1    2  501    0 -0.38110111951E+02 -0.51538947123E+02  0.50733155377E+03  0.53920454101E+03  0.17101926177E+03 0.  0.
         24    2    5    5    0    0  0.32135410715E+02 -0.69453822346E+02  0.26332321692E+03  0.28461166079E+03  0.76211303801E+02 0.  0.
          5    1    5    5  501    0 -0.70245522667E+02  0.17914875222E+02  0.24400833685E+03  0.25459288022E+03  0.47000000000E+01 0. -1.
        -13    1    6    6    0    0  0.15248595889E+02 -0.75012348334E+02  0.13607420068E+03  0.15612674393E+03  0.00000000000E+00 0.  1.
         14    1    6    6    0    0  0.16886814826E+02  0.55585259879E+01  0.12724901624E+03  0.12848491686E+03  0.00000000000E+00 0. -1.
         -5    1    3    3    0  503 -0.36458592392E+02  0.82522616412E+00  0.93410055389E+02  0.10038644533E+03  0.47000000000E+01 0.  1.
         11    1    4    4    0    0  0.80097068978E+02  0.51619873038E+02  0.51285470943E+02  0.10821437650E+03  0.00000000000E+00 0. -1.
        -12    1    4    4    0    0 -0.55283646355E+01 -0.90615207849E+00 -0.17994759694E+02  0.18846625787E+02  0.00000000000E+00 0.  1.
</event>
<event>
12    1  0.8724767E-002  0.1973356E+03  0.7818608E-02  0.1152310E+00
         21   -1    0    0  501  502  0.00000000000E+00  0.00000000000E+00  0.49478897715E+02  0.49478897715E+02  0.00000000000E+00 0.  1.
         21   -1    0    0  502  503 -0.00000000000E+00 -0.00000000000E+00 -0.11530891848E+04  0.11530891848E+04  0.00000000000E+00 0.  1.
         -6    2    1    2    0  503 -0.37147175180E+02  0.89138781982E+02 -0.89183569786E+03  0.91310337341E+03  0.17047352720E+03 0.  0.
        -24    2    3    3    0    0 -0.43289815060E+02  0.11137674003E+03 -0.86928747031E+03  0.88050319904E+03  0.73119020692E+02 0.  0.
          6    2    1    2  501    0  0.37147175180E+02 -0.89138781982E+02 -0.21177458921E+03  0.28946470909E+03  0.17209214420E+03 0.  0.
         24    2    5    5    0    0 -0.31681139727E+02 -0.31185929316E+02 -0.16601815396E+03  0.18841219090E+03  0.77206667037E+02 0.  0.
          5    1    5    5  501    0  0.68828314907E+02 -0.57952852666E+02 -0.45756435247E+02  0.10105251819E+03  0.47000000000E+01 0. -1.
        -11    1    6    6    0    0 -0.78350648960E+01 -0.45078976670E+02 -0.44595180191E+02  0.63892350683E+02  0.00000000000E+00 0.  1.
         12    1    6    6    0    0 -0.23846074831E+02  0.13893047354E+02 -0.12142297377E+03  0.12451984022E+03  0.00000000000E+00 0. -1.
         -5    1    3    3    0  503  0.61426398797E+01 -0.22237958049E+02 -0.22548227557E+02  0.32600174368E+02  0.47000000000E+01 0.  1.
         13    1    4    4    0    0  0.82647783180E+01 -0.33049458297E+01 -0.19148748736E+02  0.21116434494E+02  0.00000000000E+00 0. -1.
        -14    1    4    4    0    0 -0.51554593378E+02  0.11468168586E+03 -0.85013872157E+03  0.85938676455E+03  0.00000000000E+00 0.  1.
</event>
<event>
12    1  0.8724767E-002  0.2577191E+03  0.7818608E-02  0.1109007E+00
         21   -1    0    0  501  502  0.00000000000E+00  0.00000000000E+00  0.11751925991E+03  0.11751925991E+03  0.00000000000E+00 0.  1.
         21   -1    0    0  502  503 -0.00000000000E+00 -0.00000000000E+00 -0.56468334396E+03  0.56468334396E+03  0.00000000000E+00 0.  1.
         -6    2    1    2    0  503  0.18514515129E+03  0.38002970963E+02 -0.26141585581E+03  0.36709312146E+03  0.17520318863E+03 0.  0.
        -24    2    3    3    0    0  0.14850284965E+03 -0.37347518659E+02 -0.19274122116E+03  0.25865581238E+03  0.79408547651E+02 0.  0.
          6    2    1    2  501    0 -0.18514515129E+03 -0.38002970963E+02 -0.18574822823E+03  0.31510948241E+03  0.17049524558E+03 0.  0.
         24    2    5    5    0    0 -0.11215640371E+03 -0.70032523238E+02 -0.59448294379E+02  0.16568721907E+03  0.80215594819E+02 0.  0.
          5    1    5    5  501    0 -0.72988747572E+02  0.32029552275E+02 -0.12629993386E+03  0.14942226334E+03  0.47000000000E+01 0. -1.
        -13    1    6    6    0    0 -0.61799520017E+02  0.62705528113E+01 -0.33887527207E+02  0.70759204399E+02  0.00000000000E+00 0.  1.
         14    1    6    6    0    0 -0.50356883695E+02 -0.76303076050E+02 -0.25560767172E+02  0.94928014667E+02  0.00000000000E+00 0. -1.
         -5    1    3    3    0  503  0.36642301635E+02  0.75350489622E+02 -0.68674634654E+02  0.10843730908E+03  0.47000000000E+01 0.  1.
         13    1    4    4    0    0  0.62719899488E+02 -0.34081756609E+01 -0.25768042251E+02  0.67892513980E+02  0.00000000000E+00 0. -1.
        -14    1    4    4    0    0  0.85782950162E+02 -0.33939342998E+02 -0.16697317891E+03  0.19076329840E+03  0.00000000000E+00 0.  1.
</event>
<event>
12    1  0.8724767E-002  0.1812295E+03  0.7818608E-02  0.1167955E+00
         21   -1    0    0  501  502  0.00000000000E+00  0.00000000000E+00  0.38693427552E+02  0.38693427552E+02  0.00000000000E+00 0. -1.
         21   -1    0    0  502  503 -0.00000000000E+00 -0.00000000000E+00 -0.17376475375E+04  0.17376475375E+04  0.00000000000E+00 0. -1.
         -6    2    1    2    0  503  0.87708065817E+01 -0.39953133156E+02 -0.14998783676E+04  0.15107876257E+04  0.17655297356E+03 0.  0.
        -24    2    3    3    0    0 -0.62778562206E+02 -0.10455815244E+02 -0.86289164850E+03  0.86909955955E+03  0.81863150443E+02 0.  0.
          6    2    1    2  501    0 -0.87708065817E+01  0.39953133156E+02 -0.19907574239E+03  0.26555333940E+03  0.17092175098E+03 0.  0.
         24    2    5    5    0    0  0.53051678522E+02  0.39966004957E+02 -0.16444769203E+03  0.19453776574E+03  0.79938330847E+02 0.  0.
          5    1    5    5  501    0 -0.61822485104E+02 -0.12871800953E-01 -0.34628050362E+02  0.71015573658E+02  0.47000000000E+01 0. -1.
        -11    1    6    6    0    0  0.51762282243E+02 -0.23960129847E+00 -0.45310458686E+02  0.68792651775E+02  0.00000000000E+00 0.  1.
         12    1    6    6    0    0  0.12893962787E+01  0.40205606256E+02 -0.11913723334E+03  0.12574511397E+03  0.00000000000E+00 0. -1.
         -5    1    3    3    0  503  0.71549368788E+02 -0.29497317913E+02 -0.63698671908E+03  0.64168806614E+03  0.47000000000E+01 0.  1.
         11    1    4    4    0    0 -0.10868662057E+02 -0.29563692051E+02 -0.11719303334E+03  0.12135216012E+03  0.00000000000E+00 0. -1.
        -12    1    4    4    0    0 -0.51909900149E+02  0.19107876807E+02 -0.74569861517E+03  0.74774739943E+03  0.00000000000E+00 0.  1.
</event>
<event>
12    1  0.8724767E-002  0.2289449E+03  0.7818608E-02  0.1127516E+00
         21   -1    0    0  503  502  0.00000000000E+00  0.00000000000E+00  0.63763574610E+03  0.63763574610E+03  0.00000000000E+00 0.  1.
         21   -1    0    0  501  503 -0.00000000000E+00 -0.00000000000E+00 -0.81939749229E+02  0.81939749229E+02  0.00000000000E+00 0.  1.
          6    2    1    2  501    0 -0.68064881321E+02 -0.13278874620E+03  0.27645413168E+03  0.35894658165E+03  0.17363779073E+03 0.  0.
         24    2    3    3    0    0  0.20015401924E+01 -0.10790946424E+03  0.24177900234E+03  0.27677154475E+03  0.80603618862E+02 0.  0.
         -6    2    1    2    0  502  0.68064881321E+02  0.13278874620E+03  0.27924186519E+03  0.36062891368E+03  0.17266011386E+03 0.  0.
        -24    2    5    5    0    0  0.82625269357E+02  0.28082334841E+02  0.18184437922E+03  0.21681028570E+03  0.79522129411E+02 0.  0.
          5    1    3    3  501    0 -0.70066421514E+02 -0.24879281957E+02  0.34675129333E+02  0.82175036895E+02  0.47000000000E+01 0. -1.
        -11    1    4    4    0    0 -0.49246720749E+01 -0.70152809411E+02  0.64635457116E+02  0.95516550292E+02  0.00000000000E+00 0.  1.
         12    1    4    4    0    0  0.69262122674E+01 -0.37756654833E+02  0.17714354523E+03  0.18125499446E+03  0.00000000000E+00 0. -1.
         -5    1    5    5    0  502 -0.14560388035E+02  0.10470641136E+03  0.97397485970E+02  0.14381862798E+03  0.47000000000E+01 0.  1.
         11    1    6    6    0    0  0.49705488960E+02 -0.12662396509E+02  0.38322027496E+02  0.64027726100E+02  0.00000000000E+00 0. -1.
        -12    1    6    6    0    0  0.32919780396E+02  0.40744731350E+02  0.14352235173E+03  0.15278255960E+03  0.00000000000E+00 0.  1.
</event>
<event>
12    1  0.8724767E-002  0.2926837E+03  0.7818608E-02  0.1089163E+00
         21   -1    0    0  501  502  0.00000000000E+00  0.00000000000E+00  0.41565651750E+03  0.41565651750E+03  0.00000000000E+00 0. -1.
         21   -1    0    0  502  503 -0.00000000000E+00 -0.00000000000E+00 -0.25529521931E+03  0.25529521931E+03  0.00000000000E+00 0.  1.
         -6    2    1    2    0  503  0.21855163994E+03 -0.92789662260E+02  0.22895210408E+03  0.37033824750E+03  0.16839421266E+03 0.  0.
        -24    2    3    3    0    0  0.39708623976E+02 -0.53474704336E+02  0.90167265679E+02  0.14052568987E+03  0.84740869071E+02 0.  0.
          6    2    1    2  501    0 -0.21855163994E+03  0.92789662260E+02 -0.68590805887E+02  0.30061348932E+03  0.17114038263E+03 0.  0.
         24    2    5    5    0    0 -0.21293819628E+03  0.11998361660E+03 -0.40183469396E+02  0.26061238097E+03  0.81026898108E+02 0.  0.
          5    1    5    5  501    0 -0.56134436615E+01 -0.27193954340E+02 -0.28407336490E+02  0.40001108345E+02  0.47000000000E+01 0. -1.
        -13    1    6    6    0    0 -0.98756827641E+02  0.95571976262E+02 -0.42425134905E+02  0.14382908511E+03  0.00000000000E+00 0.  1.
         14    1    6    6    0    0 -0.11418136864E+03  0.24411640338E+02  0.22416655088E+01  0.11678329586E+03  0.00000000000E+00 0. -1.
         -5    1    3    3    0  503  0.17884301596E+03 -0.39314957924E+02  0.13878483840E+03  0.22981255763E+03  0.47000000000E+01 0.  1.
         13    1    4    4    0    0  0.41167477705E+02 -0.13928336968E+02  0.91106434031E+02  0.10094128052E+03  0.00000000000E+00 0. -1.
        -14    1    4    4    0    0 -0.14588537283E+01 -0.39546367368E+02 -0.93916835201E+00  0.39584409347E+02  0.00000000000E+00 0.  1.
</event>
<event>
12    1  0.8724767E-002  0.2107196E+03  0.7818608E-02  0.1141179E+00
         21   -1    0    0  503  502  0.00000000000E+00  0.00000000000E+00  0.43317996006E+03  0.43317996006E+03  0.00000000000E+00 0.  1.
         21   -1    0    0  501  503 -0.00000000000E+00 -0.00000000000E+00 -0.10790942772E+03  0.10790942772E+03  0.00000000000E+00 0. -1.
          6    2    1    2  501    0 -0.85688171860E+02  0.86132862923E+02  0.99971889527E+02  0.23323195424E+03  0.17216687519E+03 0.  0.
         24    2    3    3    0    0 -0.87894991797E+02  0.61953169323E+02  0.13295221478E+03  0.19200915121E+03  0.87335548090E+02 0.  0.
         -6    2    1    2    0  502  0.85688171860E+02 -0.86132862923E+02  0.22529864282E+03  0.30785743353E+03  0.17104206516E+03 0.  0.
        -24    2    5    5    0    0  0.55031458009E+02 -0.11245116984E+03  0.10756587547E+03  0.18329587489E+03  0.79707171676E+02 0.  0.
          5    1    3    3  501    0  0.22068199365E+01  0.24179693600E+02 -0.32980325250E+02  0.41222803040E+02  0.47000000000E+01 0. -1.
        -13    1    4    4    0    0 -0.67328782297E+02  0.84449730018E+02  0.10574867391E+03  0.15115456943E+03  0.00000000000E+00 0.  1.
         14    1    4    4    0    0 -0.20566209500E+02 -0.22496560696E+02  0.27203540865E+02  0.40854581774E+02  0.00000000000E+00 0. -1.
         -5    1    5    5    0  502  0.30656713851E+02  0.26318306922E+02  0.11773276735E+03  0.12456155864E+03  0.47000000000E+01 0.  1.
         11    1    6    6    0    0  0.23772427572E+02 -0.39497463331E+02 -0.41172374458E+01  0.46283145598E+02  0.00000000000E+00 0. -1.
        -12    1    6    6    0    0  0.31259030437E+02 -0.72953706513E+02  0.11168311291E+03  0.13701272929E+03  0.00000000000E+00 0.  1.
</event>
<event>
12    1  0.8724767E-002  0.2369763E+03  0.7818608E-02  0.1123387E+00
         21   -1    0    0  501  502  0.00000000000E+00  0.00000000000E+00  0.92444303736E+03  0.92444303736E+03  0.00000000000E+00 0.  1.
         21   -1    0    0  502  503 -0.00000000000E+00 -0.00000000000E+00 -0.21440579988E+03  0.21440579988E+03  0.00000000000E+00 0.  1.
         -6    2    1    2    0  503 -0.57819408555E+01  0.15516674927E+03 -0.12871652116E+03  0.26967704453E+03  0.17901847561E+03 0.  0.
        -24    2    3    3    0    0  0.12227860587E+02  0.52236839379E+02  0.10696955764E+02  0.95386692398E+02  0.78140823269E+02 0.  0.
          6    2    1    2  501    0  0.57819408555E+01 -0.15516674927E+03  0.83875375865E+03  0.86917179270E+03  0.16685798353E+03 0.  0.
         24    2    5    5    0    0  0.49924762539E+02 -0.14516582949E+03  0.74702671204E+03  0.76677770996E+03  0.79583591373E+02 0.  0.
          5    1    5    5  501    0 -0.44142821683E+02 -0.10000919781E+02  0.91727046605E+02  0.10239408275E+03  0.47000000000E+01 0. -1.
        -11    1    6    6    0    0  0.39994801295E+02 -0.60664213514E+02  0.50565790199E+03  0.51085188144E+03  0.00000000000E+00 0.  1.
         12    1    6    6    0    0  0.99299612444E+01 -0.84501615977E+02  0.24136881005E+03  0.25592582851E+03  0.00000000000E+00 0. -1.
         -5    1    3    3    0  503 -0.18009801442E+02  0.10292990989E+03 -0.13941347693E+03  0.17429035214E+03  0.47000000000E+01 0.  1.
         11    1    4    4    0    0 -0.34536189026E+01 -0.26451152197E+01  0.33603170934E+02  0.33883583265E+02  0.00000000000E+00 0. -1.
        -12    1    4    4    0    0  0.15681479489E+02  0.54881954599E+02 -0.22906215170E+02  0.61503109133E+02  0.00000000000E+00 0.  1.
</event>
<event>
12    1  0.8724767E-002  0.2421702E+03  0.7818608E-02  0.1118378E+00
         21   -1    0    0  503  502  0.00000000000E+00  0.00000000000E+00  0.55837013000E+02  0.55837013000E+02  0.00000000000E+00 0. -1.
         21   -1    0    0  501  503 -0.00000000000E+00 -0.00000000000E+00 -0.10977971248E+04  0.10977971248E+04  0.00000000000E+00 0.  1.
          6    2    1    2  501    0 -0.20027055561E+02 -0.16923998048E+03 -0.64156131437E+03  0.68569651444E+03  0.17185905817E+03 0.  0.
         24    2    3    3    0    0  0.33351377519E+02 -0.11879374678E+03 -0.54424859322E+03  0.56368858310E+03  0.79460800652E+02 0.  0.
         -6    2    1    2    0  502  0.20027055561E+02  0.16923998048E+03 -0.40039879747E+03  0.46793762339E+03  0.17205571314E+03 0.  0.
        -24    2    5    5    0    0  0.17857393185E+02  0.18936933581E+03 -0.29648851087E+03  0.36196906182E+03  0.83285849943E+02 0.  0.
          5    1    3    3  501    0 -0.53378433080E+02 -0.50446233706E+02 -0.97312721151E+02  0.12200793134E+03  0.47000000000E+01 0. -1.
        -13    1    4    4    0    0 -0.42206427217E+01 -0.36097585894E+02 -0.31518445364E+03  0.31727289413E+03  0.00000000000E+00 0.  1.
         14    1    4    4    0    0  0.37572020241E+02 -0.82696160885E+02 -0.22906413957E+03  0.24641568897E+03  0.00000000000E+00 0. -1.
         -5    1    5    5    0  502  0.21696623758E+01 -0.20129355327E+02 -0.10391028659E+03  0.10596856157E+03  0.47000000000E+01 0.  1.
         11    1    6    6    0    0  0.14080160032E+02  0.12068271744E+03 -0.11267535735E+03  0.16570547773E+03  0.00000000000E+00 0. -1.
        -12    1    6    6    0    0  0.37772331532E+01  0.68686618368E+02 -0.18381315352E+03  0.19626358409E+03  0.00000000000E+00 0.  1.
</event>
<event>
12    1  0.8724767E-002  0.2075020E+03  0.7818608E-02  0.1143576E+00
         21   -1    0    0  503  502  0.00000000000E+00  0.00000000000E+00  0.57215251621E+03  0.57215251621E+03  0.00000000000E+00 0. -1.
         21   -1    0    0  501  503 -0.00000000000E+00 -0.00000000000E+00 -0.13549529455E+03  0.13549529455E+03  0.00000000000E+00 0. -1.
          6    2    1    2  501    0  0.10368179667E+03 -0.51395428335E+02 -0.17627997997E+02  0.20824945110E+03  0.17223728561E+03 0.  0.
         24    2    3    3    0    0  0.31956345651E+02  0.21984654010E+02  0.32347674318E+02  0.94017955302E+02  0.79299879231E+02 0.  0.
         -6    2    1    2    0  502 -0.10368179667E+03  0.51395428335E+02  0.45428521966E+03  0.49939835965E+03  0.17214022137E+03 0.  0.
        -24    2    5    5    0    0  0.56521801107E+01  0.20975394309E+01  0.25079628911E+03  0.26314841747E+03  0.79447870778E+02 0.  0.
          5    1    3    3  501    0  0.71725451022E+02 -0.73380082345E+02 -0.49975672315E+02  0.11423149580E+03  0.47000000000E+01 0. -1.
        -13    1    4    4    0    0  0.34908948166E+02  0.45817028769E+02  0.52940890657E+01  0.57843428031E+02  0.00000000000E+00 0.  1.
         14    1    4    4    0    0 -0.29526025148E+01 -0.23832374760E+02  0.27053585253E+02  0.36174527271E+02  0.00000000000E+00 0. -1.
         -5    1    5    5    0  502 -0.10933397678E+03  0.49297888904E+02  0.20348893054E+03  0.23624994219E+03  0.47000000000E+01 0.  1.
         11    1    6    6    0    0  0.17758174789E+02  0.30862173405E+01  0.74567292028E+01  0.19505904739E+02  0.00000000000E+00 0. -1.
        -12    1    6    6    0    0 -0.12105994678E+02 -0.98867790962E+00  0.24333955991E+03  0.24364251273E+03  0.00000000000E+00 0.  1.
</event>
<event>
12    1  0.8724767E-002  0.3131161E+03  0.7818608E-02  0.1078970E+00
         21   -1    0    0  501  502  0.00000000000E+00  0.00000000000E+00  0.39994148320E+03  0.39994148320E+03  0.00000000000E+00 0. -1.
         21   -1    0    0  502  503 -0.00000000000E+00 -0.00000000000E+00 -0.31696327260E+03  0.31696327260E+03  0.00000000000E+00 0.  1.
         -6    2    1    2    0  503  0.24261705351E+03 -0.95972173295E+02 -0.12994223047E+03  0.33900836838E+03  0.17311267391E+03 0.  0.
        -24    2    3    3    0    0  0.20335385567E+03 -0.21610726500E+02 -0.54276581706E+02  0.22578909494E+03  0.78834979269E+02 0.  0.
          6    2    1    2  501    0 -0.24261705351E+03  0.95972173295E+02  0.21292044107E+03  0.37789638743E+03  0.17145516237E+03 0.  0.
         24    2    5    5    0    0 -0.22361209389E+03  0.25757423692E+02  0.15832956850E+03  0.28682744146E+03  0.80845009139E+02 0.  0.
          5    1    5    5  501    0 -0.19004959621E+02  0.70214749603E+02  0.54590872570E+02  0.91068945969E+02  0.47000000000E+01 0. -1.
        -13    1    6    6    0    0 -0.28905001776E+02 -0.58021258618E+01 -0.60119083605E+01  0.30088317240E+02  0.00000000000E+00 0.  1.
         14    1    6    6    0    0 -0.19470709212E+03  0.31559549554E+02  0.16434147686E+03  0.25673912422E+03  0.00000000000E+00 0. -1.
         -5    1    3    3    0  503  0.39263197844E+02 -0.74361446795E+02 -0.75665648767E+02  0.11321927344E+03  0.47000000000E+01 0.  1.
         11    1    4    4    0    0  0.87331873855E+02 -0.31639844919E+02  0.88814824378E+01  0.93310324765E+02  0.00000000000E+00 0. -1.
        -12    1    4    4    0    0  0.11602198181E+03  0.10029118419E+02 -0.63158064144E+02  0.13247877017E+03  0.00000000000E+00 0.  1.
</event>
<event>
12    1  0.8724767E-002  0.1853642E+03  0.7818608E-02  0.1162774E+00
         21   -1    0    0  503  502  0.00000000000E+00  0.00000000000E+00  0.34956009141E+02  0.34956009141E+02  0.00000000000E+00 0. -1.
         21   -1    0    0  501  503 -0.00000000000E+00 -0.00000000000E+00 -0.98153446141E+03  0.98153446141E+03  0.00000000000E+00 0. -1.
          6    2    1    2  501    0 -0.52619058491E+02 -0.45668213385E+02 -0.46936653040E+03  0.50454212852E+03  0.17147439623E+03 0.  0.
         24    2    3    3    0    0 -0.78027128649E+01 -0.91416052464E+02 -0.29482530284E+03  0.31856336701E+03  0.78376543867E+02 0.  0.
         -6    2    1    2    0  502  0.52619058491E+02  0.45668213385E+02 -0.47721192187E+03  0.51194834203E+03  0.17177175409E+03 0.  0.
        -24    2    5    5    0    0 -0.25272366320E+02  0.53529976594E+02 -0.34572537777E+03  0.35884810474E+03  0.75774497992E+02 0.  0.
          5    1    3    3  501    0 -0.44816345626E+02  0.45747839079E+02 -0.17454122756E+03  0.18597876151E+03  0.47000000000E+01 0. -1.
        -11    1    4    4    0    0  0.31949618513E+02 -0.42857976359E+02 -0.17923412178E+03  0.18703597160E+03  0.00000000000E+00 0.  1.
         12    1    4    4    0    0 -0.39752331378E+02 -0.48558076105E+02 -0.11559118106E+03  0.13152739541E+03  0.00000000000E+00 0. -1.
         -5    1    5    5    0  502  0.77891424811E+02 -0.78617632095E+01 -0.13148654410E+03  0.15310023729E+03  0.47000000000E+01 0.  1.
         11    1    6    6    0    0  0.14818015696E+02  0.25951608130E+01 -0.13045095345E+02  0.19911879906E+02  0.00000000000E+00 0. -1.
        -12    1    6    6    0    0 -0.40090382016E+02  0.50934815781E+02 -0.33268028243E+03  0.33893622484E+03  0.00000000000E+00 0.  1.
</event>
<event>
12    1  0.8724767E-002  0.1813167E+03  0.7818608E-02  0.1166966E+00
         21   -1    0    0  503  502  0.00000000000E+00  0.00000000000E+00  0.93245400368E+02  0.93245400368E+02  0.00000000000E+00 0. -1.
         21   -1    0    0  501  503 -0.00000000000E+00 -0.00000000000E+00 -0.35556917481E+03  0.35556917481E+03  0.00000000000E+00 0. -1.
          6    2    1    2  501    0 -0.53772995108E+02 -0.61220688280E+01 -0.10154092323E+03  0.20781312695E+03  0.17305121183E+03 0.  0.
         24    2    3    3    0    0 -0.40581902376E+02 -0.34985870321E+02 -0.13057257453E+03  0.16454592527E+03  0.84588784005E+02 0.  0.
         -6    2    1    2    0  502  0.53772995108E+02  0.61220688280E+01 -0.16078285121E+03  0.24100144822E+03  0.17117697880E+03 0.  0.
        -24    2    5    5    0    0 -0.32570543002E+02  0.16843420578E+02 -0.11911010412E+03  0.14441541504E+03  0.72966116165E+02 0.  0.
          5    1    3    3  501    0 -0.13191092732E+02  0.28863801493E+02  0.29031651307E+02  0.43267201685E+02  0.47000000000E+01 0. -1.
        -13    1    4    4    0    0 -0.43595726218E+02  0.39643457816E+01 -0.21664851458E+02  0.48843312445E+02  0.00000000000E+00 0.  1.
         14    1    4    4    0    0  0.30138238413E+01 -0.38950216103E+02 -0.10890772308E+03  0.11570261282E+03  0.00000000000E+00 0. -1.
         -5    1    5    5    0  502  0.86343538110E+02 -0.10721351750E+02 -0.41672747094E+02  0.96586033188E+02  0.47000000000E+01 0.  1.
         11    1    6    6    0    0 -0.19010190334E+02  0.20342132528E+02 -0.12583616631E+03  0.12887951910E+03  0.00000000000E+00 0. -1.
        -12    1    6    6    0    0 -0.13560352668E+02 -0.34987119497E+01  0.67260621923E+01  0.15535895932E+02  0.00000000000E+00 0.  1.
</event>
<event>
12    1  0.8724767E-002  0.1981767E+03  0.7818608E-02  0.1151652E+00
         21   -1    0    0  503  502  0.00000000000E+00  0.00000000000E+00  0.12137542374E+04  0.12137542374E+04  0.00000000000E+00 0.  1.
         21   -1    0    0  501  503 -0.00000000000E+00 -0.00000000000E+00 -0.42238411489E+02  0.42238411489E+02  0.00000000000E+00 0. -1.
          6    2    1    2  501    0  0.81458393006E+02  0.50694483833E+02  0.27970222611E+03  0.34279343237E+03  0.17340300316E+03 0.  0.
         24    2    3    3    0    0  0.12199520840E+03  0.25303445794E+02  0.19233632572E+03  0.24307969829E+03  0.81064062853E+02 0.  0.
         -6    2    1    2    0  502 -0.81458393006E+02 -0.50694483833E+02  0.89181359985E+03  0.91319921657E+03  0.17145236007E+03 0.  0.
        -24    2    5    5    0    0 -0.10303317864E+03  0.88643936066E+01  0.45251639921E+03  0.46933341281E+03  0.69342248633E+02 0.  0.
          5    1    3    3  501    0 -0.40536815391E+02  0.25391038039E+02  0.87365900386E+02  0.99713734084E+02  0.47000000000E+01 0. -1.
        -13    1    4    4    0    0  0.19160694033E+02 -0.18340958302E+02  0.81519982106E+02  0.85726486163E+02  0.00000000000E+00 0.  1.
         14    1    4    4    0    0  0.10283451436E+03  0.43644404096E+02  0.11081634362E+03  0.15735321212E+03  0.00000000000E+00 0. -1.
         -5    1    5    5    0  502  0.21574785638E+02 -0.59558877440E+02  0.43929720064E+03  0.44386580376E+03  0.47000000000E+01 0.  1.
         13    1    6    6    0    0 -0.36725825678E+02  0.17503382812E+02  0.69566720031E+02  0.80589597452E+02  0.00000000000E+00 0. -1.
        -14    1    6    6    0    0 -0.66307352967E+02 -0.86389892055E+01  0.38294967918E+03  0.38874381536E+03  0.00000000000E+00 0.  1.
</event>
<event>
12    1  0.8724767E-002  0.1976569E+03  0.7818608E-02  0.1152134E+00
         21   -1    0    0  501  502  0.00000000000E+00  0.00000000000E+00  0.93568128934E+02  0.93568128934E+02  0.00000000000E+00 0. -1.
         21   -1    0    0  502  503 -0.00000000000E+00 -0.00000000000E+00 -0.83898011578E+03  0.83898011578E+03  0.00000000000E+00 0. -1.
         -6    2    1    2    0  503  0.85131896501E+02  0.37483492968E+02 -0.70384424612E+03  0.73056772478E+03  0.17227891819E+03 0.  0.
        -24    2    3    3    0    0  0.51131413005E+02  0.29069407687E+02 -0.17852253998E+03  0.20405864162E+03  0.79436641928E+02 0.  0.
          6    2    1    2  501    0 -0.85131896501E+02 -0.37483492968E+02 -0.41567740728E+02  0.20198051993E+03  0.17440126524E+03 0.  0.
         24    2    5    5    0    0  0.45774346456E+01 -0.49825550487E+02  0.12785343437E+02  0.96261844965E+02  0.81236318233E+02 0.  0.
          5    1    5    5  501    0 -0.89709331146E+02  0.12342057519E+02 -0.54353084166E+02  0.10571867497E+03  0.47000000000E+01 0. -1.
        -13    1    6    6    0    0 -0.28392516078E+02 -0.10170850734E+02 -0.19035515340E+02  0.35664155929E+02  0.00000000000E+00 0.  1.
         14    1    6    6    0    0  0.32969950724E+02 -0.39654699752E+02  0.31820858777E+02  0.60597689036E+02  0.00000000000E+00 0. -1.
         -5    1    3    3    0  503  0.34000483496E+02  0.84140852812E+01 -0.52532170614E+03  0.52650908316E+03  0.47000000000E+01 0.  1.
         13    1    4    4    0    0  0.21090926830E+02  0.10365960705E+02 -0.16421581559E+03  0.16588886167E+03  0.00000000000E+00 0. -1.
        -14    1    4    4    0    0  0.30040486175E+02  0.18703446981E+02 -0.14306724383E+02  0.38169779947E+02  0.00000000000E+00 0.  1.
</event>
<event>
12    1  0.8724767E-002  0.1798618E+03  0.7818608E-02  0.1168141E+00
         21   -1    0    0  503  502  0.00000000000E+00  0.00000000000E+00  0.35283889841E+02  0.35283889841E+02  0.00000000000E+00 0.  1.
         21   -1    0    0  501  503 -0.00000000000E+00 -0.00000000000E+00 -0.91563059245E+03  0.91563059245E+03  0.00000000000E+00 0.  1.
          6    2    1    2  501    0  0.93180580616E+01 -0.50377216846E+02 -0.46657734572E+03  0.49974341684E+03  0.17153534026E+03 0.  0.
         24    2    3    3    0    0 -0.54194063437E+02 -0.41194132732E+02 -0.35897430594E+03  0.37436948502E+03  0.81584348412E+02 0.  0.
         -6    2    1    2    0  502 -0.93180580616E+01  0.50377216846E+02 -0.41376935690E+03  0.45117106545E+03  0.17241101883E+03 0.  0.
        -24    2    5    5    0    0  0.36432556508E+02  0.85026879951E+01 -0.35436412814E+03  0.36516137935E+03  0.79807711283E+02 0.  0.
          5    1    3    3  501    0  0.63512121499E+02 -0.91830841135E+01 -0.10760303978E+03  0.12537393182E+03  0.47000000000E+01 0. -1.
        -11    1    4    4    0    0  0.71940971018E+01 -0.17984247655E+02 -0.21809346605E+03  0.21895193110E+03  0.00000000000E+00 0.  1.
         12    1    4    4    0    0 -0.61388160539E+02 -0.23209885077E+02 -0.14088083988E+03  0.15541755392E+03  0.00000000000E+00 0. -1.
         -5    1    5    5    0  502 -0.45750614569E+02  0.41874528851E+02 -0.59405228756E+02  0.86009686103E+02  0.47000000000E+01 0.  1.
         13    1    6    6    0    0  0.40763495417E+02  0.20735742655E+02 -0.34746965009E+03  0.35046653380E+03  0.00000000000E+00 0. -1.
        -14    1    6    6    0    0 -0.43309389089E+01 -0.12233054659E+02 -0.68944780519E+01  0.14694845550E+02  0.00000000000E+00 0.  1.
</event>
<event>
12    1  0.8724767E-002  0.2219223E+03  0.7818608E-02  0.1132482E+00
         21   -1    0    0  503  502  0.00000000000E+00  0.00000000000E+00  0.11286813344E+03  0.11286813344E+03  0.00000000000E+00 0.  1.
         21   -1    0    0  501  503 -0.00000000000E+00 -0.00000000000E+00 -0.44819141761E+03  0.44819141761E+03  0.00000000000E+00 0.  1.
          6    2    1    2  501    0  0.96239166143E+02  0.10234074776E+03 -0.21371865847E+03  0.30800384365E+03  0.17162487283E+03 0.  0.
         24    2    3    3    0    0  0.10526385274E+03  0.87578005259E+02 -0.23284400475E+03  0.28178834432E+03  0.80236866519E+02 0.  0.
         -6    2    1    2    0  502 -0.96239166143E+02 -0.10234074776E+03 -0.12160462570E+03  0.25305570741E+03  0.17179610096E+03 0.  0.
        -24    2    5    5    0    0 -0.45862188254E+02 -0.12310058915E+03 -0.12549513829E+03  0.19822836930E+03  0.79299188512E+02 0.  0.
          5    1    3    3  501    0 -0.90246865928E+01  0.14762742502E+02  0.19125346288E+02  0.26215499326E+02  0.47000000000E+01 0. -1.
        -13    1    4    4    0    0  0.42266170011E+02  0.70142049903E+02 -0.75410595368E+02  0.11132427492E+03  0.00000000000E+00 0.  1.
         14    1    4    4    0    0  0.62997682725E+02  0.17435955356E+02 -0.15743340939E+03  0.17046406941E+03  0.00000000000E+00 0. -1.
         -5    1    5    5    0  502 -0.50376977890E+02  0.20759841391E+02  0.38905125888E+01  0.54827338109E+02  0.47000000000E+01 0.  1.
         11    1    6    6    0    0 -0.19819319863E+02 -0.11011368842E+03 -0.60907707184E+02  0.12738751356E+03  0.00000000000E+00 0. -1.
        -12    1    6    6    0    0 -0.26042868391E+02 -0.12986900737E+02 -0.64587431107E+02  0.70840855739E+02  0.00000000000E+00 0.  1.
</event>
<event>
12    1  0.8724767E-002  0.1992301E+03  0.7818608E-02  0.1150798E+00
         21   -1    0    0  503  502  0.00000000000E+00  0.00000000000E+00  0.17980630057E+03  0.17980630057E+03  0.00000000000E+00 0.  1.
         21   -1    0    0  501  503 -0.00000000000E+00 -0.00000000000E+00 -0.22477033160E+03  0.22477033160E+03  0.00000000000E+00 0. -1.
          6    2    1    2  501    0  0.81499329090E+02  0.56818138903E+02 -0.56004405141E+02  0.20695198319E+03  0.17269102003E+03 0.  0.
         24    2    3    3    0    0  0.55400746949E+02  0.10270389503E+03 -0.59714275010E+02  0.15382485509E+03  0.80491978411E+02 0.  0.
         -6    2    1    2    0  502 -0.81499329090E+02 -0.56818138903E+02  0.11040374113E+02  0.19762464898E+03  0.17047923766E+03 0.  0.
        -24    2    5    5    0    0 -0.17476532034E+01  0.91630542245E+00  0.47182813180E+02  0.92639117742E+02  0.79698772695E+02 0.  0.
          5    1    3    3  501    0  0.26098582140E+02 -0.45885756125E+02  0.37098698687E+01  0.53127128092E+02  0.47000000000E+01 0. -1.
        -11    1    4    4    0    0  0.19350272610E+02  0.34107947646E+02 -0.65258620444E+02  0.76134569579E+02  0.00000000000E+00 0.  1.
         12    1    4    4    0    0  0.36050474339E+02  0.68595947382E+02  0.55443454337E+01  0.77690285516E+02  0.00000000000E+00 0. -1.
         -5    1    5    5    0  502 -0.79751675886E+02 -0.57734444326E+02 -0.36142439067E+02  0.10498553124E+03  0.47000000000E+01 0.  1.
         13    1    6    6    0    0  0.92375966095E+01  0.35048281049E+02  0.39315563501E+01  0.36457815773E+02  0.00000000000E+00 0. -1.
        -14    1    6    6    0    0 -0.10985249813E+02 -0.34131975626E+02  0.43251256830E+02  0.56181301969E+02  0.00000000000E+00 0.  1.
</event>
<event>
12    1  0.8724767E-002  0.2005553E+03  0.7818608E-02  0.1149281E+00
         21   -1    0    0  503  502  0.00000000000E+00  0.00000000000E+00  0.40882307135E+02  0.40882307135E+02  0.00000000000E+00 0. -1.
         21   -1    0    0  501  503 -0.00000000000E+00 -0.00000000000E+00 -0.13165530854E+04  0.13165530854E+04  0.00000000000E+00 0. -1.
          6    2    1    2  501    0 -0.68602177125E+02 -0.76834529708E+02 -0.97908534997E+03  0.99940558856E+03  0.17202791710E+03 0.  0.
         24    2    3    3    0    0 -0.35728067355E+02  0.22132582653E+02 -0.34464520189E+03  0.35643468104E+03  0.80616503590E+02 0.  0.
         -6    2    1    2    0  502  0.68602177125E+02  0.76834529708E+02 -0.29658542828E+03  0.35802980396E+03  0.17208317929E+03 0.  0.
        -24    2    5    5    0    0  0.48081905240E+02  0.11941175634E+03 -0.21920682127E+03  0.26723640878E+03  0.82417416385E+02 0.  0.
          5    1    3    3  501    0 -0.32874109770E+02 -0.98967112362E+02 -0.63444014808E+03  0.64297090752E+03  0.47000000000E+01 0. -1.
        -13    1    4    4    0    0  0.17150236341E+02  0.25811803966E+02 -0.67608234759E+02  0.74372395670E+02  0.00000000000E+00 0.  1.
         14    1    4    4    0    0 -0.52878303696E+02 -0.36792213127E+01 -0.27703696714E+03  0.28206228537E+03  0.00000000000E+00 0. -1.
         -5    1    5    5    0  502  0.20520271885E+02 -0.42577226627E+02 -0.77378607015E+02  0.90793395184E+02  0.47000000000E+01 0.  1.
         11    1    6    6    0    0  0.14367043468E+02  0.11464699854E+03 -0.19000943300E+03  0.22238239778E+03  0.00000000000E+00 0. -1.
        -12    1    6    6    0    0  0.33714861772E+02  0.47647577957E+01 -0.29197388266E+02  0.44854010999E+02  0.00000000000E+00 0.  1.
</event>
<event>
12    1  0.8724767E-002  0.2154640E+03  0.7818608E-02  0.1137404E+00
         21   -1    0    0  503  502  0.00000000000E+00  0.00000000000E+00  0.61566410256E+03  0.61566410256E+03  0.00000000000E+00 0. -1.
         21   -1    0    0  501  503 -0.00000000000E+00 -0.00000000000E+00 -0.20285989338E+03  0.20285989338E+03  0.00000000000E+00 0. -1.
          6    2    1    2  501    0  0.75667964103E+02  0.10584283766E+03 -0.11830032054E+03  0.24537762748E+03  0.17113406193E+03 0.  0.
         24    2    3    3    0    0  0.57586168578E+01 -0.15770609671E+01  0.30691486258E+01  0.68801894442E+02  0.68473587727E+02 0.  0.
         -6    2    1    2    0  502 -0.75667964103E+02 -0.10584283766E+03  0.53110452972E+03  0.57314636846E+03  0.17174513419E+03 0.  0.
        -24    2    5    5    0    0  0.12068564369E+02 -0.98768377324E+02  0.31648702492E+03  0.34113233918E+03  0.79412803037E+02 0.  0.
          5    1    3    3  501    0  0.69909347246E+02  0.10741989863E+03 -0.12136946916E+03  0.17657573304E+03  0.47000000000E+01 0. -1.
        -13    1    4    4    0    0  0.23253062945E+02  0.26677918556E+02  0.35395289660E+01  0.35566058821E+02  0.00000000000E+00 0.  1.
         14    1    4    4    0    0 -0.17494446087E+02 -0.28254979523E+02 -0.47038034017E+00  0.33235835621E+02  0.00000000000E+00 0. -1.
         -5    1    5    5    0  502 -0.87736528472E+02 -0.70744603379E+01  0.21461750480E+03  0.23201402928E+03  0.47000000000E+01 0.  1.
         11    1    6    6    0    0 -0.21937466525E+01 -0.58856179636E+02  0.27704158071E+03  0.28323294273E+03  0.00000000000E+00 0. -1.
        -12    1    6    6    0    0  0.14262311021E+02 -0.39912197688E+02  0.39445444203E+02  0.57899396442E+02  0.00000000000E+00 0.  1.
</event>
<event>
12    1  0.8724767E-002  0.2685484E+03  0.7818608E-02  0.1104144E+00
         21   -1    0    0  501  502  0.00000000000E+00  0.00000000000E+00  0.10450894172E+04  0.10450894172E+04  0.00000000000E+00 0. -1.
         21   -1    0    0  502  503 -0.00000000000E+00 -0.00000000000E+00 -0.25878578146E+03  0.25878578146E+03  0.00000000000E+00 0.  1.
         -6    2    1    2    0  503  0.79407690678E+02 -0.17152157542E+03 -0.16757381917E+03  0.31654259059E+03  0.19076948030E+03 0.  0.
        -24    2    3    3    0    0  0.33642539222E+02 -0.77444219132E+02  0.44055586854E+01  0.11518719717E+03  0.78225660248E+02 0.  0.
          6    2    1    2  501    0 -0.79407690678E+02  0.17152157542E+03  0.95387745488E+03  0.98733260804E+03  0.17093346014E+03 0.  0.
         24    2    5    5    0    0 -0.79211784609E+02  0.49866609030E+02  0.61749878759E+03  0.62959993266E+03  0.79562158173E+02 0.  0.
          5    1    5    5  501    0 -0.19590606899E+00  0.12165496639E+03  0.33637866729E+03  0.35773267538E+03  0.47000000000E+01 0. -1.
        -11    1    6    6    0    0 -0.67198282965E+01  0.18884280379E+02  0.25794265957E+02  0.32666745997E+02  0.00000000000E+00 0.  1.
         12    1    6    6    0    0 -0.72491956313E+02  0.30982328651E+02  0.59170452163E+03  0.59693318666E+03  0.00000000000E+00 0. -1.
         -5    1    3    3    0  503  0.45765151457E+02 -0.94077356289E+02 -0.17197937785E+03  0.20135539342E+03  0.47000000000E+01 0.  1.
         11    1    4    4    0    0  0.49555313814E+02 -0.16679596781E+02  0.16480039723E+01  0.52313038461E+02  0.00000000000E+00 0. -1.
        -12    1    4    4    0    0 -0.15912774592E+02 -0.60764622351E+02  0.27575547131E+01  0.62874158704E+02  0.00000000000E+00 0.  1.
</event>
<event>
12    1  0.8724767E-002  0.2913902E+03  0.7818608E-02  0.1089710E+00
         21   -1    0    0  503  502  0.00000000000E+00  0.00000000000E+00  0.16880777358E+03  0.16880777358E+03  0.00000000000E+00 0. -1.
         21   -1    0    0  501  503 -0.00000000000E+00 -0.00000000000E+00 -0.50220412484E+03  0.50220412484E+03  0.00000000000E+00 0. -1.
          6    2    1    2  501    0 -0.19151082997E+03  0.13643361055E+03 -0.17553904956E+03  0.34017966609E+03  0.17209799307E+03 0.  0.
         24    2    3    3    0    0 -0.82857290292E+02  0.12456849519E+03 -0.15270264491E+03  0.22842115848E+03  0.80470412764E+02 0.  0.
         -6    2    1    2    0  502  0.19151082997E+03 -0.13643361055E+03 -0.15785730170E+03  0.33083223233E+03  0.17099856774E+03 0.  0.
        -24    2    5    5    0    0  0.43077999129E+02 -0.10260510768E+03 -0.88877595310E+02  0.16362887480E+03  0.80570835842E+02 0.  0.
          5    1    3    3  501    0 -0.10865353967E+03  0.11865115358E+02 -0.22836404651E+02  0.11175850761E+03  0.47000000000E+01 0. -1.
        -11    1    4    4    0    0 -0.77461799368E+02  0.81558589202E+02 -0.14639515386E+03  0.18461764517E+03  0.00000000000E+00 0.  1.
         12    1    4    4    0    0 -0.53954909242E+01  0.43009905986E+02 -0.63074910554E+01  0.43803513314E+02  0.00000000000E+00 0. -1.
         -5    1    5    5    0  502  0.14843283084E+03 -0.33828502867E+02 -0.68979706388E+02  0.16720335753E+03  0.47000000000E+01 0.  1.
         13    1    6    6    0    0  0.26548330827E+02 -0.23320964149E+02 -0.72993427187E+02  0.81096989162E+02  0.00000000000E+00 0. -1.
        -14    1    6    6    0    0  0.16529668301E+02 -0.79284143531E+02 -0.15884168123E+02  0.82531885636E+02  0.00000000000E+00 0.  1.
</event>
<event>
12    1  0.8724767E-002  0.2169531E+03  0.7818608E-02  0.1136234E+00
         21   -1    0    0  501  502  0.00000000000E+00  0.00000000000E+00  0.64058225505E+02  0.64058225505E+02  0.00000000000E+00 0. -1.
         21   -1    0    0  502  503 -0.00000000000E+00 -0.00000000000E+00 -0.12754591291E+04  0.12754591291E+04  0.00000000000E+00 0. -1.
         -6    2    1    2    0  503 -0.83521638339E+02 -0.10079055064E+03 -0.10419439115E+04  0.10642278562E+04  0.17262449387E+03 0.  0.
        -24    2    3    3    0    0 -0.23746040883E+02 -0.45955484935E+02 -0.25632957410E+03  0.27442282727E+03  0.83230141871E+02 0.  0.
          6    2    1    2  501    0  0.83521638339E+02  0.10079055064E+03 -0.16945699202E+03  0.27528949840E+03  0.17301455608E+03 0.  0.
         24    2    5    5    0    0 -0.15724874943E+00  0.10372852652E+03 -0.12177358538E+03  0.17881885460E+03  0.79923367810E+02 0.  0.
          5    1    5    5  501    0  0.83678887089E+02 -0.29379758791E+01 -0.47683406644E+02  0.96470643803E+02  0.47000000000E+01 0. -1.
        -11    1    6    6    0    0 -0.20501192175E+02  0.86907341951E+02 -0.12346116133E+03  0.15236746149E+03  0.00000000000E+00 0.  1.
         12    1    6    6    0    0  0.20343943426E+02  0.16821184570E+02  0.16875759517E+01  0.26451393102E+02  0.00000000000E+00 0. -1.
         -5    1    3    3    0  503 -0.59775597456E+02 -0.54835065707E+02 -0.78561433744E+03  0.78980502890E+03  0.47000000000E+01 0.  1.
         13    1    4    4    0    0 -0.11172870462E+02  0.10634962748E+01 -0.19858798013E+03  0.19890487654E+03  0.00000000000E+00 0. -1.
        -14    1    4    4    0    0 -0.12573170420E+02 -0.47018981210E+02 -0.57741593964E+02  0.75517950726E+02  0.00000000000E+00 0.  1.
</event>
<event>
12    1  0.8724767E-002  0.2420397E+03  0.7818608E-02  0.1118803E+00
         21   -1    0    0  501  502  0.00000000000E+00  0.00000000000E+00  0.53926037750E+03  0.53926037750E+03  0.00000000000E+00 0.  1.
         21   -1    0    0  502  503 -0.00000000000E+00 -0.00000000000E+00 -0.15421055289E+03  0.15421055289E+03  0.00000000000E+00 0.  1.
         -6    2    1    2    0  503 -0.16995891340E+03 -0.25654834487E+02  0.14078968886E+01  0.23985837576E+03  0.16728973510E+03 0.  0.
        -24    2    3    3    0    0 -0.10313537653E+03  0.46376182089E+02  0.22915314414E+02  0.13916820028E+03  0.77814010166E+02 0.  0.
          6    2    1    2  501    0  0.16995891340E+03  0.25654834487E+02  0.38364192772E+03  0.45361255463E+03  0.17040838664E+03 0.  0.
         24    2    5    5    0    0  0.16703725208E+03  0.30190613221E+02  0.39666942928E+03  0.43874933861E+03  0.79633091756E+02 0.  0.
          5    1    5    5  501    0  0.29216613273E+01 -0.45357787342E+01 -0.13027501556E+02  0.14863216019E+02  0.47000000000E+01 0. -1.
        -11    1    6    6    0    0  0.65323551134E+02  0.51295354286E+02  0.15956093449E+03  0.17988349429E+03  0.00000000000E+00 0.  1.
         12    1    6    6    0    0  0.10171370094E+03 -0.21104741065E+02  0.23710849479E+03  0.25886584432E+03  0.00000000000E+00 0. -1.
         -5    1    3    3    0  503 -0.66823536875E+02 -0.72031016576E+02 -0.21507417525E+02  0.10069017548E+03  0.47000000000E+01 0.  1.
         13    1    4    4    0    0  0.37710326369E+01  0.19609708359E+02  0.20952795250E+02  0.28944446408E+02  0.00000000000E+00 0. -1.
        -14    1    4    4    0    0 -0.10690640917E+03  0.26766473730E+02  0.19625191639E+01  0.11022375387E+03  0.00000000000E+00 0.  1.
</event>
<event>
12    1  0.8724767E-002  0.2003433E+03  0.7818608E-02  0.1150793E+00
         21   -1    0    0  503  502  0.00000000000E+00  0.00000000000E+00  0.35991513209E+03  0.35991513209E+03  0.00000000000E+00 0. -1.
         21   -1    0    0  501  503 -0.00000000000E+00 -0.00000000000E+00 -0.12624864760E+03  0.12624864760E+03  0.00000000000E+00 0. -1.
          6    2    1    2  501    0 -0.16466711011E+02 -0.10326043917E+03  0.20751653211E+03  0.28412106674E+03  0.16348638657E+03 0.  0.
         24    2    3    3    0    0 -0.63443448740E+01 -0.96400509031E+02  0.22765457242E+03  0.26009708694E+03  0.80564144852E+02 0.  0.
         -6    2    1    2    0  502  0.16466711011E+02  0.10326043917E+03  0.26149952381E+02  0.20204271296E+03  0.17089051167E+03 0.  0.
        -24    2    5    5    0    0 -0.35113823756E+02  0.11180880347E+03 -0.39233190446E+01  0.14154380591E+03  0.79278417036E+02 0.  0.
          5    1    3    3  501    0 -0.10122366137E+02 -0.68599301431E+01 -0.20138040310E+02  0.24023979797E+02  0.47000000000E+01 0. -1.
        -13    1    4    4    0    0 -0.65601766645E+01 -0.73390625112E+01  0.11988795597E+03  0.12029139513E+03  0.00000000000E+00 0.  1.
         14    1    4    4    0    0  0.21583179043E+00 -0.89061446520E+02  0.10776661645E+03  0.13980569181E+03  0.00000000000E+00 0. -1.
         -5    1    5    5    0  502  0.51580534767E+02 -0.85483642971E+01  0.30073271425E+02  0.60498907042E+02  0.47000000000E+01 0.  1.
         13    1    6    6    0    0 -0.49815655861E+02  0.10241170590E+03  0.16063645099E+02  0.11501216357E+03  0.00000000000E+00 0. -1.
        -14    1    6    6    0    0  0.14701832105E+02  0.93970975718E+01 -0.19986964144E+02  0.26531642348E+02  0.00000000000E+00 0.  1.
</event>
<event>
12    1  0.8724767E-002  0.2313290E+03  0.7818608E-02  0.1127136E+00
         21   -1    0    0  501  502  0.00000000000E+00  0.00000000000E+00  0.74352237767E+02  0.74352237767E+02  0.00000000000E+00 0. -1.
         21   -1    0    0  502  503 -0.00000000000E+00 -0.00000000000E+00 -0.80963286699E+03  0.80963286699E+03  0.00000000000E+00 0.  1.
         -6    2    1    2    0  503  0.13518976392E+03  0.77233793674E+02 -0.52837454723E+03  0.57362525915E+03  0.16007793298E+03 0.  0.
        -24    2    3    3    0    0  0.79297772073E+02  0.90241258874E+02 -0.47029135560E+03  0.49183983225E+03  0.79377830526E+02 0.  0.
          6    2    1    2  501    0 -0.13518976392E+03 -0.77233793674E+02 -0.20690608200E+03  0.31035984561E+03  0.17108996418E+03 0.  0.
         24    2    5    5    0    0 -0.14218169257E+03 -0.10420645020E+03 -0.14422860600E+03  0.24160690193E+03  0.80606366414E+02 0.  0.
          5    1    5    5  501    0  0.69919286529E+01  0.26972656528E+02 -0.62677476000E+02  0.68752943677E+02  0.47000000000E+01 0. -1.
        -11    1    6    6    0    0 -0.11245447684E+03 -0.96482407522E+02 -0.14944960928E+03  0.21045201362E+03  0.00000000000E+00 0.  1.
         12    1    6    6    0    0 -0.29727215731E+02 -0.77240426801E+01  0.52210032815E+01  0.31154888311E+02  0.00000000000E+00 0. -1.
         -5    1    3    3    0  503  0.55891991845E+02 -0.13007465200E+02 -0.58083191623E+02  0.81785426895E+02  0.47000000000E+01 0.  1.
         11    1    4    4    0    0 -0.13092646027E+00 -0.11884129233E+02 -0.19372824828E+02  0.22727868601E+02  0.00000000000E+00 0. -1.
        -12    1    4    4    0    0  0.79428698533E+02  0.10212538811E+03 -0.45091853077E+03  0.46911196365E+03  0.00000000000E+00 0.  1.
</event>
<event>
12    1  0.8724767E-002  0.4516294E+03  0.7818608E-02  0.1027244E+00
         21   -1    0    0  503  502  0.00000000000E+00  0.00000000000E+00  0.61789349540E+03  0.61789349540E+03  0.00000000000E+00 0. -1.
         21   -1    0    0  501  503 -0.00000000000E+00 -0.00000000000E+00 -0.12099185234E+04  0.12099185234E+04  0.00000000000E+00 0.  1.
          6    2    1    2  501    0  0.10096255541E+03  0.40564625189E+03 -0.10753767903E+04  0.11663637421E+04  0.17095852858E+03 0.  0.
         24    2    3    3    0    0  0.11464309041E+02  0.87153626113E+02 -0.24075841401E+03  0.26855674011E+03  0.80193040939E+02 0.  0.
         -6    2    1    2    0  502 -0.10096255541E+03 -0.40564625189E+03  0.48335176229E+03  0.66144827671E+03  0.17071197203E+03 0.  0.
        -24    2    5    5    0    0 -0.89917055231E+02 -0.41476524963E+03  0.44434025157E+03  0.61962546998E+03  0.79888514628E+02 0.  0.
          5    1    3    3  501    0  0.89498246368E+02  0.31849262578E+03 -0.83461837631E+03  0.89780700201E+03  0.47000000000E+01 0. -1.
        -13    1    4    4    0    0  0.42409021707E+02  0.44605619618E+02 -0.91296490797E+02  0.11010556596E+03  0.00000000000E+00 0.  1.
         14    1    4    4    0    0 -0.30944712665E+02  0.42548006495E+02 -0.14946192321E+03  0.15845117415E+03  0.00000000000E+00 0. -1.
         -5    1    5    5    0  502 -0.11045500179E+02  0.91189977394E+01  0.39011510723E+02  0.41822806731E+02  0.47000000000E+01 0.  1.
         13    1    6    6    0    0 -0.45823884712E+02 -0.27788122694E+03  0.24162645294E+03  0.37108105241E+03  0.00000000000E+00 0. -1.
        -14    1    6    6    0    0 -0.44093170518E+02 -0.13688402269E+03  0.20271379863E+03  0.24854441758E+03  0.00000000000E+00 0.  1.
</event>
<event>
12    1  0.8724767E-002  0.1904271E+03  0.7818608E-02  0.1158401E+00
         21   -1    0    0  501  502  0.00000000000E+00  0.00000000000E+00  0.22698160450E+03  0.22698160450E+03  0.00000000000E+00 0. -1.
         21   -1    0    0  502  503 -0.00000000000E+00 -0.00000000000E+00 -0.22869142751E+03  0.22869142751E+03  0.00000000000E+00 0. -1.
         -6    2    1    2    0  503 -0.78925197207E+02 -0.18578672925E+02 -0.12702456957E+03  0.22771190833E+03  0.17071355564E+03 0.  0.
        -24    2    3    3    0    0 -0.55839506067E+02  0.53890466717E+02 -0.98022941102E+02  0.14617719309E+03  0.75743263438E+02 0.  0.
          6    2    1    2  501    0  0.78925197207E+02  0.18578672925E+02  0.12531474656E+03  0.22796112367E+03  0.17230245023E+03 0.  0.
         24    2    5    5    0    0  0.60130125469E+02 -0.23286948784E+02  0.89860272165E+01  0.10281942020E+03  0.79581219595E+02 0.  0.
          5    1    5    5  501    0  0.18795071739E+02  0.41865621709E+02  0.11632871935E+03  0.12514170347E+03  0.47000000000E+01 0. -1.
        -13    1    6    6    0    0 -0.73399868658E+01 -0.27119552676E+02 -0.14062531412E+02  0.31418152941E+02  0.00000000000E+00 0.  1.
         14    1    6    6    0    0  0.67470112334E+02  0.38326038917E+01  0.23048558628E+02  0.71401267257E+02  0.00000000000E+00 0. -1.
         -5    1    3    3    0  503 -0.23085691141E+02 -0.72469139641E+02 -0.29001628472E+02  0.81534715244E+02  0.47000000000E+01 0.  1.
         11    1    4    4    0    0 -0.10448528510E+02  0.23964408964E+02 -0.86814688046E+02  0.90665620306E+02  0.00000000000E+00 0. -1.
        -12    1    4    4    0    0 -0.45390977557E+02  0.29926057753E+02 -0.11208253056E+02  0.55511572782E+02  0.00000000000E+00 0.  1.
</event>
<event>
12    1  0.8724767E-002  0.1901649E+03  0.7818608E-02  0.1158676E+00
         21   -1    0    0  503  502  0.00000000000E+00  0.00000000000E+00  0.31730012929E+02  0.31730012929E+02  0.00000000000E+00 0. -1.
         21   -1    0    0  501  503 -0.00000000000E+00 -0.00000000000E+00 -0.11680839922E+04  0.11680839922E+04  0.00000000000E+00 0.  1.
          6    2    1    2  501    0 -0.66610824843E+02  0.46554227034E+02 -0.67403222401E+03  0.69990991590E+03  0.17014744583E+03 0.  0.
         24    2    3    3    0    0 -0.10130479014E+03  0.44143677918E+01 -0.52591681382E+03  0.54198682163E+03  0.82940174944E+02 0.  0.
         -6    2    1    2    0  502  0.66610824843E+02 -0.46554227034E+02 -0.46232175527E+03  0.49990408925E+03  0.17192555076E+03 0.  0.
        -24    2    5    5    0    0  0.50439645110E+02  0.36600231319E+02 -0.21299691916E+03  0.23653906708E+03  0.81849300251E+02 0.  0.
          5    1    3    3  501    0  0.34693965295E+02  0.42139859242E+02 -0.14811541019E+03  0.15792309426E+03  0.47000000000E+01 0. -1.
        -11    1    4    4    0    0 -0.70645820479E+02  0.16258050380E+02 -0.48042886441E+03  0.48586731719E+03  0.00000000000E+00 0.  1.
         12    1    4    4    0    0 -0.30658969659E+02 -0.11843682588E+02 -0.45487949407E+02  0.56119504444E+02  0.00000000000E+00 0. -1.
         -5    1    5    5    0  502  0.16171179733E+02 -0.83154458353E+02 -0.24932483611E+03  0.26336502217E+03  0.47000000000E+01 0.  1.
         13    1    6    6    0    0 -0.21398906518E+02  0.19458024742E+02 -0.55439356133E+02  0.62530393693E+02  0.00000000000E+00 0. -1.
        -14    1    6    6    0    0  0.71838551628E+02  0.17142206577E+02 -0.15755756303E+03  0.17400867339E+03  0.00000000000E+00 0.  1.
</event>
<event>
12    1  0.8724767E-002  0.1746617E+03  0.7818608E-02  0.1173181E+00
         21   -1    0    0  503  502  0.00000000000E+00  0.00000000000E+00  0.24955360835E+03  0.24955360835E+03  0.00000000000E+00 0.  1.
         21   -1    0    0  501  503 -0.00000000000E+00 -0.00000000000E+00 -0.13196917843E+03  0.13196917843E+03  0.00000000000E+00 0.  1.
          6    2    1    2  501    0  0.17187072398E+01 -0.24634421231E+02  0.62776478282E+01  0.17477443873E+03  0.17290716268E+03 0.  0.
         24    2    3    3    0    0 -0.48220357943E+02 -0.40342512066E+02  0.42166553159E+02  0.11112887427E+03  0.81356544246E+02 0.  0.
         -6    2    1    2    0  502 -0.17187072398E+01  0.24634421231E+02  0.11130678210E+03  0.20674834805E+03  0.17246991337E+03 0.  0.
        -24    2    5    5    0    0 -0.37039739957E-01  0.19858180125E+02 -0.11985408940E+02  0.83262742188E+02  0.79966777598E+02 0.  0.
          5    1    3    3  501    0  0.49939065183E+02  0.15708090835E+02 -0.35888905330E+02  0.63645564455E+02  0.47000000000E+01 0. -1.
        -11    1    4    4    0    0 -0.37394226819E+01  0.16533082309E+02 -0.12082678575E+02  0.20816272821E+02  0.00000000000E+00 0.  1.
         12    1    4    4    0    0 -0.44480935261E+02 -0.56875594375E+02  0.54249231733E+02  0.90312601451E+02  0.00000000000E+00 0. -1.
         -5    1    5    5    0  502 -0.16816674999E+01  0.47762411061E+01  0.12329219104E+03  0.12348560587E+03  0.47000000000E+01 0.  1.
         13    1    6    6    0    0 -0.11476454865E+02 -0.23042059870E+02 -0.26115118090E+02  0.36669400489E+02  0.00000000000E+00 0. -1.
        -14    1    6    6    0    0  0.11439415125E+02  0.42900239995E+02  0.14129709150E+02  0.46593341699E+02  0.00000000000E+00 0.  1.
</event>
<event>
12    1  0.8724767E-002  0.2557407E+03  0.7818608E-02  0.1109775E+00
         21   -1    0    0  503  502  0.00000000000E+00  0.00000000000E+00  0.27153161770E+03  0.27153161770E+03  0.00000000000E+00 0. -1.
         21   -1    0    0  501  503 -0.00000000000E+00 -0.00000000000E+00 -0.26422923928E+03  0.26422923928E+03  0.00000000000E+00 0. -1.
          6    2    1    2  501    0  0.17331624090E+03 -0.76029724681E+02 -0.76476661421E+02  0.26693069040E+03  0.17200080040E+03 0.  0.
         24    2    3    3    0    0  0.10444104201E+03 -0.86426099910E+02 -0.10736092149E+03  0.19059062778E+03  0.80131254392E+02 0.  0.
         -6    2    1    2    0  502 -0.17331624090E+03  0.76029724681E+02  0.83779039842E+02  0.26883016659E+03  0.17155667447E+03 0.  0.
        -24    2    5    5    0    0 -0.12979354740E+03  0.19454435616E+02  0.11305709941E+03  0.19153668074E+03  0.81728528254E+02 0.  0.
          5    1    3    3  501    0  0.68875198895E+02  0.10396375229E+02  0.30884260072E+02  0.76340062620E+02  0.47000000000E+01 0. -1.
        -13    1    4    4    0    0  0.62319294363E+02 -0.12821773008E+01 -0.46616604970E+02  0.77836021786E+02  0.00000000000E+00 0.  1.
         14    1    4    4    0    0  0.42121747646E+02 -0.85143922609E+02 -0.60744316523E+02  0.11275460599E+03  0.00000000000E+00 0. -1.
         -5    1    5    5    0  502 -0.43522693507E+02  0.56575289066E+02 -0.29278059564E+02  0.77293485849E+02  0.47000000000E+01 0.  1.
         13    1    6    6    0    0 -0.75238784875E+02 -0.18823013152E+02  0.94709381878E+02  0.12241342896E+03  0.00000000000E+00 0. -1.
        -14    1    6    6    0    0 -0.54554762522E+02  0.38277448768E+02  0.18347717529E+02  0.69123251779E+02  0.00000000000E+00 0.  1.
</event>
<event>
12    1  0.8724767E-002  0.2890601E+03  0.7818608E-02  0.1090902E+00
         21   -1    0    0  503  502  0.00000000000E+00  0.00000000000E+00  0.16708976460E+03  0.16708976460E+03  0.00000000000E+00 0. -1.
         21   -1    0    0  501  503 -0.00000000000E+00 -0.00000000000E+00 -0.51888041998E+03  0.51888041998E+03  0.00000000000E+00 0.  1.
          6    2    1    2  501    0  0.21454332699E+03 -0.87194080125E+02 -0.24244934410E+03  0.37692121890E+03  0.17220997079E+03 0.  0.
         24    2    3    3    0    0  0.13937545320E+03 -0.12053280097E+03 -0.20423159702E+03  0.28612272910E+03  0.78752763916E+02 0.  0.
         -6    2    1    2    0  502 -0.21454332699E+03  0.87194080125E+02 -0.10934131128E+03  0.30904896568E+03  0.17298582044E+03 0.  0.
        -24    2    5    5    0    0 -0.23081698622E+03  0.54739359250E+02 -0.10788110498E+03  0.27241069206E+03  0.79349692855E+02 0.  0.
          5    1    3    3  501    0  0.75167873786E+02  0.33338720847E+02 -0.38217747080E+02  0.90798489795E+02  0.47000000000E+01 0. -1.
        -13    1    4    4    0    0  0.39832670082E+02 -0.77638729494E+02 -0.60852843168E+02  0.10638365685E+03  0.00000000000E+00 0.  1.
         14    1    4    4    0    0  0.99542783121E+02 -0.42894071478E+02 -0.14337875385E+03  0.17973907225E+03  0.00000000000E+00 0. -1.
         -5    1    5    5    0  502  0.16273659231E+02  0.32454720875E+02 -0.14602062932E+01  0.36638273626E+02  0.47000000000E+01 0.  1.
         13    1    6    6    0    0 -0.14825591103E+03  0.15754656219E+01 -0.41781701603E+02  0.15403898154E+03  0.00000000000E+00 0. -1.
        -14    1    6    6    0    0 -0.82561075193E+02  0.53163893628E+02 -0.66099403379E+02  0.11837171051E+03  0.00000000000E+00 0.  1.
</event>
<event>
12    1  0.8724767E-002  0.1939238E+03  0.7818608E-02  0.1155346E+00
         21   -1    0    0  503  502  0.00000000000E+00  0.00000000000E+00  0.41169774979E+03  0.41169774979E+03  0.00000000000E+00 0. -1.
         21   -1    0    0  501  503 -0.00000000000E+00 -0.00000000000E+00 -0.13396980716E+03  0.13396980716E+03  0.00000000000E+00 0. -1.
          6    2    1    2  501    0 -0.47138482324E+02 -0.76786327995E+02 -0.16889740923E+02  0.19295520807E+03  0.16978890508E+03 0.  0.
         24    2    3    3    0    0 -0.72299104917E+02 -0.88814810879E+02 -0.52022753773E+02  0.14785354599E+03  0.77711472443E+02 0.  0.
         -6    2    1    2    0  502  0.47138482324E+02  0.76786327995E+02  0.29461768355E+03  0.35271234889E+03  0.17172141658E+03 0.  0.
        -24    2    5    5    0    0 -0.28242250726E+02  0.71842465365E+02  0.21204685661E+03  0.24070017029E+03  0.83748062794E+02 0.  0.
          5    1    3    3  501    0  0.25160622593E+02  0.12028482884E+02  0.35133012851E+02  0.45101662073E+02  0.47000000000E+01 0. -1.
        -11    1    4    4    0    0 -0.27125084868E+02 -0.16667395202E+01  0.12984654379E+02  0.30118922608E+02  0.00000000000E+00 0.  1.
         12    1    4    4    0    0 -0.45174020049E+02 -0.87148071359E+02 -0.65007408152E+02  0.11773462339E+03  0.00000000000E+00 0. -1.
         -5    1    5    5    0  502  0.75380733050E+02  0.49438626298E+01  0.82570826943E+02  0.11201217860E+03  0.47000000000E+01 0.  1.
         11    1    6    6    0    0 -0.26519769545E+02  0.17091101179E+02  0.16649104822E+03  0.16945404408E+03  0.00000000000E+00 0. -1.
        -12    1    6    6    0    0 -0.17224811814E+01  0.54751364186E+02  0.45555808385E+02  0.71246126206E+02  0.00000000000E+00 0.  1.
</event>
<event>
12    1  0.8724767E-002  0.1943390E+03  0.7818608E-02  0.1154672E+00
         21   -1    0    0  503  502  0.00000000000E+00  0.00000000000E+00  0.10046250816E+03  0.10046250816E+03  0.00000000000E+00 0. -1.
         21   -1    0    0  501  503 -0.00000000000E+00 -0.00000000000E+00 -0.47303244091E+03  0.47303244091E+03  0.00000000000E+00 0. -1.
          6    2    1    2  501    0 -0.51810370003E+02 -0.73955488944E+02 -0.55864414975E+02  0.20191719251E+03  0.17174396929E+03 0.  0.
         24    2    3    3    0    0 -0.79221874389E+02 -0.88495969792E+02 -0.78434599342E+02  0.16326076513E+03  0.79965298751E+02 0.  0.
         -6    2    1    2    0  502  0.51810370003E+02  0.73955488944E+02 -0.31670551778E+03  0.37157775656E+03  0.17208694139E+03 0.  0.
        -24    2    5    5    0    0  0.41290170843E+02  0.58331366505E+02 -0.33067668475E+03  0.34765974454E+03  0.80079970109E+02 0.  0.
          5    1    3    3  501    0  0.27411504386E+02  0.14540480848E+02  0.22570184367E+02  0.38656427387E+02  0.47000000000E+01 0. -1.
        -13    1    4    4    0    0  0.37876025955E+01 -0.46890532050E+02 -0.43442059490E+02  0.64033432377E+02  0.00000000000E+00 0.  1.
         14    1    4    4    0    0 -0.83009476985E+02 -0.41605437742E+02 -0.34992539853E+02  0.99227332748E+02  0.00000000000E+00 0. -1.
         -5    1    5    5    0  502  0.10520199161E+02  0.15624122439E+02  0.13971166971E+02  0.23918012018E+02  0.47000000000E+01 0.  1.
         13    1    6    6    0    0  0.55089592878E+02  0.87447358268E+01 -0.16517978229E+03  0.17434360936E+03  0.00000000000E+00 0. -1.
        -14    1    6    6    0    0 -0.13799422035E+02  0.49586630679E+02 -0.16549690246E+03  0.17331613518E+03  0.00000000000E+00 0.  1.
</event>
<event>
12    1  0.8724767E-002  0.1785787E+03  0.7818608E-02  0.1169570E+00
         21   -1    0    0  501  502  0.00000000000E+00  0.00000000000E+00  0.13283001824E+03  0.13283001824E+03  0.00000000000E+00 0.  1.
         21   -1    0    0  502  503 -0.00000000000E+00 -0.00000000000E+00 -0.27012562233E+03  0.27012562233E+03  0.00000000000E+00 0. -1.
         -6    2    1    2    0  503  0.45798951311E+02  0.16709949434E+01 -0.13787909633E+03  0.22437597869E+03  0.17097835666E+03 0.  0.
        -24    2    3    3    0    0  0.12362094682E+02  0.59842885980E+02 -0.42451042149E+02  0.10762583603E+03  0.77763984043E+02 0.  0.
          6    2    1    2  501    0 -0.45798951311E+02 -0.16709949434E+01  0.58349224129E+00  0.17857966188E+03  0.17259785343E+03 0.  0.
         24    2    5    5    0    0 -0.54293021596E+02 -0.20752370678E+02 -0.59203731121E+02  0.11507493601E+03  0.79741871289E+02 0.  0.
          5    1    5    5  501    0  0.84940702853E+01  0.19081375735E+02  0.59787223362E+02  0.63504725866E+02  0.47000000000E+01 0. -1.
        -13    1    6    6    0    0 -0.51535762275E+01  0.28534031393E+02 -0.15272785226E+02  0.32772065300E+02  0.00000000000E+00 0.  1.
         14    1    6    6    0    0 -0.49139445369E+02 -0.49286402071E+02 -0.43930945895E+02  0.82302870712E+02  0.00000000000E+00 0. -1.
         -5    1    3    3    0  503  0.33436856629E+02 -0.58171891036E+02 -0.95428054176E+02  0.11675014266E+03  0.47000000000E+01 0.  1.
         11    1    4    4    0    0 -0.17526691377E+02  0.22476082705E+02 -0.51562970495E+02  0.58916034581E+02  0.00000000000E+00 0. -1.
        -12    1    4    4    0    0  0.29888786059E+02  0.37366803275E+02  0.91119283462E+01  0.48709801449E+02  0.00000000000E+00 0.  1.
</event>
<event>
12    1  0.8724767E-002  0.1848314E+03  0.7818608E-02  0.1164317E+00
         21   -1    0    0  501  502  0.00000000000E+00  0.00000000000E+00  0.54135513415E+02  0.54135513415E+02  0.00000000000E+00 0.  1.
         21   -1    0    0  502  503 -0.00000000000E+00 -0.00000000000E+00 -0.14605839298E+04  0.14605839298E+04  0.00000000000E+00 0. -1.
         -6    2    1    2    0  503  0.20321419760E+02  0.52938643721E+02 -0.12756036080E+04  0.12882619040E+04  0.17099329952E+03 0.  0.
        -24    2    3    3    0    0  0.31286914262E+02  0.82170190515E+02 -0.12075543560E+04  0.12132451320E+04  0.77752274614E+02 0.  0.
          6    2    1    2  501    0 -0.20321419760E+02 -0.52938643721E+02 -0.13084480830E+03  0.22645753912E+03  0.17591814308E+03 0.  0.
         24    2    5    5    0    0 -0.58368624969E+02  0.14866624081E+02 -0.10468795012E+03  0.14429054212E+03  0.78944795611E+02 0.  0.
          5    1    5    5  501    0  0.38047205209E+02 -0.67805267802E+02 -0.26156858188E+02  0.82166997001E+02  0.47000000000E+01 0. -1.
        -13    1    6    6    0    0 -0.19435147317E+02  0.38300255182E+02 -0.18311021466E+02  0.46689699136E+02  0.00000000000E+00 0.  1.
         14    1    6    6    0    0 -0.38933477652E+02 -0.23433631101E+02 -0.86376928650E+02  0.97600842986E+02  0.00000000000E+00 0. -1.
         -5    1    3    3    0  503 -0.10965494503E+02 -0.29231546794E+02 -0.68049251996E+02  0.75016772090E+02  0.47000000000E+01 0.  1.
         11    1    4    4    0    0 -0.25131146083E+02  0.27769264364E+02 -0.48801134020E+03  0.48944639616E+03  0.00000000000E+00 0. -1.
        -12    1    4    4    0    0  0.56418060345E+02  0.54400926151E+02 -0.71954301583E+03  0.72379873579E+03  0.00000000000E+00 0.  1.
</event>
<event>
12    1  0.8724767E-002  0.1884507E+03  0.7818608E-02  0.1160041E+00
         21   -1    0    0  503  502  0.00000000000E+00  0.00000000000E+00  0.65735705291E+03  0.65735705291E+03  0.00000000000E+00 0.  1.
         21   -1    0    0  501  503 -0.00000000000E+00 -0.00000000000E+00 -0.29025788129E+03  0.29025788129E+03  0.00000000000E+00 0.  1.
          6    2    1    2  501    0  0.61360785395E+02 -0.50551651248E+02 -0.24416274116E+03  0.30796283393E+03  0.17001484490E+03 0.  0.
         24    2    3    3    0    0 -0.16488080244E+02  0.10615921632E+02 -0.15769622346E+03  0.17643159606E+03  0.76651514092E+02 0.  0.
         -6    2    1    2    0  502 -0.61360785395E+02  0.50551651248E+02  0.61126191277E+03  0.63965210027E+03  0.17085979032E+03 0.  0.
        -24    2    5    5    0    0 -0.77927583721E+01 -0.33950698628E+02  0.27897184364E+03  0.29259452480E+03  0.81073357982E+02 0.  0.
          5    1    3    3  501    0  0.77848865638E+02 -0.61167572880E+02 -0.86466517698E+02  0.13153123787E+03  0.47000000000E+01 0. -1.
        -13    1    4    4    0    0  0.24342464197E+02 -0.15218293926E+02 -0.79361068032E+02  0.84393904711E+02  0.00000000000E+00 0.  1.
         14    1    4    4    0    0 -0.40830544441E+02  0.25834215558E+02 -0.78335155427E+02  0.92037691348E+02  0.00000000000E+00 0. -1.
         -5    1    5    5    0  502 -0.53568027023E+02  0.84502349876E+02  0.33229006913E+03  0.34705757547E+03  0.47000000000E+01 0.  1.
         13    1    6    6    0    0  0.25237482478E+02  0.14098134055E+02  0.11451433470E+03  0.11810681926E+03  0.00000000000E+00 0. -1.
        -14    1    6    6    0    0 -0.33030240851E+02 -0.48048832682E+02  0.16445750895E+03  0.17448770553E+03  0.00000000000E+00 0.  1.
</event>
<event>
12    1  0.8724767E-002  0.1820435E+03  0.7818608E-02  0.1165939E+00
         21   -1    0    0  501  502  0.00000000000E+00  0.00000000000E+00  0.27275037942E+02  0.27275037942E+02  0.00000000000E+00 0.  1.
         21   -1    0    0  502  503 -0.00000000000E+00 -0.00000000000E+00 -0.13649898493E+04  0.13649898493E+04  0.00000000000E+00 0.  1.
         -6    2    1    2    0  503  0.34007913565E+02 -0.40975440301E+02 -0.90240834682E+03  0.92058713436E+03  0.17408136790E+03 0.  0.
        -24    2    3    3    0    0  0.16225493660E+02  0.34579245565E+02 -0.29154177830E+03  0.30479108083E+03  0.80262093100E+02 0.  0.
          6    2    1    2  501    0 -0.34007913565E+02  0.40975440301E+02 -0.43530646451E+03  0.47167775285E+03  0.17364521185E+03 0.  0.
         24    2    5    5    0    0 -0.13419613485E+01 -0.13372776973E+02 -0.93969503143E+02  0.12446916374E+03  0.80508839130E+02 0.  0.
          5    1    5    5  501    0 -0.32665952216E+02  0.54348217275E+02 -0.34133696137E+03  0.34720858911E+03  0.47000000000E+01 0. -1.
        -11    1    6    6    0    0  0.76683129192E+01  0.30711715104E+02 -0.18670585722E+02  0.36750554266E+02  0.00000000000E+00 0.  1.
         12    1    6    6    0    0 -0.90102742678E+01 -0.44084492077E+02 -0.75298917422E+02  0.87718609479E+02  0.00000000000E+00 0. -1.
         -5    1    3    3    0  503  0.17782419905E+02 -0.75554685866E+02 -0.61086656852E+03  0.61579605353E+03  0.47000000000E+01 0.  1.
         13    1    4    4    0    0 -0.28244345786E+02  0.15239449805E+02 -0.18458889102E+03  0.18735805984E+03  0.00000000000E+00 0. -1.
        -14    1    4    4    0    0  0.44469839446E+02  0.19339795759E+02 -0.10695288728E+03  0.11743302099E+03  0.00000000000E+00 0.  1.
</event>
<event>
12    1  0.8724767E-002  0.1929616E+03  0.7818608E-02  0.1155849E+00
         21   -1    0    0  503  502  0.00000000000E+00  0.00000000000E+00  0.57916428028E+03  0.57916428028E+03  0.00000000000E+00 0.  1.
         21   -1    0    0  501  503 -0.00000000000E+00 -0.00000000000E+00 -0.86204484454E+02  0.86204484454E+02  0.00000000000E+00 0. -1.
          6    2    1    2  501    0  0.86822418994E+02  0.11024239565E+02  0.78489526860E+02  0.20818194999E+03  0.17181225852E+03 0.  0.
         24    2    3    3    0    0  0.96409198484E+02 -0.33813114838E+02  0.17297557164E+02  0.13157358331E+03  0.81082316529E+02 0.  0.
         -6    2    1    2    0  502 -0.86822418994E+02 -0.11024239565E+02  0.41447026897E+03  0.45718681474E+03  0.17197242052E+03 0.  0.
        -24    2    5    5    0    0 -0.35463373421E+02  0.54592991691E+02  0.28623971365E+03  0.30418832482E+03  0.79745330232E+02 0.  0.
          5    1    3    3  501    0 -0.95867794903E+01  0.44837354403E+02  0.61191969696E+02  0.76608366685E+02  0.47000000000E+01 0. -1.
        -13    1    4    4    0    0  0.58121527863E+02 -0.56340435613E+02  0.28399696144E+02  0.85784027810E+02  0.00000000000E+00 0.  1.
         14    1    4    4    0    0  0.38287670621E+02  0.22527320776E+02 -0.11102138980E+02  0.45789555499E+02  0.00000000000E+00 0. -1.
         -5    1    5    5    0  502 -0.51359045573E+02 -0.65617231256E+02  0.12823055532E+03  0.15299848992E+03  0.47000000000E+01 0.  1.
         11    1    6    6    0    0 -0.30820228322E+02  0.17388677609E+02  0.33653180514E+02  0.48834302918E+02  0.00000000000E+00 0. -1.
        -12    1    6    6    0    0 -0.46431450984E+01  0.37204314082E+02  0.25258653313E+03  0.25535402190E+03  0.00000000000E+00 0.  1.
</event>
<event>
12    1  0.8724767E-002  0.2019901E+03  0.7818608E-02  0.1149823E+00
         21   -1    0    0  503  502  0.00000000000E+00  0.00000000000E+00  0.57750949344E+02  0.57750949344E+02  0.00000000000E+00 0. -1.
         21   -1    0    0  501  503 -0.00000000000E+00 -0.00000000000E+00 -0.67800975167E+03  0.67800975167E+03  0.00000000000E+00 0.  1.
          6    2    1    2  501    0  0.49271023629E+02 -0.69661503403E+02 -0.30150062027E+03  0.35839245750E+03  0.17396025621E+03 0.  0.
         24    2    3    3    0    0  0.41705710607E+02 -0.10860948513E+03 -0.17101390554E+03  0.22192615410E+03  0.80436779083E+02 0.  0.
         -6    2    1    2    0  502 -0.49271023629E+02  0.69661503403E+02 -0.31875818206E+03  0.37736824352E+03  0.18308373429E+03 0.  0.
        -24    2    5    5    0    0  0.12230249828E+02  0.48216897244E+02 -0.62443332193E+02  0.11286555916E+03  0.79781053635E+02 0.  0.
          5    1    3    3  501    0  0.75653130229E+01  0.38947981724E+02 -0.13048671473E+03  0.13646630340E+03  0.47000000000E+01 0. -1.
        -11    1    4    4    0    0  0.17374372799E+02 -0.10877097545E+03 -0.16216135098E+03  0.19603391973E+03  0.00000000000E+00 0.  1.
         12    1    4    4    0    0  0.24331337807E+02  0.16149032694E+00 -0.88525545566E+01  0.25892234373E+02  0.00000000000E+00 0. -1.
         -5    1    5    5    0  502 -0.61501273458E+02  0.21444606158E+02 -0.25631484986E+03  0.26450268436E+03  0.47000000000E+01 0.  1.
         11    1    6    6    0    0  0.42638851116E+02  0.38709035911E+02 -0.22634681916E+02  0.61877216414E+02  0.00000000000E+00 0. -1.
        -12    1    6    6    0    0 -0.30408601288E+02  0.95078613331E+01 -0.39808650277E+02  0.50988342749E+02  0.00000000000E+00 0.  1.
</event>
<event>
12    1  0.8724767E-002  0.2556562E+03  0.7818608E-02  0.1110619E+00
         21   -1    0    0  503  502  0.00000000000E+00  0.00000000000E+00  0.24413993289E+03  0.24413993289E+03  0.00000000000E+00 0.  1.
         21   -1    0    0  501  503 -0.00000000000E+00 -0.00000000000E+00 -0.32013843040E+03  0.32013843040E+03  0.00000000000E+00 0. -1.
          6    2    1    2  501    0 -0.12661669822E+03  0.13053726358E+03 -0.15779550911E+03  0.29585545302E+03  0.17192806908E+03 0.  0.
         24    2    3    3    0    0 -0.94255727865E+02  0.65314481419E+02 -0.17176390968E+03  0.22156918290E+03  0.80249226930E+02 0.  0.
         -6    2    1    2    0  502  0.12661669822E+03 -0.13053726358E+03  0.81797011600E+02  0.26842291027E+03  0.17968957176E+03 0.  0.
        -24    2    5    5    0    0 -0.13397741846E+02 -0.51787324777E+02  0.45277391461E+02  0.10361584445E+03  0.76320210620E+02 0.  0.
          5    1    3    3  501    0 -0.32360970357E+02  0.65222782159E+02  0.13968400567E+02  0.74286270127E+02  0.47000000000E+01 0. -1.
        -13    1    4    4    0    0 -0.20491059957E+02  0.13181948149E+02 -0.10872003466E+03  0.11141675471E+03  0.00000000000E+00 0.  1.
         14    1    4    4    0    0 -0.73764667908E+02  0.52132533270E+02 -0.63043875022E+02  0.11015242818E+03  0.00000000000E+00 0. -1.
         -5    1    5    5    0  502  0.14001444007E+03 -0.78749938800E+02  0.36519620139E+02  0.16480706582E+03  0.47000000000E+01 0.  1.
         13    1    6    6    0    0  0.76855285064E+01  0.14668278377E+02 -0.54066119588E+01  0.17420022728E+02  0.00000000000E+00 0. -1.
        -14    1    6    6    0    0 -0.21083270352E+02 -0.66455603154E+02  0.50684003420E+02  0.86195821720E+02  0.00000000000E+00 0.  1.
</event>
<event>
12    1  0.8724767E-002  0.2428664E+03  0.7818608E-02  0.1118145E+00
         21   -1    0    0  501  502  0.00000000000E+00  0.00000000000E+00  0.38222614364E+03  0.38222614364E+03  0.00000000000E+00 0.  1.
         21   -1    0    0  502  503 -0.00000000000E+00 -0.00000000000E+00 -0.29309624653E+03  0.29309624653E+03  0.00000000000E+00 0.  1.
         -6    2    1    2    0  503  0.67123401190E+02 -0.15678489823E+03 -0.18850567387E+03  0.30743859791E+03  0.17290762593E+03 0.  0.
        -24    2    3    3    0    0 -0.19270893893E+02 -0.24888939903E+02 -0.49326176031E+02  0.97073342545E+02  0.77455377541E+02 0.  0.
          6    2    1    2  501    0 -0.67123401190E+02  0.15678489823E+03  0.27763557098E+03  0.36788379226E+03  0.17079203444E+03 0.  0.
         24    2    5    5    0    0 -0.29860008422E+02  0.67465262605E+02  0.24099012288E+03  0.26429066210E+03  0.79562132867E+02 0.  0.
          5    1    5    5  501    0 -0.37263392768E+02  0.89319635628E+02  0.36645448106E+02  0.10359313016E+03  0.47000000000E+01 0. -1.
        -11    1    6    6    0    0 -0.39310265548E+02  0.73995991693E+02  0.14385090551E+03  0.16647458299E+03  0.00000000000E+00 0.  1.
         12    1    6    6    0    0  0.94502571269E+01 -0.65307290880E+01  0.97139217365E+02  0.97816079110E+02  0.00000000000E+00 0. -1.
         -5    1    3    3    0  503  0.86394295083E+02 -0.13189595833E+03 -0.13917949784E+03  0.21036525537E+03  0.47000000000E+01 0.  1.
         11    1    4    4    0    0 -0.21461397743E+02 -0.29817973173E+02  0.95430612209E+01  0.37957517500E+02  0.00000000000E+00 0. -1.
        -12    1    4    4    0    0  0.21905038502E+01  0.49290332704E+01 -0.58869237252E+02  0.59115825045E+02  0.00000000000E+00 0.  1.
</event>
<event>
12    1  0.8724767E-002  0.1938532E+03  0.7818608E-02  0.1155693E+00
         21   -1    0    0  501  502  0.00000000000E+00  0.00000000000E+00  0.41984098943E+03  0.41984098943E+03  0.00000000000E+00 0.  1.
         21   -1    0    0  502  503 -0.00000000000E+00 -0.00000000000E+00 -0.99435895435E+02  0.99435895435E+02  0.00000000000E+00 0. -1.
         -6    2    1    2    0  503 -0.70327120902E+02  0.42191920868E+02  0.24663430375E+03  0.31186139585E+03  0.17234554916E+03 0.  0.
        -24    2    3    3    0    0 -0.15743398536E+02  0.74784630255E+02  0.87616411183E+02  0.14054167250E+03  0.78960310793E+02 0.  0.
          6    2    1    2  501    0  0.70327120902E+02 -0.42191920868E+02  0.73770790242E+02  0.20741548901E+03  0.17565020202E+03 0.  0.
         24    2    5    5    0    0 -0.13308261723E+02  0.13618882008E+02 -0.14348139095E+01  0.81766390964E+02  0.79505347135E+02 0.  0.
          5    1    5    5  501    0  0.83635382625E+02 -0.55810802877E+02  0.75205604152E+02  0.12564909805E+03  0.47000000000E+01 0. -1.
        -13    1    6    6    0    0 -0.10011183174E+02  0.26645023013E+01  0.38684656818E+02  0.40047796870E+02  0.00000000000E+00 0.  1.
         14    1    6    6    0    0 -0.32970785493E+01  0.10954379707E+02 -0.40119470727E+02  0.41718594094E+02  0.00000000000E+00 0. -1.
         -5    1    3    3    0  503 -0.54583722366E+02 -0.32592709386E+02  0.15901789257E+03  0.17131972335E+03  0.47000000000E+01 0.  1.
         13    1    4    4    0    0 -0.17840186062E+02  0.83910721854E+02  0.95448375214E+02  0.12833422697E+03  0.00000000000E+00 0. -1.
        -14    1    4    4    0    0  0.20967875259E+01 -0.91260915992E+01 -0.78319640304E+01  0.12207445530E+02  0.00000000000E+00 0.  1.
</event>
<event>
12    1  0.8724767E-002  0.2603753E+03  0.7818608E-02  0.1107027E+00
         21   -1    0    0  503  502  0.00000000000E+00  0.00000000000E+00  0.13233572297E+03  0.13233572297E+03  0.00000000000E+00 0. -1.
         21   -1    0    0  501  503 -0.00000000000E+00 -0.00000000000E+00 -0.92941770665E+03  0.92941770665E+03  0.00000000000E+00 0.  1.
          6    2    1    2  501    0 -0.16708330683E+03 -0.96747812317E+02 -0.75509944238E+03  0.79873053544E+03  0.17469496203E+03 0.  0.
         24    2    3    3    0    0 -0.12772703337E+03 -0.84575792183E+02 -0.34214439966E+03  0.38369917321E+03  0.81823014022E+02 0.  0.
         -6    2    1    2    0  502  0.16708330683E+03  0.96747812317E+02 -0.41982541300E+02  0.26302289418E+03  0.17361318636E+03 0.  0.
        -24    2    5    5    0    0  0.18905412300E+03  0.10090781587E+03 -0.17357653647E+02  0.22942977755E+03  0.80080496758E+02 0.  0.
          5    1    3    3  501    0 -0.39356273464E+02 -0.12172020134E+02 -0.41295504272E+03  0.41503136224E+03  0.47000000000E+01 0. -1.
        -11    1    4    4    0    0 -0.95710338708E+02 -0.26852176546E+02 -0.25977228898E+03  0.27814232048E+03  0.00000000000E+00 0.  1.
         12    1    4    4    0    0 -0.32016694658E+02 -0.57723615637E+02 -0.82372110679E+02  0.10555685272E+03  0.00000000000E+00 0. -1.
         -5    1    5    5    0  502 -0.21970816169E+02 -0.41600035557E+01 -0.24624887654E+02  0.33593116626E+02  0.47000000000E+01 0.  1.
         11    1    6    6    0    0  0.88043066542E+02  0.91170180931E+02 -0.17287065280E+01  0.12675398173E+03  0.00000000000E+00 0. -1.
        -12    1    6    6    0    0  0.10101105646E+03  0.97376349422E+01 -0.15628947119E+02  0.10267579583E+03  0.00000000000E+00 0.  1.
</event>
<event>
12    1  0.8724767E-002  0.1752107E+03  0.7818608E-02  0.1172764E+00
         21   -1    0    0  503  502  0.00000000000E+00  0.00000000000E+00  0.12491923070E+03  0.12491923070E+03  0.00000000000E+00 0.  1.
         21   -1    0    0  501  503 -0.00000000000E+00 -0.00000000000E+00 -0.57102399907E+03  0.57102399907E+03  0.00000000000E+00 0.  1.
          6    2    1    2  501    0  0.48087323224E+01  0.28651045992E+02 -0.48596308703E+03  0.51625602942E+03  0.17180267636E+03 0.  0.
         24    2    3    3    0    0 -0.37026894822E+02  0.75813375589E+01 -0.12475606043E+03  0.15199409292E+03  0.78164327215E+02 0.  0.
         -6    2    1    2    0  502 -0.48087323224E+01 -0.28651045992E+02  0.39858318657E+02  0.17968720036E+03  0.17278541045E+03 0.  0.
        -24    2    5    5    0    0  0.35185229462E+02  0.14412605466E+01  0.77291071966E+02  0.11701053076E+03  0.80482773920E+02 0.  0.
          5    1    3    3  501    0  0.41835627144E+02  0.21069708433E+02 -0.36120702661E+03  0.36426193650E+03  0.47000000000E+01 0. -1.
        -13    1    4    4    0    0 -0.22432346772E+02 -0.26986947701E+02 -0.10256036998E+03  0.10839803973E+03  0.00000000000E+00 0.  1.
         14    1    4    4    0    0 -0.14594548050E+02  0.34568285260E+02 -0.22195690446E+02  0.43596053181E+02  0.00000000000E+00 0. -1.
         -5    1    5    5    0  502 -0.39993961785E+02 -0.30092306539E+02 -0.37432753309E+02  0.62676669601E+02  0.47000000000E+01 0.  1.
         11    1    6    6    0    0  0.21406982990E+01  0.14034005190E+02 -0.13490926275E+02  0.19584202374E+02  0.00000000000E+00 0. -1.
        -12    1    6    6    0    0  0.33044531163E+02 -0.12592744643E+02  0.90781998241E+02  0.97426328382E+02  0.00000000000E+00 0.  1.
</event>
<event>
12    1  0.8724767E-002  0.1965306E+03  0.7818608E-02  0.1152769E+00
         21   -1    0    0  501  502  0.00000000000E+00  0.00000000000E+00  0.30431966257E+03  0.30431966257E+03  0.00000000000E+00 0.  1.
         21   -1    0    0  502  503 -0.00000000000E+00 -0.00000000000E+00 -0.43150676634E+03  0.43150676634E+03  0.00000000000E+00 0. -1.
         -6    2    1    2    0  503 -0.65318384328E+02 -0.71868606388E+02 -0.37278943298E+03  0.42127154206E+03  0.17048801391E+03 0.  0.
        -24    2    3    3    0    0 -0.11013938700E+03 -0.64282111042E+02 -0.28388874126E+03  0.32131204935E+03  0.79910833304E+02 0.  0.
          6    2    1    2  501    0  0.65318384328E+02  0.71868606388E+02  0.24560232921E+03  0.31455488686E+03  0.17085866914E+03 0.  0.
         24    2    5    5    0    0  0.45382483431E+02  0.11383679648E+03  0.21066527512E+03  0.25623287667E+03  0.79101472245E+02 0.  0.
          5    1    5    5  501    0  0.19935900897E+02 -0.41968190091E+02  0.34937054089E+02  0.58322010189E+02  0.47000000000E+01 0. -1.
        -11    1    6    6    0    0  0.24965376648E+02  0.29564138955E+01  0.78939819452E+02  0.82846276376E+02  0.00000000000E+00 0.  1.
         12    1    6    6    0    0  0.20417106783E+02  0.11088038258E+03  0.13172545567E+03  0.17338660030E+03  0.00000000000E+00 0. -1.
         -5    1    3    3    0  503  0.44821002671E+02 -0.75864953455E+01 -0.88900691725E+02  0.99959492702E+02  0.47000000000E+01 0.  1.
         13    1    4    4    0    0 -0.10213015803E+03 -0.41599574266E+02 -0.27389825944E+03  0.29526488156E+03  0.00000000000E+00 0. -1.
        -14    1    4    4    0    0 -0.80092289682E+01 -0.22682536776E+02 -0.99904818207E+01  0.26047167798E+02  0.00000000000E+00 0.  1.
</event>
<event>
12    1  0.8724767E-002  0.2250609E+03  0.7818608E-02  0.1130279E+00
         21   -1    0    0  503  502  0.00000000000E+00  0.00000000000E+00  0.28974678205E+03  0.28974678205E+03  0.00000000000E+00 0.  1.
         21   -1    0    0  501  503 -0.00000000000E+00 -0.00000000000E+00 -0.77675464680E+03  0.77675464680E+03  0.00000000000E+00 0. -1.
          6    2    1    2  501    0  0.14543203995E+03  0.54921816610E+01 -0.71319390248E+03  0.74786225694E+03  0.17167344149E+03 0.  0.
         24    2    3    3    0    0  0.69802759742E+02  0.68094231578E+02 -0.37859943006E+03  0.39912975824E+03  0.80360349823E+02 0.  0.
         -6    2    1    2    0  502 -0.14543203995E+03 -0.54921816610E+01  0.22618603773E+03  0.31863917190E+03  0.17085126835E+03 0.  0.
        -24    2    5    5    0    0 -0.11743668367E+03 -0.62611541809E+02  0.12763767899E+03  0.20124994630E+03  0.80613795010E+02 0.  0.
          5    1    3    3  501    0  0.75629280211E+02 -0.62602049917E+02 -0.33459447242E+03  0.34873249871E+03  0.47000000000E+01 0. -1.
        -13    1    4    4    0    0  0.29868256759E+02 -0.12391155372E+02 -0.60683483381E+02  0.68761461943E+02  0.00000000000E+00 0.  1.
         14    1    4    4    0    0  0.39934502983E+02  0.80485386949E+02 -0.31791594668E+03  0.33036829629E+03  0.00000000000E+00 0. -1.
         -5    1    5    5    0  502 -0.27995356280E+02  0.57119360148E+02  0.98548358740E+02  0.11738922560E+03  0.47000000000E+01 0.  1.
         13    1    6    6    0    0 -0.50682817790E+02 -0.70763277370E+02  0.58968460314E+02  0.10513547810E+03  0.00000000000E+00 0. -1.
        -14    1    6    6    0    0 -0.66753865883E+02  0.81517355609E+01  0.68669218681E+02  0.96114468199E+02  0.00000000000E+00 0.  1.
</event>
<event>
12    1  0.8724767E-002  0.2220004E+03  0.7818608E-02  0.1132531E+00
         21   -1    0    0  501  502  0.00000000000E+00  0.00000000000E+00  0.71634591225E+02  0.71634591225E+02  0.00000000000E+00 0. -1.
         21   -1    0    0  502  503 -0.00000000000E+00 -0.00000000000E+00 -0.11383763097E+04  0.11383763097E+04  0.00000000000E+00 0. -1.
         -6    2    1    2    0  503 -0.13922416441E+03 -0.70851234153E+01 -0.91432668314E+03  0.94072571640E+03  0.17186629415E+03 0.  0.
        -24    2    3    3    0    0 -0.16766200847E+03 -0.15650304258E+02 -0.73853847186E+03  0.76238430639E+03  0.86228041334E+02 0.  0.
          6    2    1    2  501    0  0.13922416441E+03  0.70851234153E+01 -0.15241503536E+03  0.26928518455E+03  0.17277326380E+03 0.  0.
         24    2    5    5    0    0  0.12269234339E+03  0.63455506461E+02 -0.13084973037E+03  0.20653111241E+03  0.80333280953E+02 0.  0.
          5    1    5    5  501    0  0.16531821027E+02 -0.56370383046E+02 -0.21565304995E+02  0.62754072145E+02  0.47000000000E+01 0. -1.
        -13    1    6    6    0    0  0.12224990083E+03  0.29472630083E+02 -0.10517655980E+03  0.16393835094E+03  0.00000000000E+00 0.  1.
         14    1    6    6    0    0  0.44244255439E+00  0.33982876379E+02 -0.25673170567E+02  0.42592761466E+02  0.00000000000E+00 0. -1.
         -5    1    3    3    0  503  0.28437844058E+02  0.85651808431E+01 -0.17578821129E+03  0.17834141001E+03  0.47000000000E+01 0.  1.
         13    1    4    4    0    0 -0.36951220865E+02  0.42365495378E+01 -0.34990869634E+03  0.35187986139E+03  0.00000000000E+00 0. -1.
        -14    1    4    4    0    0 -0.13071078761E+03 -0.19886853796E+02 -0.38862977552E+03  0.41050444501E+03  0.00000000000E+00 0.  1.
</event>
<event>
12    1  0.8724767E-002  0.2169296E+03  0.7818608E-02  0.1136630E+00
         21   -1    0    0  503  502  0.00000000000E+00  0.00000000000E+00  0.19218246107E+03  0.19218246107E+03  0.00000000000E+00 0. -1.
         21   -1    0    0  501  503 -0.00000000000E+00 -0.00000000000E+00 -0.33108174384E+03  0.33108174384E+03  0.00000000000E+00 0. -1.
          6    2    1    2  501    0  0.12073004941E+03 -0.42793540365E+02 -0.20521362253E+03  0.29861527218E+03  0.17507546366E+03 0.  0.
         24    2    3    3    0    0  0.13575000355E+03 -0.94801069326E+01 -0.10002353926E+03  0.18715932802E+03  0.80659591907E+02 0.  0.
         -6    2    1    2    0  502 -0.12073004941E+03  0.42793540365E+02  0.66314339762E+02  0.22464893273E+03  0.17222810279E+03 0.  0.
        -24    2    5    5    0    0  0.18499956602E+01  0.38918556238E+02  0.47746889387E+02  0.10052108265E+03  0.79414394834E+02 0.  0.
          5    1    3    3  501    0 -0.15019954140E+02 -0.33313433432E+02 -0.10519008327E+03  0.11145594416E+03  0.47000000000E+01 0. -1.
        -11    1    4    4    0    0  0.79805931004E-01  0.18940461641E+02 -0.68555203574E+01  0.20143128246E+02  0.00000000000E+00 0.  1.
         12    1    4    4    0    0  0.13567019762E+03 -0.28420568573E+02 -0.93168018905E+02  0.16701619978E+03  0.00000000000E+00 0. -1.
         -5    1    5    5    0  502 -0.12258004507E+03  0.38749841263E+01  0.18567450375E+02  0.12412785008E+03  0.47000000000E+01 0.  1.
         13    1    6    6    0    0 -0.30550547381E+02  0.24230957096E+02  0.51668907694E+02  0.64731377626E+02  0.00000000000E+00 0. -1.
        -14    1    6    6    0    0  0.32400543042E+02  0.14687599143E+02 -0.39220183063E+01  0.35789705022E+02  0.00000000000E+00 0.  1.
</event>
<event>
12    1  0.8724767E-002  0.1745617E+03  0.7818608E-02  0.1173662E+00
         21   -1    0    0  503  502  0.00000000000E+00  0.00000000000E+00  0.17595204486E+02  0.17595204486E+02  0.00000000000E+00 0. -1.
         21   -1    0    0  501  503 -0.00000000000E+00 -0.00000000000E+00 -0.17784081080E+04  0.17784081080E+04  0.00000000000E+00 0. -1.
          6    2    1    2  501    0  0.19728432140E+02 -0.87787703033E+01 -0.70307628088E+03  0.72395921999E+03  0.17127293315E+03 0.  0.
         24    2    3    3    0    0  0.49549717196E+02 -0.14898415712E+02 -0.67810982020E+03  0.68430857988E+03  0.75948449486E+02 0.  0.
         -6    2    1    2    0  502 -0.19728432140E+02  0.87787703033E+01 -0.10577366226E+04  0.10720440925E+04  0.17322094431E+03 0.  0.
        -24    2    5    5    0    0  0.10890123126E+02  0.53273415068E+02 -0.37473737677E+03  0.38689642288E+03  0.79398293103E+02 0.  0.
          5    1    3    3  501    0 -0.29821285055E+02  0.61196454091E+01 -0.24966460676E+02  0.39650640108E+02  0.47000000000E+01 0. -1.
        -13    1    4    4    0    0 -0.51593454049E+01  0.22329630750E+02 -0.11030366528E+03  0.11265935304E+03  0.00000000000E+00 0.  1.
         14    1    4    4    0    0  0.54709062600E+02 -0.37228046463E+02 -0.56780615493E+03  0.57164922684E+03  0.00000000000E+00 0. -1.
         -5    1    5    5    0  502 -0.30618555267E+02 -0.44494644765E+02 -0.68299924587E+03  0.68514766963E+03  0.47000000000E+01 0.  1.
         11    1    6    6    0    0  0.44223389827E+02  0.26888139296E+02 -0.24370787979E+03  0.24914295277E+03  0.00000000000E+00 0. -1.
        -12    1    6    6    0    0 -0.33333266701E+02  0.26385275772E+02 -0.13102949698E+03  0.13775347011E+03  0.00000000000E+00 0.  1.
</event>
<event>
12    1  0.8724767E-002  0.2064336E+03  0.7818608E-02  0.1145400E+00
         21   -1    0    0  501  502  0.00000000000E+00  0.00000000000E+00  0.12502967658E+04  0.12502967658E+04  0.00000000000E+00 0. -1.
         21   -1    0    0  502  503 -0.00000000000E+00 -0.00000000000E+00 -0.33629337454E+02  0.33629337454E+02  0.00000000000E+00 0.  1.
         -6    2    1    2    0  503 -0.81932816377E+02 -0.65425614439E+02  0.55188104877E+03  0.58922621527E+03  0.17782391106E+03 0.  0.
        -24    2    3    3    0    0 -0.12263656974E+02 -0.95186946476E+02  0.40610873144E+03  0.42487541011E+03  0.79899063215E+02 0.  0.
          6    2    1    2  501    0  0.81932816377E+02  0.65425614439E+02  0.66478637956E+03  0.69469988796E+03  0.17225999672E+03 0.  0.
         24    2    5    5    0    0  0.11700342824E+03  0.23619984182E+02  0.53860884388E+03  0.55714801030E+03  0.77889105863E+02 0.  0.
          5    1    5    5  501    0 -0.35070611861E+02  0.41805630258E+02  0.12617753568E+03  0.13755187766E+03  0.47000000000E+01 0. -1.
        -11    1    6    6    0    0  0.80138006115E+02  0.35847805749E+02  0.23140149529E+03  0.24749508525E+03  0.00000000000E+00 0.  1.
         12    1    6    6    0    0  0.36865422124E+02 -0.12227821568E+02  0.30720734858E+03  0.30965292505E+03  0.00000000000E+00 0. -1.
         -5    1    3    3    0  503 -0.69669159403E+02  0.29761332037E+02  0.14577231732E+03  0.16435080515E+03  0.47000000000E+01 0.  1.
         11    1    4    4    0    0 -0.12495265499E+02 -0.15861858730E+02  0.23946361379E+03  0.24031344646E+03  0.00000000000E+00 0. -1.
        -12    1    4    4    0    0  0.23160852500E+00 -0.79325087746E+02  0.16664511766E+03  0.18456196365E+03  0.00000000000E+00 0.  1.
</event>
<event>
12    1  0.8724767E-002  0.1722920E+03  0.7818608E-02  0.1175845E+00
         21   -1    0    0  503  502  0.00000000000E+00  0.00000000000E+00  0.86462372178E+02  0.86462372178E+02  0.00000000000E+00 0. -1.
         21   -1    0    0  501  503 -0.00000000000E+00 -0.00000000000E+00 -0.39021552849E+03  0.39021552849E+03  0.00000000000E+00 0. -1.
          6    2    1    2  501    0  0.96369099359E+01 -0.12346501731E+01 -0.23750862623E+03  0.29341928489E+03  0.17201783285E+03 0.  0.
         24    2    3    3    0    0 -0.13084694201E+02  0.44504037342E+02 -0.50740602468E+02  0.99737371618E+02  0.72257290265E+02 0.  0.
         -6    2    1    2    0  502 -0.96369099359E+01  0.12346501731E+01 -0.66244530081E+02  0.18325861577E+03  0.17059011723E+03 0.  0.
        -24    2    5    5    0    0 -0.48644064005E+02 -0.46030614635E+02 -0.64210215419E+02  0.12176234140E+03  0.78854635704E+02 0.  0.
          5    1    3    3  501    0  0.22721604136E+02 -0.45738687515E+02 -0.18676802376E+03  0.19368191328E+03  0.47000000000E+01 0. -1.
        -13    1    4    4    0    0 -0.33963068465E+02  0.84598728110E+01 -0.12127310450E+01  0.35021852951E+02  0.00000000000E+00 0.  1.
         14    1    4    4    0    0  0.20878374265E+02  0.36044164531E+02 -0.49527871423E+02  0.64715518667E+02  0.00000000000E+00 0. -1.
         -5    1    5    5    0  502  0.39007154069E+02  0.47265264808E+02 -0.20343146613E+01  0.61496274375E+02  0.47000000000E+01 0.  1.
         13    1    6    6    0    0 -0.28676937390E+02  0.11828334059E+01  0.11005717125E+02  0.30739089811E+02  0.00000000000E+00 0. -1.
        -14    1    6    6    0    0 -0.19967126614E+02 -0.47213448041E+02 -0.75215932544E+02  0.91023251587E+02  0.00000000000E+00 0.  1.
</event>
<event>
12    1  0.8724767E-002  0.2938489E+03  0.7818608E-02  0.1088550E+00
         21   -1    0    0  501  502  0.00000000000E+00  0.00000000000E+00  0.24018075741E+03  0.24018075741E+03  0.00000000000E+00 0.  1.
         21   -1    0    0  502  503 -0.00000000000E+00 -0.00000000000E+00 -0.35795651273E+03  0.35795651273E+03  0.00000000000E+00 0. -1.
         -6    2    1    2    0  503  0.24452305783E+02 -0.23495685347E+03 -0.50330383147E+02  0.29664758385E+03  0.17223241066E+03 0.  0.
        -24    2    3    3    0    0  0.71830757244E+02 -0.21567197417E+03 -0.43553698560E+02  0.24483409442E+03  0.79829512102E+02 0.  0.
          6    2    1    2  501    0 -0.24452305783E+02  0.23495685347E+03 -0.67445372174E+02  0.30148968630E+03  0.17476989005E+03 0.  0.
         24    2    5    5    0    0 -0.39106830837E+02  0.10268948276E+03  0.27759169520E+02  0.13779665891E+03  0.78376486433E+02 0.  0.
          5    1    5    5  501    0  0.14654525054E+02  0.13226737071E+03 -0.95204541693E+02  0.16369302740E+03  0.47000000000E+01 0. -1.
        -11    1    6    6    0    0  0.14182730450E+02 -0.35806370029E+01 -0.31464707697E+01  0.14962322101E+02  0.00000000000E+00 0.  1.
         12    1    6    6    0    0 -0.53289561287E+02  0.10627011976E+03  0.30905640289E+02  0.12283433681E+03  0.00000000000E+00 0. -1.
         -5    1    3    3    0  503 -0.47378451461E+02 -0.19284879297E+02 -0.67766845872E+01  0.51813489424E+02  0.47000000000E+01 0.  1.
         13    1    4    4    0    0 -0.45232510709E+01  0.50942469801E+01  0.13892040852E+01  0.69527721475E+01  0.00000000000E+00 0. -1.
        -14    1    4    4    0    0  0.76354008315E+02 -0.22076622115E+03 -0.44942902645E+02  0.23788132227E+03  0.00000000000E+00 0.  1.
</event>
<event>
12    1  0.8724767E-002  0.2215059E+03  0.7818608E-02  0.1133062E+00
         21   -1    0    0  503  502  0.00000000000E+00  0.00000000000E+00  0.93956242641E+02  0.93956242641E+02  0.00000000000E+00 0. -1.
         21   -1    0    0  501  503 -0.00000000000E+00 -0.00000000000E+00 -0.53218467220E+03  0.53218467220E+03  0.00000000000E+00 0.  1.
          6    2    1    2  501    0 -0.63902130464E+02 -0.11834056028E+03 -0.27018438119E+03  0.34937722378E+03  0.17600248343E+03 0.  0.
         24    2    3    3    0    0 -0.78459579936E+02 -0.14745680676E+03 -0.20181000198E+03  0.27350350714E+03  0.78596920896E+02 0.  0.
         -6    2    1    2    0  502  0.63902130464E+02  0.11834056028E+03 -0.16804404837E+03  0.27676369106E+03  0.17398668918E+03 0.  0.
        -24    2    5    5    0    0 -0.15836016366E+02  0.37867466415E+02 -0.12894180622E+03  0.15682551433E+03  0.79268708371E+02 0.  0.
          5    1    3    3  501    0  0.14557449471E+02  0.29116246486E+02 -0.68374379207E+02  0.75873716638E+02  0.47000000000E+01 0. -1.
        -13    1    4    4    0    0 -0.67770977181E+02 -0.74925198662E+02 -0.15965020165E+03  0.18893088056E+03  0.00000000000E+00 0.  1.
         14    1    4    4    0    0 -0.10688602755E+02 -0.72531608102E+02 -0.42159800330E+02  0.84572626580E+02  0.00000000000E+00 0. -1.
         -5    1    5    5    0  502  0.79738146830E+02  0.80473093863E+02 -0.39102242147E+02  0.11993817673E+03  0.47000000000E+01 0.  1.
         11    1    6    6    0    0  0.35650029057E+00  0.58181218591E+02 -0.62023298747E+02  0.85041583221E+02  0.00000000000E+00 0. -1.
        -12    1    6    6    0    0 -0.16192516656E+02 -0.20313752176E+02 -0.66918507477E+02  0.71783931113E+02  0.00000000000E+00 0.  1.
</event>
<event>
12    1  0.8724767E-002  0.1792477E+03  0.7818608E-02  0.1169070E+00
         21   -1    0    0  503  502  0.00000000000E+00  0.00000000000E+00  0.19999933302E+02  0.19999933302E+02  0.00000000000E+00 0.  1.
         21   -1    0    0  501  503 -0.00000000000E+00 -0.00000000000E+00 -0.16645996462E+04  0.16645996462E+04  0.00000000000E+00 0.  1.
          6    2    1    2  501    0  0.34849481793E+02 -0.26146084486E+02 -0.10090973671E+04  0.10248937752E+04  0.17387251133E+03 0.  0.
         24    2    3    3    0    0  0.10547906919E+02 -0.82558052498E+02 -0.72514018690E+03  0.73433113683E+03  0.80540905635E+02 0.  0.
         -6    2    1    2    0  502 -0.34849481793E+02  0.26146084486E+02 -0.63550234580E+03  0.65970580423E+03  0.17161122487E+03 0.  0.
        -24    2    5    5    0    0 -0.17128434579E+02  0.38640739803E+01 -0.62243404218E+03  0.62802940819E+03  0.81783166642E+02 0.  0.
          5    1    3    3  501    0  0.24301574874E+02  0.56411968011E+02 -0.28395718016E+03  0.29056263841E+03  0.47000000000E+01 0. -1.
        -11    1    4    4    0    0 -0.24627925220E+02 -0.72475556313E+02 -0.55846507966E+03  0.56368651409E+03  0.00000000000E+00 0.  1.
         12    1    4    4    0    0  0.35175832139E+02 -0.10082496185E+02 -0.16667510724E+03  0.17064462274E+03  0.00000000000E+00 0. -1.
         -5    1    5    5    0  502 -0.17721047214E+02  0.22282010506E+02 -0.13068303620E+02  0.31676396039E+02  0.47000000000E+01 0.  1.
         11    1    6    6    0    0 -0.26183722651E+02  0.41428235961E+01 -0.60867341118E+02  0.66389634236E+02  0.00000000000E+00 0. -1.
        -12    1    6    6    0    0  0.90552880718E+01 -0.27874961571E+00 -0.56156670107E+03  0.56163977396E+03  0.00000000000E+00 0.  1.
</event>
<event>
12    1  0.8724767E-002  0.2643584E+03  0.7818608E-02  0.1104706E+00
         21   -1    0    0  503  502  0.00000000000E+00  0.00000000000E+00  0.60299603675E+02  0.60299603675E+02  0.00000000000E+00 0. -1.
         21   -1    0    0  501  503 -0.00000000000E+00 -0.00000000000E+00 -0.11658917767E+04  0.11658917767E+04  0.00000000000E+00 0. -1.
          6    2    1    2  501    0 -0.27057710393E+02  0.19878011711E+03 -0.49087676236E+03  0.55704238679E+03  0.17055957965E+03 0.  0.
         24    2    3    3    0    0  0.24466821802E+02  0.54758140993E+02 -0.11967507988E+03  0.15553287745E+03  0.79191362208E+02 0.  0.
         -6    2    1    2    0  502  0.27057710393E+02 -0.19878011711E+03 -0.61471541071E+03  0.66914899363E+03  0.17216179847E+03 0.  0.
        -24    2    5    5    0    0 -0.32571213910E+02 -0.48575711765E+02 -0.27390142699E+03  0.29193124020E+03  0.82349095610E+02 0.  0.
          5    1    3    3  501    0 -0.51524532195E+02  0.14402197612E+03 -0.37120168247E+03  0.40150950934E+03  0.47000000000E+01 0. -1.
        -11    1    4    4    0    0  0.45849842938E+02  0.14529246902E+02 -0.87198509600E+02  0.99583568873E+02  0.00000000000E+00 0.  1.
         12    1    4    4    0    0 -0.21383021136E+02  0.40228894092E+02 -0.32476570283E+02  0.55949308576E+02  0.00000000000E+00 0. -1.
         -5    1    5    5    0  502  0.59628924303E+02 -0.15020440535E+03 -0.34081398373E+03  0.37721775343E+03  0.47000000000E+01 0.  1.
         11    1    6    6    0    0  0.26664603142E+02 -0.11672941747E+02 -0.11008078776E+03  0.11386412281E+03  0.00000000000E+00 0. -1.
        -12    1    6    6    0    0 -0.59235817052E+02 -0.36902770019E+02 -0.16382063923E+03  0.17806711738E+03  0.00000000000E+00 0.  1.
</event>
<event>
12    1  0.8724767E-002  0.3149388E+03  0.7818608E-02  0.1078041E+00
         21   -1    0    0  501  502  0.00000000000E+00  0.00000000000E+00  0.58197372489E+03  0.58197372489E+03  0.00000000000E+00 0.  1.
         21   -1    0    0  502  503 -0.00000000000E+00 -0.00000000000E+00 -0.34890313677E+03  0.34890313677E+03  0.00000000000E+00 0. -1.
         -6    2    1    2    0  503  0.14715952552E+03 -0.21952665911E+03 -0.21648749265E+03  0.38216917230E+03  0.17128503079E+03 0.  0.
        -24    2    3    3    0    0  0.86922207261E+02 -0.40226845252E+02 -0.69432096654E+02  0.14253541580E+03  0.79510122113E+02 0.  0.
          6    2    1    2  501    0 -0.14715952552E+03  0.21952665911E+03  0.44955808077E+03  0.54870768935E+03  0.17067448655E+03 0.  0.
         24    2    5    5    0    0 -0.15834528040E+03  0.12092946165E+03  0.28222809720E+03  0.35411081923E+03  0.77747095954E+02 0.  0.
          5    1    5    5  501    0  0.11185754881E+02  0.98597197459E+02  0.16732998357E+03  0.19459687012E+03  0.47000000000E+01 0. -1.
        -13    1    6    6    0    0 -0.90770060782E+02  0.23410095554E+02  0.10408351062E+03  0.14007360098E+03  0.00000000000E+00 0.  1.
         14    1    6    6    0    0 -0.67575219614E+02  0.97519366098E+02  0.17814458658E+03  0.21403721825E+03  0.00000000000E+00 0. -1.
         -5    1    3    3    0  503  0.60237318254E+02 -0.17929981386E+03 -0.14705539600E+03  0.23963375650E+03  0.47000000000E+01 0.  1.
         13    1    4    4    0    0  0.54895306997E+02 -0.63722365536E+02 -0.53839379397E+02  0.99863473671E+02  0.00000000000E+00 0. -1.
        -14    1    4    4    0    0  0.32026900264E+02  0.23495520283E+02 -0.15592717257E+02  0.42671942133E+02  0.00000000000E+00 0.  1.
</event>
<event>
12    1  0.8724767E-002  0.1911726E+03  0.7818608E-02  0.1158048E+00
         21   -1    0    0  503  502  0.00000000000E+00  0.00000000000E+00  0.19961717633E+02  0.19961717633E+02  0.00000000000E+00 0. -1.
         21   -1    0    0  501  503 -0.00000000000E+00 -0.00000000000E+00 -0.25833014590E+04  0.25833014590E+04  0.00000000000E+00 0. -1.
          6    2    1    2  501    0  0.52072222163E+02 -0.59866206043E+02 -0.19899852756E+04  0.19988772756E+04  0.17080247813E+03 0.  0.
         24    2    3    3    0    0 -0.58997515938E+01 -0.95819344863E+01 -0.44109466073E+03  0.44807958254E+03  0.78001230952E+02 0.  0.
         -6    2    1    2    0  502 -0.52072222163E+02  0.59866206043E+02 -0.57335446569E+03  0.60438590104E+03  0.17392956936E+03 0.  0.
        -24    2    5    5    0    0 -0.84487577562E+02  0.86614609250E+02 -0.49495531386E+03  0.51530869100E+03  0.76954811465E+02 0.  0.
          5    1    3    3  501    0  0.57971973757E+02 -0.50284271557E+02 -0.15488906149E+04  0.15507976930E+04  0.47000000000E+01 0. -1.
        -11    1    4    4    0    0  0.35920667557E+02 -0.61893217213E+01 -0.18269763056E+03  0.18629821865E+03  0.00000000000E+00 0.  1.
         12    1    4    4    0    0 -0.41820419151E+02 -0.33926127650E+01 -0.25839703017E+03  0.26178136389E+03  0.00000000000E+00 0. -1.
         -5    1    5    5    0  502  0.32415355398E+02 -0.26748403207E+02 -0.78399151837E+02  0.89077210040E+02  0.47000000000E+01 0.  1.
         11    1    6    6    0    0 -0.37530379675E+02  0.17029798136E+01 -0.70299752098E+02  0.79708749105E+02  0.00000000000E+00 0. -1.
        -12    1    6    6    0    0 -0.46957197887E+02  0.84911629437E+02 -0.42465556176E+03  0.43559994190E+03  0.00000000000E+00 0.  1.
</event>
<event>
12    1  0.8724767E-002  0.1895384E+03  0.7818608E-02  0.1158915E+00
         21   -1    0    0  501  502  0.00000000000E+00  0.00000000000E+00  0.42472239867E+02  0.42472239867E+02  0.00000000000E+00 0.  1.
         21   -1    0    0  502  503 -0.00000000000E+00 -0.00000000000E+00 -0.85586646834E+03  0.85586646834E+03  0.00000000000E+00 0. -1.
         -6    2    1    2    0  503 -0.62729108803E+02 -0.48099309876E+02 -0.45721769967E+03  0.49494729532E+03  0.17226815014E+03 0.  0.
        -24    2    3    3    0    0 -0.84997415173E+02  0.31625847679E+01 -0.18816454734E+03  0.22011034713E+03  0.76210927763E+02 0.  0.
          6    2    1    2  501    0  0.62729108803E+02  0.48099309876E+02 -0.35617652881E+03  0.40339141289E+03  0.17208842965E+03 0.  0.
         24    2    5    5    0    0  0.15729326252E+02 -0.17478162043E+02 -0.79033640054E+02  0.11470532876E+03  0.79737684524E+02 0.  0.
          5    1    5    5  501    0  0.46999782550E+02  0.65577471919E+02 -0.27714288875E+03  0.28868608413E+03  0.47000000000E+01 0. -1.
        -11    1    6    6    0    0  0.37589414523E+02 -0.15362707689E+02 -0.82987598250E+02  0.92390033743E+02  0.00000000000E+00 0.  1.
         12    1    6    6    0    0 -0.21860088271E+02 -0.21154543544E+01  0.39539581956E+01  0.22315295019E+02  0.00000000000E+00 0. -1.
         -5    1    3    3    0  503  0.22268306371E+02 -0.51261894644E+02 -0.26905315233E+03  0.27483694819E+03  0.47000000000E+01 0.  1.
         11    1    4    4    0    0 -0.45292396029E+02 -0.64285285259E+01 -0.16883099414E+03  0.17491892893E+03  0.00000000000E+00 0. -1.
        -12    1    4    4    0    0 -0.39705019144E+02  0.95911132938E+01 -0.19333553201E+02  0.45191418199E+02  0.00000000000E+00 0.  1.
</event>
<event>
12    1  0.8724767E-002  0.1718513E+03  0.7818608E-02  0.1175934E+00
         21   -1    0    0  501  502  0.00000000000E+00  0.00000000000E+00  0.81284403481E+02  0.81284403481E+02  0.00000000000E+00 0. -1.
         21   -1    0    0  502  503 -0.00000000000E+00 -0.00000000000E+00 -0.36468223341E+03  0.36468223341E+03  0.00000000000E+00 0. -1.
         -6    2    1    2    0  503  0.14225668697E+02  0.31149574781E+01 -0.12799595730E+03  0.21427153779E+03  0.17122282036E+03 0.  0.
        -24    2    3    3    0    0 -0.31283299356E+02  0.56433842027E+02 -0.80354335411E+02  0.12938464977E+03  0.78231355806E+02 0.  0.
          6    2    1    2  501    0 -0.14225668697E+02 -0.31149574781E+01 -0.15540187263E+03  0.23169509909E+03  0.17123318697E+03 0.  0.
         24    2    5    5    0    0 -0.33336513386E+02  0.40206585856E+02 -0.15716779260E+03  0.18408009122E+03  0.80348442939E+02 0.  0.
          5    1    5    5  501    0  0.19110844688E+02 -0.43321543334E+02  0.17659199701E+01  0.47615007875E+02  0.47000000000E+01 0. -1.
        -11    1    6    6    0    0 -0.24065803420E+02 -0.65119722707E+01 -0.12290255361E+03  0.12540576685E+03  0.00000000000E+00 0.  1.
         12    1    6    6    0    0 -0.92707099653E+01  0.46718558127E+02 -0.34265238990E+02  0.58674324366E+02  0.00000000000E+00 0. -1.
         -5    1    3    3    0  503  0.45508968053E+02 -0.53318884549E+02 -0.47641621886E+02  0.84886888025E+02  0.47000000000E+01 0.  1.
         11    1    4    4    0    0  0.96687058395E+01  0.59478217357E+02 -0.50359801274E+02  0.78531852117E+02  0.00000000000E+00 0. -1.
        -12    1    4    4    0    0 -0.40952005195E+02 -0.30443753298E+01 -0.29994534137E+02  0.50852797649E+02  0.00000000000E+00 0.  1.
</event>
<event>
12    1  0.8724767E-002  0.1811159E+03  0.7818608E-02  0.1167078E+00
         21   -1    0    0  503  502  0.00000000000E+00  0.00000000000E+00  0.32681731330E+02  0.32681731330E+02  0.00000000000E+00 0.  1.
         21   -1    0    0  501  503 -0.00000000000E+00 -0.00000000000E+00 -0.11176252908E+04  0.11176252908E+04  0.00000000000E+00 0. -1.
          6    2    1    2  501    0 -0.52621083373E+02  0.87387625655E+01 -0.35053921483E+03  0.39389926470E+03  0.17156207394E+03 0.  0.
         24    2    3    3    0    0 -0.85362395738E+02  0.49499005031E+02 -0.26260000235E+03  0.29148449041E+03  0.79167902663E+02 0.  0.
         -6    2    1    2    0  502  0.52621083373E+02 -0.87387625655E+01 -0.73440434459E+03  0.75640775738E+03  0.17308266719E+03 0.  0.
        -24    2    5    5    0    0  0.19144303211E+02 -0.18702920716E+02 -0.15803021922E+03  0.17895715200E+03  0.79597791899E+02 0.  0.
          5    1    3    3  501    0  0.32741312365E+02 -0.40760242465E+02 -0.87939212478E+02  0.10241477429E+03  0.47000000000E+01 0. -1.
        -13    1    4    4    0    0 -0.80841419666E+02  0.17087997858E+02 -0.23351507539E+03  0.24770269526E+03  0.00000000000E+00 0.  1.
         14    1    4    4    0    0 -0.45209760723E+01  0.32411007172E+02 -0.29084926958E+02  0.43781795152E+02  0.00000000000E+00 0. -1.
         -5    1    5    5    0  502  0.33476780162E+02  0.99641581506E+01 -0.57637412538E+03  0.57745060539E+03  0.47000000000E+01 0.  1.
         13    1    6    6    0    0 -0.28856465946E+02 -0.15657323285E+02 -0.88665870629E+02  0.94548844592E+02  0.00000000000E+00 0. -1.
        -14    1    6    6    0    0  0.48000769157E+02 -0.30455974309E+01 -0.69364348591E+02  0.84408307404E+02  0.00000000000E+00 0.  1.
</event>
<event>
12    1  0.8724767E-002  0.1766349E+03  0.7818608E-02  0.1171596E+00
         21   -1    0    0  501  502  0.00000000000E+00  0.00000000000E+00  0.50824874439E+03  0.50824874439E+03  0.00000000000E+00 0. -1.
         21   -1    0    0  502  503 -0.00000000000E+00 -0.00000000000E+00 -0.67836448157E+02  0.67836448157E+02  0.00000000000E+00 0. -1.
         -6    2    1    2    0  503 -0.30377846983E+02  0.17426292042E+02  0.31475483522E+03  0.36093003755E+03  0.17312826596E+03 0.  0.
        -24    2    3    3    0    0 -0.19244157170E+02 -0.59317582477E+02  0.14409423934E+03  0.17341814377E+03  0.73632802482E+02 0.  0.
          6    2    1    2  501    0  0.30377846983E+02 -0.17426292042E+02  0.12565746102E+03  0.21515515499E+03  0.17110071294E+03 0.  0.
         24    2    5    5    0    0  0.15962647918E+02  0.17361820040E+02  0.14901806371E+03  0.17059263190E+03  0.79619242804E+02 0.  0.
          5    1    5    5  501    0  0.14415199065E+02 -0.34788112082E+02 -0.23360602690E+02  0.44562523092E+02  0.47000000000E+01 0. -1.
        -11    1    6    6    0    0  0.35186671036E+02  0.35040858585E+02  0.60329236695E+02  0.78138213374E+02  0.00000000000E+00 0.  1.
         12    1    6    6    0    0 -0.19224023118E+02 -0.17679038545E+02  0.88688827010E+02  0.92454418527E+02  0.00000000000E+00 0. -1.
         -5    1    3    3    0  503 -0.11133689814E+02  0.76743874519E+02  0.17066059587E+03  0.18751189378E+03  0.47000000000E+01 0.  1.
         11    1    4    4    0    0  0.52612262124E+00 -0.25923996616E+02  0.12931983939E+03  0.13189371200E+03  0.00000000000E+00 0. -1.
        -12    1    4    4    0    0 -0.19770279791E+02 -0.33393585862E+02  0.14774399948E+02  0.41524431767E+02  0.00000000000E+00 0.  1.
</event>
<event>
12    1  0.8724767E-002  0.2415358E+03  0.7818608E-02  0.1118887E+00
         21   -1    0    0  501  502  0.00000000000E+00  0.00000000000E+00  0.30445346125E+03  0.30445346125E+03  0.00000000000E+00 0.  1.
         21   -1    0    0  502  503 -0.00000000000E+00 -0.00000000000E+00 -0.23600770487E+03  0.23600770487E+03  0.00000000000E+00 0.  1.
         -6    2    1    2    0  503  0.12958205450E+03 -0.10808563840E+03 -0.83721113964E+02  0.25498909774E+03  0.17186099315E+03 0.  0.
        -24    2    3    3    0    0  0.84297304867E+02 -0.10582386759E+03  0.21387739745E+01  0.15777883844E+03  0.81147156119E+02 0.  0.
          6    2    1    2  501    0 -0.12958205450E+03  0.10808563840E+03  0.15216687034E+03  0.28547206838E+03  0.17281646716E+03 0.  0.
         24    2    5    5    0    0 -0.48549955110E+02 -0.13733833468E+02  0.64373991446E+02  0.11477975912E+03  0.80527423933E+02 0.  0.
          5    1    5    5  501    0 -0.81032099385E+02  0.12181947187E+03  0.87792878895E+02  0.17069230927E+03  0.47000000000E+01 0. -1.
        -11    1    6    6    0    0 -0.66741820250E+02  0.46700002837E+00  0.29525869545E+02  0.72982639248E+02  0.00000000000E+00 0.  1.
         12    1    6    6    0    0  0.18191865139E+02 -0.14200833496E+02  0.34848121902E+02  0.41797119869E+02  0.00000000000E+00 0. -1.
         -5    1    3    3    0  503  0.45284749628E+02 -0.22617708180E+01 -0.85859887939E+02  0.97210259299E+02  0.47000000000E+01 0.  1.
         13    1    4    4    0    0 -0.16315210531E+02 -0.16827619536E+02  0.51787879853E+00  0.23444041298E+02  0.00000000000E+00 0. -1.
        -14    1    4    4    0    0  0.10061251540E+03 -0.88996248050E+02  0.16208951760E+01  0.13433479714E+03  0.00000000000E+00 0.  1.
</event>
<event>
12    1  0.8724767E-002  0.2287650E+03  0.7818608E-02  0.1127559E+00
         21   -1    0    0  503  502  0.00000000000E+00  0.00000000000E+00  0.42729328372E+03  0.42729328372E+03  0.00000000000E+00 0.  1.
         21   -1    0    0  501  503 -0.00000000000E+00 -0.00000000000E+00 -0.12629517787E+03  0.12629517787E+03  0.00000000000E+00 0.  1.
          6    2    1    2  501    0 -0.13099655980E+03  0.74550898159E+02  0.10156412267E+03  0.25029726110E+03  0.17209158261E+03 0.  0.
         24    2    3    3    0    0 -0.81279245937E+02  0.11807532585E+03  0.80941797282E+02  0.18091745562E+03  0.75043006386E+02 0.  0.
         -6    2    1    2    0  502  0.13099655980E+03 -0.74550898159E+02  0.19943398318E+03  0.30329120049E+03  0.17173730972E+03 0.  0.
        -24    2    5    5    0    0  0.93803892099E+02  0.21431713910E+02  0.10603302179E+03  0.16421645102E+03  0.80408659624E+02 0.  0.
          5    1    3    3  501    0 -0.49717313863E+02 -0.43524427692E+02  0.20622325390E+02  0.69379805478E+02  0.47000000000E+01 0. -1.
        -13    1    4    4    0    0 -0.29377518516E+02 -0.67745624718E+00  0.29033601015E+02  0.41309170035E+02  0.00000000000E+00 0.  1.
         14    1    4    4    0    0 -0.51901727422E+02  0.11875278210E+03  0.51908196267E+02  0.13960828559E+03  0.00000000000E+00 0. -1.
         -5    1    5    5    0  502  0.37192667702E+02 -0.95982612069E+02  0.93400961388E+02  0.13907474946E+03  0.47000000000E+01 0.  1.
         13    1    6    6    0    0 -0.53385628324E+01  0.17339329510E+02 -0.11189138496E+01  0.18177034114E+02  0.00000000000E+00 0. -1.
        -14    1    6    6    0    0  0.99142454931E+02  0.40923844002E+01  0.10715193564E+03  0.14603941691E+03  0.00000000000E+00 0.  1.
</event>
<event>
12    1  0.8724767E-002  0.2265024E+03  0.7818608E-02  0.1129127E+00
         21   -1    0    0  503  502  0.00000000000E+00  0.00000000000E+00  0.55671227623E+02  0.55671227623E+02  0.00000000000E+00 0.  1.
         21   -1    0    0  501  503 -0.00000000000E+00 -0.00000000000E+00 -0.96859497553E+03  0.96859497553E+03  0.00000000000E+00 0.  1.
          6    2    1    2  501    0  0.13501640356E+03 -0.58504723404E+02 -0.34357069224E+03  0.41151448386E+03  0.17219499984E+03 0.  0.
         24    2    3    3    0    0  0.96215259137E+02  0.17454410036E+02 -0.12841560437E+03  0.18002124293E+03  0.79718554547E+02 0.  0.
         -6    2    1    2    0  502 -0.13501640356E+03  0.58504723404E+02 -0.56935305567E+03  0.61275171929E+03  0.17219040509E+03 0.  0.
        -24    2    5    5    0    0 -0.60120899619E+02 -0.63141022954E+01 -0.14180117133E+03  0.17385136559E+03  0.80388647637E+02 0.  0.
          5    1    3    3  501    0  0.38801144428E+02 -0.75959133440E+02 -0.21515508787E+03  0.23149324093E+03  0.47000000000E+01 0. -1.
        -11    1    4    4    0    0  0.14235348828E+02  0.38585094835E+02 -0.35599621396E+02  0.54394740032E+02  0.00000000000E+00 0.  1.
         12    1    4    4    0    0  0.81979910309E+02 -0.21130684798E+02 -0.92815982971E+02  0.12562650289E+03  0.00000000000E+00 0. -1.
         -5    1    5    5    0  502 -0.74895503946E+02  0.64818825699E+02 -0.42755188434E+03  0.43890035370E+03  0.47000000000E+01 0.  1.
         11    1    6    6    0    0 -0.64943022947E-02  0.20202460843E+02 -0.31847508967E+01  0.20451946229E+02  0.00000000000E+00 0. -1.
        -12    1    6    6    0    0 -0.60114405317E+02 -0.26516563138E+02 -0.13861642043E+03  0.15339941936E+03  0.00000000000E+00 0.  1.
</event>
<event>
12    1  0.8724767E-002  0.2758693E+03  0.7818608E-02  0.1098294E+00
         21   -1    0    0  503  502  0.00000000000E+00  0.00000000000E+00  0.23439540990E+03  0.23439540990E+03  0.00000000000E+00 0.  1.
         21   -1    0    0  501  503 -0.00000000000E+00 -0.00000000000E+00 -0.44036820878E+03  0.44036820878E+03  0.00000000000E+00 0.  1.
          6    2    1    2  501    0  0.11916790803E+03 -0.17603199211E+03 -0.27827365021E+03  0.39184194057E+03  0.17582840907E+03 0.  0.
         24    2    3    3    0    0  0.66785874271E+02 -0.19345212899E+03 -0.24054012687E+03  0.32481025095E+03  0.75881929824E+02 0.  0.
         -6    2    1    2    0  502 -0.11916790803E+03  0.17603199211E+03  0.72300851332E+02  0.28292167811E+03  0.17213079415E+03 0.  0.
        -24    2    5    5    0    0 -0.90210403567E+02  0.89651093238E+02 -0.22039334938E+02  0.15168769814E+03  0.79675529822E+02 0.  0.
          5    1    3    3  501    0  0.52382033754E+02  0.17420136884E+02 -0.37733523339E+02  0.67031689617E+02  0.47000000000E+01 0. -1.
        -11    1    4    4    0    0  0.60228667822E+02 -0.12507323029E+03 -0.20469582338E+03  0.24732809277E+03  0.00000000000E+00 0.  1.
         12    1    4    4    0    0  0.65572064486E+01 -0.68378898698E+02 -0.35844303489E+02  0.77482158179E+02  0.00000000000E+00 0. -1.
         -5    1    5    5    0  502 -0.28957504459E+02  0.86380898869E+02  0.94340186270E+02  0.13123397997E+03  0.47000000000E+01 0.  1.
         13    1    6    6    0    0 -0.40636308605E+02 -0.44616115932E+01 -0.19483450544E+02  0.45285984588E+02  0.00000000000E+00 0. -1.
        -14    1    6    6    0    0 -0.49574094962E+02  0.94112704831E+02 -0.25558843938E+01  0.10640171355E+03  0.00000000000E+00 0.  1.
</event>
<event>
12    1  0.8724767E-002  0.2263405E+03  0.7818608E-02  0.1129271E+00
         21   -1    0    0  503  502  0.00000000000E+00  0.00000000000E+00  0.16813245096E+03  0.16813245096E+03  0.00000000000E+00 0.  1.
         21   -1    0    0  501  503 -0.00000000000E+00 -0.00000000000E+00 -0.36135934787E+03  0.36135934787E+03  0.00000000000E+00 0. -1.
          6    2    1    2  501    0 -0.13949986517E+03 -0.48454792712E+02 -0.20166986333E+03  0.30315138256E+03  0.17152827071E+03 0.  0.
         24    2    3    3    0    0 -0.10922325250E+03  0.33140263356E+02 -0.11920884293E+03  0.18316664880E+03  0.79443546355E+02 0.  0.
         -6    2    1    2    0  502  0.13949986517E+03  0.48454792712E+02  0.84429664242E+01  0.22634041627E+03  0.17132022950E+03 0.  0.
        -24    2    5    5    0    0  0.13145577104E+03  0.66369365257E+02 -0.41241831531E+02  0.17270918929E+03  0.80262463280E+02 0.  0.
          5    1    3    3  501    0 -0.30276612668E+02 -0.81595056068E+02 -0.82461020401E+02  0.11998473376E+03  0.47000000000E+01 0. -1.
        -13    1    4    4    0    0 -0.49855380048E+02 -0.46137621908E+01 -0.67612467229E+01  0.50522867877E+02  0.00000000000E+00 0.  1.
         14    1    4    4    0    0 -0.59367872451E+02  0.37754025547E+02 -0.11244759621E+03  0.13264378092E+03  0.00000000000E+00 0. -1.
         -5    1    5    5    0  502  0.80440941289E+01 -0.17914572545E+02  0.49684797955E+02  0.53631226983E+02  0.47000000000E+01 0.  1.
         13    1    6    6    0    0  0.90884409005E+02  0.77462693910E+02 -0.90809911976E+01  0.11976188521E+03  0.00000000000E+00 0. -1.
        -14    1    6    6    0    0  0.40571362033E+02 -0.11093328653E+02 -0.32160840334E+02  0.52947304075E+02  0.00000000000E+00 0.  1.
</event>
<event>
12    1  0.8724767E-002  0.2104874E+03  0.7818608E-02  0.1141289E+00
         21   -1    0    0  501  502  0.00000000000E+00  0.00000000000E+00  0.64655084414E+03  0.64655084414E+03  0.00000000000E+00 0.  1.
         21   -1    0    0  502  503 -0.00000000000E+00 -0.00000000000E+00 -0.99058520924E+02  0.99058520924E+02  0.00000000000E+00 0. -1.
         -6    2    1    2    0  503  0.49218608280E+01 -0.12179762563E+03  0.66411180976E+02  0.22071559314E+03  0.17159849001E+03 0.  0.
        -24    2    3    3    0    0 -0.40812656015E+02 -0.13541456964E+03  0.43745125458E+02  0.16767874493E+03  0.78738471779E+02 0.  0.
          6    2    1    2  501    0 -0.49218608280E+01  0.12179762563E+03  0.48108114224E+03  0.52489377193E+03  0.17092548102E+03 0.  0.
         24    2    5    5    0    0  0.50748873119E+02  0.10645192269E+03  0.40584992058E+03  0.42993826693E+03  0.78900540964E+02 0.  0.
          5    1    5    5  501    0 -0.55670733947E+02  0.15345702940E+02  0.75231221659E+02  0.94955504997E+02  0.47000000000E+01 0. -1.
        -11    1    6    6    0    0 -0.12011177282E+02  0.63709116697E+02  0.21411756878E+03  0.22371735111E+03  0.00000000000E+00 0.  1.
         12    1    6    6    0    0  0.62760050401E+02  0.42742805994E+02  0.19173235181E+03  0.20622091582E+03  0.00000000000E+00 0. -1.
         -5    1    3    3    0  503  0.45734516843E+02  0.13616944013E+02  0.22666055518E+02  0.53036848208E+02  0.47000000000E+01 0.  1.
         11    1    4    4    0    0 -0.15192196213E+02 -0.13448429406E+02 -0.19308011994E+02  0.28008256040E+02  0.00000000000E+00 0. -1.
        -12    1    4    4    0    0 -0.25620459802E+02 -0.12196614024E+03  0.63053137451E+02  0.13967048889E+03  0.00000000000E+00 0.  1.
</event>
<event>
12    1  0.8724767E-002  0.2119401E+03  0.7818608E-02  0.1140631E+00
         21   -1    0    0  503  502  0.00000000000E+00  0.00000000000E+00  0.13772655190E+03  0.13772655190E+03  0.00000000000E+00 0.  1.
         21   -1    0    0  501  503 -0.00000000000E+00 -0.00000000000E+00 -0.35402169666E+03  0.35402169666E+03  0.00000000000E+00 0. -1.
          6    2    1    2  501    0  0.10425816790E+03  0.63082680401E+02 -0.18332962622E+03  0.28022911178E+03  0.17340534334E+03 0.  0.
         24    2    3    3    0    0  0.13942693372E+03  0.33436151861E+02 -0.13381085921E+03  0.21247989016E+03  0.81758862415E+02 0.  0.
         -6    2    1    2    0  502 -0.10425816790E+03 -0.63082680401E+02 -0.32965518547E+02  0.21151913678E+03  0.16971867803E+03 0.  0.
        -24    2    5    5    0    0 -0.46293134713E+02  0.32221946585E+02 -0.19021505497E+02  0.99004948799E+02  0.79112919628E+02 0.  0.
          5    1    3    3  501    0 -0.35168765822E+02  0.29646528540E+02 -0.49518767011E+02  0.67749221620E+02  0.47000000000E+01 0. -1.
        -11    1    4    4    0    0  0.12103419118E+03 -0.53129085714E+01 -0.10876190324E+03  0.16280864237E+03  0.00000000000E+00 0.  1.
         12    1    4    4    0    0  0.18392742538E+02  0.38749060433E+02 -0.25048955963E+02  0.49671247793E+02  0.00000000000E+00 0. -1.
         -5    1    5    5    0  502 -0.57965033184E+02 -0.95304626987E+02 -0.13944013050E+02  0.11251418798E+03  0.47000000000E+01 0.  1.
         11    1    6    6    0    0 -0.22634592444E+02 -0.25281762700E+02 -0.13708311263E+02  0.36597952101E+02  0.00000000000E+00 0. -1.
        -12    1    6    6    0    0 -0.23658542269E+02  0.57503709286E+02 -0.53131942347E+01  0.62406996698E+02  0.00000000000E+00 0.  1.
</event>
<event>
12    1  0.8724767E-002  0.2491781E+03  0.7818608E-02  0.1114361E+00
         21   -1    0    0  501  502  0.00000000000E+00  0.00000000000E+00  0.63812492193E+02  0.63812492193E+02  0.00000000000E+00 0. -1.
         21   -1    0    0  502  503 -0.00000000000E+00 -0.00000000000E+00 -0.96090229445E+03  0.96090229445E+03  0.00000000000E+00 0.  1.
         -6    2    1    2    0  503 -0.33210317246E+02 -0.17224816533E+03 -0.46761880866E+03  0.52986515908E+03  0.17696717480E+03 0.  0.
        -24    2    3    3    0    0 -0.65587996853E+02 -0.14013295726E+03 -0.23320539584E+03  0.29101072886E+03  0.79771276900E+02 0.  0.
          6    2    1    2  501    0  0.33210317246E+02  0.17224816533E+03 -0.42947099359E+03  0.49484962756E+03  0.17221632888E+03 0.  0.
         24    2    5    5    0    0 -0.42745261692E+02  0.52935078583E+02 -0.19097688748E+03  0.21752961153E+03  0.78852269473E+02 0.  0.
          5    1    5    5  501    0  0.75955578938E+02  0.11931308675E+03 -0.23849410611E+03  0.27732001603E+03  0.47000000000E+01 0. -1.
        -13    1    6    6    0    0 -0.41820763961E+02 -0.19167937274E+01 -0.12443801023E+03  0.13129154118E+03  0.00000000000E+00 0.  1.
         14    1    6    6    0    0 -0.92449773055E+00  0.54851872310E+02 -0.66538877250E+02  0.86238070350E+02  0.00000000000E+00 0. -1.
         -5    1    3    3    0  503  0.32377679607E+02 -0.32115208073E+02 -0.23441341282E+03  0.23885443022E+03  0.47000000000E+01 0.  1.
         11    1    4    4    0    0 -0.27771782901E+02 -0.12377125984E+03 -0.20502048462E+03  0.24108918640E+03  0.00000000000E+00 0. -1.
        -12    1    4    4    0    0 -0.37816213952E+02 -0.16361697413E+02 -0.28184911227E+02  0.49921542452E+02  0.00000000000E+00 0.  1.
</event>
<event>
12    1  0.8724767E-002  0.1935090E+03  0.7818608E-02  0.1155523E+00
         21   -1    0    0  501  502  0.00000000000E+00  0.00000000000E+00  0.62157159768E+02  0.62157159768E+02  0.00000000000E+00 0. -1.
         21   -1    0    0  502  503 -0.00000000000E+00 -0.00000000000E+00 -0.98768787025E+03  0.98768787025E+03  0.00000000000E+00 0. -1.
         -6    2    1    2    0  503 -0.51663253067E+01 -0.88113681107E+02 -0.79110944924E+03  0.81422918887E+03  0.17124339292E+03 0.  0.
        -24    2    3    3    0    0 -0.21799001924E+02 -0.10897182176E+03 -0.76307870484E+03  0.77524816022E+03  0.79815698452E+02 0.  0.
          6    2    1    2  501    0  0.51663253067E+01  0.88113681107E+02 -0.13442126124E+03  0.23561584114E+03  0.17220638028E+03 0.  0.
         24    2    5    5    0    0 -0.62985672158E+02  0.56031572874E+02 -0.63464525037E+02  0.13202576035E+03  0.79349375554E+02 0.  0.
          5    1    5    5  501    0  0.68151997465E+02  0.32082108232E+02 -0.70956736200E+02  0.10359008080E+03  0.47000000000E+01 0. -1.
        -13    1    6    6    0    0 -0.13258709519E+01 -0.18567525991E+02 -0.64665927607E+01  0.19706034028E+02  0.00000000000E+00 0.  1.
         14    1    6    6    0    0 -0.61659801206E+02  0.74599098865E+02 -0.56997932276E+02  0.11231972632E+03  0.00000000000E+00 0. -1.
         -5    1    3    3    0  503  0.16632676618E+02  0.20858140657E+02 -0.28030744398E+02  0.38981028650E+02  0.47000000000E+01 0.  1.
         13    1    4    4    0    0 -0.24752647049E+02  0.28905852651E+01 -0.14013173945E+03  0.14233043743E+03  0.00000000000E+00 0. -1.
        -14    1    4    4    0    0  0.29536451244E+01 -0.11186240703E+03 -0.62294696540E+03  0.63291772279E+03  0.00000000000E+00 0.  1.
</event>
<event>
12    1  0.8724767E-002  0.3133659E+03  0.7818608E-02  0.1079717E+00
         21   -1    0    0  503  502  0.00000000000E+00  0.00000000000E+00  0.23680535229E+03  0.23680535229E+03  0.00000000000E+00 0.  1.
         21   -1    0    0  501  503 -0.00000000000E+00 -0.00000000000E+00 -0.54815831465E+03  0.54815831465E+03  0.00000000000E+00 0. -1.
          6    2    1    2  501    0 -0.97076020176E+02  0.24220637149E+03 -0.35844481262E+03  0.47611017055E+03  0.17352386212E+03 0.  0.
         24    2    3    3    0    0 -0.10964589012E+03  0.18532622115E+03 -0.19197271858E+03  0.29967774375E+03  0.81149220292E+02 0.  0.
         -6    2    1    2    0  502  0.97076020176E+02 -0.24220637149E+03  0.47091850264E+02  0.30885349638E+03  0.15838295295E+03 0.  0.
        -24    2    5    5    0    0  0.31084331047E+02 -0.11617626201E+03 -0.25371428431E+02  0.14913027237E+03  0.84456907752E+02 0.  0.
          5    1    3    3  501    0  0.12569869945E+02  0.56880150335E+02 -0.16647209404E+03  0.17643242680E+03  0.47000000000E+01 0. -1.
        -13    1    4    4    0    0 -0.10979813703E+03  0.11659614297E+03 -0.11973032295E+03  0.19996410099E+03  0.00000000000E+00 0.  1.
         14    1    4    4    0    0  0.15224691314E+00  0.68730078180E+02 -0.72242395634E+02  0.99713642761E+02  0.00000000000E+00 0. -1.
         -5    1    5    5    0  502  0.65991689130E+02 -0.12603010948E+03  0.72463278694E+02  0.15972322401E+03  0.47000000000E+01 0.  1.
         13    1    6    6    0    0 -0.11095187863E+02  0.93643441750E+01 -0.23935127370E+01  0.14714721838E+02  0.00000000000E+00 0. -1.
        -14    1    6    6    0    0  0.42179518910E+02 -0.12554060618E+03 -0.22977915694E+02  0.13441555054E+03  0.00000000000E+00 0.  1.
</event>
<event>
12    1  0.8724767E-002  0.1948315E+03  0.7818608E-02  0.1154343E+00
         21   -1    0    0  501  502  0.00000000000E+00  0.00000000000E+00  0.13126604169E+04  0.13126604169E+04  0.00000000000E+00 0.  1.
         21   -1    0    0  502  503 -0.00000000000E+00 -0.00000000000E+00 -0.37069393383E+02  0.37069393383E+02  0.00000000000E+00 0.  1.
         -6    2    1    2    0  503  0.21629731007E+00  0.89565151699E+02  0.31813061612E+03  0.37264755356E+03  0.17215442799E+03 0.  0.
        -24    2    3    3    0    0  0.26546749661E+02  0.12098643710E+03  0.27799736386E+03  0.31508577948E+03  0.81572460055E+02 0.  0.
          6    2    1    2  501    0 -0.21629731007E+00 -0.89565151699E+02  0.95746040740E+03  0.97708225672E+03  0.17302410667E+03 0.  0.
         24    2    5    5    0    0 -0.32401587106E+02 -0.12226905703E+03  0.67473937150E+03  0.69062333744E+03  0.75417435638E+02 0.  0.
          5    1    5    5  501    0  0.32185289796E+02  0.32703905333E+02  0.28272103589E+03  0.28645891929E+03  0.47000000000E+01 0. -1.
        -13    1    6    6    0    0 -0.45302900908E+02 -0.49228750018E+02  0.42038787626E+03  0.42567803462E+03  0.00000000000E+00 0.  1.
         14    1    6    6    0    0  0.12901313802E+02 -0.73040307014E+02  0.25435149525E+03  0.26494530281E+03  0.00000000000E+00 0. -1.
         -5    1    3    3    0  503 -0.26330452351E+02 -0.31421285405E+02  0.40133252256E+02  0.57561774071E+02  0.47000000000E+01 0.  1.
         13    1    4    4    0    0  0.32582772175E+02  0.10965838024E+02  0.99994215990E+02  0.10573897048E+03  0.00000000000E+00 0. -1.
        -14    1    4    4    0    0 -0.60360225133E+01  0.11002059908E+03  0.17800314787E+03  0.20934680901E+03  0.00000000000E+00 0.  1.
</event>
<event>
12    1  0.8724767E-002  0.1784640E+03  0.7818608E-02  0.1169901E+00
         21   -1    0    0  503  502  0.00000000000E+00  0.00000000000E+00  0.19438079078E+03  0.19438079078E+03  0.00000000000E+00 0. -1.
         21   -1    0    0  501  503 -0.00000000000E+00 -0.00000000000E+00 -0.20410010617E+03  0.20410010617E+03  0.00000000000E+00 0. -1.
          6    2    1    2  501    0  0.18957871049E+02 -0.24902546344E+02 -0.95736210951E+02  0.20036902300E+03  0.17321312190E+03 0.  0.
         24    2    3    3    0    0  0.62050493524E+02  0.29692441092E+02 -0.75366935299E+02  0.12774269061E+03  0.76851254145E+02 0.  0.
         -6    2    1    2    0  502 -0.18957871049E+02  0.24902546344E+02  0.86016895555E+02  0.19811187396E+03  0.17569823731E+03 0.  0.
        -24    2    5    5    0    0 -0.68853666636E+01 -0.44454448304E+02  0.65298831697E+02  0.12457639790E+03  0.96081919449E+02 0.  0.
          5    1    3    3  501    0 -0.43092622475E+02 -0.54594987437E+02 -0.20369275652E+02  0.72626332384E+02  0.47000000000E+01 0. -1.
        -13    1    4    4    0    0  0.73264611101E+02  0.31117012957E+02 -0.37061172973E+02  0.87803771430E+02  0.00000000000E+00 0.  1.
         14    1    4    4    0    0 -0.11214117577E+02 -0.14245718646E+01 -0.38305762326E+02  0.39938919181E+02  0.00000000000E+00 0. -1.
         -5    1    5    5    0  502 -0.12072504386E+02  0.69356994648E+02  0.20718063859E+02  0.73535476057E+02  0.47000000000E+01 0.  1.
         11    1    6    6    0    0 -0.32184635259E+01  0.29169354931E+02  0.32809968406E+02  0.44019357121E+02  0.00000000000E+00 0. -1.
        -12    1    6    6    0    0 -0.36669031377E+01 -0.73623803235E+02  0.32488863291E+02  0.80557040781E+02  0.00000000000E+00 0.  1.
</event>
<event>
12    1  0.8724767E-002  0.1964992E+03  0.7818608E-02  0.1156506E+00
         21   -1    0    0  501  502  0.00000000000E+00  0.00000000000E+00  0.12872679801E+04  0.12872679801E+04  0.00000000000E+00 0.  1.
         21   -1    0    0  502  503 -0.00000000000E+00 -0.00000000000E+00 -0.36328462786E+02  0.36328462786E+02  0.00000000000E+00 0.  1.
         -6    2    1    2    0  503 -0.19798616296E+02  0.45004277898E+02  0.93045564600E+03  0.94766844284E+03  0.17294622908E+03 0.  0.
        -24    2    3    3    0    0 -0.76437763653E+02  0.12470727382E+02  0.66603216023E+03  0.67525644834E+03  0.79838473250E+02 0.  0.
          6    2    1    2  501    0  0.19798616296E+02 -0.45004277898E+02  0.32048387136E+03  0.37592800008E+03  0.19024872985E+03 0.  0.
         24    2    5    5    0    0 -0.95232077422E+01  0.26946211456E+02  0.58478914935E+02  0.10260524312E+03  0.79317479957E+02 0.  0.
          5    1    5    5  501    0  0.29321824038E+02 -0.71950489355E+02  0.26200495642E+03  0.27332275696E+03  0.47000000000E+01 0. -1.
        -11    1    6    6    0    0 -0.42768352463E+02  0.45860984508E+01  0.21518972133E+02  0.48096054236E+02  0.00000000000E+00 0.  1.
         12    1    6    6    0    0  0.33245144721E+02  0.22360113006E+02  0.36959942802E+02  0.54509188887E+02  0.00000000000E+00 0. -1.
         -5    1    3    3    0  503  0.56639147358E+02  0.32533550517E+02  0.26442348576E+03  0.27241199450E+03  0.47000000000E+01 0.  1.
         13    1    4    4    0    0 -0.72068814809E+02  0.99469215093E+00  0.28321626333E+03  0.29224365741E+03  0.00000000000E+00 0. -1.
        -14    1    4    4    0    0 -0.43689488437E+01  0.11476035231E+02  0.38281589690E+03  0.38301279093E+03  0.00000000000E+00 0.  1.
</event>
<event>
12    1  0.8724767E-002  0.3725674E+03  0.7818608E-02  0.1053945E+00
         21   -1    0    0  503  502  0.00000000000E+00  0.00000000000E+00  0.20212796781E+03  0.20212796781E+03  0.00000000000E+00 0.  1.
         21   -1    0    0  501  503 -0.00000000000E+00 -0.00000000000E+00 -0.72083662979E+03  0.72083662979E+03  0.00000000000E+00 0. -1.
          6    2    1    2  501    0 -0.21303923420E+03 -0.24893252959E+03 -0.15183431531E+03  0.40008483370E+03  0.17222396830E+03 0.  0.
         24    2    3    3    0    0 -0.38776226903E+02 -0.13580316950E+03 -0.66818152790E+02  0.17555045835E+03  0.80044995254E+02 0.  0.
         -6    2    1    2    0  502  0.21303923420E+03  0.24893252959E+03 -0.36687434667E+03  0.52287976390E+03  0.17735089980E+03 0.  0.
        -24    2    5    5    0    0  0.22217450762E+03  0.18124058491E+03 -0.25275375997E+03  0.38979614018E+03  0.76465065664E+02 0.  0.
          5    1    3    3  501    0 -0.17426300729E+03 -0.11312936008E+03 -0.85016162517E+02  0.22453437535E+03  0.47000000000E+01 0. -1.
        -13    1    4    4    0    0 -0.22458729548E+00 -0.53795963734E+02  0.12379355128E+02  0.55202396569E+02  0.00000000000E+00 0.  1.
         14    1    4    4    0    0 -0.38551639608E+02 -0.82007205770E+02 -0.79197507918E+02  0.12034806178E+03  0.00000000000E+00 0. -1.
         -5    1    5    5    0  502 -0.91352734204E+01  0.67691944681E+02 -0.11412058669E+03  0.13308362372E+03  0.47000000000E+01 0.  1.
         11    1    6    6    0    0  0.14329142601E+03  0.69936611948E+02 -0.15104810103E+03  0.21963399392E+03  0.00000000000E+00 0. -1.
        -12    1    6    6    0    0  0.78883081608E+02  0.11130397296E+03 -0.10170565894E+03  0.17016214626E+03  0.00000000000E+00 0.  1.
</event>
<event>
12    1  0.8724767E-002  0.2101330E+03  0.7818608E-02  0.1141531E+00
         21   -1    0    0  501  502  0.00000000000E+00  0.00000000000E+00  0.15345890943E+03  0.15345890943E+03  0.00000000000E+00 0.  1.
         21   -1    0    0  502  503 -0.00000000000E+00 -0.00000000000E+00 -0.38302742053E+03  0.38302742053E+03  0.00000000000E+00 0. -1.
         -6    2    1    2    0  503  0.12130729506E+03 -0.30802997930E+01 -0.24899161127E+03  0.32581086459E+03  0.17155450714E+03 0.  0.
        -24    2    3    3    0    0  0.10900694389E+03 -0.46757697041E+02 -0.11243788075E+03  0.18183855827E+03  0.79713162002E+02 0.  0.
          6    2    1    2  501    0 -0.12130729506E+03  0.30802997930E+01  0.19423100178E+02  0.21067546536E+03  0.17111968562E+03 0.  0.
         24    2    5    5    0    0 -0.11292972007E+03  0.12549685522E+02 -0.44422173473E+02  0.14542087168E+03  0.79140913208E+02 0.  0.
          5    1    5    5  501    0 -0.83775749881E+01 -0.94693857289E+01  0.63845273652E+02  0.65254593681E+02  0.47000000000E+01 0. -1.
        -11    1    6    6    0    0 -0.21873642426E+02 -0.15513622045E+01  0.22593993310E+02  0.31485734728E+02  0.00000000000E+00 0.  1.
         12    1    6    6    0    0 -0.91056077644E+02  0.14101047726E+02 -0.67016166783E+02  0.11393513696E+03  0.00000000000E+00 0. -1.
         -5    1    3    3    0  503  0.12300351168E+02  0.43677397248E+02 -0.13655373052E+03  0.14397230632E+03  0.47000000000E+01 0.  1.
         13    1    4    4    0    0  0.61991887842E+02  0.15596132913E+02 -0.60778110652E+02  0.88205511475E+02  0.00000000000E+00 0. -1.
        -14    1    4    4    0    0  0.47015056048E+02 -0.62353829954E+02 -0.51659770099E+02  0.93633046793E+02  0.00000000000E+00 0.  1.
</event>
<event>
12    1  0.8724767E-002  0.1992549E+03  0.7818608E-02  0.1150713E+00
         21   -1    0    0  501  502  0.00000000000E+00  0.00000000000E+00  0.73068668816E+03  0.73068668816E+03  0.00000000000E+00 0. -1.
         21   -1    0    0  502  503 -0.00000000000E+00 -0.00000000000E+00 -0.64188061049E+02  0.64188061049E+02  0.00000000000E+00 0. -1.
         -6    2    1    2    0  503 -0.97434647912E+02 -0.16041361504E+02  0.17524475988E+03  0.26535492485E+03  0.17306552049E+03 0.  0.
        -24    2    3    3    0    0 -0.10410590606E+03  0.17350664226E+01  0.43168904423E+02  0.13183852634E+03  0.68387079090E+02 0.  0.
          6    2    1    2  501    0  0.97434647912E+02  0.16041361504E+02  0.49125386723E+03  0.52951982437E+03  0.17120177111E+03 0.  0.
         24    2    5    5    0    0  0.25107781502E+02 -0.19942049407E+02  0.10861750268E+03  0.13842052886E+03  0.79588911885E+02 0.  0.
          5    1    5    5  501    0  0.72326866409E+02  0.35983410911E+02  0.38263636456E+03  0.39109929551E+03  0.47000000000E+01 0. -1.
        -11    1    6    6    0    0  0.42687602163E+02  0.76477542409E+01  0.28533652809E+02  0.51912319020E+02  0.00000000000E+00 0.  1.
         12    1    6    6    0    0 -0.17579820661E+02 -0.27589803648E+02  0.80083849867E+02  0.86508209838E+02  0.00000000000E+00 0. -1.
         -5    1    3    3    0  503  0.66712581487E+01 -0.17776427927E+02  0.13207585546E+03  0.13351639851E+03  0.47000000000E+01 0.  1.
         13    1    4    4    0    0 -0.89503343712E+02 -0.20259137052E+02  0.50087253154E+02  0.10454670773E+03  0.00000000000E+00 0. -1.
        -14    1    4    4    0    0 -0.14602562349E+02  0.21994203475E+02 -0.69183487316E+01  0.27291818606E+02  0.00000000000E+00 0.  1.
</event>
<event>
12    1  0.8724767E-002  0.1921789E+03  0.7818608E-02  0.1156674E+00
         21   -1    0    0  501  502  0.00000000000E+00  0.00000000000E+00  0.93725978466E+02  0.93725978466E+02  0.00000000000E+00 0.  1.
         21   -1    0    0  502  503 -0.00000000000E+00 -0.00000000000E+00 -0.43365846457E+03  0.43365846457E+03  0.00000000000E+00 0.  1.
         -6    2    1    2    0  503 -0.26586418240E+02 -0.79962921085E+02 -0.25144786010E+03  0.31647866503E+03  0.17271888342E+03 0.  0.
        -24    2    3    3    0    0  0.43923760590E+02 -0.20952091626E+02 -0.16981683543E+03  0.19343526822E+03  0.78810903478E+02 0.  0.
          6    2    1    2  501    0  0.26586418240E+02  0.79962921085E+02 -0.88484626010E+02  0.21090577800E+03  0.17190349552E+03 0.  0.
         24    2    5    5    0    0  0.64195010819E+01  0.19640623558E+02 -0.11383970097E+03  0.14227303106E+03  0.82795976738E+02 0.  0.
          5    1    5    5  501    0  0.20166917158E+02  0.60322297527E+02  0.25355074956E+02  0.68632746941E+02  0.47000000000E+01 0. -1.
        -13    1    6    6    0    0  0.21219125814E+02  0.31094497450E+02 -0.13175013407E+02  0.39883581212E+02  0.00000000000E+00 0.  1.
         14    1    6    6    0    0 -0.14799624733E+02 -0.11453873893E+02 -0.10066468756E+03  0.10238944985E+03  0.00000000000E+00 0. -1.
         -5    1    3    3    0  503 -0.70510178829E+02 -0.59010829459E+02 -0.81631024665E+02  0.12304339681E+03  0.47000000000E+01 0.  1.
         11    1    4    4    0    0  0.31025285764E+02 -0.48293988279E+02 -0.78524827399E+02  0.97267806487E+02  0.00000000000E+00 0. -1.
        -12    1    4    4    0    0  0.12898474826E+02  0.27341896653E+02 -0.91292008033E+02  0.96167461733E+02  0.00000000000E+00 0.  1.
</event>
<event>
12    1  0.8724767E-002  0.2335008E+03  0.7818608E-02  0.1124306E+00
         21   -1    0    0  503  502  0.00000000000E+00  0.00000000000E+00  0.18829483766E+03  0.18829483766E+03  0.00000000000E+00 0. -1.
         21   -1    0    0  501  503 -0.00000000000E+00 -0.00000000000E+00 -0.38471428016E+03  0.38471428016E+03  0.00000000000E+00 0. -1.
          6    2    1    2  501    0  0.50732489975E+02  0.14970148404E+03 -0.24116929199E+03  0.33525887602E+03  0.17103089396E+03 0.  0.
         24    2    3    3    0    0  0.51098739480E+02  0.13357737591E+03 -0.97724602527E+02  0.19083384378E+03  0.80084089948E+02 0.  0.
         -6    2    1    2    0  502 -0.50732489975E+02 -0.14970148404E+03  0.44749849493E+02  0.23775024181E+03  0.17186712480E+03 0.  0.
        -24    2    5    5    0    0 -0.66958654186E+02 -0.17424416530E+03  0.44215588735E+02  0.20795079478E+03  0.80274680015E+02 0.  0.
          5    1    3    3  501    0 -0.36624950480E+00  0.16124108139E+02 -0.14344468947E+03  0.14442503224E+03  0.47000000000E+01 0. -1.
        -11    1    4    4    0    0  0.37841597543E+02  0.42304556228E+02 -0.41585779754E+00  0.56761209642E+02  0.00000000000E+00 0.  1.
         12    1    4    4    0    0  0.13257141937E+02  0.91272819677E+02 -0.97308744729E+02  0.13407263414E+03  0.00000000000E+00 0. -1.
         -5    1    5    5    0  502  0.16226164211E+02  0.24542681258E+02  0.53426075762E+00  0.29799447023E+02  0.47000000000E+01 0.  1.
         13    1    6    6    0    0  0.18547988281E+02 -0.24160317411E+02  0.71057775726E+01  0.31276842577E+02  0.00000000000E+00 0. -1.
        -14    1    6    6    0    0 -0.85506642467E+02 -0.15008384789E+03  0.37109811162E+02  0.17667395221E+03  0.00000000000E+00 0.  1.
</event>
<event>
12    1  0.8724767E-002  0.3587881E+03  0.7818608E-02  0.1059155E+00
         21   -1    0    0  501  502  0.00000000000E+00  0.00000000000E+00  0.56400211774E+03  0.56400211774E+03  0.00000000000E+00 0.  1.
         21   -1    0    0  502  503 -0.00000000000E+00 -0.00000000000E+00 -0.24032986134E+03  0.24032986134E+03  0.00000000000E+00 0. -1.
         -6    2    1    2    0  503 -0.22658568331E+03 -0.21831188949E+03  0.69311176219E+02  0.36452692758E+03  0.17051301654E+03 0.  0.
        -24    2    3    3    0    0 -0.16807706346E+03 -0.95462996652E+02  0.87865972509E+02  0.22711703153E+03  0.80614104802E+02 0.  0.
          6    2    1    2  501    0  0.22658568331E+03  0.21831188949E+03  0.25436108018E+03  0.43980505149E+03  0.17241743309E+03 0.  0.
         24    2    5    5    0    0  0.22055012346E+03  0.12679817574E+03  0.19848500535E+03  0.33230894214E+03  0.79453139320E+02 0.  0.
          5    1    5    5  501    0  0.60355598518E+01  0.91513713756E+02  0.55876074834E+02  0.10749610936E+03  0.47000000000E+01 0. -1.
        -13    1    6    6    0    0  0.10189665499E+03  0.99389153362E+02  0.84647454941E+02  0.16560894822E+03  0.00000000000E+00 0.  1.
         14    1    6    6    0    0  0.11865346847E+03  0.27409022374E+02  0.11383755041E+03  0.16669999391E+03  0.00000000000E+00 0. -1.
         -5    1    3    3    0  503 -0.58508619850E+02 -0.12284889284E+03 -0.18554796291E+02  0.13740989606E+03  0.47000000000E+01 0.  1.
         13    1    4    4    0    0 -0.88306069998E+02 -0.17711509307E+02  0.87558221941E+01  0.90489358394E+02  0.00000000000E+00 0. -1.
        -14    1    4    4    0    0 -0.79770993461E+02 -0.77751487346E+02  0.79110150315E+02  0.13662767313E+03  0.00000000000E+00 0.  1.
</event>
<event>
12    1  0.8724767E-002  0.1827500E+03  0.7818608E-02  0.1168478E+00
         21   -1    0    0  503  502  0.00000000000E+00  0.00000000000E+00  0.17982847422E+04  0.17982847422E+04  0.00000000000E+00 0.  1.
         21   -1    0    0  501  503 -0.00000000000E+00 -0.00000000000E+00 -0.26268067740E+02  0.26268067740E+02  0.00000000000E+00 0.  1.
          6    2    1    2  501    0 -0.29746955889E+02  0.18641212239E+02  0.32918135619E+03  0.37018994746E+03  0.16567394414E+03 0.  0.
         24    2    3    3    0    0 -0.63737666475E+01  0.61821605434E+02  0.12499582896E+03  0.16013121316E+03  0.78457073418E+02 0.  0.
         -6    2    1    2    0  502  0.29746955889E+02 -0.18641212239E+02  0.14428353183E+04  0.14543628625E+04  0.17934660272E+03 0.  0.
        -24    2    5    5    0    0 -0.12483924908E+02 -0.72315058420E+02  0.69641096719E+03  0.70480583932E+03  0.79860627803E+02 0.  0.
          5    1    3    3  501    0 -0.23373189242E+02 -0.43180393195E+02  0.20418552722E+03  0.21005873431E+03  0.47000000000E+01 0. -1.
        -11    1    4    4    0    0  0.20585771608E+02 -0.45202228762E+01  0.71916521683E+01  0.22269402068E+02  0.00000000000E+00 0.  1.
         12    1    4    4    0    0 -0.26959538256E+02  0.66341828311E+02  0.11780417679E+03  0.13786181109E+03  0.00000000000E+00 0. -1.
         -5    1    5    5    0  502  0.42230880797E+02  0.53673846180E+02  0.74642435111E+03  0.74955702317E+03  0.47000000000E+01 0.  1.
         11    1    6    6    0    0 -0.76171953616E+01 -0.10013611481E+02  0.11485756390E+02  0.17035747119E+02  0.00000000000E+00 0. -1.
        -12    1    6    6    0    0 -0.48667295466E+01 -0.62301446939E+02  0.68492521080E+03  0.68777009220E+03  0.00000000000E+00 0.  1.
</event>
<event>
12    1  0.8724767E-002  0.1760339E+03  0.7818608E-02  0.1171779E+00
         21   -1    0    0  501  502  0.00000000000E+00  0.00000000000E+00  0.11841557649E+03  0.11841557649E+03  0.00000000000E+00 0. -1.
         21   -1    0    0  502  503 -0.00000000000E+00 -0.00000000000E+00 -0.58191681619E+03  0.58191681619E+03  0.00000000000E+00 0. -1.
         -6    2    1    2    0  503  0.16328048073E+02 -0.35532862074E+02 -0.49180564886E+03  0.52236072770E+03  0.17163549792E+03 0.  0.
        -24    2    3    3    0    0 -0.14932145233E+02 -0.56951066411E+02 -0.46508422319E+03  0.47575532294E+03  0.81076505354E+02 0.  0.
          6    2    1    2  501    0 -0.16328048073E+02  0.35532862074E+02  0.28304409160E+02  0.17797166498E+03  0.17129969211E+03 0.  0.
         24    2    5    5    0    0  0.29192241788E+02  0.63273680368E+02 -0.19799632114E+02  0.10601516024E+03  0.77404413053E+02 0.  0.
          5    1    5    5  501    0 -0.45520289861E+02 -0.27740818294E+02  0.48104041275E+02  0.71956504748E+02  0.47000000000E+01 0. -1.
        -13    1    6    6    0    0  0.24769530240E+02 -0.10934732534E+01  0.18544896384E+02  0.30961887765E+02  0.00000000000E+00 0.  1.
         14    1    6    6    0    0  0.44227115475E+01  0.64367153622E+02 -0.38344528499E+02  0.75053272471E+02  0.00000000000E+00 0. -1.
         -5    1    3    3    0  503  0.31260193306E+02  0.21418204336E+02 -0.26721425670E+02  0.46605404755E+02  0.47000000000E+01 0.  1.
         13    1    4    4    0    0 -0.17202803013E+02 -0.76613294791E+02 -0.40348303682E+03  0.41105242290E+03  0.00000000000E+00 0. -1.
        -14    1    4    4    0    0  0.22706577797E+01  0.19662228380E+02 -0.61601186366E+02  0.64702900038E+02  0.00000000000E+00 0.  1.
</event>
<event>
12    1  0.8724767E-002  0.2696226E+03  0.7818608E-02  0.1101555E+00
         21   -1    0    0  501  502  0.00000000000E+00  0.00000000000E+00  0.21061538425E+03  0.21061538425E+03  0.00000000000E+00 0.  1.
         21   -1    0    0  502  503 -0.00000000000E+00 -0.00000000000E+00 -0.40352649946E+03  0.40352649946E+03  0.00000000000E+00 0.  1.
         -6    2    1    2    0  503  0.18851232792E+02 -0.20671635148E+03 -0.21370506692E+03  0.34371867616E+03  0.17142244243E+03 0.  0.
        -24    2    3    3    0    0 -0.55626785854E+02 -0.95475100718E+02 -0.10917635228E+03  0.17380713060E+03  0.77971844835E+02 0.  0.
          6    2    1    2  501    0 -0.18851232792E+02  0.20671635148E+03  0.20793951714E+02  0.27042320755E+03  0.17207354185E+03 0.  0.
         24    2    5    5    0    0 -0.29629494700E+02  0.15535489279E+03  0.77135916229E+02  0.19328257407E+03  0.79969707981E+02 0.  0.
          5    1    5    5  501    0  0.10778261908E+02  0.51361458689E+02 -0.56341964514E+02  0.77140633481E+02  0.47000000000E+01 0. -1.
        -11    1    6    6    0    0 -0.20530509045E+02  0.66992532944E+02  0.77464798013E+02  0.10445236332E+03  0.00000000000E+00 0.  1.
         12    1    6    6    0    0 -0.90989856547E+01  0.88362359850E+02 -0.32888178457E+00  0.88830210748E+02  0.00000000000E+00 0. -1.
         -5    1    3    3    0  503  0.74478018646E+02 -0.11124125077E+03 -0.10452871464E+03  0.16991154557E+03  0.47000000000E+01 0.  1.
         13    1    4    4    0    0 -0.80435869360E+01  0.70828404703E+01  0.61085003332E+01  0.12336113498E+02  0.00000000000E+00 0. -1.
        -14    1    4    4    0    0 -0.47583198918E+02 -0.10255794119E+03 -0.11528485262E+03  0.16147101710E+03  0.00000000000E+00 0.  1.
</event>
<event>
12    1  0.8724767E-002  0.1849024E+03  0.7818608E-02  0.1163690E+00
         21   -1    0    0  503  502  0.00000000000E+00  0.00000000000E+00  0.35692242983E+02  0.35692242983E+02  0.00000000000E+00 0. -1.
         21   -1    0    0  501  503 -0.00000000000E+00 -0.00000000000E+00 -0.16736500792E+04  0.16736500792E+04  0.00000000000E+00 0. -1.
          6    2    1    2  501    0  0.21332581453E+02  0.64996778156E+02 -0.13855279347E+04  0.13978113393E+04  0.17178248570E+03 0.  0.
         24    2    3    3    0    0 -0.35007099209E+02  0.66548329508E+02 -0.58468902410E+03  0.59497784625E+03  0.80518354826E+02 0.  0.
         -6    2    1    2    0  502 -0.21332581453E+02 -0.64996778156E+02 -0.25242990150E+03  0.31153098281E+03  0.16926617464E+03 0.  0.
        -24    2    5    5    0    0 -0.66137746162E+02 -0.21880557824E+02 -0.94307346759E+02  0.14155644484E+03  0.79318290103E+02 0.  0.
          5    1    3    3  501    0  0.56339680662E+02 -0.15515513515E+01 -0.80083891056E+03  0.80283349307E+03  0.47000000000E+01 0. -1.
        -13    1    4    4    0    0 -0.40913793929E+02  0.17266984330E+00 -0.28838832981E+03  0.29127615268E+03  0.00000000000E+00 0.  1.
         14    1    4    4    0    0  0.59066947204E+01  0.66375659665E+02 -0.29630069429E+03  0.30370169357E+03  0.00000000000E+00 0. -1.
         -5    1    5    5    0  502  0.44805164709E+02 -0.43116220332E+02 -0.15812255475E+03  0.16997453797E+03  0.47000000000E+01 0.  1.
         13    1    6    6    0    0 -0.53605922225E+02 -0.43673285435E+02 -0.35768856800E+02  0.77848326090E+02  0.00000000000E+00 0. -1.
        -14    1    6    6    0    0 -0.12531823937E+02  0.21792727611E+02 -0.58538489959E+02  0.63708118750E+02  0.00000000000E+00 0.  1.
</event>
<event>
12    1  0.8724767E-002  0.2514141E+03  0.7818608E-02  0.1113214E+00
         21   -1    0    0  503  502  0.00000000000E+00  0.00000000000E+00  0.10849899193E+04  0.10849899193E+04  0.00000000000E+00 0. -1.
         21   -1    0    0  501  503 -0.00000000000E+00 -0.00000000000E+00 -0.20093879206E+03  0.20093879206E+03  0.00000000000E+00 0. -1.
          6    2    1    2  501    0 -0.16523928818E+03  0.76218346734E+02 -0.10069633280E+03  0.27082984172E+03  0.17348139091E+03 0.  0.
         24    2    3    3    0    0 -0.94916698255E+02 -0.26522732748E+02 -0.53276794409E+02  0.13751930692E+03  0.79752793018E+02 0.  0.
         -6    2    1    2    0  502  0.16523928818E+03 -0.76218346734E+02  0.98474746002E+03  0.10150988696E+04  0.16608701437E+03 0.  0.
        -24    2    5    5    0    0  0.15722793406E+02 -0.41261676336E+02  0.40972289633E+03  0.41990773236E+03  0.80622079833E+02 0.  0.
          5    1    3    3  501    0 -0.70322589927E+02  0.10274107948E+03 -0.47419538394E+02  0.13331053480E+03  0.47000000000E+01 0. -1.
        -13    1    4    4    0    0 -0.52266883510E+02 -0.80423574625E+01  0.14958284607E+02  0.54956864028E+02  0.00000000000E+00 0.  1.
         14    1    4    4    0    0 -0.42649814745E+02 -0.18480375286E+02 -0.68235079017E+02  0.82562442896E+02  0.00000000000E+00 0. -1.
         -5    1    5    5    0  502  0.14951649478E+03 -0.34956670398E+02  0.57502456369E+03  0.59519113725E+03  0.47000000000E+01 0.  1.
         11    1    6    6    0    0  0.37850901521E+02 -0.14634447122E+02  0.33620740156E+03  0.33864771467E+03  0.00000000000E+00 0. -1.
        -12    1    6    6    0    0 -0.22128108115E+02 -0.26627229213E+02  0.73515494771E+02  0.81260017694E+02  0.00000000000E+00 0.  1.
</event>
<event>
12    1  0.8724767E-002  0.1729229E+03  0.7818608E-02  0.1176388E+00
         21   -1    0    0  503  502  0.00000000000E+00  0.00000000000E+00  0.36847807907E+03  0.36847807907E+03  0.00000000000E+00 0. -1.
         21   -1    0    0  501  503 -0.00000000000E+00 -0.00000000000E+00 -0.80358026967E+02  0.80358026967E+02  0.00000000000E+00 0. -1.
          6    2    1    2  501    0 -0.98390223516E+01 -0.89323483565E+01  0.10626435144E+03  0.19789022827E+03  0.16640864415E+03 0.  0.
         24    2    3    3    0    0  0.43391638465E+02 -0.44141799268E+02  0.64815186917E+02  0.12164501908E+03  0.82250650329E+02 0.  0.
         -6    2    1    2    0  502  0.98390223516E+01  0.89323483565E+01  0.18185570066E+03  0.25094587777E+03  0.17241155559E+03 0.  0.
        -24    2    5    5    0    0  0.53908852516E+01 -0.61421445188E+02  0.87161441182E+02  0.13279963379E+03  0.78974491653E+02 0.  0.
          5    1    3    3  501    0 -0.53230660817E+02  0.35209450911E+02  0.41449164525E+02  0.76245209189E+02  0.47000000000E+01 0. -1.
        -11    1    4    4    0    0  0.25711737844E+02 -0.30495156303E+02  0.83492005807E+02  0.92530876223E+02  0.00000000000E+00 0.  1.
         12    1    4    4    0    0  0.17679900621E+02 -0.13646642965E+02 -0.18676818890E+02  0.29114142852E+02  0.00000000000E+00 0. -1.
         -5    1    5    5    0  502  0.44481371000E+01  0.70353793544E+02  0.94694259479E+02  0.11814624399E+03  0.47000000000E+01 0.  1.
         11    1    6    6    0    0  0.35739024359E+02 -0.64228120066E+01  0.22861737532E+02  0.42909083178E+02  0.00000000000E+00 0. -1.
        -12    1    6    6    0    0 -0.30348139107E+02 -0.54998633181E+02  0.64299703650E+02  0.89890550607E+02  0.00000000000E+00 0.  1.
</event>
<event>
12    1  0.8724767E-002  0.2228167E+03  0.7818608E-02  0.1134894E+00
         21   -1    0    0  503  502  0.00000000000E+00  0.00000000000E+00  0.33648769216E+03  0.33648769216E+03  0.00000000000E+00 0.  1.
         21   -1    0    0  501  503 -0.00000000000E+00 -0.00000000000E+00 -0.17922360562E+03  0.17922360562E+03  0.00000000000E+00 0.  1.
          6    2    1    2  501    0 -0.21642364109E+01 -0.11617513634E+03 -0.48715013169E+02  0.21227324068E+03  0.17083743728E+03 0.  0.
         24    2    3    3    0    0  0.37931757281E+02 -0.62292297955E+02  0.34814771465E+02  0.10498687666E+03  0.67015127876E+02 0.  0.
         -6    2    1    2    0  502  0.21642364109E+01  0.11617513634E+03  0.20597909971E+03  0.30343805710E+03  0.19012080043E+03 0.  0.
        -24    2    5    5    0    0 -0.12451969080E+02  0.42183970897E+01  0.16185750136E+03  0.18212544288E+03  0.82455926353E+02 0.  0.
          5    1    3    3  501    0 -0.40095993692E+02 -0.53882838390E+02 -0.83529784634E+02  0.10728636402E+03  0.47000000000E+01 0. -1.
        -13    1    4    4    0    0  0.47383312321E+01  0.75348619561E+01 -0.11743491144E+02  0.14735518716E+02  0.00000000000E+00 0.  1.
         14    1    4    4    0    0  0.33193426049E+02 -0.69827159911E+02  0.46558262609E+02  0.90251357947E+02  0.00000000000E+00 0. -1.
         -5    1    5    5    0  502  0.14616205491E+02  0.11195673925E+03  0.44121598346E+02  0.12131261422E+03  0.47000000000E+01 0.  1.
         13    1    6    6    0    0  0.11233499513E+02 -0.20880812792E+02  0.13835523891E+03  0.14037226217E+03  0.00000000000E+00 0. -1.
        -14    1    6    6    0    0 -0.23685468593E+02  0.25099209881E+02  0.23502262455E+02  0.41753180713E+02  0.00000000000E+00 0.  1.
</event>
<event>
12    1  0.8724767E-002  0.1954791E+03  0.7818608E-02  0.1155524E+00
         21   -1    0    0  503  502  0.00000000000E+00  0.00000000000E+00  0.16188553996E+04  0.16188553996E+04  0.00000000000E+00 0. -1.
         21   -1    0    0  501  503 -0.00000000000E+00 -0.00000000000E+00 -0.22957906132E+02  0.22957906132E+02  0.00000000000E+00 0. -1.
          6    2    1    2  501    0  0.55306952695E+02  0.73064391434E+02  0.70997958649E+03  0.73639873582E+03  0.17266968631E+03 0.  0.
         24    2    3    3    0    0  0.87434258104E+02  0.89306126623E+02  0.45888344903E+03  0.48269158581E+03  0.82442789138E+02 0.  0.
         -6    2    1    2    0  502 -0.55306952695E+02 -0.73064391434E+02  0.88591790695E+03  0.90541456989E+03  0.16287339007E+03 0.  0.
        -24    2    5    5    0    0 -0.37906047321E+02 -0.61678900178E+02  0.27552795374E+03  0.29465241823E+03  0.75254495707E+02 0.  0.
          5    1    3    3  501    0 -0.32127305409E+02 -0.16241735190E+02  0.25109613746E+03  0.25370715001E+03  0.47000000000E+01 0. -1.
        -11    1    4    4    0    0  0.29143510420E+02 -0.11991563939E+01  0.36065381344E+02  0.46384198896E+02  0.00000000000E+00 0.  1.
         12    1    4    4    0    0  0.58290747684E+02  0.90505283017E+02  0.42281806768E+03  0.43630738692E+03  0.00000000000E+00 0. -1.
         -5    1    5    5    0  502 -0.17400905374E+02 -0.11385491256E+02  0.61038995321E+03  0.61076215166E+03  0.47000000000E+01 0.  1.
         13    1    6    6    0    0 -0.18610702778E+02 -0.60787249122E+02  0.26527073487E+03  0.27278198381E+03  0.00000000000E+00 0. -1.
        -14    1    6    6    0    0 -0.19295344543E+02 -0.89165105521E+00  0.10257218874E+02  0.21870434419E+02  0.00000000000E+00 0.  1.
</event>
<event>
12    1  0.8724767E-002  0.2199842E+03  0.7818608E-02  0.1134365E+00
         21   -1    0    0  503  502  0.00000000000E+00  0.00000000000E+00  0.41655779625E+03  0.41655779625E+03  0.00000000000E+00 0.  1.
         21   -1    0    0  501  503 -0.00000000000E+00 -0.00000000000E+00 -0.38625971369E+03  0.38625971369E+03  0.00000000000E+00 0. -1.
          6    2    1    2  501    0  0.13089380140E+03 -0.27628689909E+02 -0.32130202251E+03  0.38939444637E+03  0.17463250971E+03 0.  0.
         24    2    3    3    0    0  0.59537321335E+02  0.51428674404E+02 -0.19121971824E+03  0.22121207517E+03  0.78614250460E+02 0.  0.
         -6    2    1    2    0  502 -0.13089380140E+03  0.27628689909E+02  0.35160010507E+03  0.41342306357E+03  0.17146271856E+03 0.  0.
        -24    2    5    5    0    0 -0.16154039489E+01  0.32882253900E+02  0.10968286619E+03  0.13903912736E+03  0.78852366165E+02 0.  0.
          5    1    3    3  501    0  0.71356480063E+02 -0.79057364313E+02 -0.13008230427E+03  0.16818237120E+03  0.47000000000E+01 0. -1.
        -11    1    4    4    0    0  0.41422032831E+02  0.39080674236E+02 -0.42945917095E+02  0.71326262328E+02  0.00000000000E+00 0.  1.
         12    1    4    4    0    0  0.18115288504E+02  0.12348000168E+02 -0.14827380115E+03  0.14988581285E+03  0.00000000000E+00 0. -1.
         -5    1    5    5    0  502 -0.12927839745E+03 -0.52535639911E+01  0.24191723888E+03  0.27438393621E+03  0.47000000000E+01 0.  1.
         11    1    6    6    0    0  0.23128210637E+02 -0.17495050160E+02  0.43227176706E+02  0.52053623441E+02  0.00000000000E+00 0. -1.
        -12    1    6    6    0    0 -0.24743614586E+02  0.50377304061E+02  0.66455689479E+02  0.86985503915E+02  0.00000000000E+00 0.  1.
</event>
<event>
12    1  0.8724767E-002  0.2167994E+03  0.7818608E-02  0.1136496E+00
         21   -1    0    0  503  502  0.00000000000E+00  0.00000000000E+00  0.25784867879E+04  0.25784867879E+04  0.00000000000E+00 0.  1.
         21   -1    0    0  501  503 -0.00000000000E+00 -0.00000000000E+00 -0.29136274338E+02  0.29136274338E+02  0.00000000000E+00 0.  1.
          6    2    1    2  501    0 -0.12509558225E+03  0.37452772282E+02  0.47561256891E+03  0.52269427980E+03  0.17306177966E+03 0.  0.
         24    2    3    3    0    0 -0.12661633410E+03  0.78053283256E+02  0.42758727545E+03  0.45961311788E+03  0.79305289301E+02 0.  0.
         -6    2    1    2    0  502  0.12509558225E+03 -0.37452772282E+02  0.20737379447E+04  0.20849287824E+04  0.17171881057E+03 0.  0.
        -24    2    5    5    0    0  0.30978696097E+02 -0.36623278560E+02  0.54375379417E+03  0.55204513811E+03  0.82369300679E+02 0.  0.
          5    1    3    3  501    0  0.15207518423E+01 -0.40600510974E+02  0.48025293458E+02  0.63081161920E+02  0.47000000000E+01 0. -1.
        -11    1    4    4    0    0 -0.83855482904E+02  0.24177140333E+02  0.14915426863E+03  0.17280993021E+03  0.00000000000E+00 0.  1.
         12    1    4    4    0    0 -0.42760851192E+02  0.53876142923E+02  0.27843300682E+03  0.28680318767E+03  0.00000000000E+00 0. -1.
         -5    1    5    5    0  502  0.94116886156E+02 -0.82949372255E+00  0.15299841505E+04  0.15328836443E+04  0.47000000000E+01 0.  1.
         11    1    6    6    0    0 -0.99190059196E+01  0.15049693830E+02  0.26481404159E+03  0.26542674429E+03  0.00000000000E+00 0. -1.
        -12    1    6    6    0    0  0.40897702017E+02 -0.51672972390E+02  0.27893975258E+03  0.28661839382E+03  0.00000000000E+00 0.  1.
</event>
<event>
12    1  0.8724767E-002  0.2123414E+03  0.7818608E-02  0.1141019E+00
         21   -1    0    0  503  502  0.00000000000E+00  0.00000000000E+00  0.25691463494E+03  0.25691463494E+03  0.00000000000E+00 0.  1.
         21   -1    0    0  501  503 -0.00000000000E+00 -0.00000000000E+00 -0.39191143036E+03  0.39191143036E+03  0.00000000000E+00 0.  1.
          6    2    1    2  501    0  0.12383597568E+03  0.16209540499E+02 -0.31105873842E+03  0.37298791270E+03  0.16359812408E+03 0.  0.
         24    2    3    3    0    0  0.13471388124E+03 -0.99949381985E+01 -0.18078524601E+03  0.23957773184E+03  0.80414276295E+02 0.  0.
         -6    2    1    2    0  502 -0.12383597568E+03 -0.16209540499E+02  0.17606194299E+03  0.27583815260E+03  0.17172879951E+03 0.  0.
        -24    2    5    5    0    0 -0.10304887353E+03  0.44815582872E+02  0.15442952304E+03  0.20767495951E+03  0.81565338345E+02 0.  0.
          5    1    3    3  501    0 -0.10877905559E+02  0.26204478697E+02 -0.13027349241E+03  0.13341018086E+03  0.47000000000E+01 0. -1.
        -11    1    4    4    0    0  0.14969200115E+02  0.12480864381E+02 -0.77315794715E+02  0.79734440741E+02  0.00000000000E+00 0.  1.
         12    1    4    4    0    0  0.11974468113E+03 -0.22475802579E+02 -0.10346945130E+03  0.15984329110E+03  0.00000000000E+00 0. -1.
         -5    1    5    5    0  502 -0.20787102155E+02 -0.61025123371E+02  0.21632419953E+02  0.68163193084E+02  0.47000000000E+01 0.  1.
         11    1    6    6    0    0  0.11605615062E+02  0.52652259933E+01  0.20303334632E+01  0.12904850240E+02  0.00000000000E+00 0. -1.
        -12    1    6    6    0    0 -0.11465448859E+03  0.39550356878E+02  0.15239918958E+03  0.19477010927E+03  0.00000000000E+00 0.  1.
</event>
<event>
12    1  0.8724767E-002  0.1972068E+03  0.7818608E-02  0.1152498E+00
         21   -1    0    0  501  502  0.00000000000E+00  0.00000000000E+00  0.24188514199E+03  0.24188514199E+03  0.00000000000E+00 0. -1.
         21   -1    0    0  502  503 -0.00000000000E+00 -0.00000000000E+00 -0.29940385274E+03  0.29940385274E+03  0.00000000000E+00 0. -1.
         -6    2    1    2    0  503  0.14516987131E+02  0.91897932243E+02 -0.21393364402E+03  0.29096067954E+03  0.17388082163E+03 0.  0.
        -24    2    3    3    0    0  0.66606686825E+02  0.74838171647E+02 -0.19424275387E+03  0.23252957994E+03  0.79388635535E+02 0.  0.
          6    2    1    2  501    0 -0.14516987131E+02 -0.91897932243E+02  0.15641493328E+03  0.25032831518E+03  0.17187978696E+03 0.  0.
         24    2    5    5    0    0 -0.31770801706E+02 -0.11459166563E+03  0.71035093271E+02  0.16019226950E+03  0.80467043305E+02 0.  0.
          5    1    5    5  501    0  0.17253814575E+02  0.22693733387E+02  0.85379840005E+02  0.90136045684E+02  0.47000000000E+01 0. -1.
        -11    1    6    6    0    0  0.15635994817E+01 -0.27871313246E+02 -0.16598185259E+02  0.32476987226E+02  0.00000000000E+00 0.  1.
         12    1    6    6    0    0 -0.33334401188E+02 -0.86720352383E+02  0.87633278530E+02  0.12771528227E+03  0.00000000000E+00 0. -1.
         -5    1    3    3    0  503 -0.52089699694E+02  0.17059760596E+02 -0.19690890152E+02  0.58431099602E+02  0.47000000000E+01 0.  1.
         11    1    4    4    0    0  0.61125651885E+02  0.15041247334E+02 -0.13089372115E+03  0.14524376295E+03  0.00000000000E+00 0. -1.
        -12    1    4    4    0    0  0.54810349396E+01  0.59796924313E+02 -0.63349032719E+02  0.87285816991E+02  0.00000000000E+00 0.  1.
</event>
<event>
12    1  0.8724767E-002  0.2825499E+03  0.7818608E-02  0.1094597E+00
         21   -1    0    0  503  502  0.00000000000E+00  0.00000000000E+00  0.52125657938E+03  0.52125657938E+03  0.00000000000E+00 0. -1.
         21   -1    0    0  501  503 -0.00000000000E+00 -0.00000000000E+00 -0.21228547342E+03  0.21228547342E+03  0.00000000000E+00 0. -1.
          6    2    1    2  501    0  0.26370525701E+02 -0.22144444744E+03 -0.41411292648E+02  0.28342840177E+03  0.16995209868E+03 0.  0.
         24    2    3    3    0    0  0.17881274362E+02 -0.91407310635E+02  0.41675000615E+02  0.12880904185E+03  0.78612512837E+02 0.  0.
         -6    2    1    2    0  502 -0.26370525701E+02  0.22144444744E+03  0.35038239861E+03  0.45011365103E+03  0.17349762437E+03 0.  0.
        -24    2    5    5    0    0 -0.52920285780E+02  0.23383105930E+03  0.30513760328E+03  0.39600727970E+03  0.78963837928E+02 0.  0.
          5    1    3    3  501    0  0.84892513386E+01 -0.13003713680E+03 -0.83086293263E+02  0.15461935993E+03  0.47000000000E+01 0. -1.
        -11    1    4    4    0    0  0.19812758649E+02 -0.99313914936E+01  0.41797982190E+02  0.47310139056E+02  0.00000000000E+00 0.  1.
         12    1    4    4    0    0 -0.19314842872E+01 -0.81475919141E+02 -0.12298157508E+00  0.81498902790E+02  0.00000000000E+00 0. -1.
         -5    1    5    5    0  502  0.26549760079E+02 -0.12386611864E+02  0.45244795327E+02  0.54106371325E+02  0.47000000000E+01 0.  1.
         11    1    6    6    0    0 -0.50121368242E+02  0.70864607210E+02  0.79840287832E+02  0.11793394622E+03  0.00000000000E+00 0. -1.
        -12    1    6    6    0    0 -0.27989175382E+01  0.16296645209E+03  0.22529731545E+03  0.27807333348E+03  0.00000000000E+00 0.  1.
</event>
<event>
12    1  0.8724767E-002  0.2946645E+03  0.7818608E-02  0.1087989E+00
         21   -1    0    0  501  502  0.00000000000E+00  0.00000000000E+00  0.49102707491E+03  0.49102707491E+03  0.00000000000E+00 0.  1.
         21   -1    0    0  502  503 -0.00000000000E+00 -0.00000000000E+00 -0.24234997307E+03  0.24234997307E+03  0.00000000000E+00 0. -1.
         -6    2    1    2    0  503 -0.17643110276E+03  0.16132486023E+03 -0.66733219176E+02  0.30173964639E+03  0.17158043919E+03 0.  0.
        -24    2    3    3    0    0 -0.19734873226E+03  0.14034813217E+03 -0.33089672426E+02  0.25666694309E+03  0.78350959979E+02 0.  0.
          6    2    1    2  501    0  0.17643110276E+03 -0.16132486023E+03  0.31541032102E+03  0.43163740159E+03  0.17226006879E+03 0.  0.
         24    2    5    5    0    0  0.12194071053E+03 -0.28180098110E+02  0.15429008917E+03  0.21558520966E+03  0.83713178147E+02 0.  0.
          5    1    5    5  501    0  0.54490392223E+02 -0.13314476212E+03  0.16112023186E+03  0.21605219193E+03  0.47000000000E+01 0. -1.
        -13    1    6    6    0    0  0.49226745575E+02 -0.51118137961E+01  0.12399006387E+03  0.13350258072E+03  0.00000000000E+00 0.  1.
         14    1    6    6    0    0  0.72713964959E+02 -0.23068284314E+02  0.30300025295E+02  0.82082628943E+02  0.00000000000E+00 0. -1.
         -5    1    3    3    0  503  0.20917629500E+02  0.20976728062E+02 -0.33643546750E+02  0.45072703291E+02  0.47000000000E+01 0.  1.
         11    1    4    4    0    0 -0.12345822472E+03  0.47377379013E+02 -0.38680447010E+02  0.13777781488E+03  0.00000000000E+00 0. -1.
        -12    1    4    4    0    0 -0.73890507537E+02  0.92970753155E+02  0.55907745840E+01  0.11888912821E+03  0.00000000000E+00 0.  1.
</event>
<event>
12    1  0.8724767E-002  0.2267133E+03  0.7818608E-02  0.1129763E+00
         21   -1    0    0  501  502  0.00000000000E+00  0.00000000000E+00  0.49551782746E+03  0.49551782746E+03  0.00000000000E+00 0.  1.
         21   -1    0    0  502  503 -0.00000000000E+00 -0.00000000000E+00 -0.10921580670E+03  0.10921580670E+03  0.00000000000E+00 0.  1.
         -6    2    1    2    0  503  0.13087152805E+03  0.67670237451E+02  0.11234236936E+03  0.24913162159E+03  0.16655071009E+03 0.  0.
        -24    2    3    3    0    0  0.28775712334E+02  0.34205289111E+02 -0.19159029617E+01  0.92222408515E+02  0.80642783463E+02 0.  0.
          6    2    1    2  501    0 -0.13087152805E+03 -0.67670237451E+02  0.27395965140E+03  0.35560201257E+03  0.17231448825E+03 0.  0.
         24    2    5    5    0    0 -0.11510834879E+03  0.16496828694E+02  0.15297399004E+03  0.20730436222E+03  0.77794470563E+02 0.  0.
          5    1    5    5  501    0 -0.15763179254E+02 -0.84167066145E+02  0.12098566136E+03  0.14829765035E+03  0.47000000000E+01 0. -1.
        -13    1    6    6    0    0 -0.26086166529E+02 -0.23444153611E+02  0.14602733650E+02  0.37991528697E+02  0.00000000000E+00 0.  1.
         14    1    6    6    0    0 -0.89022182264E+02  0.39940982304E+02  0.13837125639E+03  0.16931283353E+03  0.00000000000E+00 0. -1.
         -5    1    3    3    0  503  0.10209581571E+03  0.33464948340E+02  0.11425827232E+03  0.15690921307E+03  0.47000000000E+01 0.  1.
         13    1    4    4    0    0  0.53521556075E+02  0.20964392508E+02 -0.17544332299E+02  0.60098804595E+02  0.00000000000E+00 0. -1.
        -14    1    4    4    0    0 -0.24745843741E+02  0.13240896602E+02  0.15628429337E+02  0.32123603920E+02  0.00000000000E+00 0.  1.
</event>
<event>
12    1  0.8724767E-002  0.2201776E+03  0.7818608E-02  0.1134390E+00
         21   -1    0    0  503  502  0.00000000000E+00  0.00000000000E+00  0.34755736426E+03  0.34755736426E+03  0.00000000000E+00 0.  1.
         21   -1    0    0  501  503 -0.00000000000E+00 -0.00000000000E+00 -0.14303360006E+03  0.14303360006E+03  0.00000000000E+00 0. -1.
          6    2    1    2  501    0  0.59600535219E+02 -0.11796652177E+03  0.15045574963E+03  0.26387194849E+03  0.17182301519E+03 0.  0.
         24    2    3    3    0    0  0.72315368452E+02 -0.10829242042E+03  0.17624039342E+03  0.23317678476E+03  0.79711830024E+02 0.  0.
         -6    2    1    2    0  502 -0.59600535219E+02  0.11796652177E+03  0.54068014575E+02  0.22671901583E+03  0.17609610410E+03 0.  0.
        -24    2    5    5    0    0  0.32861404750E+02  0.57260353588E+02  0.15104868683E+01  0.10416766774E+03  0.80560545042E+02 0.  0.
          5    1    3    3  501    0 -0.12714833233E+02 -0.96741013453E+01 -0.25784643790E+02  0.30695163730E+02  0.47000000000E+01 0. -1.
        -13    1    4    4    0    0  0.67239661028E+02 -0.52168963979E+02  0.60409001089E+02  0.10436484193E+03  0.00000000000E+00 0.  1.
         14    1    4    4    0    0  0.50757074245E+01 -0.56123456446E+02  0.11583139233E+03  0.12881194284E+03  0.00000000000E+00 0. -1.
         -5    1    5    5    0  502 -0.92461939969E+02  0.60706168182E+02  0.52557527707E+02  0.12255134808E+03  0.47000000000E+01 0.  1.
         13    1    6    6    0    0  0.27512710015E+02  0.28470607920E+02 -0.38074633633E+02  0.54929067478E+02  0.00000000000E+00 0. -1.
        -14    1    6    6    0    0  0.53486947345E+01  0.28789745668E+02  0.39585120502E+02  0.49238600266E+02  0.00000000000E+00 0.  1.
</event>
<event>
12    1  0.8724767E-002  0.2598680E+03  0.7818608E-02  0.1107228E+00
         21   -1    0    0  503  502  0.00000000000E+00  0.00000000000E+00  0.11027996262E+04  0.11027996262E+04  0.00000000000E+00 0. -1.
         21   -1    0    0  501  503 -0.00000000000E+00 -0.00000000000E+00 -0.66052097930E+02  0.66052097930E+02  0.00000000000E+00 0.  1.
          6    2    1    2  501    0  0.14505213113E+03  0.13379147281E+03  0.36038505118E+03  0.44428455634E+03  0.16902988772E+03 0.  0.
         24    2    3    3    0    0  0.51311224057E+02  0.13055139826E+03  0.26535658596E+03  0.31067933584E+03  0.80193657506E+02 0.  0.
         -6    2    1    2    0  502 -0.14505213113E+03 -0.13379147281E+03  0.67636247706E+03  0.72456716776E+03  0.16908903361E+03 0.  0.
        -24    2    5    5    0    0 -0.14793856883E+02 -0.65507424824E+02  0.17349498330E+03  0.20061322370E+03  0.75067139185E+02 0.  0.
          5    1    3    3  501    0  0.93740907071E+02  0.32400745451E+01  0.95028465225E+02  0.13360522050E+03  0.47000000000E+01 0. -1.
        -13    1    4    4    0    0  0.29660995295E+02  0.92891631412E+02  0.99845672751E+02  0.13956284676E+03  0.00000000000E+00 0.  1.
         14    1    4    4    0    0  0.21650228763E+02  0.37659766848E+02  0.16551091321E+03  0.17111648908E+03  0.00000000000E+00 0. -1.
         -5    1    5    5    0  502 -0.13025827424E+03 -0.68284047981E+02  0.50286749376E+03  0.52395394406E+03  0.47000000000E+01 0.  1.
         11    1    6    6    0    0 -0.30954342773E+02  0.79005002821E+00  0.39001469831E+02  0.49798696414E+02  0.00000000000E+00 0. -1.
        -12    1    6    6    0    0  0.16160485890E+02 -0.66297474852E+02  0.13449351347E+03  0.15081452729E+03  0.00000000000E+00 0.  1.
</event>
<event>
12    1  0.8724767E-002  0.1729638E+03  0.7818608E-02  0.1175574E+00
         21   -1    0    0  501  502  0.00000000000E+00  0.00000000000E+00  0.45589004184E+02  0.45589004184E+02  0.00000000000E+00 0.  1.
         21   -1    0    0  502  503 -0.00000000000E+00 -0.00000000000E+00 -0.12383553321E+04  0.12383553321E+04  0.00000000000E+00 0.  1.
         -6    2    1    2    0  503 -0.28029217087E+02 -0.11336998688E+02 -0.10380946281E+04  0.10519102275E+04  0.16721395070E+03 0.  0.
        -24    2    3    3    0    0 -0.71311028629E+01  0.37182235798E+02 -0.31609345787E+03  0.32796366381E+03  0.78814461748E+02 0.  0.
          6    2    1    2  501    0  0.28029217087E+02  0.11336998688E+02 -0.15467169984E+03  0.23203410879E+03  0.17030069983E+03 0.  0.
         24    2    5    5    0    0  0.69121361814E+02 -0.37747077803E+01 -0.15537730942E+03  0.18799417333E+03  0.80048047107E+02 0.  0.
          5    1    5    5  501    0 -0.41092144727E+02  0.15111706468E+02  0.70560958349E+00  0.44039935462E+02  0.47000000000E+01 0. -1.
        -13    1    6    6    0    0  0.34283166153E+02  0.31463647733E+02 -0.36296137700E+02  0.59014457738E+02  0.00000000000E+00 0.  1.
         14    1    6    6    0    0  0.34838195661E+02 -0.35238355513E+02 -0.11908117172E+03  0.12897971559E+03  0.00000000000E+00 0. -1.
         -5    1    3    3    0  503 -0.20898114224E+02 -0.48519234485E+02 -0.72200117025E+03  0.72394656373E+03  0.47000000000E+01 0.  1.
         11    1    4    4    0    0  0.26226940069E+02 -0.11252362346E+02 -0.11023918058E+03  0.11387337256E+03  0.00000000000E+00 0. -1.
        -12    1    4    4    0    0 -0.33358042932E+02  0.48434598143E+02 -0.20585427730E+03  0.21409029125E+03  0.00000000000E+00 0.  1.
</event>
<event>
12    1  0.8724767E-002  0.1839133E+03  0.7818608E-02  0.1164784E+00
         21   -1    0    0  501  502  0.00000000000E+00  0.00000000000E+00  0.74176374484E+02  0.74176374484E+02  0.00000000000E+00 0.  1.
         21   -1    0    0  502  503 -0.00000000000E+00 -0.00000000000E+00 -0.55020058923E+03  0.55020058923E+03  0.00000000000E+00 0.  1.
         -6    2    1    2    0  503 -0.13047016284E+02 -0.53147338778E+02 -0.37379854640E+03  0.41659269003E+03  0.17558260690E+03 0.  0.
        -24    2    3    3    0    0 -0.99427399212E+00  0.27387358641E+02 -0.28002714781E+03  0.29230966111E+03  0.79238112510E+02 0.  0.
          6    2    1    2  501    0  0.13047016284E+02  0.53147338778E+02 -0.10222566835E+03  0.20778427368E+03  0.17242201967E+03 0.  0.
         24    2    5    5    0    0 -0.10377799679E+02 -0.39228762401E+02 -0.60226181476E+02  0.10353403162E+03  0.73793687012E+02 0.  0.
          5    1    5    5  501    0  0.23424815963E+02  0.92376101179E+02 -0.41999486871E+02  0.10425024206E+03  0.47000000000E+01 0. -1.
        -13    1    6    6    0    0  0.72918689613E+01  0.18592694474E+02 -0.28350536492E+01  0.20171692293E+02  0.00000000000E+00 0.  1.
         14    1    6    6    0    0 -0.17669668640E+02 -0.57821456876E+02 -0.57391127827E+02  0.83362339329E+02  0.00000000000E+00 0. -1.
         -5    1    3    3    0  503 -0.12052742292E+02 -0.80534697419E+02 -0.93771398589E+02  0.12428302892E+03  0.47000000000E+01 0.  1.
         11    1    4    4    0    0  0.38712449068E+02  0.96594808128E+01 -0.11879033448E+03  0.12531202196E+03  0.00000000000E+00 0. -1.
        -12    1    4    4    0    0 -0.39706723060E+02  0.17727877828E+02 -0.16123681333E+03  0.16699763915E+03  0.00000000000E+00 0.  1.
</event>
<event>
12    1  0.8724767E-002  0.1848523E+03  0.7818608E-02  0.1163768E+00
         21   -1    0    0  503  502  0.00000000000E+00  0.00000000000E+00  0.75851426551E+02  0.75851426551E+02  0.00000000000E+00 0. -1.
         21   -1    0    0  501  503 -0.00000000000E+00 -0.00000000000E+00 -0.92190458166E+03  0.92190458166E+03  0.00000000000E+00 0.  1.
          6    2    1    2  501    0 -0.17823440876E+02 -0.66312500076E+02 -0.78339191138E+03  0.80490575579E+03  0.17162565710E+03 0.  0.
         24    2    3    3    0    0 -0.11812522456E+02 -0.10561426124E+03 -0.69732515107E+03  0.70998296189E+03  0.80743618950E+02 0.  0.
         -6    2    1    2    0  502  0.17823440876E+02  0.66312500076E+02 -0.62661243732E+02  0.19285025243E+03  0.16896675911E+03 0.  0.
        -24    2    5    5    0    0  0.70739232853E+02  0.69910947125E+02 -0.55962911375E+02  0.13918473726E+03  0.79680386819E+02 0.  0.
          5    1    3    3  501    0 -0.60109184202E+01  0.39301761161E+02 -0.86066760308E+02  0.94922793893E+02  0.47000000000E+01 0. -1.
        -13    1    4    4    0    0 -0.37944613695E+02 -0.21591583057E+02 -0.17936237751E+03  0.18459916748E+03  0.00000000000E+00 0.  1.
         14    1    4    4    0    0  0.26132091240E+02 -0.84022678180E+02 -0.51796277356E+03  0.52538379441E+03  0.00000000000E+00 0. -1.
         -5    1    5    5    0  502 -0.52915791977E+02 -0.35984470488E+01 -0.66983323569E+01  0.53665515167E+02  0.47000000000E+01 0.  1.
         13    1    6    6    0    0  0.49945877795E+02  0.43482590724E+02  0.82160271253E+01  0.66729524998E+02  0.00000000000E+00 0. -1.
        -14    1    6    6    0    0  0.20793355058E+02  0.26428356401E+02 -0.64178938501E+02  0.72455212260E+02  0.00000000000E+00 0.  1.
</event>
<event>
12    1  0.8724767E-002  0.1783936E+03  0.7818608E-02  0.1169483E+00
         21   -1    0    0  503  502  0.00000000000E+00  0.00000000000E+00  0.22644490897E+03  0.22644490897E+03  0.00000000000E+00 0. -1.
         21   -1    0    0  501  503 -0.00000000000E+00 -0.00000000000E+00 -0.28085203602E+03  0.28085203602E+03  0.00000000000E+00 0. -1.
          6    2    1    2  501    0  0.33579772339E+02 -0.30961671540E+02 -0.20674379903E+03  0.27307009119E+03  0.17244723846E+03 0.  0.
         24    2    3    3    0    0 -0.38148586084E+02  0.11692568816E+02 -0.12722203569E+03  0.15770050046E+03  0.84213839082E+02 0.  0.
         -6    2    1    2    0  502 -0.33579772339E+02  0.30961671540E+02  0.15233667199E+03  0.23422685380E+03  0.17195793437E+03 0.  0.
        -24    2    5    5    0    0 -0.53007471231E+02  0.18495324571E+02  0.21440419877E+02  0.10122774062E+03  0.81458546687E+02 0.  0.
          5    1    3    3  501    0  0.71728358422E+02 -0.42654240356E+02 -0.79521763338E+02  0.11536959074E+03  0.47000000000E+01 0. -1.
        -13    1    4    4    0    0 -0.54738683544E+02 -0.91632873303E+01 -0.45576626114E+02  0.71815862863E+02  0.00000000000E+00 0.  1.
         14    1    4    4    0    0  0.16590097461E+02  0.20855856147E+02 -0.81645409578E+02  0.85884637594E+02  0.00000000000E+00 0. -1.
         -5    1    5    5    0  502  0.19427698892E+02  0.12466346969E+02  0.13089625211E+03  0.13299911318E+03  0.47000000000E+01 0.  1.
         11    1    6    6    0    0 -0.19515751323E+01  0.42003611012E+02  0.15034296002E+02  0.44655817536E+02  0.00000000000E+00 0. -1.
        -12    1    6    6    0    0 -0.51055896099E+02 -0.23508286441E+02  0.64061238750E+01  0.56571923080E+02  0.00000000000E+00 0.  1.
</event>
<event>
12    1  0.8724767E-002  0.1908113E+03  0.7818608E-02  0.1158108E+00
         21   -1    0    0  501  502  0.00000000000E+00  0.00000000000E+00  0.11098543411E+03  0.11098543411E+03  0.00000000000E+00 0. -1.
         21   -1    0    0  502  503 -0.00000000000E+00 -0.00000000000E+00 -0.35035725597E+03  0.35035725597E+03  0.00000000000E+00 0. -1.
         -6    2    1    2    0  503  0.60645034085E+02  0.52504811448E+02 -0.18102495403E+03  0.26180999920E+03  0.17128883885E+03 0.  0.
        -24    2    3    3    0    0  0.10791989802E+03  0.23675767926E+02 -0.13525002368E+03  0.18981374403E+03  0.74360218810E+02 0.  0.
          6    2    1    2  501    0 -0.60645034085E+02 -0.52504811448E+02 -0.58346867824E+02  0.19953269088E+03  0.17313105545E+03 0.  0.
         24    2    5    5    0    0 -0.97160414153E+00  0.33059104390E+02 -0.39721632618E+02  0.93461529291E+02  0.77867842926E+02 0.  0.
          5    1    5    5  501    0 -0.59673429943E+02 -0.85563915838E+02 -0.18625235205E+02  0.10607116159E+03  0.47000000000E+01 0. -1.
        -11    1    6    6    0    0 -0.20251642869E+02  0.34273475634E+02  0.92043455101E+01  0.40859761957E+02  0.00000000000E+00 0.  1.
         12    1    6    6    0    0  0.19280038727E+02 -0.12143712444E+01 -0.48925978128E+02  0.52601767334E+02  0.00000000000E+00 0. -1.
         -5    1    3    3    0  503 -0.47274863932E+02  0.28829043522E+02 -0.45774930351E+02  0.71996255173E+02  0.47000000000E+01 0.  1.
         13    1    4    4    0    0 -0.23222391258E+01  0.18278036670E+02 -0.39933914673E+02  0.43979506138E+02  0.00000000000E+00 0. -1.
        -14    1    4    4    0    0  0.11024213714E+03  0.53977312558E+01 -0.95316109009E+02  0.14583423789E+03  0.00000000000E+00 0.  1.
</event>
<event>
12    1  0.8724767E-002  0.1990323E+03  0.7818608E-02  0.1150570E+00
         21   -1    0    0  501  502  0.00000000000E+00  0.00000000000E+00  0.68084763457E+03  0.68084763457E+03  0.00000000000E+00 0. -1.
         21   -1    0    0  502  503 -0.00000000000E+00 -0.00000000000E+00 -0.90669994241E+02  0.90669994241E+02  0.00000000000E+00 0. -1.
         -6    2    1    2    0  503 -0.91567739212E+02 -0.41156834001E+02  0.52602850434E+03  0.56240293101E+03  0.17179212316E+03 0.  0.
        -24    2    3    3    0    0 -0.14734924755E+02 -0.32724826895E+02  0.11417982976E+03  0.14333754127E+03  0.78870684739E+02 0.  0.
          6    2    1    2  501    0  0.91567739212E+02  0.41156834001E+02  0.64149135988E+02  0.20911469780E+03  0.17185839909E+03 0.  0.
         24    2    5    5    0    0  0.50829359851E+02  0.51449224429E+02  0.10504438089E+03  0.15029242388E+03  0.79516314060E+02 0.  0.
          5    1    5    5  501    0  0.40738379360E+02 -0.10292390428E+02 -0.40895244903E+02  0.58822273921E+02  0.47000000000E+01 0. -1.
        -11    1    6    6    0    0  0.26729725521E+02  0.15147141638E+02  0.10209707967E+03  0.10661954701E+03  0.00000000000E+00 0.  1.
         12    1    6    6    0    0  0.24099634331E+02  0.36302082791E+02  0.29473012171E+01  0.43672876872E+02  0.00000000000E+00 0. -1.
         -5    1    3    3    0  503 -0.76832814457E+02 -0.84320071068E+01  0.41184867458E+03  0.41906538974E+03  0.47000000000E+01 0.  1.
         13    1    4    4    0    0  0.25888389244E+02  0.73284283738E+01  0.54486343542E+02  0.60767394157E+02  0.00000000000E+00 0. -1.
        -14    1    4    4    0    0 -0.40623313998E+02 -0.40053255268E+02  0.59693486218E+02  0.82570147115E+02  0.00000000000E+00 0.  1.
</event>
<event>
12    1  0.8724767E-002  0.1868943E+03  0.7818608E-02  0.1162300E+00
         21   -1    0    0  503  502  0.00000000000E+00  0.00000000000E+00  0.54740621302E+03  0.54740621302E+03  0.00000000000E+00 0.  1.
         21   -1    0    0  501  503 -0.00000000000E+00 -0.00000000000E+00 -0.14926773391E+03  0.14926773391E+03  0.00000000000E+00 0.  1.
          6    2    1    2  501    0 -0.12355893767E+02  0.59208237977E+02 -0.65770784074E+02  0.19812942182E+03  0.17683661442E+03 0.  0.
         24    2    3    3    0    0  0.47086220829E+02  0.13816885075E+02 -0.78396301430E+02  0.12213446413E+03  0.79767341347E+02 0.  0.
         -6    2    1    2    0  502  0.12355893767E+02 -0.59208237977E+02  0.46390926318E+03  0.49854452510E+03  0.17226884654E+03 0.  0.
        -24    2    5    5    0    0 -0.82801323631E+00 -0.59183300935E+01  0.42167777883E+03  0.42912393769E+03  0.79369342346E+02 0.  0.
          5    1    3    3  501    0 -0.59442114596E+02  0.45391352902E+02  0.12625517356E+02  0.75994957691E+02  0.47000000000E+01 0. -1.
        -11    1    4    4    0    0 -0.12987493643E+02 -0.69040495577E+01  0.65070333527E+01  0.16083605767E+02  0.00000000000E+00 0.  1.
         12    1    4    4    0    0  0.60073714472E+02  0.20720934633E+02 -0.84903334783E+02  0.10605085836E+03  0.00000000000E+00 0. -1.
         -5    1    5    5    0  502  0.13183907003E+02 -0.53289907884E+02  0.42231484355E+02  0.69420587414E+02  0.47000000000E+01 0.  1.
         11    1    6    6    0    0 -0.37162592198E+02 -0.76167779830E+00  0.13209765778E+03  0.13722765612E+03  0.00000000000E+00 0. -1.
        -12    1    6    6    0    0  0.36334578961E+02 -0.51566522952E+01  0.28958012105E+03  0.29189628157E+03  0.00000000000E+00 0.  1.
</event>
<event>
12    1  0.8724767E-002  0.3266754E+03  0.7818608E-02  0.1072621E+00
         21   -1    0    0  501  502  0.00000000000E+00  0.00000000000E+00  0.39314930662E+03  0.39314930662E+03  0.00000000000E+00 0. -1.
         21   -1    0    0  502  503 -0.00000000000E+00 -0.00000000000E+00 -0.27180090274E+03  0.27180090274E+03  0.00000000000E+00 0.  1.
         -6    2    1    2    0  503  0.27713599832E+03  0.16627305040E+02  0.73229658987E+02  0.33478257020E+03  0.17215097302E+03 0.  0.
        -24    2    3    3    0    0  0.12561996318E+03  0.74368067515E+01 -0.28655326321E+02  0.15190497617E+03  0.80114373343E+02 0.  0.
          6    2    1    2  501    0 -0.27713599832E+03 -0.16627305040E+02  0.48118744891E+02  0.33016763916E+03  0.17208842930E+03 0.  0.
         24    2    5    5    0    0 -0.19337631782E+03 -0.45100123482E+02 -0.27263227246E+02  0.21384516845E+03  0.74552337854E+02 0.  0.
          5    1    5    5  501    0 -0.83759680506E+02  0.28472818442E+02  0.75381972136E+02  0.11632247071E+03  0.47000000000E+01 0. -1.
        -13    1    6    6    0    0 -0.41749578306E+02 -0.23614806471E+01 -0.37239705276E+02  0.55994638392E+02  0.00000000000E+00 0.  1.
         14    1    6    6    0    0 -0.15162673951E+03 -0.42738642835E+02  0.99764780306E+01  0.15785053006E+03  0.00000000000E+00 0. -1.
         -5    1    3    3    0  503  0.15151603514E+03  0.91904982887E+01  0.10188498531E+03  0.18287759402E+03  0.47000000000E+01 0.  1.
         13    1    4    4    0    0  0.35068534632E+02  0.31468572338E+02  0.13729425893E+02  0.49077187181E+02  0.00000000000E+00 0. -1.
        -14    1    4    4    0    0  0.90551428546E+02 -0.24031765587E+02 -0.42384752213E+02  0.10282778899E+03  0.00000000000E+00 0.  1.
</event>
<event>
12    1  0.8724767E-002  0.3150048E+03  0.7818608E-02  0.1078001E+00
         21   -1    0    0  501  502  0.00000000000E+00  0.00000000000E+00  0.11595426790E+03  0.11595426790E+03  0.00000000000E+00 0. -1.
         21   -1    0    0  502  503 -0.00000000000E+00 -0.00000000000E+00 -0.85868493774E+03  0.85868493774E+03  0.00000000000E+00 0.  1.
         -6    2    1    2    0  503  0.19062259429E+03 -0.18387148176E+03 -0.40317822485E+03  0.51164512238E+03  0.17053549488E+03 0.  0.
        -24    2    3    3    0    0  0.18643162062E+03 -0.98434934098E+02 -0.25648050347E+03  0.34176493109E+03  0.81085350391E+02 0.  0.
          6    2    1    2  501    0 -0.19062259429E+03  0.18387148176E+03 -0.33955244500E+03  0.46299408326E+03  0.17006458473E+03 0.  0.
         24    2    5    5    0    0 -0.19514565287E+03  0.16822204436E+03 -0.35091338909E+03  0.44258516363E+03  0.79755491230E+02 0.  0.
          5    1    5    5  501    0  0.45230585844E+01  0.15649437393E+02  0.11360944096E+02  0.20408919629E+02  0.47000000000E+01 0. -1.
        -13    1    6    6    0    0  0.26394676957E+01  0.20764744657E+02 -0.44681960374E+02  0.49341858429E+02  0.00000000000E+00 0.  1.
         14    1    6    6    0    0 -0.19778512057E+03  0.14745729970E+03 -0.30623142872E+03  0.39324330521E+03  0.00000000000E+00 0. -1.
         -5    1    3    3    0  503  0.41909736699E+01 -0.85436547658E+02 -0.14669772137E+03  0.16988019129E+03  0.47000000000E+01 0.  1.
         11    1    4    4    0    0  0.72853808267E+02 -0.62833608444E+02 -0.64320081701E+02  0.11572732019E+03  0.00000000000E+00 0. -1.
        -12    1    4    4    0    0  0.11357781235E+03 -0.35601325653E+02 -0.19216042177E+03  0.22603761090E+03  0.00000000000E+00 0.  1.
</event>
<event>
12    1  0.8724767E-002  0.2951255E+03  0.7818608E-02  0.1087730E+00
         21   -1    0    0  501  502  0.00000000000E+00  0.00000000000E+00  0.20619112115E+04  0.20619112115E+04  0.00000000000E+00 0.  1.
         21   -1    0    0  502  503 -0.00000000000E+00 -0.00000000000E+00 -0.90957318660E+02  0.90957318660E+02  0.00000000000E+00 0.  1.
         -6    2    1    2    0  503  0.78678680969E+02 -0.22676084982E+03  0.19762289277E+03  0.35518149669E+03  0.17172148961E+03 0.  0.
        -24    2    3    3    0    0  0.15698411426E+02 -0.48618701829E+02  0.11601952263E+03  0.14931178240E+03  0.78887644430E+02 0.  0.
          6    2    1    2  501    0 -0.78678680969E+02  0.22676084982E+03  0.17733310001E+04  0.17976870335E+04  0.17136223811E+03 0.  0.
         24    2    5    5    0    0 -0.23127310534E+02  0.22158878395E+03  0.15317706068E+04  0.15497228856E+04  0.75388120365E+02 0.  0.
          5    1    5    5  501    0 -0.55551370435E+02  0.51720658691E+01  0.24156039327E+03  0.24796414785E+03  0.47000000000E+01 0. -1.
        -11    1    6    6    0    0 -0.22049437058E+02  0.23385780415E+02  0.34719907853E+03  0.34868362814E+03  0.00000000000E+00 0.  1.
         12    1    6    6    0    0 -0.10778734765E+01  0.19820300354E+03  0.11845715283E+04  0.12010392575E+04  0.00000000000E+00 0. -1.
         -5    1    3    3    0  503  0.62980269543E+02 -0.17814214799E+03  0.81603370139E+02  0.20586971429E+03  0.47000000000E+01 0.  1.
         13    1    4    4    0    0  0.10710327548E+02 -0.11268250317E+01 -0.99081093610E+01  0.14633915468E+02  0.00000000000E+00 0. -1.
        -14    1    4    4    0    0  0.49880838781E+01 -0.47491876797E+02  0.12592763200E+03  0.13467786694E+03  0.00000000000E+00 0.  1.
</event>
<event>
12    1  0.8724767E-002  0.2160640E+03  0.7818608E-02  0.1136935E+00
         21   -1    0    0  501  502  0.00000000000E+00  0.00000000000E+00  0.88344160043E+02  0.88344160043E+02  0.00000000000E+00 0. -1.
         21   -1    0    0  502  503 -0.00000000000E+00 -0.00000000000E+00 -0.52810105157E+03  0.52810105157E+03  0.00000000000E+00 0. -1.
         -6    2    1    2    0  503 -0.16050295110E+02  0.12958920527E+03 -0.20858118895E+03  0.30031610671E+03  0.17214144611E+03 0.  0.
        -24    2    3    3    0    0 -0.14606263106E+02  0.97558063709E+01 -0.35536550337E+02  0.89772368562E+02  0.80546341118E+02 0.  0.
          6    2    1    2  501    0  0.16050295110E+02 -0.12958920527E+03 -0.23117570258E+03  0.31612910491E+03  0.17159379771E+03 0.  0.
         24    2    5    5    0    0  0.13746007690E+02 -0.43830514375E+02 -0.29330903576E+02  0.96758925329E+02  0.79949490358E+02 0.  0.
          5    1    5    5  501    0  0.23042874196E+01 -0.85758690893E+02 -0.20184479900E+03  0.21937017958E+03  0.47000000000E+01 0. -1.
        -11    1    6    6    0    0  0.34817832555E+02 -0.23486172485E+02 -0.46619048734E+02  0.62747250671E+02  0.00000000000E+00 0.  1.
         12    1    6    6    0    0 -0.21071824865E+02 -0.20344341890E+02  0.17288145158E+02  0.34011674658E+02  0.00000000000E+00 0. -1.
         -5    1    3    3    0  503 -0.14440320040E+01  0.11983339890E+03 -0.17304463861E+03  0.21054373815E+03  0.47000000000E+01 0.  1.
         11    1    4    4    0    0  0.28399215357E+02  0.67717566127E+01 -0.36391185124E+02  0.46655015542E+02  0.00000000000E+00 0. -1.
        -12    1    4    4    0    0 -0.43005478463E+02  0.29840497583E+01  0.85463478721E+00  0.43117353020E+02  0.00000000000E+00 0.  1.
</event>
<event>
12    1  0.8724767E-002  0.1906402E+03  0.7818608E-02  0.1158624E+00
         21   -1    0    0  503  502  0.00000000000E+00  0.00000000000E+00  0.76295435364E+03  0.76295435364E+03  0.00000000000E+00 0.  1.
         21   -1    0    0  501  503 -0.00000000000E+00 -0.00000000000E+00 -0.76849014297E+02  0.76849014297E+02  0.00000000000E+00 0.  1.
          6    2    1    2  501    0 -0.62551988011E+02 -0.33572727375E+02  0.82398287464E+02  0.20768525825E+03  0.17692882606E+03 0.  0.
         24    2    3    3    0    0  0.13174165594E+02 -0.20628298859E+02 -0.14444647003E+02  0.83981367747E+02  0.79026178882E+02 0.  0.
         -6    2    1    2    0  502  0.62551988011E+02  0.33572727375E+02  0.60370705188E+03  0.63211810969E+03  0.17341055584E+03 0.  0.
        -24    2    5    5    0    0  0.60770067326E+02 -0.48926881077E+02  0.33895059779E+03  0.35476016295E+03  0.69860036499E+02 0.  0.
          5    1    3    3  501    0 -0.75726153605E+02 -0.12944428517E+02  0.96842934467E+02  0.12370389050E+03  0.47000000000E+01 0. -1.
        -13    1    4    4    0    0  0.34203092656E+02 -0.24380771774E+02 -0.34746024328E+02  0.54512015062E+02  0.00000000000E+00 0.  1.
         14    1    4    4    0    0 -0.21028927062E+02  0.37524729147E+01  0.20301377325E+02  0.29469352685E+02  0.00000000000E+00 0. -1.
         -5    1    5    5    0  502  0.17819206851E+01  0.82499608452E+02  0.26475645409E+03  0.27735794674E+03  0.47000000000E+01 0.  1.
         11    1    6    6    0    0  0.13872857601E+02 -0.55374251278E+02  0.17182759289E+03  0.18106210416E+03  0.00000000000E+00 0. -1.
        -12    1    6    6    0    0  0.46897209725E+02  0.64473702012E+01  0.16712300490E+03  0.17369805879E+03  0.00000000000E+00 0.  1.
</event>
<event>
12    1  0.8724767E-002  0.2458161E+03  0.7818608E-02  0.1116457E+00
         21   -1    0    0  503  502  0.00000000000E+00  0.00000000000E+00  0.45789418942E+03  0.45789418942E+03  0.00000000000E+00 0.  1.
         21   -1    0    0  501  503 -0.00000000000E+00 -0.00000000000E+00 -0.16958209243E+03  0.16958209243E+03  0.00000000000E+00 0.  1.
          6    2    1    2  501    0 -0.11815170567E+03 -0.12860872943E+03 -0.73451863820E+01  0.24297820826E+03  0.16877330087E+03 0.  0.
         24    2    3    3    0    0 -0.66101990844E+02 -0.87932021685E+02 -0.69697716267E+02  0.15201835255E+03  0.78423811621E+02 0.  0.
         -6    2    1    2    0  502  0.11815170567E+03  0.12860872943E+03  0.29565728337E+03  0.38449807359E+03  0.17298990880E+03 0.  0.
        -24    2    5    5    0    0  0.35352058496E+02  0.64897416278E+01  0.16928049497E+03  0.19017357333E+03  0.78855673423E+02 0.  0.
          5    1    3    3  501    0 -0.52049714823E+02 -0.40676707745E+02  0.62352529885E+02  0.90959855701E+02  0.47000000000E+01 0. -1.
        -13    1    4    4    0    0 -0.49723004849E+02 -0.85558054904E+01 -0.10196927774E+02  0.51473841461E+02  0.00000000000E+00 0.  1.
         14    1    4    4    0    0 -0.16378985996E+02 -0.79376216195E+02 -0.59500788493E+02  0.10054451109E+03  0.00000000000E+00 0. -1.
         -5    1    5    5    0  502  0.82799647171E+02  0.12211898780E+03  0.12637678841E+03  0.19432450026E+03  0.47000000000E+01 0.  1.
         13    1    6    6    0    0  0.23932727980E+02  0.18483664842E+02  0.12829284605E+02  0.32848316213E+02  0.00000000000E+00 0. -1.
        -14    1    6    6    0    0  0.11419330516E+02 -0.11993923214E+02  0.15645121036E+03  0.15732525712E+03  0.00000000000E+00 0.  1.
</event>
<event>
12    1  0.8724767E-002  0.2181458E+03  0.7818608E-02  0.1135307E+00
         21   -1    0    0  503  502  0.00000000000E+00  0.00000000000E+00  0.69389018697E+02  0.69389018697E+02  0.00000000000E+00 0.  1.
         21   -1    0    0  501  503 -0.00000000000E+00 -0.00000000000E+00 -0.70128482420E+03  0.70128482420E+03  0.00000000000E+00 0.  1.
          6    2    1    2  501    0  0.25402206947E+02 -0.13196838592E+03 -0.37436228109E+03  0.43328363037E+03  0.17183323265E+03 0.  0.
         24    2    3    3    0    0  0.72857913809E+02 -0.64002850080E+02 -0.15923683731E+03  0.20269220655E+03  0.79518047118E+02 0.  0.
         -6    2    1    2    0  502 -0.25402206947E+02  0.13196838592E+03 -0.25753352441E+03  0.33739021253E+03  0.17160335752E+03 0.  0.
        -24    2    5    5    0    0  0.28591959455E+02  0.18785164439E+02 -0.69421230155E+02  0.11126162769E+03  0.79934098174E+02 0.  0.
          5    1    3    3  501    0 -0.47455706862E+02 -0.67965535845E+02 -0.21512544378E+03  0.23059142382E+03  0.47000000000E+01 0. -1.
        -11    1    4    4    0    0  0.35297873554E+02 -0.72636304526E+02 -0.13454450582E+03  0.15692098859E+03  0.00000000000E+00 0.  1.
         12    1    4    4    0    0  0.37560040255E+02  0.86334544462E+01 -0.24692331491E+02  0.45771217966E+02  0.00000000000E+00 0. -1.
         -5    1    5    5    0  502 -0.53994166402E+02  0.11318322149E+03 -0.18811229426E+03  0.22612858484E+03  0.47000000000E+01 0.  1.
         11    1    6    6    0    0  0.35751366558E+02  0.12353850865E+02 -0.84950981157E+02  0.92991650386E+02  0.00000000000E+00 0. -1.
        -12    1    6    6    0    0 -0.71594071033E+01  0.64313135746E+01  0.15529751003E+02  0.18269977301E+02  0.00000000000E+00 0.  1.
</event>
<event>
12    1  0.8724767E-002  0.1800780E+03  0.7818608E-02  0.1167742E+00
         21   -1    0    0  503  502  0.00000000000E+00  0.00000000000E+00  0.11552303877E+04  0.11552303877E+04  0.00000000000E+00 0. -1.
         21   -1    0    0  501  503 -0.00000000000E+00 -0.00000000000E+00 -0.41701475799E+02  0.41701475799E+02  0.00000000000E+00 0. -1.
          6    2    1    2  501    0 -0.50037901539E+02 -0.20061749972E+02  0.21455442616E+03  0.28011012662E+03  0.17181913702E+03 0.  0.
         24    2    3    3    0    0 -0.29845969224E+02 -0.25857161681E+02  0.23448054968E+03  0.25077684644E+03  0.79677624471E+02 0.  0.
         -6    2    1    2    0  502  0.50037901539E+02  0.20061749972E+02  0.89897448574E+03  0.91682173688E+03  0.17175769503E+03 0.  0.
        -24    2    5    5    0    0 -0.25575476308E+02  0.37391415897E+02  0.32690356788E+03  0.33949607031E+03  0.79620450175E+02 0.  0.
          5    1    3    3  501    0 -0.20191932315E+02  0.57954117086E+01 -0.19926123521E+02  0.29333280179E+02  0.47000000000E+01 0. -1.
        -11    1    4    4    0    0 -0.48358100148E+02 -0.13756600985E+02  0.78391796810E+02  0.93129070262E+02  0.00000000000E+00 0.  1.
         12    1    4    4    0    0  0.18512130924E+02 -0.12100560695E+02  0.15608875287E+03  0.15764777618E+03  0.00000000000E+00 0. -1.
         -5    1    5    5    0  502  0.75613377847E+02 -0.17329665924E+02  0.57207091786E+03  0.57732566658E+03  0.47000000000E+01 0.  1.
         13    1    6    6    0    0  0.19327016199E+02  0.42214125346E+02  0.16243536544E+03  0.16894026720E+03  0.00000000000E+00 0. -1.
        -14    1    6    6    0    0 -0.44902492507E+02 -0.48227094492E+01  0.16446820244E+03  0.17055580311E+03  0.00000000000E+00 0.  1.
</event>
<event>
12    1  0.8724767E-002  0.2479755E+03  0.7818608E-02  0.1114657E+00
         21   -1    0    0  501  502  0.00000000000E+00  0.00000000000E+00  0.72731197711E+03  0.72731197711E+03  0.00000000000E+00 0. -1.
         21   -1    0    0  502  503 -0.00000000000E+00 -0.00000000000E+00 -0.27640529917E+03  0.27640529917E+03  0.00000000000E+00 0.  1.
         -6    2    1    2    0  503  0.15160051363E+03  0.93195276830E+02 -0.19287460671E+03  0.31382873004E+03  0.17210398755E+03 0.  0.
        -24    2    3    3    0    0  0.10624062160E+03  0.11334026081E+03 -0.19542830559E+03  0.26390927930E+03  0.85573364300E+02 0.  0.
          6    2    1    2  501    0 -0.15160051363E+03 -0.93195276830E+02  0.64378128465E+03  0.68988854624E+03  0.17269565254E+03 0.  0.
         24    2    5    5    0    0 -0.75873599959E+02 -0.10816972641E+03  0.30812901820E+03  0.34544213013E+03  0.83242300123E+02 0.  0.
          5    1    5    5  501    0 -0.75726913674E+02  0.14974449580E+02  0.33565226645E+03  0.34444641611E+03  0.47000000000E+01 0. -1.
        -11    1    6    6    0    0 -0.26603387898E+02 -0.99779560098E+02  0.23689079968E+03  0.25842010726E+03  0.00000000000E+00 0.  1.
         12    1    6    6    0    0 -0.49270212061E+02 -0.83901663127E+01  0.71238218519E+02  0.87022022874E+02  0.00000000000E+00 0. -1.
         -5    1    3    3    0  503  0.45359892031E+02 -0.20144983975E+02  0.25536988842E+01  0.49919450742E+02  0.47000000000E+01 0.  1.
         13    1    4    4    0    0  0.94642434494E+01  0.64901816507E+02 -0.10018731931E+03  0.11974688573E+03  0.00000000000E+00 0. -1.
        -14    1    4    4    0    0  0.96776378152E+02  0.48438444299E+02 -0.95240986279E+02  0.14416239358E+03  0.00000000000E+00 0.  1.
</event>
<event>
12    1  0.8724767E-002  0.1978825E+03  0.7818608E-02  0.1154127E+00
         21   -1    0    0  501  502  0.00000000000E+00  0.00000000000E+00  0.25032198876E+03  0.25032198876E+03  0.00000000000E+00 0.  1.
         21   -1    0    0  502  503 -0.00000000000E+00 -0.00000000000E+00 -0.58985794452E+03  0.58985794452E+03  0.00000000000E+00 0.  1.
         -6    2    1    2    0  503  0.94921030830E+02 -0.24045639660E+02 -0.53489422689E+03  0.57032386221E+03  0.17195720097E+03 0.  0.
        -24    2    3    3    0    0  0.16224920587E+01  0.34840377752E+02 -0.21583498363E+03  0.23269526287E+03  0.79660911371E+02 0.  0.
          6    2    1    2  501    0 -0.94921030830E+02  0.24045639660E+02  0.19535827113E+03  0.26985607107E+03  0.15833271966E+03 0.  0.
         24    2    5    5    0    0 -0.15580218640E+02 -0.34848662234E+02  0.93217156266E+02  0.12766464862E+03  0.78432466567E+02 0.  0.
          5    1    5    5  501    0 -0.79340812190E+02  0.58894301894E+02  0.10214111486E+03  0.14219142246E+03  0.47000000000E+01 0. -1.
        -13    1    6    6    0    0 -0.24889981789E+02 -0.98692321247E+01  0.97101319504E+02  0.10072526587E+03  0.00000000000E+00 0.  1.
         14    1    6    6    0    0  0.93097631488E+01 -0.24979430109E+02 -0.38841632375E+01  0.26939382742E+02  0.00000000000E+00 0. -1.
         -5    1    3    3    0  503  0.93298538771E+02 -0.58886017412E+02 -0.31905924326E+03  0.33762859934E+03  0.47000000000E+01 0.  1.
         11    1    4    4    0    0 -0.32343625634E+02  0.78253329940E+01 -0.42325592967E+02  0.53840521688E+02  0.00000000000E+00 0. -1.
        -12    1    4    4    0    0  0.33966117693E+02  0.27015044758E+02 -0.17350939067E+03  0.17885474118E+03  0.00000000000E+00 0.  1.
</event>
<event>
12    1  0.8724767E-002  0.2198245E+03  0.7818608E-02  0.1134245E+00
         21   -1    0    0  501  502  0.00000000000E+00  0.00000000000E+00  0.48556865392E+02  0.48556865392E+02  0.00000000000E+00 0.  1.
         21   -1    0    0  502  503 -0.00000000000E+00 -0.00000000000E+00 -0.11741539644E+04  0.11741539644E+04  0.00000000000E+00 0.  1.
         -6    2    1    2    0  503 -0.38532346012E+02 -0.12914993406E+03 -0.80652153922E+03  0.83594247188E+03  0.17366167080E+03 0.  0.
        -24    2    3    3    0    0  0.10330346386E+01 -0.15000066785E+03 -0.55490633843E+03  0.58034029717E+03  0.79828244198E+02 0.  0.
          6    2    1    2  501    0  0.38532346012E+02  0.12914993406E+03 -0.31907555977E+03  0.38676835790E+03  0.17209329642E+03 0.  0.
         24    2    5    5    0    0  0.81582122306E+02  0.13207852029E+03 -0.25666625579E+03  0.31074947156E+03  0.81162115633E+02 0.  0.
          5    1    5    5  501    0 -0.43049776294E+02 -0.29285862322E+01 -0.62409303987E+02  0.76018886340E+02  0.47000000000E+01 0. -1.
        -13    1    6    6    0    0  0.74215181404E+01  0.55586343112E+02 -0.14933841684E+03  0.15952079243E+03  0.00000000000E+00 0.  1.
         14    1    6    6    0    0  0.74160604166E+02  0.76492177177E+02 -0.10732783894E+03  0.15122867913E+03  0.00000000000E+00 0. -1.
         -5    1    3    3    0  503 -0.39565380651E+02  0.20850733798E+02 -0.25161520079E+03  0.25560217471E+03  0.47000000000E+01 0.  1.
         13    1    4    4    0    0  0.38101113565E+02 -0.89194409140E+02 -0.27844217173E+03  0.29485145493E+03  0.00000000000E+00 0. -1.
        -14    1    4    4    0    0 -0.37068078926E+02 -0.60806258715E+02 -0.27646416670E+03  0.28548884224E+03  0.00000000000E+00 0.  1.
</event>
<event>
12    1  0.8724767E-002  0.2643133E+03  0.7818608E-02  0.1104619E+00
         21   -1    0    0  503  502  0.00000000000E+00  0.00000000000E+00  0.88334190607E+03  0.88334190607E+03  0.00000000000E+00 0.  1.
         21   -1    0    0  501  503 -0.00000000000E+00 -0.00000000000E+00 -0.84237199531E+02  0.84237199531E+02  0.00000000000E+00 0. -1.
          6    2    1    2  501    0 -0.48392625193E+02  0.19394173703E+03  0.51990586063E+03  0.58311385724E+03  0.17252368838E+03 0.  0.
         24    2    3    3    0    0 -0.49839028963E+02  0.81284483538E+02  0.39954465016E+03  0.41818156860E+03  0.78414289387E+02 0.  0.
         -6    2    1    2    0  502  0.48392625193E+02 -0.19394173703E+03  0.27919884591E+03  0.38446524837E+03  0.17293434623E+03 0.  0.
        -24    2    5    5    0    0 -0.33199714024E+02 -0.80124372281E+02  0.79490194530E+02  0.14050349363E+03  0.76814091487E+02 0.  0.
          5    1    3    3  501    0  0.14464037702E+01  0.11265725349E+03  0.12036121047E+03  0.16493228864E+03  0.47000000000E+01 0. -1.
        -11    1    4    4    0    0  0.20091324128E+02  0.21773563516E+02  0.13311547127E+03  0.13637257079E+03  0.00000000000E+00 0.  1.
         12    1    4    4    0    0 -0.69930353091E+02  0.59510920022E+02  0.26642917889E+03  0.28180899781E+03  0.00000000000E+00 0. -1.
         -5    1    5    5    0  502  0.81592339217E+02 -0.11381736475E+03  0.19970865138E+03  0.24396175474E+03  0.47000000000E+01 0.  1.
         13    1    6    6    0    0 -0.48940136302E+02 -0.84941829170E+02  0.75028330935E+02  0.12344837677E+03  0.00000000000E+00 0. -1.
        -14    1    6    6    0    0  0.15740422278E+02  0.48174568898E+01  0.44618635958E+01  0.17055116861E+02  0.00000000000E+00 0.  1.
</event>
<event>
12    1  0.8724767E-002  0.4001826E+03  0.7818608E-02  0.1043898E+00
         21   -1    0    0  501  502  0.00000000000E+00  0.00000000000E+00  0.56308714588E+03  0.56308714588E+03  0.00000000000E+00 0. -1.
         21   -1    0    0  502  503 -0.00000000000E+00 -0.00000000000E+00 -0.28964544391E+03  0.28964544391E+03  0.00000000000E+00 0.  1.
         -6    2    1    2    0  503  0.31244475929E+03 -0.18152957728E+03  0.72119603436E+02  0.40662921907E+03  0.17196327970E+03 0.  0.
        -24    2    3    3    0    0  0.11108002609E+03 -0.42864139185E+02  0.74615762704E+02  0.16208028672E+03  0.80786141617E+02 0.  0.
          6    2    1    2  501    0 -0.31244475929E+03  0.18152957728E+03  0.20132209853E+03  0.44610337072E+03  0.16704165641E+03 0.  0.
         24    2    5    5    0    0 -0.22565484177E+03  0.16002884827E+03  0.21101349160E+03  0.35604347825E+03  0.75570661484E+02 0.  0.
          5    1    5    5  501    0 -0.86789917530E+02  0.21500729008E+02 -0.96913930655E+01  0.90059892473E+02  0.47000000000E+01 0. -1.
        -13    1    6    6    0    0 -0.65486693174E+02  0.12218728357E+02  0.68996904982E+02  0.95908170677E+02  0.00000000000E+00 0.  1.
         14    1    6    6    0    0 -0.16016814859E+03  0.14781011991E+03  0.14201658662E+03  0.26013530757E+03  0.00000000000E+00 0. -1.
         -5    1    3    3    0  503  0.20136473321E+03 -0.13866543809E+03 -0.24961592675E+01  0.24454893235E+03  0.47000000000E+01 0.  1.
         13    1    4    4    0    0  0.10527488197E+02 -0.34012183890E+02 -0.15333784064E+01  0.35637170343E+02  0.00000000000E+00 0. -1.
        -14    1    4    4    0    0  0.10055253789E+03 -0.88519552955E+01  0.76149141110E+02  0.12644311638E+03  0.00000000000E+00 0.  1.
</event>
<event>
12    1  0.8724767E-002  0.1776320E+03  0.7818608E-02  0.1171243E+00
         21   -1    0    0  501  502  0.00000000000E+00  0.00000000000E+00  0.26634353028E+03  0.26634353028E+03  0.00000000000E+00 0.  1.
         21   -1    0    0  502  503 -0.00000000000E+00 -0.00000000000E+00 -0.40283926255E+03  0.40283926255E+03  0.00000000000E+00 0.  1.
         -6    2    1    2    0  503 -0.10545666560E+02 -0.13403881202E+02 -0.35109034872E+03  0.39346863251E+03  0.17681135906E+03 0.  0.
        -24    2    3    3    0    0 -0.47597661896E+02 -0.20286493877E+02 -0.34133743601E+03  0.35425855699E+03  0.79440548415E+02 0.  0.
          6    2    1    2  501    0  0.10545666560E+02  0.13403881202E+02  0.21459461645E+03  0.27571416033E+03  0.17226889935E+03 0.  0.
         24    2    5    5    0    0 -0.98502083732E+00 -0.13283482429E+02  0.28479310634E+02  0.87283352899E+02  0.81424144992E+02 0.  0.
          5    1    5    5  501    0  0.11530687397E+02  0.26687363630E+02  0.18611530581E+03  0.18843080743E+03  0.47000000000E+01 0. -1.
        -11    1    6    6    0    0  0.14695140582E+01  0.10075122835E+02  0.52623628491E+02  0.53599569469E+02  0.00000000000E+00 0.  1.
         12    1    6    6    0    0 -0.24545348955E+01 -0.23358605264E+02 -0.24144317857E+02  0.33683783431E+02  0.00000000000E+00 0. -1.
         -5    1    3    3    0  503  0.37051995336E+02  0.68826126757E+01 -0.97529127104E+01  0.39210075516E+02  0.47000000000E+01 0.  1.
         13    1    4    4    0    0  0.14263065444E+02  0.13141401172E+01 -0.12669108785E+02  0.19122455844E+02  0.00000000000E+00 0. -1.
        -14    1    4    4    0    0 -0.61860727339E+02 -0.21600633995E+02 -0.32866832722E+03  0.33513610115E+03  0.00000000000E+00 0.  1.
</event>
<event>
12    1  0.8724767E-002  0.1789361E+03  0.7818608E-02  0.1170722E+00
         21   -1    0    0  503  502  0.00000000000E+00  0.00000000000E+00  0.74764892656E+03  0.74764892656E+03  0.00000000000E+00 0. -1.
         21   -1    0    0  501  503 -0.00000000000E+00 -0.00000000000E+00 -0.65369959499E+02  0.65369959499E+02  0.00000000000E+00 0. -1.
          6    2    1    2  501    0  0.68503039745E+01  0.50420867124E+02  0.97773163384E+02  0.20390612931E+03  0.17154861581E+03 0.  0.
         24    2    3    3    0    0 -0.45693756777E+02  0.15330730294E+02  0.10311306428E+03  0.14032310828E+03  0.82068995313E+02 0.  0.
         -6    2    1    2    0  502 -0.68503039745E+01 -0.50420867124E+02  0.58450580367E+03  0.60911275674E+03  0.16365245305E+03 0.  0.
        -24    2    5    5    0    0 -0.30518032265E+02 -0.14947401396E+02  0.13803948649E+03  0.16058985820E+03  0.74695566304E+02 0.  0.
          5    1    3    3  501    0  0.52544060751E+02  0.35090136830E+02 -0.53399008925E+01  0.63583021040E+02  0.47000000000E+01 0. -1.
        -13    1    4    4    0    0 -0.44572583529E+02 -0.16539023065E+00  0.96862076822E+01  0.45613212731E+02  0.00000000000E+00 0.  1.
         14    1    4    4    0    0 -0.11211732475E+01  0.15496120525E+02  0.93426856595E+02  0.94709895544E+02  0.00000000000E+00 0. -1.
         -5    1    5    5    0  502  0.23667728290E+02 -0.35473465728E+02  0.44646631718E+03  0.44852289854E+03  0.47000000000E+01 0.  1.
         11    1    6    6    0    0  0.26213778301E+01 -0.37246488847E+02  0.93947612945E+02  0.10109563062E+03  0.00000000000E+00 0. -1.
        -12    1    6    6    0    0 -0.33139410095E+02  0.22299087450E+02  0.44091873544E+02  0.59494227579E+02  0.00000000000E+00 0.  1.
</event>
<event>
12    1  0.8724767E-002  0.2156624E+03  0.7818608E-02  0.1138236E+00
         21   -1    0    0  503  502  0.00000000000E+00  0.00000000000E+00  0.18559173515E+03  0.18559173515E+03  0.00000000000E+00 0. -1.
         21   -1    0    0  501  503 -0.00000000000E+00 -0.00000000000E+00 -0.28753062501E+03  0.28753062501E+03  0.00000000000E+00 0. -1.
          6    2    1    2  501    0  0.65135230694E+02  0.10150779169E+03 -0.14223750170E+03  0.25372719458E+03  0.17204520431E+03 0.  0.
         24    2    3    3    0    0  0.77665769241E+02  0.12744039384E+03 -0.86244069324E+02  0.19058553860E+03  0.81312866988E+02 0.  0.
         -6    2    1    2    0  502 -0.65135230694E+02 -0.10150779169E+03  0.40298611848E+02  0.21939516558E+03  0.17878431282E+03 0.  0.
        -24    2    5    5    0    0 -0.23830556504E+02 -0.83340847873E+02  0.92183619347E+02  0.15047305040E+03  0.81429275278E+02 0.  0.
          5    1    3    3  501    0 -0.12530538547E+02 -0.25932602143E+02 -0.55993432378E+02  0.63141655978E+02  0.47000000000E+01 0. -1.
        -11    1    4    4    0    0  0.28375472125E+02  0.86848636541E+02 -0.11197471302E+02  0.92050184416E+02  0.00000000000E+00 0.  1.
         12    1    4    4    0    0  0.49290297116E+02  0.40591757296E+02 -0.75046598022E+02  0.98535354188E+02  0.00000000000E+00 0. -1.
         -5    1    5    5    0  502 -0.41304674190E+02 -0.18166943822E+02 -0.51885007498E+02  0.68922115180E+02  0.47000000000E+01 0.  1.
         13    1    6    6    0    0 -0.43891922116E+02 -0.87644667796E+02  0.71404769196E+02  0.12127130610E+03  0.00000000000E+00 0. -1.
        -14    1    6    6    0    0  0.20061365612E+02  0.43038199232E+01  0.20778850151E+02  0.29201744293E+02  0.00000000000E+00 0.  1.
</event>
<event>
12    1  0.8724767E-002  0.2362008E+03  0.7818608E-02  0.1122456E+00
         21   -1    0    0  503  502  0.00000000000E+00  0.00000000000E+00  0.41147463770E+02  0.41147463770E+02  0.00000000000E+00 0.  1.
         21   -1    0    0  501  503 -0.00000000000E+00 -0.00000000000E+00 -0.15753625437E+04  0.15753625437E+04  0.00000000000E+00 0.  1.
          6    2    1    2  501    0  0.16152888876E+03 -0.88954192377E+01 -0.46383699203E+03  0.52051470501E+03  0.17210488829E+03 0.  0.
         24    2    3    3    0    0  0.11059144323E+03 -0.71210252360E+02 -0.30287786817E+03  0.34049334145E+03  0.83062297052E+02 0.  0.
         -6    2    1    2    0  502 -0.16152888876E+03  0.88954192377E+01 -0.10703780879E+04  0.10959953024E+04  0.17124760307E+03 0.  0.
        -24    2    5    5    0    0 -0.16716173203E+03 -0.26699357259E+01 -0.10655133028E+04  0.10814611188E+04  0.79305610465E+02 0.  0.
          5    1    3    3  501    0  0.50937445531E+02  0.62314833122E+02 -0.16095912386E+03  0.18002136356E+03  0.47000000000E+01 0. -1.
        -11    1    4    4    0    0  0.83429480567E+02 -0.14611632103E+02 -0.22530674071E+03  0.24070127842E+03  0.00000000000E+00 0.  1.
         12    1    4    4    0    0  0.27161962659E+02 -0.56598620256E+02 -0.77571127453E+02  0.99792063035E+02  0.00000000000E+00 0. -1.
         -5    1    5    5    0  502  0.56328432696E+01  0.11565354964E+02 -0.48647850314E+01  0.14534183573E+02  0.47000000000E+01 0.  1.
         11    1    6    6    0    0 -0.44695187204E+02  0.12178871455E+02 -0.52541608749E+03  0.52745431050E+03  0.00000000000E+00 0. -1.
        -12    1    6    6    0    0 -0.12246654482E+03 -0.14848807180E+02 -0.54009721534E+03  0.55400680835E+03  0.00000000000E+00 0.  1.
</event>
<event>
12    1  0.8724767E-002  0.2422127E+03  0.7818608E-02  0.1118611E+00
         21   -1    0    0  503  502  0.00000000000E+00  0.00000000000E+00  0.12797085533E+03  0.12797085533E+03  0.00000000000E+00 0.  1.
         21   -1    0    0  501  503 -0.00000000000E+00 -0.00000000000E+00 -0.48684550861E+03  0.48684550861E+03  0.00000000000E+00 0. -1.
          6    2    1    2  501    0  0.27072148903E+02  0.16702632678E+03 -0.25841777934E+03  0.35418461026E+03  0.17330982194E+03 0.  0.
         24    2    3    3    0    0  0.26629577601E+02  0.10723346372E+02 -0.77812895850E+02  0.11528916975E+03  0.80078844528E+02 0.  0.
         -6    2    1    2    0  502 -0.27072148903E+02 -0.16702632678E+03 -0.10045687394E+03  0.26063175367E+03  0.17089948044E+03 0.  0.
        -24    2    5    5    0    0  0.29146138536E+02 -0.13982413812E+03 -0.28782612487E+02  0.16544906267E+03  0.78387923597E+02 0.  0.
          5    1    3    3  501    0  0.44257130196E+00  0.15630298041E+03 -0.18060488349E+03  0.23889544051E+03  0.47000000000E+01 0. -1.
        -11    1    4    4    0    0  0.21271558344E+02 -0.23049032737E+01  0.11896154720E+02  0.24480814337E+02  0.00000000000E+00 0.  1.
         12    1    4    4    0    0  0.53580192571E+01  0.13028249645E+02 -0.89709050570E+02  0.90808355416E+02  0.00000000000E+00 0. -1.
         -5    1    5    5    0  502 -0.56218287439E+02 -0.27202188668E+02 -0.71674261457E+02  0.95182691001E+02  0.47000000000E+01 0.  1.
         11    1    6    6    0    0  0.15236118920E+02 -0.17799718309E+02 -0.35405332829E+02  0.42455940508E+02  0.00000000000E+00 0. -1.
        -12    1    6    6    0    0  0.13910019616E+02 -0.12202441981E+03  0.66227203420E+01  0.12299312216E+03  0.00000000000E+00 0.  1.
</event>
<event>
12    1  0.8724767E-002  0.1977645E+03  0.7818608E-02  0.1151753E+00
         21   -1    0    0  503  502  0.00000000000E+00  0.00000000000E+00  0.65929481125E+02  0.65929481125E+02  0.00000000000E+00 0. -1.
         21   -1    0    0  501  503 -0.00000000000E+00 -0.00000000000E+00 -0.65616168197E+03  0.65616168197E+03  0.00000000000E+00 0. -1.
          6    2    1    2  501    0 -0.80310570019E+02 -0.53157831887E+02 -0.40798616540E+03  0.45315917649E+03  0.17211910218E+03 0.  0.
         24    2    3    3    0    0 -0.11138748085E+03 -0.14921353377E+02 -0.22281502236E+03  0.26148694353E+03  0.78096541352E+02 0.  0.
         -6    2    1    2    0  502  0.80310570019E+02  0.53157831887E+02 -0.18224603544E+03  0.26893198660E+03  0.17272884309E+03 0.  0.
        -24    2    5    5    0    0  0.31842199851E+02  0.67773951101E+01 -0.11517337358E+02  0.85436193263E+02  0.78146242927E+02 0.  0.
          5    1    3    3  501    0  0.31076910827E+02 -0.38236478510E+02 -0.18517114304E+03  0.19167223296E+03  0.47000000000E+01 0. -1.
        -13    1    4    4    0    0 -0.11833946525E+03 -0.15114445859E+02 -0.22458982513E+03  0.25430938847E+03  0.00000000000E+00 0.  1.
         14    1    4    4    0    0  0.69519844006E+01  0.19309248268E+00  0.17748027726E+01  0.71775550638E+01  0.00000000000E+00 0. -1.
         -5    1    5    5    0  502  0.48468370168E+02  0.46380436777E+02 -0.17072869808E+03  0.18349579334E+03  0.47000000000E+01 0.  1.
         11    1    6    6    0    0  0.52971171678E+02 -0.41660647160E+01  0.91526752017E+01  0.53917275409E+02  0.00000000000E+00 0. -1.
        -12    1    6    6    0    0 -0.21128971827E+02  0.10943459826E+02 -0.20670012560E+02  0.31518917854E+02  0.00000000000E+00 0.  1.
</event>
<event>
12    1  0.8724767E-002  0.1953544E+03  0.7818608E-02  0.1157946E+00
         21   -1    0    0  503  502  0.00000000000E+00  0.00000000000E+00  0.40435132034E+02  0.40435132034E+02  0.00000000000E+00 0. -1.
         21   -1    0    0  501  503 -0.00000000000E+00 -0.00000000000E+00 -0.85720777747E+03  0.85720777747E+03  0.00000000000E+00 0. -1.
          6    2    1    2  501    0 -0.36483780450E+02 -0.34627206049E+02 -0.37890014987E+03  0.41816852824E+03  0.16961569740E+03 0.  0.
         24    2    3    3    0    0 -0.74877639363E+02  0.76304963031E+01 -0.18610124100E+03  0.21703844329E+03  0.82505324758E+02 0.  0.
         -6    2    1    2    0  502  0.36483780450E+02  0.34627206049E+02 -0.43787249556E+03  0.47947438126E+03  0.18876771515E+03 0.  0.
        -24    2    5    5    0    0  0.17708621348E+02 -0.58116447202E+02 -0.26718589010E+03  0.28425681263E+03  0.75647332760E+02 0.  0.
          5    1    3    3  501    0  0.38393858913E+02 -0.42257702352E+02 -0.19279890887E+03  0.20113008495E+03  0.47000000000E+01 0. -1.
        -13    1    4    4    0    0  0.38904875757E+01  0.29279803346E+02 -0.58397332062E+02  0.65442273566E+02  0.00000000000E+00 0.  1.
         14    1    4    4    0    0 -0.78768126938E+02 -0.21649307042E+02 -0.12770390894E+03  0.15159616972E+03  0.00000000000E+00 0. -1.
         -5    1    5    5    0  502  0.18775159102E+02  0.92743653251E+02 -0.17068660546E+03  0.19521756863E+03  0.47000000000E+01 0.  1.
         13    1    6    6    0    0  0.37134365227E+02 -0.18506982644E+02 -0.19726815644E+03  0.20158421326E+03  0.00000000000E+00 0. -1.
        -14    1    6    6    0    0 -0.19425743880E+02 -0.39609464559E+02 -0.69917733655E+02  0.82672599374E+02  0.00000000000E+00 0.  1.
</event>
<event>
12    1  0.8724767E-002  0.1778200E+03  0.7818608E-02  0.1170187E+00
         21   -1    0    0  503  502  0.00000000000E+00  0.00000000000E+00  0.54666512137E+03  0.54666512137E+03  0.00000000000E+00 0.  1.
         21   -1    0    0  501  503 -0.00000000000E+00 -0.00000000000E+00 -0.68290063589E+02  0.68290063589E+02  0.00000000000E+00 0.  1.
          6    2    1    2  501    0  0.16594441111E+02  0.40267273359E+02  0.11638549069E+03  0.21164833329E+03  0.17132602185E+03 0.  0.
         24    2    3    3    0    0 -0.21756741818E+02  0.32004456679E+02  0.13906206847E+03  0.16609172509E+03  0.82161798884E+02 0.  0.
         -6    2    1    2    0  502 -0.16594441111E+02 -0.40267273359E+02  0.36198956709E+03  0.40330685167E+03  0.17240400558E+03 0.  0.
        -24    2    5    5    0    0 -0.33080687903E+02 -0.81984047060E+02  0.16585485833E+03  0.20205328145E+03  0.74175323599E+02 0.  0.
          5    1    3    3  501    0  0.38351182929E+02  0.82628166798E+01 -0.22676577774E+02  0.45556608204E+02  0.47000000000E+01 0. -1.
        -11    1    4    4    0    0 -0.43085482549E+02  0.10353690413E+02  0.31628000941E+02  0.54441603166E+02  0.00000000000E+00 0.  1.
         12    1    4    4    0    0  0.21328740732E+02  0.21650766267E+02  0.10743406752E+03  0.11165012192E+03  0.00000000000E+00 0. -1.
         -5    1    5    5    0  502  0.16486246792E+02  0.41716773701E+02  0.19613470876E+03  0.20125357021E+03  0.47000000000E+01 0.  1.
         11    1    6    6    0    0  0.60733262552E+01 -0.12680320031E+02 -0.38761025838E+01  0.14584237352E+02  0.00000000000E+00 0. -1.
        -12    1    6    6    0    0 -0.39154014158E+02 -0.69303727030E+02  0.16973096091E+03  0.18746904410E+03  0.00000000000E+00 0.  1.
</event>
<event>
12    1  0.8724767E-002  0.2757571E+03  0.7818608E-02  0.1098176E+00
         21   -1    0    0  501  502  0.00000000000E+00  0.00000000000E+00  0.11437897169E+04  0.11437897169E+04  0.00000000000E+00 0. -1.
         21   -1    0    0  502  503 -0.00000000000E+00 -0.00000000000E+00 -0.10812047007E+03  0.10812047007E+03  0.00000000000E+00 0. -1.
         -6    2    1    2    0  503  0.21532640545E+03 -0.10284506414E+02  0.12759466446E+03  0.30288888819E+03  0.17026464176E+03 0.  0.
        -24    2    3    3    0    0  0.21932773662E+03  0.93906806868E+01  0.68241683040E+02  0.24005585514E+03  0.69116172830E+02 0.  0.
          6    2    1    2  501    0 -0.21532640545E+03  0.10284506414E+02  0.90807458234E+03  0.94902129875E+03  0.17196146791E+03 0.  0.
         24    2    5    5    0    0 -0.17059958277E+03  0.63142581427E+02  0.54672054435E+03  0.58106301915E+03  0.75097772106E+02 0.  0.
          5    1    5    5  501    0 -0.44726822677E+02 -0.52858075013E+02  0.36135403798E+03  0.36795827960E+03  0.47000000000E+01 0. -1.
        -11    1    6    6    0    0 -0.10495409952E+03  0.35641941684E+02  0.21609605130E+03  0.24286460096E+03  0.00000000000E+00 0.  1.
         12    1    6    6    0    0 -0.65645483244E+02  0.27500639743E+02  0.33062449305E+03  0.33819841818E+03  0.00000000000E+00 0. -1.
         -5    1    3    3    0  503 -0.40013311765E+01 -0.19675187101E+02  0.59352981421E+02  0.62833033050E+02  0.47000000000E+01 0.  1.
         13    1    4    4    0    0  0.19379103088E+03 -0.13958981071E+02  0.48647537970E+02  0.20029078799E+03  0.00000000000E+00 0. -1.
        -14    1    4    4    0    0  0.25536705737E+02  0.23349661758E+02  0.19594145070E+02  0.39765067146E+02  0.00000000000E+00 0.  1.
</event>
<event>
12    1  0.8724767E-002  0.2193965E+03  0.7818608E-02  0.1134411E+00
         21   -1    0    0  503  502  0.00000000000E+00  0.00000000000E+00  0.51043496867E+03  0.51043496867E+03  0.00000000000E+00 0.  1.
         21   -1    0    0  501  503 -0.00000000000E+00 -0.00000000000E+00 -0.96826259911E+02  0.96826259911E+02  0.00000000000E+00 0.  1.
          6    2    1    2  501    0 -0.13595723699E+03 -0.90682058901E+01  0.15588372165E+03  0.26879856352E+03  0.17142441607E+03 0.  0.
         24    2    3    3    0    0 -0.84645220096E+02  0.22489210820E+02  0.17056164872E+02  0.11739191192E+03  0.76284797536E+02 0.  0.
         -6    2    1    2    0  502  0.13595723699E+03  0.90682058901E+01  0.25772498710E+03  0.33846266506E+03  0.17195407531E+03 0.  0.
        -24    2    5    5    0    0  0.15799842119E+02 -0.33760670066E+02  0.87453804920E+02  0.12565646769E+03  0.82170323252E+02 0.  0.
          5    1    3    3  501    0 -0.51312016891E+02 -0.31557416710E+02  0.13882755678E+03  0.15140665160E+03  0.47000000000E+01 0. -1.
        -13    1    4    4    0    0 -0.68214033233E+01 -0.14382778127E+02 -0.18339791934E+02  0.24284641610E+02  0.00000000000E+00 0.  1.
         14    1    4    4    0    0 -0.77823816773E+02  0.36871988947E+02  0.35395956805E+02  0.93107270307E+02  0.00000000000E+00 0. -1.
         -5    1    5    5    0  502  0.12015739487E+03  0.42828875956E+02  0.17027118218E+03  0.21280619737E+03  0.47000000000E+01 0.  1.
         13    1    6    6    0    0  0.55965429193E+01 -0.50475630672E+02  0.18619384372E+02  0.54090591222E+02  0.00000000000E+00 0. -1.
        -14    1    6    6    0    0  0.10203299200E+02  0.16714960606E+02  0.68834420548E+02  0.71565876469E+02  0.00000000000E+00 0.  1.
</event>
<event>
12    1  0.8724767E-002  0.1763571E+03  0.7818608E-02  0.1171533E+00
         21   -1    0    0  501  502  0.00000000000E+00  0.00000000000E+00  0.30938436482E+03  0.30938436482E+03  0.00000000000E+00 0. -1.
         21   -1    0    0  502  503 -0.00000000000E+00 -0.00000000000E+00 -0.24880730414E+03  0.24880730414E+03  0.00000000000E+00 0. -1.
         -6    2    1    2    0  503 -0.33523353422E+02 -0.15050225164E+02 -0.18540790161E+03  0.25588651487E+03  0.17248621396E+03 0.  0.
        -24    2    3    3    0    0  0.16797087494E+02 -0.45413795952E+02 -0.17141797747E+03  0.19529030061E+03  0.80060124288E+02 0.  0.
          6    2    1    2  501    0  0.33523353422E+02  0.15050225164E+02  0.24598496229E+03  0.30230515409E+03  0.17184143858E+03 0.  0.
         24    2    5    5    0    0 -0.48062592030E+02 -0.19672245733E+02  0.10504147927E+03  0.13572462736E+03  0.68486875374E+02 0.  0.
          5    1    5    5  501    0  0.81585945453E+02  0.34722470896E+02  0.14094348302E+03  0.16658052673E+03  0.47000000000E+01 0. -1.
        -13    1    6    6    0    0  0.11270075511E+02 -0.22268112160E+02  0.19919548603E+02  0.31932300853E+02  0.00000000000E+00 0.  1.
         14    1    6    6    0    0 -0.59332667542E+02  0.25958664275E+01  0.85121930671E+02  0.10379232650E+03  0.00000000000E+00 0. -1.
         -5    1    3    3    0  503 -0.50320440917E+02  0.30363570788E+02 -0.13989924149E+02  0.60596214261E+02  0.47000000000E+01 0.  1.
         13    1    4    4    0    0 -0.25755021071E+02 -0.24980000968E+02 -0.12107096778E+03  0.12627549563E+03  0.00000000000E+00 0. -1.
        -14    1    4    4    0    0  0.42552108566E+02 -0.20433794984E+02 -0.50347009687E+02  0.69014804972E+02  0.00000000000E+00 0.  1.
</event>
<event>
12    1  0.8724767E-002  0.1776269E+03  0.7818608E-02  0.1171242E+00
         21   -1    0    0  501  502  0.00000000000E+00  0.00000000000E+00  0.12066370319E+03  0.12066370319E+03  0.00000000000E+00 0. -1.
         21   -1    0    0  502  503 -0.00000000000E+00 -0.00000000000E+00 -0.27726905912E+03  0.27726905912E+03  0.00000000000E+00 0.  1.
         -6    2    1    2    0  503 -0.26565317173E+02 -0.37082095350E+02 -0.13573331914E+03  0.22355056858E+03  0.17166981365E+03 0.  0.
        -24    2    3    3    0    0  0.65733113212E+01  0.76033600407E+01 -0.28547998136E+01  0.79419553464E+02  0.78729258124E+02 0.  0.
          6    2    1    2  501    0  0.26565317173E+02  0.37082095350E+02 -0.20872036796E+02  0.17438219373E+03  0.16701110651E+03 0.  0.
         24    2    5    5    0    0 -0.32469425941E+02  0.59863635188E+02  0.50896305516E+01  0.10582420642E+03  0.80838975046E+02 0.  0.
          5    1    5    5  501    0  0.59034743114E+02 -0.22781539839E+02 -0.25961667347E+02  0.68557987306E+02  0.47000000000E+01 0. -1.
        -11    1    6    6    0    0  0.19599148161E+02  0.40573234880E+02 -0.13876570564E+02  0.47147356319E+02  0.00000000000E+00 0.  1.
         12    1    6    6    0    0 -0.52068574102E+02  0.19290400309E+02  0.18966201116E+02  0.58676850102E+02  0.00000000000E+00 0. -1.
         -5    1    3    3    0  503 -0.33138628494E+02 -0.44685455391E+02 -0.13287851932E+03  0.14413101512E+03  0.47000000000E+01 0.  1.
         11    1    4    4    0    0 -0.24281673193E+02  0.16273973615E+02 -0.26607481131E+02  0.39527204839E+02  0.00000000000E+00 0. -1.
        -12    1    4    4    0    0  0.30854984514E+02 -0.86706135739E+01  0.23752681317E+02  0.39892348625E+02  0.00000000000E+00 0.  1.
</event>
<event>
12    1  0.8724767E-002  0.2380325E+03  0.7818608E-02  0.1121131E+00
         21   -1    0    0  501  502  0.00000000000E+00  0.00000000000E+00  0.11246623029E+04  0.11246623029E+04  0.00000000000E+00 0.  1.
         21   -1    0    0  502  503 -0.00000000000E+00 -0.00000000000E+00 -0.63533205130E+02  0.63533205130E+02  0.00000000000E+00 0.  1.
         -6    2    1    2    0  503  0.25945873143E+02 -0.16203245970E+03  0.80125470709E+03  0.83586396381E+03  0.17242898257E+03 0.  0.
        -24    2    3    3    0    0 -0.35607058537E+02 -0.10444505935E+03  0.31595799354E+03  0.34327888257E+03  0.76382619062E+02 0.  0.
          6    2    1    2  501    0 -0.25945873143E+02  0.16203245970E+03  0.25987439064E+03  0.35233154419E+03  0.17226465623E+03 0.  0.
         24    2    5    5    0    0  0.38461184158E+02  0.10745397903E+03  0.98162651297E+02  0.16984906222E+03  0.78658613837E+02 0.  0.
          5    1    5    5  501    0 -0.64407057301E+02  0.54578480665E+02  0.16171173935E+03  0.18248248197E+03  0.47000000000E+01 0. -1.
        -13    1    6    6    0    0  0.87648518343E+01  0.83830164445E+02  0.10129138881E+03  0.13177353507E+03  0.00000000000E+00 0.  1.
         14    1    6    6    0    0  0.29696332324E+02  0.23623814587E+02 -0.31287375131E+01  0.38075527148E+02  0.00000000000E+00 0. -1.
         -5    1    3    3    0  503  0.61552931680E+02 -0.57587400343E+02  0.48529671355E+03  0.49258508124E+03  0.47000000000E+01 0.  1.
         13    1    4    4    0    0 -0.35340240951E+01 -0.95384792773E+01 -0.15970163657E+01  0.10296716685E+02  0.00000000000E+00 0. -1.
        -14    1    4    4    0    0 -0.32073034442E+02 -0.94906580077E+02  0.31755500991E+03  0.33298216589E+03  0.00000000000E+00 0.  1.
</event>
<event>
12    1  0.8724767E-002  0.1995622E+03  0.7818608E-02  0.1150190E+00
         21   -1    0    0  503  502  0.00000000000E+00  0.00000000000E+00  0.81378279785E+03  0.81378279785E+03  0.00000000000E+00 0.  1.
         21   -1    0    0  501  503 -0.00000000000E+00 -0.00000000000E+00 -0.17502005334E+03  0.17502005334E+03  0.00000000000E+00 0.  1.
          6    2    1    2  501    0 -0.64434488378E+02  0.78528628522E+02 -0.10031526443E+03  0.22335667577E+03  0.17177457188E+03 0.  0.
         24    2    3    3    0    0 -0.40401714717E+02  0.92772057460E+02 -0.12942900613E+03  0.18273464439E+03  0.80007058658E+02 0.  0.
         -6    2    1    2    0  502  0.64434488378E+02 -0.78528628522E+02  0.73907800894E+03  0.76544617542E+03  0.17132715888E+03 0.  0.
        -24    2    5    5    0    0  0.31478962064E+02  0.11778160371E+02  0.50512242033E+03  0.51246655119E+03  0.79647074318E+02 0.  0.
          5    1    3    3  501    0 -0.24032773661E+02 -0.14243428937E+02  0.29113741699E+02  0.40622031380E+02  0.47000000000E+01 0. -1.
        -11    1    4    4    0    0 -0.39600487400E+02  0.57624386744E+01 -0.26699860123E+02  0.48107035165E+02  0.00000000000E+00 0.  1.
         12    1    4    4    0    0 -0.80122731791E+00  0.87009618785E+02 -0.10272914601E+03  0.13462760923E+03  0.00000000000E+00 0. -1.
         -5    1    5    5    0  502  0.32955526314E+02 -0.90306788893E+02  0.23395558861E+03  0.25297962423E+03  0.47000000000E+01 0.  1.
         13    1    6    6    0    0  0.26457282022E+02  0.45323707824E+02  0.31511736075E+03  0.31945762991E+03  0.00000000000E+00 0. -1.
        -14    1    6    6    0    0  0.50216800418E+01 -0.33545547453E+02  0.19000505958E+03  0.19300892127E+03  0.00000000000E+00 0.  1.
</event>
<event>
12    1  0.8724767E-002  0.2166202E+03  0.7818608E-02  0.1136470E+00
         21   -1    0    0  501  502  0.00000000000E+00  0.00000000000E+00  0.88475831147E+02  0.88475831147E+02  0.00000000000E+00 0. -1.
         21   -1    0    0  502  503 -0.00000000000E+00 -0.00000000000E+00 -0.91648366754E+03  0.91648366754E+03  0.00000000000E+00 0. -1.
         -6    2    1    2    0  503  0.47536454762E+02  0.12454021997E+03 -0.74026038837E+03  0.77124186711E+03  0.17046581497E+03 0.  0.
        -24    2    3    3    0    0 -0.36849616378E+02  0.56395070273E+02 -0.43286938953E+03  0.44524173430E+03  0.79536126286E+02 0.  0.
          6    2    1    2  501    0 -0.47536454762E+02 -0.12454021997E+03 -0.87747448025E+02  0.23371763158E+03  0.17074640773E+03 0.  0.
         24    2    5    5    0    0 -0.80783786023E+02 -0.86279977239E+02 -0.10677372618E+03  0.17937317031E+03  0.82485459740E+02 0.  0.
          5    1    5    5  501    0  0.33247331260E+02 -0.38260242736E+02  0.19026278153E+02  0.54344461268E+02  0.47000000000E+01 0. -1.
        -13    1    6    6    0    0 -0.13529259996E+02 -0.39291372852E+02 -0.84805677785E+02  0.94439694203E+02  0.00000000000E+00 0.  1.
         14    1    6    6    0    0 -0.67254526027E+02 -0.46988604387E+02 -0.21968048393E+02  0.84933476106E+02  0.00000000000E+00 0. -1.
         -5    1    3    3    0  503  0.84386071140E+02  0.68145149702E+02 -0.30739099884E+03  0.32600013282E+03  0.47000000000E+01 0.  1.
         13    1    4    4    0    0 -0.11587929696E+02  0.40195590018E+02 -0.39360834606E+03  0.39582508215E+03  0.00000000000E+00 0. -1.
        -14    1    4    4    0    0 -0.25261686681E+02  0.16199480255E+02 -0.39261043473E+02  0.49416652144E+02  0.00000000000E+00 0.  1.
</event>
<event>
12    1  0.8724767E-002  0.2627509E+03  0.7818608E-02  0.1106645E+00
         21   -1    0    0  503  502  0.00000000000E+00  0.00000000000E+00  0.10650605740E+04  0.10650605740E+04  0.00000000000E+00 0.  1.
         21   -1    0    0  501  503 -0.00000000000E+00 -0.00000000000E+00 -0.62977694050E+02  0.62977694050E+02  0.00000000000E+00 0.  1.
          6    2    1    2  501    0  0.33035961130E+02  0.18521586542E+03  0.51771790464E+03  0.58057716577E+03  0.18341680703E+03 0.  0.
         24    2    3    3    0    0 -0.18265315283E+02  0.18772252662E+03  0.45725446948E+03  0.50110376580E+03  0.80311677201E+02 0.  0.
         -6    2    1    2    0  502 -0.33035961130E+02 -0.18521586542E+03  0.48436497529E+03  0.54746110226E+03  0.17235990737E+03 0.  0.
        -24    2    5    5    0    0 -0.62624279617E+02 -0.19777612478E+03  0.42382104393E+03  0.47875239589E+03  0.80885000844E+02 0.  0.
          5    1    3    3  501    0  0.51301276413E+02 -0.25066612013E+01  0.60463435160E+02  0.79473399973E+02  0.47000000000E+01 0. -1.
        -11    1    4    4    0    0 -0.28983078599E+02  0.63736667715E+02  0.94613631952E+02  0.11770353014E+03  0.00000000000E+00 0.  1.
         12    1    4    4    0    0  0.10717763316E+02  0.12398585890E+03  0.36264083753E+03  0.38340023566E+03  0.00000000000E+00 0. -1.
         -5    1    5    5    0  502  0.29588318488E+02  0.12560259365E+02  0.60543931366E+02  0.68708706373E+02  0.47000000000E+01 0.  1.
         13    1    6    6    0    0 -0.56039962501E+02 -0.51478779712E+02  0.13742706525E+03  0.15708832044E+03  0.00000000000E+00 0. -1.
        -14    1    6    6    0    0 -0.65843171164E+01 -0.14629734507E+03  0.28639397868E+03  0.32166407544E+03  0.00000000000E+00 0.  1.
</event>
<event>
12    1  0.8724767E-002  0.3022570E+03  0.7818608E-02  0.1084292E+00
         21   -1    0    0  503  502  0.00000000000E+00  0.00000000000E+00  0.58754449472E+03  0.58754449472E+03  0.00000000000E+00 0.  1.
         21   -1    0    0  501  503 -0.00000000000E+00 -0.00000000000E+00 -0.15561685709E+03  0.15561685709E+03  0.00000000000E+00 0. -1.
          6    2    1    2  501    0  0.14732168585E+03  0.20130075946E+03  0.18907143627E+03  0.35652111695E+03  0.17068574614E+03 0.  0.
         24    2    3    3    0    0  0.94902032414E+02  0.21248983715E+03  0.14413036658E+03  0.28641544477E+03  0.84272876923E+02 0.  0.
         -6    2    1    2    0  502 -0.14732168585E+03 -0.20130075946E+03  0.24285620136E+03  0.38664023486E+03  0.16818401171E+03 0.  0.
        -24    2    5    5    0    0 -0.10114500424E+03 -0.42593986123E+02  0.88465399730E+02  0.16041305821E+03  0.76561496581E+02 0.  0.
          5    1    3    3  501    0  0.52419653440E+02 -0.11189077694E+02  0.44941069691E+02  0.70105672177E+02  0.47000000000E+01 0. -1.
        -11    1    4    4    0    0  0.32007875490E+02  0.15850624851E+03  0.11552636485E+03  0.19873368080E+03  0.00000000000E+00 0.  1.
         12    1    4    4    0    0  0.62894156923E+02  0.53983588643E+02  0.28604001726E+02  0.87681763968E+02  0.00000000000E+00 0. -1.
         -5    1    5    5    0  502 -0.46176681614E+02 -0.15870677333E+03  0.15439080163E+03  0.22622717665E+03  0.47000000000E+01 0.  1.
         13    1    6    6    0    0 -0.20133308984E+02 -0.16825785368E+02 -0.11961419068E+02  0.28836309230E+02  0.00000000000E+00 0. -1.
        -14    1    6    6    0    0 -0.81011695256E+02 -0.25768200755E+02  0.10042681880E+03  0.13157674898E+03  0.00000000000E+00 0.  1.
</event>
<event>
12    1  0.8724767E-002  0.1833303E+03  0.7818608E-02  0.1164687E+00
         21   -1    0    0  501  502  0.00000000000E+00  0.00000000000E+00  0.72612577727E+03  0.72612577727E+03  0.00000000000E+00 0. -1.
         21   -1    0    0  502  503 -0.00000000000E+00 -0.00000000000E+00 -0.13691312821E+03  0.13691312821E+03  0.00000000000E+00 0. -1.
         -6    2    1    2    0  503 -0.51549515154E+02 -0.38654795016E+02 -0.56693300922E+02  0.19161913523E+03  0.17132488706E+03 0.  0.
        -24    2    3    3    0    0  0.29270403931E+02 -0.35664031871E+02 -0.32176219811E+02  0.10697883011E+03  0.90997149707E+02 0.  0.
          6    2    1    2  501    0  0.51549515154E+02  0.38654795016E+02  0.64590594998E+03  0.67141977024E+03  0.17163468752E+03 0.  0.
         24    2    5    5    0    0  0.64160091682E+02  0.12660909288E+01  0.21048392349E+03  0.23418828351E+03  0.80140811926E+02 0.  0.
          5    1    5    5  501    0 -0.12610576527E+02  0.37388704087E+02  0.43542202649E+03  0.43723148673E+03  0.47000000000E+01 0. -1.
        -11    1    6    6    0    0  0.17352088266E+02 -0.15178440342E+02  0.60696057514E+01  0.23839465858E+02  0.00000000000E+00 0.  1.
         12    1    6    6    0    0  0.46808003416E+02  0.16444531271E+02  0.20441431774E+03  0.21034881766E+03  0.00000000000E+00 0. -1.
         -5    1    3    3    0  503 -0.80819919085E+02 -0.29907631443E+01 -0.24517081111E+02  0.84640305123E+02  0.47000000000E+01 0.  1.
         11    1    4    4    0    0  0.24860879697E+02 -0.96542083972E+01 -0.61801278999E+02  0.67310215904E+02  0.00000000000E+00 0. -1.
        -12    1    4    4    0    0  0.44095242340E+01 -0.26009823474E+02  0.29625059189E+02  0.39668614206E+02  0.00000000000E+00 0.  1.
</event>
<event>
12    1  0.8724767E-002  0.2116941E+03  0.7818608E-02  0.1141452E+00
         21   -1    0    0  503  502  0.00000000000E+00  0.00000000000E+00  0.49351868593E+03  0.49351868593E+03  0.00000000000E+00 0.  1.
         21   -1    0    0  501  503 -0.00000000000E+00 -0.00000000000E+00 -0.20299124625E+03  0.20299124625E+03  0.00000000000E+00 0.  1.
          6    2    1    2  501    0 -0.11197178807E+03 -0.12297029420E+02 -0.11568976072E+03  0.24124372227E+03  0.17923591867E+03 0.  0.
         24    2    3    3    0    0 -0.48649257950E+02  0.15432624600E+02 -0.13895484794E+03  0.16815452460E+03  0.79765770708E+02 0.  0.
         -6    2    1    2    0  502  0.11197178807E+03  0.12297029420E+02  0.40621720041E+03  0.45526620991E+03  0.17194769473E+03 0.  0.
        -24    2    5    5    0    0  0.11494400918E+02  0.16604967392E+02  0.28867443869E+03  0.30049975848E+03  0.80989672767E+02 0.  0.
          5    1    3    3  501    0 -0.63322530120E+02 -0.27729654020E+02  0.23265087215E+02  0.73089197669E+02  0.47000000000E+01 0. -1.
        -11    1    4    4    0    0 -0.67416355122E+02  0.69191040157E+01 -0.75585465383E+02  0.10151847869E+03  0.00000000000E+00 0.  1.
         12    1    4    4    0    0  0.18767097173E+02  0.85135205846E+01 -0.63369382556E+02  0.66636045910E+02  0.00000000000E+00 0. -1.
         -5    1    5    5    0  502  0.10047738715E+03 -0.43079379717E+01  0.11754276171E+03  0.15476645143E+03  0.47000000000E+01 0.  1.
         11    1    6    6    0    0 -0.27288129391E+02  0.30317690507E+02  0.11498158021E+03  0.12200232847E+03  0.00000000000E+00 0. -1.
        -12    1    6    6    0    0  0.38782530310E+02 -0.13712723115E+02  0.17369285848E+03  0.17849743001E+03  0.00000000000E+00 0.  1.
</event>
<event>
12    1  0.8724767E-002  0.1944789E+03  0.7818608E-02  0.1154594E+00
         21   -1    0    0  501  502  0.00000000000E+00  0.00000000000E+00  0.20116272498E+03  0.20116272498E+03  0.00000000000E+00 0. -1.
         21   -1    0    0  502  503 -0.00000000000E+00 -0.00000000000E+00 -0.72343589639E+03  0.72343589639E+03  0.00000000000E+00 0.  1.
         -6    2    1    2    0  503  0.43120888476E+02 -0.78603098233E+02 -0.65894359680E+03  0.68689951494E+03  0.17200703994E+03 0.  0.
        -24    2    3    3    0    0  0.16954399382E+02 -0.10345508880E+03 -0.34340721823E+03  0.36927142615E+03  0.86269702582E+02 0.  0.
          6    2    1    2  501    0 -0.43120888476E+02  0.78603098233E+02  0.13667042539E+03  0.23769910642E+03  0.17258100111E+03 0.  0.
         24    2    5    5    0    0  0.12949592345E+02  0.10409872208E+03  0.10032313460E+03  0.16602525343E+03  0.80594153397E+02 0.  0.
          5    1    5    5  501    0 -0.56070480821E+02 -0.25495623846E+02  0.36347290790E+02  0.71673852991E+02  0.47000000000E+01 0. -1.
        -11    1    6    6    0    0  0.54028829323E+01  0.93980832795E+02  0.11371425666E+03  0.14762289878E+03  0.00000000000E+00 0.  1.
         12    1    6    6    0    0  0.75467094129E+01  0.10117889283E+02 -0.13391122065E+02  0.18402354650E+02  0.00000000000E+00 0. -1.
         -5    1    3    3    0  503  0.26166489094E+02  0.24851990564E+02 -0.31553637858E+03  0.31762808879E+03  0.47000000000E+01 0.  1.
         13    1    4    4    0    0  0.42151851247E+00 -0.24331994689E+02 -0.10177562291E+02  0.26378142800E+02  0.00000000000E+00 0. -1.
        -14    1    4    4    0    0  0.16532880869E+02 -0.79123094108E+02 -0.33322965593E+03  0.34289328335E+03  0.00000000000E+00 0.  1.
</event>
<event>
12    1  0.8724767E-002  0.3780875E+03  0.7818608E-02  0.1051663E+00
         21   -1    0    0  503  502  0.00000000000E+00  0.00000000000E+00  0.50051240183E+03  0.50051240183E+03  0.00000000000E+00 0. -1.
         21   -1    0    0  501  503 -0.00000000000E+00 -0.00000000000E+00 -0.15628913437E+04  0.15628913437E+04  0.00000000000E+00 0.  1.
          6    2    1    2  501    0  0.18690832014E+03  0.28046240326E+03 -0.14639608153E+04  0.15119958532E+04  0.17133683648E+03 0.  0.
         24    2    3    3    0    0  0.63233188046E+02  0.21674552206E+03 -0.85248390436E+03  0.88487426859E+03  0.72777789329E+02 0.  0.
         -6    2    1    2    0  502 -0.18690832014E+03 -0.28046240326E+03  0.40158187347E+03  0.55140789231E+03  0.17084724997E+03 0.  0.
        -24    2    5    5    0    0 -0.51701196784E+02 -0.46547031241E+02  0.11245514107E+03  0.15566337263E+03  0.82129695957E+02 0.  0.
          5    1    3    3  501    0  0.12367513210E+03  0.63716881195E+02 -0.61147691094E+03  0.62712158459E+03  0.47000000000E+01 0. -1.
        -13    1    4    4    0    0  0.20803801576E+00  0.12978791028E+03 -0.47426263927E+03  0.49170112461E+03  0.00000000000E+00 0.  1.
         14    1    4    4    0    0  0.63025150030E+02  0.86957611779E+02 -0.37822126509E+03  0.39317314398E+03  0.00000000000E+00 0. -1.
         -5    1    5    5    0  502 -0.13520712336E+03 -0.23391537202E+03  0.28912673239E+03  0.39574451968E+03  0.47000000000E+01 0.  1.
         13    1    6    6    0    0 -0.30747158056E+02  0.18250430896E+02  0.20431835676E+02  0.41181620482E+02  0.00000000000E+00 0. -1.
        -14    1    6    6    0    0 -0.20954038728E+02 -0.64797462137E+02  0.92023305398E+02  0.11448175215E+03  0.00000000000E+00 0.  1.
</event>
<event>
12    1  0.8724767E-002  0.1724593E+03  0.7818608E-02  0.1175535E+00
         21   -1    0    0  501  502  0.00000000000E+00  0.00000000000E+00  0.16424902851E+03  0.16424902851E+03  0.00000000000E+00 0. -1.
         21   -1    0    0  502  503 -0.00000000000E+00 -0.00000000000E+00 -0.34322273141E+03  0.34322273141E+03  0.00000000000E+00 0. -1.
         -6    2    1    2    0  503 -0.47189961998E+01  0.10825447958E+02 -0.26450554267E+03  0.31576162765E+03  0.17205453829E+03 0.  0.
        -24    2    3    3    0    0  0.18307803857E+02  0.69905947928E+02 -0.18325954967E+03  0.21259312288E+03  0.79935950069E+02 0.  0.
          6    2    1    2  501    0  0.47189961998E+01 -0.10825447958E+02  0.85531839767E+02  0.19171013228E+03  0.17116547536E+03 0.  0.
         24    2    5    5    0    0 -0.38900561568E+02 -0.54166998941E+02  0.76245024077E+02  0.12934434994E+03  0.80432205613E+02 0.  0.
          5    1    5    5  501    0  0.43619557768E+02  0.43341550983E+02  0.92868156901E+01  0.62365782342E+02  0.47000000000E+01 0. -1.
        -13    1    6    6    0    0 -0.20706540334E+02  0.19543705197E+02  0.23171907860E+02  0.36710414589E+02  0.00000000000E+00 0.  1.
         14    1    6    6    0    0 -0.18194021234E+02 -0.73710704138E+02  0.53073116217E+02  0.92633935348E+02  0.00000000000E+00 0. -1.
         -5    1    3    3    0  503 -0.23026800056E+02 -0.59080499971E+02 -0.81245992993E+02  0.10316850476E+03  0.47000000000E+01 0.  1.
         13    1    4    4    0    0 -0.60238207523E+01  0.65925850989E+02 -0.17415151285E+03  0.18630956410E+03  0.00000000000E+00 0. -1.
        -14    1    4    4    0    0  0.24331624609E+02  0.39800969398E+01 -0.91080368190E+01  0.26283558786E+02  0.00000000000E+00 0.  1.
</event>
<event>
12    1  0.8724767E-002  0.2779086E+03  0.7818608E-02  0.1097116E+00
         21   -1    0    0  501  502  0.00000000000E+00  0.00000000000E+00  0.53268236542E+02  0.53268236542E+02  0.00000000000E+00 0. -1.
         21   -1    0    0  502  503 -0.00000000000E+00 -0.00000000000E+00 -0.26645289356E+04  0.26645289356E+04  0.00000000000E+00 0. -1.
         -6    2    1    2    0  503 -0.33481938787E+02 -0.21290937567E+03 -0.22245037855E+04  0.22415471292E+04  0.17223529885E+03 0.  0.
        -24    2    3    3    0    0 -0.24275220700E+02 -0.14974928578E+03 -0.20220628464E+04  0.20292304213E+04  0.77613227655E+02 0.  0.
          6    2    1    2  501    0  0.33481938787E+02  0.21290937567E+03 -0.38675691356E+03  0.47625004296E+03  0.17544728770E+03 0.  0.
         24    2    5    5    0    0  0.12481566117E+02  0.14281633173E+03 -0.36475846036E+03  0.39969893320E+03  0.78474255028E+02 0.  0.
          5    1    5    5  501    0  0.21000372670E+02  0.70093043943E+02 -0.21998453200E+02  0.76551109755E+02  0.47000000000E+01 0. -1.
        -11    1    6    6    0    0  0.18716011899E+02  0.28552697402E+02 -0.17344608984E+03  0.17677412625E+03  0.00000000000E+00 0.  1.
         12    1    6    6    0    0 -0.62344457819E+01  0.11426363432E+03 -0.19131237052E+03  0.22292480695E+03  0.00000000000E+00 0. -1.
         -5    1    3    3    0  503 -0.92067180864E+01 -0.63160089894E+02 -0.20244093917E+03  0.21231670793E+03  0.47000000000E+01 0.  1.
         11    1    4    4    0    0 -0.20615753494E+02 -0.13633976926E+03 -0.13499863497E+04  0.13570102013E+04  0.00000000000E+00 0. -1.
        -12    1    4    4    0    0 -0.36594672067E+01 -0.13409516511E+02 -0.67207649667E+03  0.67222022002E+03  0.00000000000E+00 0.  1.
</event>
<event>
12    1  0.8724767E-002  0.1951514E+03  0.7818608E-02  0.1154229E+00
         21   -1    0    0  501  502  0.00000000000E+00  0.00000000000E+00  0.15131683577E+03  0.15131683577E+03  0.00000000000E+00 0.  1.
         21   -1    0    0  502  503 -0.00000000000E+00 -0.00000000000E+00 -0.25011851314E+03  0.25011851314E+03  0.00000000000E+00 0.  1.
         -6    2    1    2    0  503  0.69800840683E+02  0.59445233413E+02 -0.57196131604E+02  0.20189817923E+03  0.17054496231E+03 0.  0.
        -24    2    3    3    0    0 -0.25685896363E+02  0.43507646554E+02 -0.15386085521E+02  0.96343010809E+02  0.80576445215E+02 0.  0.
          6    2    1    2  501    0 -0.69800840683E+02 -0.59445233413E+02 -0.41605545775E+02  0.19953716968E+03  0.17227352527E+03 0.  0.
         24    2    5    5    0    0 -0.33104782963E+00 -0.86690652220E+02 -0.10910027329E+02  0.11871223654E+03  0.80362849828E+02 0.  0.
          5    1    5    5  501    0 -0.69469792854E+02  0.27245418807E+02 -0.30695518447E+02  0.80824933145E+02  0.47000000000E+01 0. -1.
        -13    1    6    6    0    0  0.64912257815E+00 -0.63304068394E+02  0.31166455537E+02  0.70563265132E+02  0.00000000000E+00 0.  1.
         14    1    6    6    0    0 -0.98017040778E+00 -0.23386583826E+02 -0.42076482866E+02  0.48148971406E+02  0.00000000000E+00 0. -1.
         -5    1    3    3    0  503  0.95486737046E+02  0.15937586860E+02 -0.41810046083E+02  0.10555516842E+03  0.47000000000E+01 0.  1.
         13    1    4    4    0    0  0.10712220808E+02  0.25712612414E+02  0.26230840644E+02  0.38261561817E+02  0.00000000000E+00 0. -1.
        -14    1    4    4    0    0 -0.36398117170E+02  0.17795034140E+02 -0.41616926165E+02  0.58081448992E+02  0.00000000000E+00 0.  1.
</event>
<event>
12    1  0.8724767E-002  0.2006579E+03  0.7818608E-02  0.1149301E+00
         21   -1    0    0  503  502  0.00000000000E+00  0.00000000000E+00  0.17422118211E+04  0.17422118211E+04  0.00000000000E+00 0. -1.
         21   -1    0    0  501  503 -0.00000000000E+00 -0.00000000000E+00 -0.64478956008E+02  0.64478956008E+02  0.00000000000E+00 0.  1.
          6    2    1    2  501    0  0.94393096750E+02  0.41228320354E+02  0.11515681268E+03  0.23135400627E+03  0.17220265270E+03 0.  0.
         24    2    3    3    0    0  0.10370365871E+03  0.34593234002E+02  0.14790809697E+03  0.19634761318E+03  0.68734557413E+02 0.  0.
         -6    2    1    2    0  502 -0.94393096750E+02 -0.41228320354E+02  0.15625760524E+04  0.15753367709E+04  0.17155812684E+03 0.  0.
        -24    2    5    5    0    0 -0.12712729403E+03 -0.59023136435E+01  0.11507950065E+04  0.11607222822E+04  0.82163758502E+02 0.  0.
          5    1    3    3  501    0 -0.93105619615E+01  0.66350863515E+01 -0.32751284285E+02  0.35006393091E+02  0.47000000000E+01 0. -1.
        -13    1    4    4    0    0  0.10416080580E+03  0.39298490059E+02  0.10452158466E+03  0.15270431050E+03  0.00000000000E+00 0.  1.
         14    1    4    4    0    0 -0.45714709143E+00 -0.47052560566E+01  0.43386512309E+02  0.43643302675E+02  0.00000000000E+00 0. -1.
         -5    1    5    5    0  502  0.32734197281E+02 -0.35326006710E+02  0.41178104588E+03  0.41461448861E+03  0.47000000000E+01 0.  1.
         13    1    6    6    0    0 -0.70524876010E+02 -0.38048904582E+02  0.79439797997E+03  0.79842947582E+03  0.00000000000E+00 0. -1.
        -14    1    6    6    0    0 -0.56602418021E+02  0.32146590938E+02  0.35639702658E+03  0.36229280643E+03  0.00000000000E+00 0.  1.
</event>
<event>
12    1  0.8724767E-002  0.2914897E+03  0.7818608E-02  0.1089642E+00
         21   -1    0    0  503  502  0.00000000000E+00  0.00000000000E+00  0.22285750718E+03  0.22285750718E+03  0.00000000000E+00 0. -1.
         21   -1    0    0  501  503 -0.00000000000E+00 -0.00000000000E+00 -0.57677252209E+03  0.57677252209E+03  0.00000000000E+00 0. -1.
          6    2    1    2  501    0  0.14457360535E+03 -0.18523639551E+03  0.56338427740E+02  0.29636656445E+03  0.17159566574E+03 0.  0.
         24    2    3    3    0    0  0.50987856573E+02 -0.74889454406E+02 -0.35233906695E+02  0.12507055686E+03  0.78695769339E+02 0.  0.
         -6    2    1    2    0  502 -0.14457360535E+03  0.18523639551E+03 -0.41025344265E+03  0.50326346482E+03  0.17248819736E+03 0.  0.
        -24    2    5    5    0    0 -0.63434338325E+02  0.16541905970E+03 -0.34868107223E+03  0.39939068565E+03  0.80913837291E+02 0.  0.
          5    1    3    3  501    0  0.93585748778E+02 -0.11034694111E+03  0.91572334435E+02  0.17129600760E+03  0.47000000000E+01 0. -1.
        -11    1    4    4    0    0  0.62882758570E+00 -0.57983007412E+02 -0.41889172329E+02  0.71534099079E+02  0.00000000000E+00 0.  1.
         12    1    4    4    0    0  0.50359028988E+02 -0.16906446994E+02  0.66552656339E+01  0.53536457776E+02  0.00000000000E+00 0. -1.
         -5    1    5    5    0  502 -0.81139267026E+02  0.19817335809E+02 -0.61572370427E+02  0.10387277917E+03  0.47000000000E+01 0.  1.
         13    1    6    6    0    0 -0.75972737384E+02  0.89102928895E+02 -0.19842911698E+03  0.23040248095E+03  0.00000000000E+00 0. -1.
        -14    1    6    6    0    0  0.12538399059E+02  0.76316130808E+02 -0.15025195525E+03  0.16898820470E+03  0.00000000000E+00 0.  1.
</event>
<event>
12    1  0.8724767E-002  0.1948233E+03  0.7818608E-02  0.1154496E+00
         21   -1    0    0  503  502  0.00000000000E+00  0.00000000000E+00  0.16290671570E+02  0.16290671570E+02  0.00000000000E+00 0. -1.
         21   -1    0    0  501  503 -0.00000000000E+00 -0.00000000000E+00 -0.27028853292E+04  0.27028853292E+04  0.00000000000E+00 0.  1.
          6    2    1    2  501    0  0.62576187718E+02 -0.66900253811E+02 -0.18555406808E+04  0.18655913094E+04  0.17031820936E+03 0.  0.
         24    2    3    3    0    0  0.22353268682E+02 -0.74834868265E+02 -0.66675943400E+03  0.67609402734E+03  0.80218855954E+02 0.  0.
         -6    2    1    2    0  502 -0.62576187718E+02  0.66900253811E+02 -0.83105397685E+03  0.85358469137E+03  0.17194385618E+03 0.  0.
        -24    2    5    5    0    0 -0.34656099730E+02 -0.50488299837E+01 -0.66842820252E+03  0.67351405399E+03  0.74822343330E+02 0.  0.
          5    1    3    3  501    0  0.40222919036E+02  0.79346144534E+01 -0.11887812468E+04  0.11894972820E+04  0.47000000000E+01 0. -1.
        -11    1    4    4    0    0  0.32217824554E+02 -0.79718894065E+01 -0.38133804581E+03  0.38277962906E+03  0.00000000000E+00 0.  1.
         12    1    4    4    0    0 -0.98645558718E+01 -0.66862978858E+02 -0.28542138819E+03  0.29331439829E+03  0.00000000000E+00 0. -1.
         -5    1    5    5    0  502 -0.27920087987E+02  0.71949083795E+02 -0.16262577433E+03  0.18007063738E+03  0.47000000000E+01 0.  1.
         11    1    6    6    0    0  0.58695246955E+01 -0.29583054649E+02 -0.38257006025E+03  0.38375703179E+03  0.00000000000E+00 0. -1.
        -12    1    6    6    0    0 -0.40525624426E+02  0.24534224666E+02 -0.28585814227E+03  0.28975702220E+03  0.00000000000E+00 0.  1.
</event>
<event>
12    1  0.8724767E-002  0.2127375E+03  0.7818608E-02  0.1139417E+00
         21   -1    0    0  501  502  0.00000000000E+00  0.00000000000E+00  0.85554667857E+02  0.85554667857E+02  0.00000000000E+00 0. -1.
         21   -1    0    0  502  503 -0.00000000000E+00 -0.00000000000E+00 -0.15052696856E+04  0.15052696856E+04  0.00000000000E+00 0.  1.
         -6    2    1    2    0  503 -0.12131858598E+03 -0.32350730817E+02 -0.13504372974E+04  0.13670909132E+04  0.17173206381E+03 0.  0.
        -24    2    3    3    0    0 -0.12724106228E+03 -0.76331949786E+02 -0.10632454000E+04  0.10764524793E+04  0.79008259520E+02 0.  0.
          6    2    1    2  501    0  0.12131858598E+03  0.32350730817E+02 -0.69277720366E+02  0.22373344025E+03  0.17173374933E+03 0.  0.
         24    2    5    5    0    0  0.45201381578E+02 -0.16257512816E+02 -0.91768074073E+02  0.13054279606E+03  0.79451686982E+02 0.  0.
          5    1    5    5  501    0  0.76117204401E+02  0.48608243633E+02  0.22490353707E+02  0.93190644191E+02  0.47000000000E+01 0. -1.
        -13    1    6    6    0    0  0.16441031686E+02  0.17496551719E+02 -0.81583728953E+02  0.85043175357E+02  0.00000000000E+00 0.  1.
         14    1    6    6    0    0  0.28760349893E+02 -0.33754064534E+02 -0.10184345120E+02  0.45499620702E+02  0.00000000000E+00 0. -1.
         -5    1    3    3    0  503  0.59224763044E+01  0.43981218969E+02 -0.28719189746E+03  0.29063843399E+03  0.47000000000E+01 0.  1.
         11    1    4    4    0    0 -0.90032792395E+02 -0.17091132742E+02 -0.74460595613E+03  0.75022399350E+03  0.00000000000E+00 0. -1.
        -12    1    4    4    0    0 -0.37208269889E+02 -0.59240817044E+02 -0.31863944383E+03  0.32622848575E+03  0.00000000000E+00 0.  1.
</event>
<event>
12    1  0.8724767E-002  0.2317558E+03  0.7818608E-02  0.1125562E+00
         21   -1    0    0  503  502  0.00000000000E+00  0.00000000000E+00  0.18396997346E+04  0.18396997346E+04  0.00000000000E+00 0. -1.
         21   -1    0    0  501  503 -0.00000000000E+00 -0.00000000000E+00 -0.48341789117E+02  0.48341789117E+02  0.00000000000E+00 0. -1.
          6    2    1    2  501    0  0.98288796524E+02  0.11967873811E+03  0.29886538490E+03  0.37766250751E+03  0.17124474709E+03 0.  0.
         24    2    3    3    0    0  0.92608893996E+02  0.64942087124E+02  0.29052274105E+03  0.32180508221E+03  0.79756917828E+02 0.  0.
         -6    2    1    2    0  502 -0.98288796524E+02 -0.11967873811E+03  0.14924925605E+04  0.15103790162E+04  0.17241531641E+03 0.  0.
        -24    2    5    5    0    0 -0.83371713062E+02 -0.29475105081E+02  0.51094193707E+03  0.52456821726E+03  0.79312843553E+02 0.  0.
          5    1    3    3  501    0  0.56799025278E+01  0.54736650988E+02  0.83426438441E+01  0.55857425293E+02  0.47000000000E+01 0. -1.
        -11    1    4    4    0    0  0.71522096835E+02  0.37691331898E+01  0.18013465655E+03  0.19385074462E+03  0.00000000000E+00 0.  1.
         12    1    4    4    0    0  0.21086797161E+02  0.61172953934E+02  0.11038808451E+03  0.12795433759E+03  0.00000000000E+00 0. -1.
         -5    1    5    5    0  502 -0.14917083462E+02 -0.90203633031E+02  0.98155062347E+03  0.98581079890E+03  0.47000000000E+01 0.  1.
         11    1    6    6    0    0  0.13336920284E+01 -0.30406140621E+02  0.19963472817E+03  0.20194141926E+03  0.00000000000E+00 0. -1.
        -12    1    6    6    0    0 -0.84705405090E+02  0.93103554041E+00  0.31130720890E+03  0.32262679800E+03  0.00000000000E+00 0.  1.
</event>
<event>
12    1  0.8724767E-002  0.2859741E+03  0.7818608E-02  0.1092820E+00
         21   -1    0    0  503  502  0.00000000000E+00  0.00000000000E+00  0.12500754582E+03  0.12500754582E+03  0.00000000000E+00 0.  1.
         21   -1    0    0  501  503 -0.00000000000E+00 -0.00000000000E+00 -0.13449993074E+04  0.13449993074E+04  0.00000000000E+00 0.  1.
          6    2    1    2  501    0  0.22846243699E+03 -0.41669799825E+01 -0.11376621040E+04  0.11724175615E+04  0.16755723482E+03 0.  0.
         24    2    3    3    0    0  0.13979362546E+03 -0.64143597705E+02 -0.62471258619E+03  0.64839594881E+03  0.80590522024E+02 0.  0.
         -6    2    1    2    0  502 -0.22846243699E+03  0.41669799825E+01 -0.82329657629E+02  0.29758929171E+03  0.17195570702E+03 0.  0.
        -24    2    5    5    0    0 -0.13551768379E+03 -0.59395904293E+02 -0.20352104581E+02  0.16897251797E+03  0.79022703081E+02 0.  0.
          5    1    3    3  501    0  0.88668811525E+02  0.59976617722E+02 -0.51294951780E+03  0.52402161274E+03  0.47000000000E+01 0. -1.
        -11    1    4    4    0    0  0.11534186999E+03 -0.14852715663E+02 -0.47057394541E+03  0.48473104732E+03  0.00000000000E+00 0.  1.
         12    1    4    4    0    0  0.24451755468E+02 -0.49290882041E+02 -0.15413864078E+03  0.16366490149E+03  0.00000000000E+00 0. -1.
         -5    1    5    5    0  502 -0.92944753191E+02  0.63562884276E+02 -0.61977553048E+02  0.12861677373E+03  0.47000000000E+01 0.  1.
         11    1    6    6    0    0  0.70893184109E+01  0.34239095460E+01  0.72664126214E+01  0.10713652248E+02  0.00000000000E+00 0. -1.
        -12    1    6    6    0    0 -0.14260700221E+03 -0.62819813839E+02 -0.27618517202E+02  0.15825886573E+03  0.00000000000E+00 0.  1.
</event>
<event>
12    1  0.8724767E-002  0.1719945E+03  0.7818608E-02  0.1175851E+00
         21   -1    0    0  501  502  0.00000000000E+00  0.00000000000E+00  0.63625310643E+03  0.63625310643E+03  0.00000000000E+00 0.  1.
         21   -1    0    0  502  503 -0.00000000000E+00 -0.00000000000E+00 -0.65072398950E+02  0.65072398950E+02  0.00000000000E+00 0.  1.
         -6    2    1    2    0  503  0.46843927598E+01 -0.50174913941E+01  0.97709809861E+02  0.19758271858E+03  0.17159430346E+03 0.  0.
        -24    2    3    3    0    0  0.38109088584E+02  0.51368765341E+02  0.78497622313E+02  0.12911507374E+03  0.80111003436E+02 0.  0.
          6    2    1    2  501    0 -0.46843927598E+01  0.50174913941E+01  0.47347089762E+03  0.50374278680E+03  0.17185745725E+03 0.  0.
         24    2    5    5    0    0 -0.43290870477E+02 -0.55031626189E+01  0.44037667323E+03  0.45160391483E+03  0.90056078652E+02 0.  0.
          5    1    5    5  501    0  0.38606477718E+02  0.10520654013E+02  0.33094224389E+02  0.52138871972E+02  0.47000000000E+01 0. -1.
        -11    1    6    6    0    0 -0.45295680823E+02  0.35076381785E+02  0.30200487355E+03  0.30739062267E+03  0.00000000000E+00 0.  1.
         12    1    6    6    0    0  0.20048103457E+01 -0.40579544404E+02  0.13837179968E+03  0.14421329216E+03  0.00000000000E+00 0. -1.
         -5    1    3    3    0  503 -0.33424695825E+02 -0.56386256735E+02  0.19212187548E+02  0.68467644840E+02  0.47000000000E+01 0.  1.
         11    1    4    4    0    0  0.60138312983E+02  0.18990613878E+02  0.53056866570E+02  0.82415357757E+02  0.00000000000E+00 0. -1.
        -12    1    4    4    0    0 -0.22029224399E+02  0.32378151463E+02  0.25440755743E+02  0.46699715979E+02  0.00000000000E+00 0.  1.
</event>
<event>
12    1  0.8724767E-002  0.1804467E+03  0.7818608E-02  0.1167468E+00
         21   -1    0    0  503  502  0.00000000000E+00  0.00000000000E+00  0.55515083214E+02  0.55515083214E+02  0.00000000000E+00 0. -1.
         21   -1    0    0  501  503 -0.00000000000E+00 -0.00000000000E+00 -0.10953504788E+04  0.10953504788E+04  0.00000000000E+00 0. -1.
          6    2    1    2  501    0  0.52113090957E+01  0.50010491845E+02 -0.91230501370E+03  0.92990171066E+03  0.17288304264E+03 0.  0.
         24    2    3    3    0    0  0.40820176874E+02 -0.91100667364E+01 -0.29743474400E+03  0.31115235068E+03  0.81234710819E+02 0.  0.
         -6    2    1    2    0  502 -0.52113090957E+01 -0.50010491845E+02 -0.12753038189E+03  0.22096385135E+03  0.17329979303E+03 0.  0.
        -24    2    5    5    0    0 -0.42118626147E+02 -0.82436727342E+02 -0.11936968092E+03  0.17094087823E+03  0.80011689406E+02 0.  0.
          5    1    3    3  501    0 -0.35608867778E+02  0.59120558581E+02 -0.61487026970E+03  0.61874935998E+03  0.47000000000E+01 0. -1.
        -11    1    4    4    0    0  0.63268891703E+02  0.52180303048E+01 -0.23138235605E+03  0.23993327237E+03  0.00000000000E+00 0.  1.
         12    1    4    4    0    0 -0.22448714830E+02 -0.14328097041E+02 -0.66052387941E+02  0.71219078308E+02  0.00000000000E+00 0. -1.
         -5    1    5    5    0  502  0.36907317051E+02  0.32426235497E+02 -0.81607009652E+01  0.50022973129E+02  0.47000000000E+01 0.  1.
         13    1    6    6    0    0 -0.20827932333E+02 -0.20048923128E+02  0.57889120052E+01  0.29483445966E+02  0.00000000000E+00 0. -1.
        -14    1    6    6    0    0 -0.21290693815E+02 -0.62387804215E+02 -0.12515859293E+03  0.14145743226E+03  0.00000000000E+00 0.  1.
</event>
<event>
12    1  0.8724767E-002  0.1950296E+03  0.7818608E-02  0.1154943E+00
         21   -1    0    0  501  502  0.00000000000E+00  0.00000000000E+00  0.64467812355E+03  0.64467812355E+03  0.00000000000E+00 0. -1.
         21   -1    0    0  502  503 -0.00000000000E+00 -0.00000000000E+00 -0.96578490997E+02  0.96578490997E+02  0.00000000000E+00 0. -1.
         -6    2    1    2    0  503 -0.61283507233E+01 -0.81835223224E+02  0.37143126579E+02  0.19434430165E+03  0.17220782586E+03 0.  0.
        -24    2    3    3    0    0  0.57298453226E+02 -0.63651170071E+02 -0.92552583486E+00  0.11802306250E+03  0.81203463534E+02 0.  0.
          6    2    1    2  501    0  0.61283507233E+01  0.81835223224E+02  0.51095650598E+03  0.54691231291E+03  0.17692361788E+03 0.  0.
         24    2    5    5    0    0 -0.69276812320E+01 -0.22179907881E+02  0.15465139898E+03  0.17547587589E+03  0.79591373481E+02 0.  0.
          5    1    5    5  501    0  0.13056031955E+02  0.10401513110E+03  0.35630510700E+03  0.37143643701E+03  0.47000000000E+01 0. -1.
        -13    1    6    6    0    0  0.50032760476E+01 -0.10908264465E+02 -0.63927790819E+01  0.13597449365E+02  0.00000000000E+00 0.  1.
         14    1    6    6    0    0 -0.11930957280E+02 -0.11271643416E+02  0.16104417806E+03  0.16187842653E+03  0.00000000000E+00 0. -1.
         -5    1    3    3    0  503 -0.63426803949E+02 -0.18184053153E+02  0.38068652414E+02  0.76321239147E+02  0.47000000000E+01 0.  1.
         13    1    4    4    0    0  0.54609893334E+02 -0.42766628404E+02  0.33994666089E+02  0.77245467683E+02  0.00000000000E+00 0. -1.
        -14    1    4    4    0    0  0.26885598924E+01 -0.20884541667E+02 -0.34920191924E+02  0.40777594816E+02  0.00000000000E+00 0.  1.
</event>
<event>
12    1  0.8724767E-002  0.2271338E+03  0.7818608E-02  0.1128812E+00
         21   -1    0    0  503  502  0.00000000000E+00  0.00000000000E+00  0.59919103257E+02  0.59919103257E+02  0.00000000000E+00 0.  1.
         21   -1    0    0  501  503 -0.00000000000E+00 -0.00000000000E+00 -0.86882479461E+03  0.86882479461E+03  0.00000000000E+00 0.  1.
          6    2    1    2  501    0  0.13800156978E+03 -0.56370370313E+02 -0.45681947401E+03  0.51017035317E+03  0.17137008347E+03 0.  0.
         24    2    3    3    0    0  0.69502330259E+02 -0.98028809113E+02 -0.24863389928E+03  0.28703161861E+03  0.78282264148E+02 0.  0.
         -6    2    1    2    0  502 -0.13800156978E+03  0.56370370313E+02 -0.35208621735E+03  0.41857354470E+03  0.17034393433E+03 0.  0.
        -24    2    5    5    0    0 -0.15548709793E+03  0.81912208318E+02 -0.27946177236E+03  0.33948796325E+03  0.79166580621E+02 0.  0.
          5    1    3    3  501    0  0.68499239525E+02  0.41658438800E+02 -0.20818557472E+03  0.22313873456E+03  0.47000000000E+01 0. -1.
        -13    1    4    4    0    0  0.32527202819E+02 -0.83195931821E+02 -0.22148738598E+03  0.23882262067E+03  0.00000000000E+00 0.  1.
         14    1    4    4    0    0  0.36975127439E+02 -0.14832877292E+02 -0.27146513309E+02  0.48208997944E+02  0.00000000000E+00 0. -1.
         -5    1    5    5    0  502  0.17485528146E+02 -0.25541838005E+02 -0.72624444990E+02  0.79085581451E+02  0.47000000000E+01 0.  1.
         11    1    6    6    0    0 -0.22341355420E+02  0.31461365798E+02 -0.11832279351E+03  0.12445576388E+03  0.00000000000E+00 0. -1.
        -12    1    6    6    0    0 -0.13314574251E+03  0.50450842520E+02 -0.16113897885E+03  0.21503219936E+03  0.00000000000E+00 0.  1.
</event>
<event>
12    1  0.8724767E-002  0.1845250E+03  0.7818608E-02  0.1163605E+00
         21   -1    0    0  503  502  0.00000000000E+00  0.00000000000E+00  0.24300072237E+03  0.24300072237E+03  0.00000000000E+00 0. -1.
         21   -1    0    0  501  503 -0.00000000000E+00 -0.00000000000E+00 -0.66302310957E+03  0.66302310957E+03  0.00000000000E+00 0.  1.
          6    2    1    2  501    0 -0.33279949217E+02 -0.59341453016E+02 -0.61251002958E+03  0.63970151031E+03  0.17152411754E+03 0.  0.
         24    2    3    3    0    0 -0.67836003103E+02 -0.28093510268E+02 -0.55483611180E+03  0.56541203880E+03  0.80353556372E+02 0.  0.
         -6    2    1    2    0  502  0.33279949217E+02  0.59341453016E+02  0.19248764238E+03  0.26632232163E+03  0.17101790393E+03 0.  0.
        -24    2    5    5    0    0 -0.14533002385E+01  0.97475119239E+02  0.10010868832E+03  0.16041417147E+03  0.78787346570E+02 0.  0.
          5    1    3    3  501    0  0.34556053887E+02 -0.31247942748E+02 -0.57673917772E+02  0.74289471511E+02  0.47000000000E+01 0. -1.
        -11    1    4    4    0    0 -0.43618849302E-01  0.38364318618E+01 -0.29400479937E+03  0.29402983210E+03  0.00000000000E+00 0.  1.
         12    1    4    4    0    0 -0.67792384254E+02 -0.31929942130E+02 -0.26083131243E+03  0.27138220670E+03  0.00000000000E+00 0. -1.
         -5    1    5    5    0  502  0.34733249455E+02 -0.38133666224E+02  0.92378954060E+02  0.10590815016E+03  0.47000000000E+01 0.  1.
         11    1    6    6    0    0 -0.56069358258E+01  0.79333247342E+01 -0.12914310655E+02  0.16160284353E+02  0.00000000000E+00 0. -1.
        -12    1    6    6    0    0  0.41536355873E+01  0.89541794505E+02  0.11302299897E+03  0.14425388712E+03  0.00000000000E+00 0.  1.
</event>
<event>
12    1  0.8724767E-002  0.2047325E+03  0.7818608E-02  0.1146056E+00
         21   -1    0    0  501  502  0.00000000000E+00  0.00000000000E+00  0.12315867101E+04  0.12315867101E+04  0.00000000000E+00 0. -1.
         21   -1    0    0  502  503 -0.00000000000E+00 -0.00000000000E+00 -0.34153616321E+02  0.34153616321E+02  0.00000000000E+00 0.  1.
         -6    2    1    2    0  503  0.10769525748E+03  0.29703673094E+02  0.66190300960E+03  0.69284269218E+03  0.17156580460E+03 0.  0.
        -24    2    3    3    0    0  0.26125934457E+01 -0.26240570157E+02  0.29343024657E+03  0.30558774808E+03  0.81161376331E+02 0.  0.
          6    2    1    2  501    0 -0.10769525748E+03 -0.29703673094E+02  0.53553008418E+03  0.57289763424E+03  0.17011364314E+03 0.  0.
         24    2    5    5    0    0 -0.76006471486E+02  0.19709816068E+02  0.17584721163E+03  0.20842578228E+03  0.79709499582E+02 0.  0.
          5    1    5    5  501    0 -0.31688785991E+02 -0.49413489162E+02  0.35968287255E+03  0.36447185196E+03  0.47000000000E+01 0. -1.
        -11    1    6    6    0    0 -0.70211451048E+02 -0.69596856952E+01  0.71041206576E+02  0.10012461293E+03  0.00000000000E+00 0.  1.
         12    1    6    6    0    0 -0.57950204370E+01  0.26669501763E+02  0.10480600506E+03  0.10830116935E+03  0.00000000000E+00 0. -1.
         -5    1    3    3    0  503  0.10508266403E+03  0.55944243252E+02  0.36847276303E+03  0.38725494410E+03  0.47000000000E+01 0.  1.
         11    1    4    4    0    0 -0.30452035535E+02  0.26892928862E+00  0.20806341764E+03  0.21028025240E+03  0.00000000000E+00 0. -1.
        -12    1    4    4    0    0  0.33064628981E+02 -0.26509499446E+02  0.85366828934E+02  0.95307495679E+02  0.00000000000E+00 0.  1.
</event>
<event>
12    1  0.8724767E-002  0.1967509E+03  0.7818608E-02  0.1152800E+00
         21   -1    0    0  501  502  0.00000000000E+00  0.00000000000E+00  0.24226491464E+03  0.24226491464E+03  0.00000000000E+00 0. -1.
         21   -1    0    0  502  503 -0.00000000000E+00 -0.00000000000E+00 -0.29283480780E+03  0.29283480780E+03  0.00000000000E+00 0. -1.
         -6    2    1    2    0  503  0.42080789239E+02  0.78113878148E+02 -0.20640860394E+03  0.28515859231E+03  0.17560848557E+03 0.  0.
        -24    2    3    3    0    0  0.44831190621E+02  0.10254551067E+03 -0.22125832602E+03  0.25605406308E+03  0.63898505284E+02 0.  0.
          6    2    1    2  501    0 -0.42080789239E+02 -0.78113878148E+02  0.15583871078E+03  0.24994113013E+03  0.17410426178E+03 0.  0.
         24    2    5    5    0    0  0.42307828009E+02 -0.19603061208E+02  0.79084766535E+02  0.12165156556E+03  0.79815229037E+02 0.  0.
          5    1    5    5  501    0 -0.84388617248E+02 -0.58510816940E+02  0.76753944246E+02  0.12828956457E+03  0.47000000000E+01 0. -1.
        -13    1    6    6    0    0  0.34429363623E+02 -0.47533061530E+02  0.33403565934E+02  0.67532001562E+02  0.00000000000E+00 0.  1.
         14    1    6    6    0    0  0.78784643861E+01  0.27930000323E+02  0.45681200601E+02  0.54119563999E+02  0.00000000000E+00 0. -1.
         -5    1    3    3    0  503 -0.27504013819E+01 -0.24431632525E+02  0.14849722079E+02  0.29104529225E+02  0.47000000000E+01 0.  1.
         13    1    4    4    0    0  0.27027305220E+02  0.70482299675E+01 -0.78999208318E+02  0.83791572894E+02  0.00000000000E+00 0. -1.
        -14    1    4    4    0    0  0.17803885401E+02  0.95497280705E+02 -0.14225911770E+03  0.17226249019E+03  0.00000000000E+00 0.  1.
</event>
<event>
12    1  0.8724767E-002  0.2327150E+03  0.7818608E-02  0.1124793E+00
         21   -1    0    0  501  502  0.00000000000E+00  0.00000000000E+00  0.19718595196E+04  0.19718595196E+04  0.00000000000E+00 0. -1.
         21   -1    0    0  502  503 -0.00000000000E+00 -0.00000000000E+00 -0.27657992223E+02  0.27657992223E+02  0.00000000000E+00 0.  1.
         -6    2    1    2    0  503  0.86978396195E+02 -0.13035961106E+03  0.10633800482E+04  0.10885464717E+04  0.17203901994E+03 0.  0.
        -24    2    3    3    0    0  0.64269433552E+02 -0.46004706754E+01  0.54355979052E+03  0.55322764264E+03  0.80323435504E+02 0.  0.
          6    2    1    2  501    0 -0.86978396195E+02  0.13035961106E+03  0.88082147915E+03  0.91097104017E+03  0.17164757003E+03 0.  0.
         24    2    5    5    0    0 -0.96620127912E+02  0.14181423972E+03  0.87344644109E+03  0.89363170066E+03  0.78880943714E+02 0.  0.
          5    1    5    5  501    0  0.96417317165E+01 -0.11454628655E+02  0.73750380665E+01  0.17339339509E+02  0.47000000000E+01 0. -1.
        -13    1    6    6    0    0 -0.98967431110E+02  0.88247154520E+02  0.68449835010E+03  0.69722313788E+03  0.00000000000E+00 0.  1.
         14    1    6    6    0    0  0.23473031981E+01  0.53567085196E+02  0.18894809099E+03  0.19640856279E+03  0.00000000000E+00 0. -1.
         -5    1    3    3    0  503  0.22708962643E+02 -0.12575914038E+03  0.51982025772E+03  0.53531882903E+03  0.47000000000E+01 0.  1.
         13    1    4    4    0    0  0.54823739451E+02 -0.30345695873E+02  0.47905112686E+03  0.48313195486E+03  0.00000000000E+00 0. -1.
        -14    1    4    4    0    0  0.94456941013E+01  0.25745225197E+02  0.64508663663E+02  0.70095687778E+02  0.00000000000E+00 0.  1.
</event>
<event>
12    1  0.8724767E-002  0.2416332E+03  0.7818608E-02  0.1118799E+00
         21   -1    0    0  503  502  0.00000000000E+00  0.00000000000E+00  0.57663641359E+02  0.57663641359E+02  0.00000000000E+00 0.  1.
         21   -1    0    0  501  503 -0.00000000000E+00 -0.00000000000E+00 -0.19373264695E+04  0.19373264695E+04  0.00000000000E+00 0.  1.
          6    2    1    2  501    0  0.99962491847E+02 -0.13580646015E+03 -0.16293020356E+04  0.16470430656E+04  0.17230740578E+03 0.  0.
         24    2    3    3    0    0  0.11752020365E+03 -0.15175052107E+03 -0.15560624309E+04  0.15699157940E+04  0.80412016240E+02 0.  0.
         -6    2    1    2    0  502 -0.99962491847E+02  0.13580646015E+03 -0.25036079250E+03  0.34794704529E+03  0.17306277911E+03 0.  0.
        -24    2    5    5    0    0 -0.12709120804E+03  0.14719254879E+03 -0.20466078368E+03  0.29339256735E+03  0.79845730142E+02 0.  0.
          5    1    3    3  501    0 -0.17557711805E+02  0.15944060919E+02 -0.73239604721E+02  0.77127271585E+02  0.47000000000E+01 0. -1.
        -13    1    4    4    0    0  0.12933392178E+03 -0.13678940454E+03 -0.13685434976E+04  0.13814303852E+04  0.00000000000E+00 0.  1.
         14    1    4    4    0    0 -0.11813718130E+02 -0.14961116527E+02 -0.18751893333E+03  0.18848540872E+03  0.00000000000E+00 0. -1.
         -5    1    5    5    0  502  0.27128716198E+02 -0.11386088641E+02 -0.45700008821E+02  0.54554477940E+02  0.47000000000E+01 0.  1.
         13    1    6    6    0    0 -0.41903671271E+02  0.34135556056E+02 -0.11155894039E+03  0.12396189348E+03  0.00000000000E+00 0. -1.
        -14    1    6    6    0    0 -0.85187536773E+02  0.11305699273E+03 -0.93101843286E+02  0.16943067388E+03  0.00000000000E+00 0.  1.
</event>
<event>
12    1  0.8724767E-002  0.2222343E+03  0.7818608E-02  0.1133174E+00
         21   -1    0    0  501  502  0.00000000000E+00  0.00000000000E+00  0.57467670417E+02  0.57467670417E+02  0.00000000000E+00 0. -1.
         21   -1    0    0  502  503 -0.00000000000E+00 -0.00000000000E+00 -0.11536391277E+04  0.11536391277E+04  0.00000000000E+00 0. -1.
         -6    2    1    2    0  503 -0.88307902010E+02  0.10048422576E+03 -0.86848577199E+03  0.89646841587E+03  0.17746188133E+03 0.  0.
        -24    2    3    3    0    0 -0.44177251593E+02 -0.17773798011E+02 -0.47886497912E+03  0.48688457009E+03  0.74009316344E+02 0.  0.
          6    2    1    2  501    0  0.88307902010E+02 -0.10048422576E+03 -0.22768568534E+03  0.31463838229E+03  0.17105898140E+03 0.  0.
         24    2    5    5    0    0  0.67376717892E+02 -0.13998409920E+03 -0.18304813720E+03  0.25129049224E+03  0.74196501377E+02 0.  0.
          5    1    5    5  501    0  0.20931184118E+02  0.39499873434E+02 -0.44637548143E+02  0.63347890052E+02  0.47000000000E+01 0. -1.
        -13    1    6    6    0    0  0.20502581984E+02 -0.17266259023E+02 -0.79876078375E+02  0.84253590221E+02  0.00000000000E+00 0.  1.
         14    1    6    6    0    0  0.46874135908E+02 -0.12271784017E+03 -0.10317205882E+03  0.16703690202E+03  0.00000000000E+00 0. -1.
         -5    1    3    3    0  503 -0.44130650417E+02  0.11825802377E+03 -0.38962079287E+03  0.40958384578E+03  0.47000000000E+01 0.  1.
         13    1    4    4    0    0 -0.55808409932E+02 -0.26835637935E+02 -0.45214946351E+03  0.45637031831E+03  0.00000000000E+00 0. -1.
        -14    1    4    4    0    0  0.11631158338E+02  0.90618399241E+01 -0.26715515614E+02  0.30514251779E+02  0.00000000000E+00 0.  1.
</event>
<event>
12    1  0.8724767E-002  0.2221150E+03  0.7818608E-02  0.1132713E+00
         21   -1    0    0  503  502  0.00000000000E+00  0.00000000000E+00  0.67195589044E+02  0.67195589044E+02  0.00000000000E+00 0.  1.
         21   -1    0    0  501  503 -0.00000000000E+00 -0.00000000000E+00 -0.82527252013E+03  0.82527252013E+03  0.00000000000E+00 0.  1.
          6    2    1    2  501    0  0.10531899084E+03 -0.92374183919E+02 -0.53453730488E+03  0.57884816773E+03  0.17236586465E+03 0.  0.
         24    2    3    3    0    0  0.33859534582E+02 -0.10470390831E+03 -0.43774905005E+03  0.45781704667E+03  0.76569190358E+02 0.  0.
         -6    2    1    2    0  502 -0.10531899084E+03  0.92374183919E+02 -0.22353962621E+03  0.31361994144E+03  0.16959488052E+03 0.  0.
        -24    2    5    5    0    0 -0.37055331985E+01  0.85033913358E+02 -0.10072113918E+03  0.15397770047E+03  0.79497716744E+02 0.  0.
          5    1    3    3  501    0  0.71459456255E+02  0.12329724388E+02 -0.96788254830E+02  0.12103112106E+03  0.47000000000E+01 0. -1.
        -13    1    4    4    0    0  0.36479864812E+02 -0.39691688235E+02 -0.30784209542E+03  0.31252674504E+03  0.00000000000E+00 0.  1.
         14    1    4    4    0    0 -0.26203302303E+01 -0.65012220072E+02 -0.12990695463E+03  0.14529030164E+03  0.00000000000E+00 0. -1.
         -5    1    5    5    0  502 -0.10161345764E+03  0.73402705611E+01 -0.12281848703E+03  0.15964224097E+03  0.47000000000E+01 0.  1.
         11    1    6    6    0    0  0.17804577432E+02 -0.12004312494E+01 -0.46646833564E+02  0.49943679223E+02  0.00000000000E+00 0. -1.
        -12    1    6    6    0    0 -0.21510110631E+02  0.86234344607E+02 -0.54074305611E+02  0.10403402125E+03  0.00000000000E+00 0.  1.
</event>
<event>
12    1  0.8724767E-002  0.1871294E+03  0.7818608E-02  0.1163193E+00
         21   -1    0    0  503  502  0.00000000000E+00  0.00000000000E+00  0.53869468645E+02  0.53869468645E+02  0.00000000000E+00 0.  1.
         21   -1    0    0  501  503 -0.00000000000E+00 -0.00000000000E+00 -0.79668703322E+03  0.79668703322E+03  0.00000000000E+00 0.  1.
          6    2    1    2  501    0 -0.32413120140E+02  0.19622895162E+02 -0.56496288630E+03  0.59239049626E+03  0.17409126571E+03 0.  0.
         24    2    3    3    0    0 -0.49810277289E+02  0.65787765778E+02 -0.30925545783E+03  0.33192507566E+03  0.87898940863E+02 0.  0.
         -6    2    1    2    0  502  0.32413120140E+02 -0.19622895162E+02 -0.17785467828E+03  0.25816600561E+03  0.18325318958E+03 0.  0.
        -24    2    5    5    0    0  0.75277198050E+02  0.33717143062E+02 -0.11930445979E+03  0.16798448345E+03  0.84745089959E+02 0.  0.
          5    1    3    3  501    0  0.17397157149E+02 -0.46164870616E+02 -0.25570742846E+03  0.26046542060E+03  0.47000000000E+01 0. -1.
        -11    1    4    4    0    0 -0.39287820714E+02 -0.12601949109E+02 -0.96886504537E+02  0.10530591977E+03  0.00000000000E+00 0.  1.
         12    1    4    4    0    0 -0.10522456575E+02  0.78389714887E+02 -0.21236895330E+03  0.22661915589E+03  0.00000000000E+00 0. -1.
         -5    1    5    5    0  502 -0.42864077910E+02 -0.53340038224E+02 -0.58550218492E+02  0.90181522155E+02  0.47000000000E+01 0.  1.
         13    1    6    6    0    0 -0.16558828476E+02 -0.67619526170E+01 -0.18893275448E+02  0.26016814963E+02  0.00000000000E+00 0. -1.
        -14    1    6    6    0    0  0.91836026526E+02  0.40479095679E+02 -0.10041118434E+03  0.14196766849E+03  0.00000000000E+00 0.  1.
</event>
<event>
12    1  0.8724767E-002  0.2495619E+03  0.7818608E-02  0.1113625E+00
         21   -1    0    0  503  502  0.00000000000E+00  0.00000000000E+00  0.48595439273E+03  0.48595439273E+03  0.00000000000E+00 0.  1.
         21   -1    0    0  501  503 -0.00000000000E+00 -0.00000000000E+00 -0.12895930171E+03  0.12895930171E+03  0.00000000000E+00 0. -1.
          6    2    1    2  501    0  0.18183742453E+03  0.10955873417E+02  0.15242012314E+03  0.29242608697E+03  0.17057620665E+03 0.  0.
         24    2    3    3    0    0  0.13941336633E+03  0.36881572498E+02  0.17133595619E+03  0.23902345289E+03  0.83545580639E+02 0.  0.
         -6    2    1    2    0  502 -0.18183742453E+03 -0.10955873417E+02  0.20457496788E+03  0.32248760747E+03  0.17018360487E+03 0.  0.
        -24    2    5    5    0    0 -0.11207455760E+03  0.52256897217E+02  0.15422137222E+03  0.21562186661E+03  0.86122400941E+02 0.  0.
          5    1    3    3  501    0  0.42424058200E+02 -0.25925699081E+02 -0.18915833045E+02  0.53402634081E+02  0.47000000000E+01 0. -1.
        -11    1    4    4    0    0  0.30685461919E+02 -0.24252413565E+02  0.61158422971E+02  0.72595659906E+02  0.00000000000E+00 0.  1.
         12    1    4    4    0    0  0.10872790441E+03  0.61133986063E+02  0.11017753322E+03  0.16642779298E+03  0.00000000000E+00 0. -1.
         -5    1    5    5    0  502 -0.69762866934E+02 -0.63212770634E+02  0.50353595656E+02  0.10686574086E+03  0.47000000000E+01 0.  1.
         11    1    6    6    0    0 -0.15775542573E+02 -0.16667457219E+02  0.60158718809E+02  0.64387446931E+02  0.00000000000E+00 0. -1.
        -12    1    6    6    0    0 -0.96299015027E+02  0.68924354435E+02  0.94062653411E+02  0.15123441968E+03  0.00000000000E+00 0.  1.
</event>
<event>
12    1  0.8724767E-002  0.2614045E+03  0.7818608E-02  0.1106858E+00
         21   -1    0    0  503  502  0.00000000000E+00  0.00000000000E+00  0.63602681555E+03  0.63602681555E+03  0.00000000000E+00 0. -1.
         21   -1    0    0  501  503 -0.00000000000E+00 -0.00000000000E+00 -0.32297443048E+03  0.32297443048E+03  0.00000000000E+00 0. -1.
          6    2    1    2  501    0  0.13510332002E+03 -0.13650397430E+03 -0.23692171714E+03  0.35006461702E+03  0.17183449582E+03 0.  0.
         24    2    3    3    0    0  0.10348049574E+03 -0.73713709602E+02 -0.61547300586E+02  0.16106489125E+03  0.77536475306E+02 0.  0.
         -6    2    1    2    0  502 -0.13510332002E+03  0.13650397430E+03  0.54997410222E+03  0.60893662901E+03  0.17733037800E+03 0.  0.
        -24    2    5    5    0    0 -0.14017872825E+03  0.53730579014E+02  0.29216230037E+03  0.33807465326E+03  0.79991314810E+02 0.  0.
          5    1    3    3  501    0  0.31622824281E+02 -0.62790264702E+02 -0.17537441655E+03  0.18899972576E+03  0.47000000000E+01 0. -1.
        -11    1    4    4    0    0  0.25551264543E+02 -0.57012243939E+02 -0.37003529503E+01  0.62585586924E+02  0.00000000000E+00 0.  1.
         12    1    4    4    0    0  0.77929231196E+02 -0.16701465664E+02 -0.57846947636E+02  0.98479304328E+02  0.00000000000E+00 0. -1.
         -5    1    5    5    0  502  0.50754082299E+01  0.82773395291E+02  0.25781180184E+03  0.27086197575E+03  0.47000000000E+01 0.  1.
         13    1    6    6    0    0 -0.58611319203E+02  0.64845032824E+02  0.16166275964E+03  0.18377979452E+03  0.00000000000E+00 0. -1.
        -14    1    6    6    0    0 -0.81567409047E+02 -0.11114453809E+02  0.13049954073E+03  0.15429485874E+03  0.00000000000E+00 0.  1.
</event>
<event>
12    1  0.8724767E-002  0.2010041E+03  0.7818608E-02  0.1149526E+00
         21   -1    0    0  501  502  0.00000000000E+00  0.00000000000E+00  0.17968205894E+03  0.17968205894E+03  0.00000000000E+00 0. -1.
         21   -1    0    0  502  503 -0.00000000000E+00 -0.00000000000E+00 -0.41558491668E+03  0.41558491668E+03  0.00000000000E+00 0.  1.
         -6    2    1    2    0  503 -0.13955692246E+02  0.97662411106E+02 -0.32086222919E+03  0.37704521609E+03  0.17169105092E+03 0.  0.
        -24    2    3    3    0    0 -0.65839835542E+02  0.20814204877E+02 -0.17116045268E+03  0.20089095694E+03  0.79329445670E+02 0.  0.
          6    2    1    2  501    0  0.13955692246E+02 -0.97662411106E+02  0.84959371449E+02  0.21822175953E+03  0.17512833479E+03 0.  0.
         24    2    5    5    0    0 -0.45853341688E+02 -0.83144021590E+01  0.27032795814E+02  0.96001608135E+02  0.79459917492E+02 0.  0.
          5    1    5    5  501    0  0.59809033934E+02 -0.89348008947E+02  0.57926575635E+02  0.12222015140E+03  0.47000000000E+01 0. -1.
        -11    1    6    6    0    0 -0.67820144943E+02 -0.30084326895E+01  0.27876143380E+02  0.73387342894E+02  0.00000000000E+00 0.  1.
         12    1    6    6    0    0  0.21966803255E+02 -0.53059694695E+01 -0.84334756637E+00  0.22614265241E+02  0.00000000000E+00 0. -1.
         -5    1    3    3    0  503  0.51884143295E+02  0.76848206229E+02 -0.14970177651E+03  0.17615425915E+03  0.47000000000E+01 0.  1.
         11    1    4    4    0    0 -0.29668624013E+02  0.47995042218E+01 -0.54753544136E+01  0.30549009764E+02  0.00000000000E+00 0. -1.
        -12    1    4    4    0    0 -0.36171211528E+02  0.16014700655E+02 -0.16568509827E+03  0.17034194718E+03  0.00000000000E+00 0.  1.
</event>
<event>
12    1  0.8724767E-002  0.1797694E+03  0.7818608E-02  0.1168466E+00
         21   -1    0    0  501  502  0.00000000000E+00  0.00000000000E+00  0.41569908632E+03  0.41569908632E+03  0.00000000000E+00 0. -1.
         21   -1    0    0  502  503 -0.00000000000E+00 -0.00000000000E+00 -0.12418990324E+03  0.12418990324E+03  0.00000000000E+00 0. -1.
         -6    2    1    2    0  503  0.49054860763E+02 -0.14292143613E+02 -0.20254512104E+02  0.18090685571E+03  0.17235544798E+03 0.  0.
        -24    2    3    3    0    0  0.54649687149E+02 -0.70354539511E+02 -0.30238720362E+02  0.12349545675E+03  0.80002488042E+02 0.  0.
          6    2    1    2  501    0 -0.49054860763E+02  0.14292143613E+02  0.31176369518E+03  0.35898213384E+03  0.17047265486E+03 0.  0.
         24    2    5    5    0    0 -0.32548682120E+02 -0.15834191456E+02  0.61713314709E+02  0.10653940218E+03  0.78942844369E+02 0.  0.
          5    1    5    5  501    0 -0.16506178644E+02  0.30126335069E+02  0.25005038047E+03  0.25244273167E+03  0.47000000000E+01 0. -1.
        -13    1    6    6    0    0 -0.35443034263E+02  0.26452098988E+02  0.27599481745E+02  0.52131119413E+02  0.00000000000E+00 0.  1.
         14    1    6    6    0    0  0.28943521435E+01 -0.42286290444E+02  0.34113832964E+02  0.54408282764E+02  0.00000000000E+00 0. -1.
         -5    1    3    3    0  503 -0.55948263861E+01  0.56062395899E+02  0.99842082576E+01  0.57411398961E+02  0.47000000000E+01 0.  1.
         13    1    4    4    0    0  0.56947163586E+02 -0.52966101474E+02 -0.53475404894E+02  0.94382234951E+02  0.00000000000E+00 0. -1.
        -14    1    4    4    0    0 -0.22974764363E+01 -0.17388438037E+02  0.23236684532E+02  0.29113221797E+02  0.00000000000E+00 0.  1.
</event>
<event>
12    1  0.8724767E-002  0.2675050E+03  0.7818608E-02  0.1102850E+00
         21   -1    0    0  501  502  0.00000000000E+00  0.00000000000E+00  0.74526549583E+02  0.74526549583E+02  0.00000000000E+00 0. -1.
         21   -1    0    0  502  503 -0.00000000000E+00 -0.00000000000E+00 -0.10189433749E+04  0.10189433749E+04  0.00000000000E+00 0.  1.
         -6    2    1    2    0  503 -0.11546133493E+03 -0.16880444475E+03 -0.60639183125E+03  0.66240167313E+03  0.17099316689E+03 0.  0.
        -24    2    3    3    0    0 -0.10766415329E+03 -0.80378487620E+02 -0.24122120770E+03  0.28656710814E+03  0.76686147686E+02 0.  0.
          6    2    1    2  501    0  0.11546133493E+03  0.16880444475E+03 -0.33802499404E+03  0.43106825133E+03  0.17243166843E+03 0.  0.
         24    2    5    5    0    0  0.21183766772E+02  0.20822019588E+02 -0.12483412220E+03  0.15491703215E+03  0.86795278169E+02 0.  0.
          5    1    5    5  501    0  0.94277568159E+02  0.14798242516E+03 -0.21319087185E+03  0.27615121918E+03  0.47000000000E+01 0. -1.
        -11    1    6    6    0    0  0.35371710995E+01 -0.41180174484E+01 -0.12424101026E+03  0.12435955242E+03  0.00000000000E+00 0.  1.
         12    1    6    6    0    0  0.17646595673E+02  0.24940037036E+02 -0.59311193887E+00  0.30557479739E+02  0.00000000000E+00 0. -1.
         -5    1    3    3    0  503 -0.77971816383E+01 -0.88425957127E+02 -0.36517062355E+03  0.37583456499E+03  0.47000000000E+01 0.  1.
         11    1    4    4    0    0  0.11235704561E+02 -0.96888552247E+00 -0.23935412953E+02  0.26459096533E+02  0.00000000000E+00 0. -1.
        -12    1    4    4    0    0 -0.11889985785E+03 -0.79409602097E+02 -0.21728579475E+03  0.26010801160E+03  0.00000000000E+00 0.  1.
</event>
<event>
12    1  0.8724767E-002  0.1757567E+03  0.7818608E-02  0.1172402E+00
         21   -1    0    0  501  502  0.00000000000E+00  0.00000000000E+00  0.28693385995E+03  0.28693385995E+03  0.00000000000E+00 0. -1.
         21   -1    0    0  502  503 -0.00000000000E+00 -0.00000000000E+00 -0.20211884250E+03  0.20211884250E+03  0.00000000000E+00 0. -1.
         -6    2    1    2    0  503 -0.79575151073E+01 -0.87955544577E+01 -0.12556955319E+03  0.21600493540E+03  0.17535602529E+03 0.  0.
        -24    2    3    3    0    0 -0.57801980984E+02  0.12449517048E+01 -0.36177806122E+02  0.11305709916E+03  0.90169036283E+02 0.  0.
          6    2    1    2  501    0  0.79575151073E+01  0.87955544577E+01  0.21038457065E+03  0.27304776705E+03  0.17364541946E+03 0.  0.
         24    2    5    5    0    0 -0.38978208153E+02  0.37261348744E+02  0.19240711610E+03  0.21509483413E+03  0.79608922372E+02 0.  0.
          5    1    5    5  501    0  0.46935723260E+02 -0.28465794286E+02  0.17977454553E+02  0.57952932924E+02  0.47000000000E+01 0. -1.
        -11    1    6    6    0    0  0.70069870102E+01  0.48344845896E+02  0.97441228815E+02  0.10900052782E+03  0.00000000000E+00 0.  1.
         12    1    6    6    0    0 -0.45985195163E+02 -0.11083497152E+02  0.94965887283E+02  0.10609430631E+03  0.00000000000E+00 0. -1.
         -5    1    3    3    0  503  0.49844465877E+02 -0.10040506163E+02 -0.89391747071E+02  0.10294783624E+03  0.47000000000E+01 0.  1.
         11    1    4    4    0    0 -0.12559600749E+02 -0.38865290742E+01 -0.60170498711E+02  0.61590077077E+02  0.00000000000E+00 0. -1.
        -12    1    4    4    0    0 -0.45242380235E+02  0.51314807790E+01  0.23992692590E+02  0.51467022082E+02  0.00000000000E+00 0.  1.
</event>
<event>
12    1  0.8724767E-002  0.1994660E+03  0.7818608E-02  0.1150413E+00
         21   -1    0    0  503  502  0.00000000000E+00  0.00000000000E+00  0.38561579198E+02  0.38561579198E+02  0.00000000000E+00 0.  1.
         21   -1    0    0  501  503 -0.00000000000E+00 -0.00000000000E+00 -0.13716649595E+04  0.13716649595E+04  0.00000000000E+00 0. -1.
          6    2    1    2  501    0 -0.95122789659E+02  0.35520738743E+02 -0.10216589367E+04  0.10409484474E+04  0.17168756257E+03 0.  0.
         24    2    3    3    0    0  0.92619579250E+01  0.36915209241E+02 -0.60333113007E+03  0.60976592931E+03  0.79734054833E+02 0.  0.
         -6    2    1    2    0  502  0.95122789659E+02 -0.35520738743E+02 -0.31144444363E+03  0.36927809136E+03  0.17046583029E+03 0.  0.
        -24    2    5    5    0    0  0.11286716198E+02  0.13801645911E+02 -0.22440443744E+03  0.23866707529E+03  0.79289002333E+02 0.  0.
          5    1    3    3  501    0 -0.10438474758E+03 -0.13944704981E+01 -0.41832780663E+03  0.43118251805E+03  0.47000000000E+01 0. -1.
        -11    1    4    4    0    0 -0.26968609173E+02 -0.62903305908E+01 -0.11983977269E+03  0.12299774493E+03  0.00000000000E+00 0.  1.
         12    1    4    4    0    0  0.36230567098E+02  0.43205539832E+02 -0.48349135738E+03  0.48676818438E+03  0.00000000000E+00 0. -1.
         -5    1    5    5    0  502  0.83836073461E+02 -0.49322384655E+02 -0.87040006187E+02  0.13061101607E+03  0.47000000000E+01 0.  1.
         11    1    6    6    0    0 -0.20675480867E+02 -0.17964220735E+02 -0.14321259428E+03  0.14580821615E+03  0.00000000000E+00 0. -1.
        -12    1    6    6    0    0  0.31962197065E+02  0.31765866647E+02 -0.81191843162E+02  0.92858859142E+02  0.00000000000E+00 0.  1.
</event>
<event>
12    1  0.8724767E-002  0.2902094E+03  0.7818608E-02  0.1090251E+00
         21   -1    0    0  501  502  0.00000000000E+00  0.00000000000E+00  0.19325331725E+03  0.19325331725E+03  0.00000000000E+00 0.  1.
         21   -1    0    0  502  503 -0.00000000000E+00 -0.00000000000E+00 -0.46924049228E+03  0.46924049228E+03  0.00000000000E+00 0.  1.
         -6    2    1    2    0  503  0.16745192033E+03  0.16302008644E+03 -0.22656115937E+03  0.36810555417E+03  0.17191871879E+03 0.  0.
        -24    2    3    3    0    0  0.88403404238E+02  0.11136971860E+03 -0.53838565378E+02  0.17120046823E+03  0.78693284960E+02 0.  0.
          6    2    1    2  501    0 -0.16745192033E+03 -0.16302008644E+03 -0.49426015660E+02  0.29438825537E+03  0.17206341759E+03 0.  0.
         24    2    5    5    0    0 -0.17227026995E+03 -0.91142086830E+02 -0.65147421260E+02  0.22050377855E+03  0.79961265358E+02 0.  0.
          5    1    5    5  501    0  0.48183496238E+01 -0.71877999606E+02  0.15721405600E+02  0.73884476816E+02  0.47000000000E+01 0. -1.
        -13    1    6    6    0    0 -0.94067916302E+02 -0.82781094385E+02 -0.66471106025E+02  0.14184459948E+03  0.00000000000E+00 0.  1.
         14    1    6    6    0    0 -0.78202353652E+02 -0.83609924450E+01  0.13236847644E+01  0.78659179074E+02  0.00000000000E+00 0. -1.
         -5    1    3    3    0  503  0.79048516091E+02  0.51650367835E+02 -0.17272259399E+03  0.19690508594E+03  0.47000000000E+01 0.  1.
         11    1    4    4    0    0  0.27924276965E+02 -0.67122891624E+01 -0.17552005047E+02  0.33658475174E+02  0.00000000000E+00 0. -1.
        -12    1    4    4    0    0  0.60479127273E+02  0.11808200776E+03 -0.36286560330E+02  0.13754199306E+03  0.00000000000E+00 0.  1.
</event>
<event>
12    1  0.8724767E-002  0.2033002E+03  0.7818608E-02  0.1147168E+00
         21   -1    0    0  503  502  0.00000000000E+00  0.00000000000E+00  0.12394719067E+04  0.12394719067E+04  0.00000000000E+00 0.  1.
         21   -1    0    0  501  503 -0.00000000000E+00 -0.00000000000E+00 -0.35856163136E+02  0.35856163136E+02  0.00000000000E+00 0.  1.
          6    2    1    2  501    0  0.40884707709E+02 -0.10155735618E+03  0.42702812505E+03  0.47257074644E+03  0.17024874416E+03 0.  0.
         24    2    3    3    0    0  0.20219281953E+02 -0.13377034611E+03  0.29787954905E+03  0.33778876982E+03  0.84057732594E+02 0.  0.
         -6    2    1    2    0  502 -0.40884707709E+02  0.10155735618E+03  0.77658761856E+03  0.80275732344E+03  0.17130538554E+03 0.  0.
        -24    2    5    5    0    0 -0.58931723219E+02  0.12773483720E+03  0.53230628660E+03  0.55637060621E+03  0.80057055082E+02 0.  0.
          5    1    3    3  501    0  0.20665425757E+02  0.32212989923E+02  0.12914857599E+03  0.13478197662E+03  0.47000000000E+01 0. -1.
        -13    1    4    4    0    0 -0.76443165265E+01 -0.11727702470E+03  0.27211409469E+03  0.29640920469E+03  0.00000000000E+00 0.  1.
         14    1    4    4    0    0  0.27863598479E+02 -0.16493321404E+02  0.25765454366E+02  0.41379565124E+02  0.00000000000E+00 0. -1.
         -5    1    5    5    0  502  0.18047015510E+02 -0.26177481018E+02  0.24428133196E+03  0.24638671723E+03  0.47000000000E+01 0.  1.
         11    1    6    6    0    0  0.54044261733E+01 -0.16600246113E+01  0.97252248889E+00  0.57366631385E+01  0.00000000000E+00 0. -1.
        -12    1    6    6    0    0 -0.64336149392E+02  0.12939486181E+03  0.53133376411E+03  0.55063394307E+03  0.00000000000E+00 0.  1.
</event>
<event>
12    1  0.8724767E-002  0.1981214E+03  0.7818608E-02  0.1151749E+00
         21   -1    0    0  503  502  0.00000000000E+00  0.00000000000E+00  0.33038741046E+03  0.33038741046E+03  0.00000000000E+00 0.  1.
         21   -1    0    0  501  503 -0.00000000000E+00 -0.00000000000E+00 -0.54735411584E+03  0.54735411584E+03  0.00000000000E+00 0.  1.
          6    2    1    2  501    0  0.34498057341E+02  0.91671881655E+02 -0.49722335719E+03  0.53452746873E+03  0.16998440533E+03 0.  0.
         24    2    3    3    0    0  0.42397988199E+02  0.50892702606E+01 -0.35703000305E+03  0.36949648968E+03  0.85051412297E+02 0.  0.
         -6    2    1    2    0  502 -0.34498057341E+02 -0.91671881655E+02  0.28025665180E+03  0.34321405756E+03  0.17221570366E+03 0.  0.
        -24    2    5    5    0    0 -0.80000318659E+02 -0.22792241955E+02  0.17529803143E+03  0.20959795621E+03  0.79261378663E+02 0.  0.
          5    1    3    3  501    0 -0.78999308581E+01  0.86582611395E+02 -0.14019335413E+03  0.16503097905E+03  0.47000000000E+01 0. -1.
        -11    1    4    4    0    0  0.97307778714E+01 -0.38806405681E+02 -0.16867197657E+03  0.17335184117E+03  0.00000000000E+00 0.  1.
         12    1    4    4    0    0  0.32667210328E+02  0.43895675941E+02 -0.18835802649E+03  0.19614464851E+03  0.00000000000E+00 0. -1.
         -5    1    5    5    0  502  0.45502261317E+02 -0.68879639700E+02  0.10495862037E+03  0.13361610135E+03  0.47000000000E+01 0.  1.
         13    1    6    6    0    0 -0.26812782168E+01  0.81176287739E+01  0.89962900076E+02  0.90368183228E+02  0.00000000000E+00 0. -1.
        -14    1    6    6    0    0 -0.77319040442E+02 -0.30909870729E+02  0.85335131351E+02  0.11922977298E+03  0.00000000000E+00 0.  1.
</event>
<event>
12    1  0.8724767E-002  0.1843814E+03  0.7818608E-02  0.1163924E+00
         21   -1    0    0  503  502  0.00000000000E+00  0.00000000000E+00  0.64759161183E+03  0.64759161183E+03  0.00000000000E+00 0.  1.
         21   -1    0    0  501  503 -0.00000000000E+00 -0.00000000000E+00 -0.66512041142E+02  0.66512041142E+02  0.00000000000E+00 0.  1.
          6    2    1    2  501    0  0.62154544460E+02  0.62245416770E+01  0.12379119198E+03  0.22104263640E+03  0.17214428709E+03 0.  0.
         24    2    3    3    0    0  0.12361870605E+02 -0.75203921734E+01  0.14236997759E+03  0.16594731127E+03  0.84023374463E+02 0.  0.
         -6    2    1    2    0  502 -0.62154544460E+02 -0.62245416770E+01  0.45728837871E+03  0.49306101657E+03  0.17347787308E+03 0.  0.
        -24    2    5    5    0    0 -0.62961386704E+02 -0.66871503157E+02  0.27961245829E+03  0.30525918584E+03  0.81019192529E+02 0.  0.
          5    1    3    3  501    0  0.49792673854E+02  0.13744933850E+02 -0.18578785610E+02  0.55095325127E+02  0.47000000000E+01 0. -1.
        -13    1    4    4    0    0  0.47477015802E+02 -0.10940977572E+02  0.96261102489E+02  0.10788870132E+03  0.00000000000E+00 0.  1.
         14    1    4    4    0    0 -0.35115145197E+02  0.34205853985E+01  0.46108875100E+02  0.58058609953E+02  0.00000000000E+00 0. -1.
         -5    1    5    5    0  502  0.80684224476E+00  0.60646961480E+02  0.17767592041E+03  0.18780183073E+03  0.47000000000E+01 0.  1.
         13    1    6    6    0    0 -0.36294334638E+02 -0.82116582580E+02  0.23006990298E+03  0.24696674294E+03  0.00000000000E+00 0. -1.
        -14    1    6    6    0    0 -0.26667052066E+02  0.15245079423E+02  0.49542555318E+02  0.58292442906E+02  0.00000000000E+00 0.  1.
</event>
<event>
12    1  0.8724767E-002  0.2202160E+03  0.7818608E-02  0.1134324E+00
         21   -1    0    0  503  502  0.00000000000E+00  0.00000000000E+00  0.28495041641E+03  0.28495041641E+03  0.00000000000E+00 0. -1.
         21   -1    0    0  501  503 -0.00000000000E+00 -0.00000000000E+00 -0.24968590834E+03  0.24968590834E+03  0.00000000000E+00 0.  1.
          6    2    1    2  501    0 -0.13286387536E+03 -0.26654856417E+02 -0.13544127213E+03  0.25853317889E+03  0.17358506745E+03 0.  0.
         24    2    3    3    0    0 -0.15326864866E+03  0.44640859837E+01 -0.11412007348E+03  0.21538892247E+03  0.99286404039E+02 0.  0.
         -6    2    1    2    0  502  0.13286387536E+03  0.26654856417E+02  0.17070578020E+03  0.27610314586E+03  0.16949688201E+03 0.  0.
        -24    2    5    5    0    0  0.69756422010E+01  0.41005573363E+02  0.10082706861E+03  0.13133120569E+03  0.73155117349E+02 0.  0.
          5    1    3    3  501    0  0.20404773301E+02 -0.31118942401E+02 -0.21321198656E+02  0.43144256416E+02  0.47000000000E+01 0. -1.
        -13    1    4    4    0    0  0.63183502856E+00  0.82687348379E+01 -0.46519783765E+02  0.47253163628E+02  0.00000000000E+00 0.  1.
         14    1    4    4    0    0 -0.15390048369E+03 -0.38046488541E+01 -0.67600289711E+02  0.16813575884E+03  0.00000000000E+00 0. -1.
         -5    1    5    5    0  502  0.12588823316E+03 -0.14350716946E+02  0.69878711594E+02  0.14477194016E+03  0.47000000000E+01 0.  1.
         13    1    6    6    0    0  0.16097921801E+02  0.10204788934E+02  0.97145543532E+02  0.98997663768E+02  0.00000000000E+00 0. -1.
        -14    1    6    6    0    0 -0.91222795995E+01  0.30800784430E+02  0.36815250738E+01  0.32333541925E+02  0.00000000000E+00 0.  1.
</event>
<event>
12    1  0.8724767E-002  0.2670204E+03  0.7818608E-02  0.1104207E+00
         21   -1    0    0  501  502  0.00000000000E+00  0.00000000000E+00  0.43834833080E+03  0.43834833080E+03  0.00000000000E+00 0.  1.
         21   -1    0    0  502  503 -0.00000000000E+00 -0.00000000000E+00 -0.20052698713E+03  0.20052698713E+03  0.00000000000E+00 0.  1.
         -6    2    1    2    0  503  0.14416677059E+03  0.12435592301E+03  0.26506085486E+03  0.37046909710E+03  0.17533294557E+03 0.  0.
        -24    2    3    3    0    0  0.21571284826E+02  0.89913401844E+02  0.81844533958E+02  0.14729595661E+03  0.80298386878E+02 0.  0.
          6    2    1    2  501    0 -0.14416677059E+03 -0.12435592301E+03 -0.27239511188E+02  0.26840622083E+03  0.18722033832E+03 0.  0.
         24    2    5    5    0    0 -0.96083793673E+02 -0.69008966256E+02 -0.92323773839E+02  0.17025679630E+03  0.80432360647E+02 0.  0.
          5    1    5    5  501    0 -0.48082976914E+02 -0.55346956754E+02  0.65084262651E+02  0.98149424531E+02  0.47000000000E+01 0. -1.
        -11    1    6    6    0    0 -0.63460273958E+02 -0.11450626889E+02 -0.80341276119E+02  0.10301962859E+03  0.00000000000E+00 0.  1.
         12    1    6    6    0    0 -0.32623519715E+02 -0.57558339367E+02 -0.11982497719E+02  0.67237167704E+02  0.00000000000E+00 0. -1.
         -5    1    3    3    0  503  0.12259548576E+03  0.34442521166E+02  0.18321632090E+03  0.22317314049E+03  0.47000000000E+01 0.  1.
         11    1    4    4    0    0 -0.92339180158E+01  0.66030538657E+02  0.85184364837E+02  0.10817427277E+03  0.00000000000E+00 0. -1.
        -12    1    4    4    0    0  0.30805202842E+02  0.23882863187E+02 -0.33398308788E+01  0.39121683839E+02  0.00000000000E+00 0.  1.
</event>
<event>
12    1  0.8724767E-002  0.2223497E+03  0.7818608E-02  0.1132275E+00
         21   -1    0    0  503  502  0.00000000000E+00  0.00000000000E+00  0.42122950224E+03  0.42122950224E+03  0.00000000000E+00 0.  1.
         21   -1    0    0  501  503 -0.00000000000E+00 -0.00000000000E+00 -0.17744272022E+03  0.17744272022E+03  0.00000000000E+00 0.  1.
          6    2    1    2  501    0  0.13996708141E+03 -0.80167533173E+00 -0.52948875035E+02  0.22787384623E+03  0.17184725737E+03 0.  0.
         24    2    3    3    0    0  0.29537117990E+02 -0.27703858943E+02 -0.68590480865E+02  0.11304678436E+03  0.80218303711E+02 0.  0.
         -6    2    1    2    0  502 -0.13996708141E+03  0.80167533173E+00  0.29673565706E+03  0.37079837623E+03  0.17276561893E+03 0.  0.
        -24    2    5    5    0    0 -0.51421115289E+02  0.44789592126E+02  0.78092147078E+02  0.13079337754E+03  0.79738858237E+02 0.  0.
          5    1    3    3  501    0  0.11042996342E+03  0.26902183611E+02  0.15641605830E+02  0.11482706187E+03  0.47000000000E+01 0. -1.
        -11    1    4    4    0    0  0.26795711783E+02  0.25137169639E+02 -0.31915495250E+02  0.48667096733E+02  0.00000000000E+00 0.  1.
         12    1    4    4    0    0  0.27414062066E+01 -0.52841028581E+02 -0.36674985615E+02  0.64379687630E+02  0.00000000000E+00 0. -1.
         -5    1    5    5    0  502 -0.88545966120E+02 -0.43987916794E+02  0.21864350998E+03  0.24000499869E+03  0.47000000000E+01 0.  1.
         13    1    6    6    0    0 -0.45139101010E+02 -0.13658589713E+01  0.68527360106E+01  0.45676733701E+02  0.00000000000E+00 0. -1.
        -14    1    6    6    0    0 -0.62820142789E+01  0.46155451097E+02  0.71239411068E+02  0.85116643840E+02  0.00000000000E+00 0.  1.
</event>
<event>
12    1  0.8724767E-002  0.1900302E+03  0.7818608E-02  0.1158728E+00
         21   -1    0    0  501  502  0.00000000000E+00  0.00000000000E+00  0.19791649452E+03  0.19791649452E+03  0.00000000000E+00 0. -1.
         21   -1    0    0  502  503 -0.00000000000E+00 -0.00000000000E+00 -0.11599827487E+04  0.11599827487E+04  0.00000000000E+00 0.  1.
         -6    2    1    2    0  503  0.71848494668E+02  0.34393075519E+02 -0.11044406236E+04  0.11204504179E+04  0.17109926362E+03 0.  0.
        -24    2    3    3    0    0  0.11956249949E+03  0.14373234137E+02 -0.66257807865E+03  0.67554366479E+03  0.53364328763E+02 0.  0.
          6    2    1    2  501    0 -0.71848494668E+02 -0.34393075519E+02  0.14237436946E+03  0.23744882531E+03  0.17252939962E+03 0.  0.
         24    2    5    5    0    0  0.23120483369E+02 -0.46369479264E+02  0.69581076572E+02  0.11710143430E+03  0.78654525227E+02 0.  0.
          5    1    5    5  501    0 -0.94968978036E+02  0.11976403744E+02  0.72793292886E+02  0.12034739102E+03  0.47000000000E+01 0. -1.
        -13    1    6    6    0    0  0.33266884005E+02 -0.11445474742E+01  0.61673002397E+02  0.70082485579E+02  0.00000000000E+00 0.  1.
         14    1    6    6    0    0 -0.10146400636E+02 -0.45224931789E+02  0.79080741750E+01  0.47018948716E+02  0.00000000000E+00 0. -1.
         -5    1    3    3    0  503 -0.47714004820E+02  0.20019841383E+02 -0.44186254499E+03  0.44490675312E+03  0.47000000000E+01 0.  1.
         11    1    4    4    0    0  0.80344273140E+02  0.16471331565E+02 -0.55486934880E+03  0.56089794190E+03  0.00000000000E+00 0. -1.
        -12    1    4    4    0    0  0.39218226348E+02 -0.20980974284E+01 -0.10770872986E+03  0.11464572290E+03  0.00000000000E+00 0.  1.
</event>
<event>
12    1  0.8724767E-002  0.1805478E+03  0.7818608E-02  0.1167370E+00
         21   -1    0    0  501  502  0.00000000000E+00  0.00000000000E+00  0.19611104995E+03  0.19611104995E+03  0.00000000000E+00 0.  1.
         21   -1    0    0  502  503 -0.00000000000E+00 -0.00000000000E+00 -0.28759965606E+03  0.28759965606E+03  0.00000000000E+00 0. -1.
         -6    2    1    2    0  503 -0.58065766018E+02  0.58436538085E+01 -0.20313118120E+03  0.27177157080E+03  0.17085587039E+03 0.  0.
        -24    2    3    3    0    0 -0.94238175214E+02 -0.27601570704E+02 -0.17633138465E+03  0.21549239770E+03  0.75508515286E+02 0.  0.
          6    2    1    2  501    0  0.58065766018E+02 -0.58436538085E+01  0.11164257509E+03  0.21193913521E+03  0.17043576792E+03 0.  0.
         24    2    5    5    0    0  0.97877125052E+02 -0.32769518162E+02  0.68627880207E+02  0.14726842735E+03  0.79526290140E+02 0.  0.
          5    1    5    5  501    0 -0.39811359034E+02  0.26925864353E+02  0.43014694881E+02  0.64670707859E+02  0.47000000000E+01 0. -1.
        -13    1    6    6    0    0  0.55695706792E+02  0.22368320375E+02  0.23437195869E+02  0.64433342779E+02  0.00000000000E+00 0.  1.
         14    1    6    6    0    0  0.42181418259E+02 -0.55137838537E+02  0.45190684338E+02  0.82835084571E+02  0.00000000000E+00 0. -1.
         -5    1    3    3    0  503  0.36172409196E+02  0.33445224512E+02 -0.26799796551E+02  0.56279173100E+02  0.47000000000E+01 0.  1.
         11    1    4    4    0    0 -0.10102469989E+03 -0.37577806529E+02 -0.13680648515E+03  0.17416686227E+03  0.00000000000E+00 0. -1.
        -12    1    4    4    0    0  0.67865246806E+01  0.99762358252E+01 -0.39524899496E+02  0.41325535431E+02  0.00000000000E+00 0.  1.
</event>
<event>
12    1  0.8724767E-002  0.1866895E+03  0.7818608E-02  0.1161774E+00
         21   -1    0    0  503  502  0.00000000000E+00  0.00000000000E+00  0.33707731139E+03  0.33707731139E+03  0.00000000000E+00 0. -1.
         21   -1    0    0  501  503 -0.00000000000E+00 -0.00000000000E+00 -0.10302094028E+03  0.10302094028E+03  0.00000000000E+00 0. -1.
          6    2    1    2  501    0  0.64942842444E+02  0.32910227045E+02  0.10513430270E+03  0.21425729477E+03  0.17190785592E+03 0.  0.
         24    2    3    3    0    0  0.17540164527E+02  0.65771881693E+01 -0.13964226900E+02  0.83310769181E+02  0.79967292394E+02 0.  0.
         -6    2    1    2    0  502 -0.64942842444E+02 -0.32910227045E+02  0.12892206841E+03  0.22584095691E+03  0.17053616116E+03 0.  0.
        -24    2    5    5    0    0  0.22018263952E+02  0.18505932124E+01  0.29012428627E+02  0.88820612532E+02  0.80988589030E+02 0.  0.
          5    1    3    3  501    0  0.47402677917E+02  0.26333038876E+02  0.11909852960E+03  0.13094652559E+03  0.47000000000E+01 0. -1.
        -11    1    4    4    0    0 -0.82985916731E+01  0.28008086451E+02  0.20120509415E+02  0.35470472643E+02  0.00000000000E+00 0.  1.
         12    1    4    4    0    0  0.25838756201E+02 -0.21430898282E+02 -0.34084736315E+02  0.47840296538E+02  0.00000000000E+00 0. -1.
         -5    1    5    5    0  502 -0.86961106396E+02 -0.34760820258E+02  0.99909639787E+02  0.13702034438E+03  0.47000000000E+01 0.  1.
         11    1    6    6    0    0 -0.51275047322E+01  0.28673744235E+02  0.39653466344E+02  0.49202360780E+02  0.00000000000E+00 0. -1.
        -12    1    6    6    0    0  0.27145768684E+02 -0.26823151023E+02 -0.10641037717E+02  0.39618251753E+02  0.00000000000E+00 0.  1.
</event>
<event>
12    1  0.8724767E-002  0.1835355E+03  0.7818608E-02  0.1164527E+00
         21   -1    0    0  501  502  0.00000000000E+00  0.00000000000E+00  0.12751485504E+03  0.12751485504E+03  0.00000000000E+00 0.  1.
         21   -1    0    0  502  503 -0.00000000000E+00 -0.00000000000E+00 -0.28358091924E+03  0.28358091924E+03  0.00000000000E+00 0.  1.
         -6    2    1    2    0  503 -0.35473232220E+02 -0.51529307195E+02 -0.13275462822E+03  0.22651507377E+03  0.17254468298E+03 0.  0.
        -24    2    3    3    0    0 -0.82483800029E+02 -0.55876748271E+02 -0.66211083753E+02  0.14478975920E+03  0.81574374002E+02 0.  0.
          6    2    1    2  501    0  0.35473232220E+02  0.51529307195E+02 -0.23311435972E+02  0.18458070052E+03  0.17208425916E+03 0.  0.
         24    2    5    5    0    0 -0.43904116353E+02  0.13258198914E+02 -0.19600687668E+01  0.93787462459E+02  0.81785664843E+02 0.  0.
          5    1    5    5  501    0  0.79377348573E+02  0.38271108280E+02 -0.21351367206E+02  0.90793238058E+02  0.47000000000E+01 0. -1.
        -11    1    6    6    0    0 -0.48703839584E+01 -0.32648692154E+02 -0.53179059107E+01  0.33435577796E+02  0.00000000000E+00 0.  1.
         12    1    6    6    0    0 -0.39033732395E+02  0.45906891068E+02  0.33578371439E+01  0.60351884664E+02  0.00000000000E+00 0. -1.
         -5    1    3    3    0  503  0.47010567808E+02  0.43474410764E+01 -0.66543544471E+02  0.81725314563E+02  0.47000000000E+01 0.  1.
         11    1    4    4    0    0 -0.80130737253E+01 -0.22984337491E+02  0.15969067358E+02  0.29111857253E+02  0.00000000000E+00 0. -1.
        -12    1    4    4    0    0 -0.74470726303E+02 -0.32892410780E+02 -0.82180151110E+02  0.11567790195E+03  0.00000000000E+00 0.  1.
</event>
<event>
12    1  0.8724767E-002  0.3247672E+03  0.7818608E-02  0.1073550E+00
         21   -1    0    0  501  502  0.00000000000E+00  0.00000000000E+00  0.31921294081E+03  0.31921294081E+03  0.00000000000E+00 0. -1.
         21   -1    0    0  502  503 -0.00000000000E+00 -0.00000000000E+00 -0.91462701676E+03  0.91462701676E+03  0.00000000000E+00 0. -1.
         -6    2    1    2    0  503 -0.57782222988E+02  0.26868184533E+03 -0.79092922180E+03  0.85476225428E+03  0.17181605904E+03 0.  0.
        -24    2    3    3    0    0 -0.63411622182E+02  0.96479431412E+02 -0.24494176785E+03  0.28221553010E+03  0.79497303615E+02 0.  0.
          6    2    1    2  501    0  0.57782222988E+02 -0.26868184533E+03  0.19551514585E+03  0.37907770330E+03  0.17304627583E+03 0.  0.
         24    2    5    5    0    0  0.12094781348E+02 -0.15309088073E+03  0.31527531428E+02  0.17325583589E+03  0.73759731112E+02 0.  0.
          5    1    5    5  501    0  0.45687441640E+02 -0.11559096460E+03  0.16398761442E+03  0.20582186741E+03  0.47000000000E+01 0. -1.
        -11    1    6    6    0    0  0.18193024110E+02 -0.12549695761E+03 -0.51988810726E+01  0.12691532950E+03  0.00000000000E+00 0.  1.
         12    1    6    6    0    0 -0.60982427616E+01 -0.27593923114E+02  0.36726412501E+02  0.46340506393E+02  0.00000000000E+00 0. -1.
         -5    1    3    3    0  503  0.56293991938E+01  0.17220241391E+03 -0.54598745395E+03  0.57254672418E+03  0.47000000000E+01 0.  1.
         13    1    4    4    0    0 -0.24296081202E+02  0.76400821951E+02 -0.21379743235E+03  0.22833468251E+03  0.00000000000E+00 0. -1.
        -14    1    4    4    0    0 -0.39115540980E+02  0.20078609461E+02 -0.31144335497E+02  0.53880847595E+02  0.00000000000E+00 0.  1.
</event>
<event>
12    1  0.8724767E-002  0.2131969E+03  0.7818608E-02  0.1139121E+00
         21   -1    0    0  503  502  0.00000000000E+00  0.00000000000E+00  0.84391606436E+03  0.84391606436E+03  0.00000000000E+00 0.  1.
         21   -1    0    0  501  503 -0.00000000000E+00 -0.00000000000E+00 -0.60127352746E+02  0.60127352746E+02  0.00000000000E+00 0. -1.
          6    2    1    2  501    0  0.96607576414E+02  0.82427375306E+02  0.53850430183E+03  0.57905519057E+03  0.17085296200E+03 0.  0.
         24    2    3    3    0    0  0.38284267883E+02 -0.15441803756E+02  0.32081265717E+03  0.33330790843E+03  0.80431749638E+02 0.  0.
         -6    2    1    2    0  502 -0.96607576414E+02 -0.82427375306E+02  0.24528440979E+03  0.32498822653E+03  0.17124721802E+03 0.  0.
        -24    2    5    5    0    0 -0.41195030992E+02 -0.10720961256E+03  0.21900698268E+03  0.25867606589E+03  0.75883575291E+02 0.  0.
          5    1    3    3  501    0  0.58323308532E+02  0.97869179061E+02  0.21769164465E+03  0.24574728214E+03  0.47000000000E+01 0. -1.
        -11    1    4    4    0    0  0.52469548449E+02 -0.85762757156E+01  0.11282484063E+03  0.12472389780E+03  0.00000000000E+00 0.  1.
         12    1    4    4    0    0 -0.14185280567E+02 -0.68655280399E+01  0.20798781654E+03  0.20858401063E+03  0.00000000000E+00 0. -1.
         -5    1    5    5    0  502 -0.55412545423E+02  0.24782237255E+02  0.26277427109E+02  0.66312160642E+02  0.47000000000E+01 0.  1.
         13    1    6    6    0    0  0.15617351200E+02 -0.60292350689E+02  0.80393461225E+02  0.10169649855E+03  0.00000000000E+00 0. -1.
        -14    1    6    6    0    0 -0.56812382192E+02 -0.46917261871E+02  0.13861352145E+03  0.15697956734E+03  0.00000000000E+00 0.  1.
</event>
<event>
12    1  0.8724767E-002  0.2108433E+03  0.7818608E-02  0.1140974E+00
         21   -1    0    0  501  502  0.00000000000E+00  0.00000000000E+00  0.34684674947E+03  0.34684674947E+03  0.00000000000E+00 0.  1.
         21   -1    0    0  502  503 -0.00000000000E+00 -0.00000000000E+00 -0.15719695584E+03  0.15719695584E+03  0.00000000000E+00 0.  1.
         -6    2    1    2    0  503 -0.12008086461E+03  0.17880490774E+02  0.20361697528E+03  0.29311223173E+03  0.17238266088E+03 0.  0.
        -24    2    3    3    0    0 -0.73473721122E+02 -0.50026085917E+02  0.71105512066E+02  0.13701960902E+03  0.76271767008E+02 0.  0.
          6    2    1    2  501    0  0.12008086461E+03 -0.17880490774E+02 -0.13967181648E+02  0.21093147357E+03  0.17192404830E+03 0.  0.
         24    2    5    5    0    0  0.11958981133E+03 -0.61446663744E+02  0.14606615490E+02  0.15861699715E+03  0.82876915421E+02 0.  0.
          5    1    5    5  501    0  0.49105328095E+00  0.43566172970E+02 -0.28573797138E+02  0.52314476423E+02  0.47000000000E+01 0. -1.
        -11    1    6    6    0    0  0.10729201492E+03 -0.34685249051E+02 -0.18543236057E+02  0.11427377027E+03  0.00000000000E+00 0.  1.
         12    1    6    6    0    0  0.12297796410E+02 -0.26761414693E+02  0.33149851547E+02  0.44343226885E+02  0.00000000000E+00 0. -1.
         -5    1    3    3    0  503 -0.46607143489E+02  0.67906576691E+02  0.13251146321E+03  0.15609262271E+03  0.47000000000E+01 0.  1.
         11    1    4    4    0    0 -0.86793281935E+02 -0.31647157504E+02  0.46092148333E+02  0.10324292956E+03  0.00000000000E+00 0. -1.
        -12    1    4    4    0    0  0.13319560813E+02 -0.18378928413E+02  0.25013363733E+02  0.33776679457E+02  0.00000000000E+00 0.  1.
</event>
<event>
12    1  0.8724767E-002  0.1889485E+03  0.7818608E-02  0.1160566E+00
         21   -1    0    0  501  502  0.00000000000E+00  0.00000000000E+00  0.18139339534E+04  0.18139339534E+04  0.00000000000E+00 0.  1.
         21   -1    0    0  502  503 -0.00000000000E+00 -0.00000000000E+00 -0.25376057269E+02  0.25376057269E+02  0.00000000000E+00 0.  1.
         -6    2    1    2    0  503  0.31454267746E+02  0.58087908091E+02  0.44835846860E+03  0.48654582466E+03  0.17702527250E+03 0.  0.
        -24    2    3    3    0    0  0.48482910317E+02  0.52020566512E+02  0.45451540965E+03  0.46687896866E+03  0.79592599141E+02 0.  0.
          6    2    1    2  501    0 -0.31454267746E+02 -0.58087908091E+02  0.13401994275E+04  0.13527641860E+04  0.17167661857E+03 0.  0.
         24    2    5    5    0    0  0.39211903917E+01  0.18384108738E+02  0.95141963244E+03  0.95493104075E+03  0.79628037793E+02 0.  0.
          5    1    5    5  501    0 -0.35375458138E+02 -0.76472016829E+02  0.38877979509E+03  0.39783314526E+03  0.47000000000E+01 0. -1.
        -13    1    6    6    0    0 -0.18618784435E+02  0.40385287959E+02  0.72078215642E+03  0.72215271767E+03  0.00000000000E+00 0.  1.
         14    1    6    6    0    0  0.22539974826E+02 -0.22001179221E+02  0.23063747602E+03  0.23277832308E+03  0.00000000000E+00 0. -1.
         -5    1    3    3    0  503 -0.17028642571E+02  0.60673415791E+01 -0.61569410516E+01  0.19666855996E+02  0.47000000000E+01 0.  1.
         11    1    4    4    0    0 -0.11785216172E+02  0.18435183139E+02  0.31986766482E+02  0.38754361400E+02  0.00000000000E+00 0. -1.
        -12    1    4    4    0    0  0.60268126489E+02  0.33585383373E+02  0.42252864317E+03  0.42812460726E+03  0.00000000000E+00 0.  1.
</event>
<event>
12    1  0.8724767E-002  0.3642474E+03  0.7818608E-02  0.1056936E+00
         21   -1    0    0  503  502  0.00000000000E+00  0.00000000000E+00  0.32041980425E+03  0.32041980425E+03  0.00000000000E+00 0. -1.
         21   -1    0    0  501  503 -0.00000000000E+00 -0.00000000000E+00 -0.51533349324E+03  0.51533349324E+03  0.00000000000E+00 0.  1.
          6    2    1    2  501    0 -0.31156261277E+03  0.76985157071E+02 -0.28294791042E+03  0.46123281365E+03  0.17227365525E+03 0.  0.
         24    2    3    3    0    0 -0.27815239744E+03  0.52098548780E+02 -0.29608647881E+03  0.41729765985E+03  0.79919453159E+02 0.  0.
         -6    2    1    2    0  502  0.31156261277E+03 -0.76985157071E+02  0.88034221434E+02  0.37452048384E+03  0.17180684673E+03 0.  0.
        -24    2    5    5    0    0  0.12858526307E+03 -0.89384340809E+02  0.13030988835E+02  0.17632354854E+03  0.79977852175E+02 0.  0.
          5    1    3    3  501    0 -0.33410215329E+02  0.24886608291E+02  0.13138568389E+02  0.43935153805E+02  0.47000000000E+01 0. -1.
        -13    1    4    4    0    0 -0.28033092789E+02  0.27997274163E+02 -0.21449515825E+02  0.45053117328E+02  0.00000000000E+00 0.  1.
         14    1    4    4    0    0 -0.25011930465E+03  0.24101274617E+02 -0.27463696298E+03  0.37224454252E+03  0.00000000000E+00 0. -1.
         -5    1    5    5    0  502  0.18297734970E+03  0.12399183738E+02  0.75003232599E+02  0.19819693530E+03  0.47000000000E+01 0.  1.
         13    1    6    6    0    0  0.57216047564E+02 -0.35615457853E+01  0.27832469421E+02  0.63726031269E+02  0.00000000000E+00 0. -1.
        -14    1    6    6    0    0  0.71369215504E+02 -0.85822795024E+02 -0.14801480586E+02  0.11259751727E+03  0.00000000000E+00 0.  1.
</event>
<event>
12    1  0.8724767E-002  0.1936907E+03  0.7818608E-02  0.1155517E+00
         21   -1    0    0  503  502  0.00000000000E+00  0.00000000000E+00  0.44142945417E+02  0.44142945417E+02  0.00000000000E+00 0. -1.
         21   -1    0    0  501  503 -0.00000000000E+00 -0.00000000000E+00 -0.10649177795E+04  0.10649177795E+04  0.00000000000E+00 0. -1.
          6    2    1    2  501    0  0.81436337618E+01  0.85556005948E+02 -0.76185642968E+03  0.78571134202E+03  0.17184570005E+03 0.  0.
         24    2    3    3    0    0 -0.61045624946E+02  0.60843512951E+02 -0.41407263166E+03  0.43022080630E+03  0.78773704288E+02 0.  0.
         -6    2    1    2    0  502 -0.81436337618E+01 -0.85556005948E+02 -0.25891840437E+03  0.32334938285E+03  0.17357976364E+03 0.  0.
        -24    2    5    5    0    0 -0.67464715612E+02 -0.86842992958E+02 -0.16886284321E+03  0.21540151959E+03  0.76091796842E+02 0.  0.
          5    1    3    3  501    0  0.69189258707E+02  0.24712492997E+02 -0.34778379801E+03  0.35549053572E+03  0.47000000000E+01 0. -1.
        -13    1    4    4    0    0 -0.55695375772E+02  0.25519630769E+02 -0.12777657994E+03  0.14170420184E+03  0.00000000000E+00 0.  1.
         14    1    4    4    0    0 -0.53502491734E+01  0.35323882183E+02 -0.28629605172E+03  0.28851660446E+03  0.00000000000E+00 0. -1.
         -5    1    5    5    0  502  0.59321081850E+02  0.12869870100E+01 -0.90055561154E+02  0.10794786326E+03  0.47000000000E+01 0.  1.
         13    1    6    6    0    0  0.11427854805E+00 -0.98976776032E+00  0.77014704927E+01  0.77656517792E+01  0.00000000000E+00 0. -1.
        -14    1    6    6    0    0 -0.67578994160E+02 -0.85853225198E+02 -0.17656431371E+03  0.20763586781E+03  0.00000000000E+00 0.  1.
</event>
<event>
12    1  0.8724767E-002  0.2247058E+03  0.7818608E-02  0.1131284E+00
         21   -1    0    0  501  502  0.00000000000E+00  0.00000000000E+00  0.17557290200E+04  0.17557290200E+04  0.00000000000E+00 0. -1.
         21   -1    0    0  502  503 -0.00000000000E+00 -0.00000000000E+00 -0.29284033818E+02  0.29284033818E+02  0.00000000000E+00 0. -1.
         -6    2    1    2    0  503 -0.66723632735E+01  0.13179459666E+03  0.67968902073E+03  0.71441006782E+03  0.17604046117E+03 0.  0.
        -24    2    3    3    0    0  0.65426914022E+02  0.87065565380E+02  0.42995658661E+03  0.45061588541E+03  0.79567053853E+02 0.  0.
          6    2    1    2  501    0  0.66723632735E+01 -0.13179459666E+03  0.10467559655E+04  0.10706029860E+04  0.18187458940E+03 0.  0.
         24    2    5    5    0    0  0.37458863868E+02 -0.57483201043E+02  0.26980318394E+03  0.28948346451E+03  0.79368969238E+02 0.  0.
          5    1    5    5  501    0 -0.30786500595E+02 -0.74311395619E+02  0.77695278153E+03  0.78111952150E+03  0.47000000000E+01 0. -1.
        -11    1    6    6    0    0 -0.18073348755E+02 -0.43856311987E+02  0.13329299358E+03  0.14148160366E+03  0.00000000000E+00 0.  1.
         12    1    6    6    0    0  0.55532212624E+02 -0.13626889056E+02  0.13651019035E+03  0.14800186085E+03  0.00000000000E+00 0. -1.
         -5    1    3    3    0  503 -0.72099277295E+02  0.44729031283E+02  0.24973243412E+03  0.26379418241E+03  0.47000000000E+01 0.  1.
         11    1    4    4    0    0  0.33846165396E+02  0.63208787599E+02  0.38087167410E+03  0.38756179620E+03  0.00000000000E+00 0. -1.
        -12    1    4    4    0    0  0.31580748626E+02  0.23856777781E+02  0.49084912515E+02  0.63054089213E+02  0.00000000000E+00 0.  1.
</event>
<event>
12    1  0.8724767E-002  0.1733986E+03  0.7818608E-02  0.1174468E+00
         21   -1    0    0  503  502  0.00000000000E+00  0.00000000000E+00  0.13960525821E+03  0.13960525821E+03  0.00000000000E+00 0. -1.
         21   -1    0    0  501  503 -0.00000000000E+00 -0.00000000000E+00 -0.34673377831E+03  0.34673377831E+03  0.00000000000E+00 0. -1.
          6    2    1    2  501    0 -0.20886337559E+02  0.48837612650E+01 -0.25365386631E+03  0.30725780695E+03  0.17206680626E+03 0.  0.
         24    2    3    3    0    0  0.52373039942E+02 -0.16429922724E+02 -0.14661618717E+03  0.17572695783E+03  0.79817164143E+02 0.  0.
         -6    2    1    2    0  502  0.20886337559E+02 -0.48837612650E+01  0.46525346211E+02  0.17908122956E+03  0.17159658715E+03 0.  0.
        -24    2    5    5    0    0 -0.45631094842E+02 -0.33435435013E+02  0.14706579054E+02  0.99870808341E+02  0.80980057793E+02 0.  0.
          5    1    3    3  501    0 -0.73259377501E+02  0.21313683989E+02 -0.10703767913E+03  0.13153084912E+03  0.47000000000E+01 0. -1.
        -11    1    4    4    0    0 -0.12288422752E+02 -0.42804090023E+01  0.20310637815E+01  0.13170134967E+02  0.00000000000E+00 0.  1.
         12    1    4    4    0    0  0.64661462694E+02 -0.12149513722E+02 -0.14864725096E+03  0.16255682286E+03  0.00000000000E+00 0. -1.
         -5    1    5    5    0  502  0.66517432401E+02  0.28551673748E+02  0.31818767156E+02  0.79210421224E+02  0.47000000000E+01 0.  1.
         11    1    6    6    0    0 -0.37521457827E+01 -0.51566184522E+02 -0.69361341868E+00  0.51707166657E+02  0.00000000000E+00 0. -1.
        -12    1    6    6    0    0 -0.41878949059E+02  0.18130749509E+02  0.15400192473E+02  0.48163641684E+02  0.00000000000E+00 0.  1.
</event>
<event>
12    1  0.8724767E-002  0.1849633E+03  0.7818608E-02  0.1163154E+00
         21   -1    0    0  501  502  0.00000000000E+00  0.00000000000E+00  0.60678172144E+02  0.60678172144E+02  0.00000000000E+00 0. -1.
         21   -1    0    0  502  503 -0.00000000000E+00 -0.00000000000E+00 -0.65948281851E+03  0.65948281851E+03  0.00000000000E+00 0.  1.
         -6    2    1    2    0  503 -0.42188293933E+02  0.53565245703E+02 -0.43699300341E+03  0.47440819027E+03  0.17161339772E+03 0.  0.
        -24    2    3    3    0    0  0.15743204768E+02  0.14129532358E+02 -0.98090283056E+02  0.12830361375E+03  0.79953871011E+02 0.  0.
          6    2    1    2  501    0  0.42188293933E+02 -0.53565245703E+02 -0.16181164295E+03  0.24575280038E+03  0.17193703326E+03 0.  0.
         24    2    5    5    0    0 -0.32194651016E+02 -0.43487105113E+02 -0.40843458534E+02  0.10331059084E+03  0.77956822723E+02 0.  0.
          5    1    5    5  501    0  0.74382944948E+02 -0.10078140590E+02 -0.12096818442E+03  0.14244220954E+03  0.47000000000E+01 0. -1.
        -13    1    6    6    0    0  0.22518332470E+02  0.34767261378E+01 -0.10217744776E+02  0.24971288116E+02  0.00000000000E+00 0.  1.
         14    1    6    6    0    0 -0.54712983486E+02 -0.46963831251E+02 -0.30625713757E+02  0.78339302721E+02  0.00000000000E+00 0. -1.
         -5    1    3    3    0  503 -0.57931498701E+02  0.39435713346E+02 -0.33890272035E+03  0.34610457652E+03  0.47000000000E+01 0.  1.
         13    1    4    4    0    0 -0.11748648284E+02 -0.83867105677E+01 -0.90911157948E+02  0.92050020587E+02  0.00000000000E+00 0. -1.
        -14    1    4    4    0    0  0.27491853051E+02  0.22516242925E+02 -0.71791251072E+01  0.36253593160E+02  0.00000000000E+00 0.  1.
</event>
<event>
12    1  0.8724767E-002  0.1722087E+03  0.7818608E-02  0.1175669E+00
         21   -1    0    0  503  502  0.00000000000E+00  0.00000000000E+00  0.42423702767E+03  0.42423702767E+03  0.00000000000E+00 0. -1.
         21   -1    0    0  501  503 -0.00000000000E+00 -0.00000000000E+00 -0.83328837883E+02  0.83328837883E+02  0.00000000000E+00 0. -1.
          6    2    1    2  501    0 -0.12164422640E+02 -0.44652453698E+01  0.67794536709E+02  0.18469299011E+03  0.17131109069E+03 0.  0.
         24    2    3    3    0    0 -0.67896027828E+02 -0.20160872736E+02  0.68135159894E+02  0.12660193607E+03  0.79808012247E+02 0.  0.
         -6    2    1    2    0  502  0.12164422640E+02  0.44652453698E+01  0.27311365308E+03  0.32287287544E+03  0.17172045482E+03 0.  0.
        -24    2    5    5    0    0 -0.62720427445E+01  0.27263484755E+02  0.28024495540E+03  0.29233423684E+03  0.78354546003E+02 0.  0.
          5    1    3    3  501    0  0.55731605189E+02  0.15695627366E+02 -0.34062318565E+00  0.58091054040E+02  0.47000000000E+01 0. -1.
        -11    1    4    4    0    0 -0.31605752860E+02  0.30780572212E+02  0.29889029939E+02  0.53289035929E+02  0.00000000000E+00 0.  1.
         12    1    4    4    0    0 -0.36290274968E+02 -0.50941444948E+02  0.38246129955E+02  0.73312900142E+02  0.00000000000E+00 0. -1.
         -5    1    5    5    0  502  0.18436465384E+02 -0.22798239385E+02 -0.71313023225E+01  0.30538638603E+02  0.47000000000E+01 0.  1.
         13    1    6    6    0    0  0.22511101619E+01 -0.97960233213E+01  0.22524046043E+03  0.22546461937E+03  0.00000000000E+00 0. -1.
        -14    1    6    6    0    0 -0.85231529064E+01  0.37059508076E+02  0.55004494970E+02  0.66869617475E+02  0.00000000000E+00 0.  1.
</event>
<event>
12    1  0.8724767E-002  0.1776251E+03  0.7818608E-02  0.1170200E+00
         21   -1    0    0  503  502  0.00000000000E+00  0.00000000000E+00  0.16573154400E+02  0.16573154400E+02  0.00000000000E+00 0. -1.
         21   -1    0    0  501  503 -0.00000000000E+00 -0.00000000000E+00 -0.19005712677E+04  0.19005712677E+04  0.00000000000E+00 0. -1.
          6    2    1    2  501    0 -0.43354415875E+02 -0.20912495271E+01 -0.93179567637E+03  0.94857463694E+03  0.17224018301E+03 0.  0.
         24    2    3    3    0    0 -0.19582242298E+02 -0.27828221027E+02 -0.88919491117E+03  0.89321740495E+03  0.77536238916E+02 0.  0.
         -6    2    1    2    0  502  0.43354415875E+02  0.20912495271E+01 -0.95220243696E+03  0.96856978519E+03  0.17191267879E+03 0.  0.
        -24    2    5    5    0    0  0.17128669162E+02 -0.28208457870E+02 -0.89200701816E+03  0.89610296172E+03  0.78961314299E+02 0.  0.
          5    1    3    3  501    0 -0.23772173577E+02  0.25736971500E+02 -0.42600765194E+02  0.55357231991E+02  0.47000000000E+01 0. -1.
        -13    1    4    4    0    0 -0.31781458608E+02 -0.39385618408E+02 -0.33814196350E+03  0.34190828526E+03  0.00000000000E+00 0.  1.
         14    1    4    4    0    0  0.12199216309E+02  0.11557397381E+02 -0.55105294767E+03  0.55130911969E+03  0.00000000000E+00 0. -1.
         -5    1    5    5    0  502  0.26225746713E+02  0.30299707398E+02 -0.60195418801E+02  0.72466823469E+02  0.47000000000E+01 0.  1.
         11    1    6    6    0    0 -0.29067754543E+02  0.31566780878E+01 -0.35433310083E+03  0.35553740354E+03  0.00000000000E+00 0. -1.
        -12    1    6    6    0    0  0.46196423705E+02 -0.31365135958E+02 -0.53767391733E+03  0.54056555818E+03  0.00000000000E+00 0.  1.
</event>
<event>
12    1  0.8724767E-002  0.2425525E+03  0.7818608E-02  0.1119277E+00
         21   -1    0    0  501  502  0.00000000000E+00  0.00000000000E+00  0.26193312056E+03  0.26193312056E+03  0.00000000000E+00 0.  1.
         21   -1    0    0  502  503 -0.00000000000E+00 -0.00000000000E+00 -0.23242979268E+03  0.23242979268E+03  0.00000000000E+00 0. -1.
         -6    2    1    2    0  503  0.16692756520E+03 -0.36619864461E+02  0.76233333275E+02  0.25425036799E+03  0.17212176511E+03 0.  0.
        -24    2    3    3    0    0  0.12025485369E+03  0.24990493035E+02 -0.11300382764E+01  0.14479097183E+03  0.76664163458E+02 0.  0.
          6    2    1    2  501    0 -0.16692756520E+03  0.36619864461E+02 -0.46730005393E+02  0.24011254526E+03  0.16206330396E+03 0.  0.
         24    2    5    5    0    0 -0.12975294265E+03  0.11274674450E+01  0.22586716672E+02  0.15369171001E+03  0.79207857220E+02 0.  0.
          5    1    5    5  501    0 -0.37174622547E+02  0.35492397016E+02 -0.69316722066E+02  0.86420835250E+02  0.47000000000E+01 0. -1.
        -13    1    6    6    0    0  0.66415386215E+01  0.75827480194E+01  0.13492456658E+02  0.16842045287E+02  0.00000000000E+00 0.  1.
         14    1    6    6    0    0 -0.13639448127E+03 -0.64552805745E+01  0.90942600147E+01  0.13684966472E+03  0.00000000000E+00 0. -1.
         -5    1    3    3    0  503  0.46672711509E+02 -0.61610357496E+02  0.77363371552E+02  0.10945939616E+03  0.47000000000E+01 0.  1.
         13    1    4    4    0    0  0.86429897217E+02  0.24091458162E+00  0.31167144189E+02  0.91878049880E+02  0.00000000000E+00 0. -1.
        -14    1    4    4    0    0  0.33824956470E+02  0.24749578453E+02 -0.32297182466E+02  0.52912921947E+02  0.00000000000E+00 0.  1.
</event>
<event>
12    1  0.8724767E-002  0.1769078E+03  0.7818608E-02  0.1170989E+00
         21   -1    0    0  503  502  0.00000000000E+00  0.00000000000E+00  0.47744893398E+02  0.47744893398E+02  0.00000000000E+00 0.  1.
         21   -1    0    0  501  503 -0.00000000000E+00 -0.00000000000E+00 -0.13493150202E+04  0.13493150202E+04  0.00000000000E+00 0.  1.
          6    2    1    2  501    0 -0.13181390834E+02  0.34392520066E+02 -0.11531157254E+04  0.11666071458E+04  0.17303110099E+03 0.  0.
         24    2    3    3    0    0  0.72272618833E+00 -0.17863389418E+01 -0.10851339203E+04  0.10882116732E+04  0.81763727744E+02 0.  0.
         -6    2    1    2    0  502  0.13181390834E+02 -0.34392520066E+02 -0.14845440134E+03  0.23045276776E+03  0.17237509794E+03 0.  0.
        -24    2    5    5    0    0 -0.10125468876E+02  0.22795752754E+02 -0.14532333700E+03  0.16843985119E+03  0.81430582256E+02 0.  0.
          5    1    3    3  501    0 -0.13904117022E+02  0.36178859008E+02 -0.67981805102E+02  0.78395472664E+02  0.47000000000E+01 0. -1.
        -11    1    4    4    0    0 -0.17762654146E+00  0.39977597436E+02 -0.54652686978E+03  0.54798709769E+03  0.00000000000E+00 0.  1.
         12    1    4    4    0    0  0.90035272979E+00 -0.41763936378E+02 -0.53860705057E+03  0.54022457547E+03  0.00000000000E+00 0. -1.
         -5    1    5    5    0  502  0.23306859710E+02 -0.57188272820E+02 -0.31310643321E+01  0.62012916570E+02  0.47000000000E+01 0.  1.
         13    1    6    6    0    0  0.26866337716E+02 -0.75310658238E+00 -0.10660720762E+03  0.10994300336E+03  0.00000000000E+00 0. -1.
        -14    1    6    6    0    0 -0.36991806592E+02  0.23548859336E+02 -0.38716129384E+02  0.58496847825E+02  0.00000000000E+00 0.  1.
</event>
<event>
12    1  0.8724767E-002  0.2168856E+03  0.7818608E-02  0.1139971E+00
         21   -1    0    0  501  502  0.00000000000E+00  0.00000000000E+00  0.11350423764E+03  0.11350423764E+03  0.00000000000E+00 0. -1.
         21   -1    0    0  502  503 -0.00000000000E+00 -0.00000000000E+00 -0.58481646582E+03  0.58481646582E+03  0.00000000000E+00 0. -1.
         -6    2    1    2    0  503 -0.26740814311E+01  0.10058475493E+03 -0.44942453200E+03  0.49902080529E+03  0.19213253373E+03 0.  0.
        -24    2    3    3    0    0 -0.40182438369E+02  0.13377862983E+03 -0.38550215265E+03  0.41767665522E+03  0.79564618146E+02 0.  0.
          6    2    1    2  501    0  0.26740814311E+01 -0.10058475493E+03 -0.21887696178E+02  0.19929989817E+03  0.17063684986E+03 0.  0.
         24    2    5    5    0    0 -0.34425531867E+02 -0.11551914036E+03 -0.45644878674E+02  0.15254617217E+03  0.81590996192E+02 0.  0.
          5    1    5    5  501    0  0.37099613299E+02  0.14934385426E+02  0.23757182496E+02  0.46753726002E+02  0.47000000000E+01 0. -1.
        -11    1    6    6    0    0  0.76513389241E+01 -0.40249145033E+02 -0.51859090042E+02  0.66090104276E+02  0.00000000000E+00 0.  1.
         12    1    6    6    0    0 -0.42076870792E+02 -0.75269995328E+02  0.62142113679E+01  0.86456067891E+02  0.00000000000E+00 0. -1.
         -5    1    3    3    0  503  0.37508356938E+02 -0.33193874891E+02 -0.63922379341E+02  0.81344150073E+02  0.47000000000E+01 0.  1.
         11    1    4    4    0    0 -0.53847589551E+02  0.43273830695E+02 -0.17456056448E+03  0.18773273021E+03  0.00000000000E+00 0. -1.
        -12    1    4    4    0    0  0.13665151182E+02  0.90504799131E+02 -0.21094158818E+03  0.22994392500E+03  0.00000000000E+00 0.  1.
</event>
<event>
12    1  0.8724767E-002  0.1891809E+03  0.7818608E-02  0.1161129E+00
         21   -1    0    0  503  502  0.00000000000E+00  0.00000000000E+00  0.85336144635E+02  0.85336144635E+02  0.00000000000E+00 0.  1.
         21   -1    0    0  501  503 -0.00000000000E+00 -0.00000000000E+00 -0.43870640878E+03  0.43870640878E+03  0.00000000000E+00 0. -1.
          6    2    1    2  501    0 -0.17435404815E+02  0.76050288456E+02 -0.25690008515E+03  0.31904086200E+03  0.17234203829E+03 0.  0.
         24    2    3    3    0    0 -0.26113458785E+02  0.69771941704E+02 -0.27594104006E+03  0.29669417942E+03  0.79586066204E+02 0.  0.
         -6    2    1    2    0  502  0.17435404815E+02 -0.76050288456E+02 -0.96470178995E+02  0.20500169141E+03  0.16319178390E+03 0.  0.
        -24    2    5    5    0    0  0.45060759763E+02 -0.31467781551E+02 -0.11433930335E+03  0.14939453573E+03  0.78895865992E+02 0.  0.
          5    1    3    3  501    0  0.86780539697E+01  0.62783467523E+01  0.19040954908E+02  0.22346682583E+02  0.47000000000E+01 0. -1.
        -11    1    4    4    0    0 -0.69473424871E+01  0.64544661618E+02 -0.97400904466E+02  0.11705218965E+03  0.00000000000E+00 0.  1.
         12    1    4    4    0    0 -0.19166116298E+02  0.52272800862E+01 -0.17854013559E+03  0.17964198977E+03  0.00000000000E+00 0. -1.
         -5    1    5    5    0  502 -0.27625354948E+02 -0.44582506905E+02  0.17869124351E+02  0.55607155682E+02  0.47000000000E+01 0.  1.
         11    1    6    6    0    0  0.26696674001E+02 -0.49715952266E+02 -0.10931734344E+03  0.12302304617E+03  0.00000000000E+00 0. -1.
        -12    1    6    6    0    0  0.18364085762E+02  0.18248170714E+02 -0.50219599045E+01  0.26371489559E+02  0.00000000000E+00 0.  1.
</event>
<event>
12    1  0.8724767E-002  0.2215336E+03  0.7818608E-02  0.1132881E+00
         21   -1    0    0  503  502  0.00000000000E+00  0.00000000000E+00  0.49841306417E+03  0.49841306417E+03  0.00000000000E+00 0.  1.
         21   -1    0    0  501  503 -0.00000000000E+00 -0.00000000000E+00 -0.11447612193E+03  0.11447612193E+03  0.00000000000E+00 0. -1.
          6    2    1    2  501    0 -0.56870842885E+02 -0.12672564557E+03  0.75927762140E+02  0.23348600740E+03  0.17163044186E+03 0.  0.
         24    2    3    3    0    0 -0.12631079943E+02 -0.43481950586E+02  0.10054076070E+03  0.13594340605E+03  0.79510633761E+02 0.  0.
         -6    2    1    2    0  502  0.56870842885E+02  0.12672564557E+03  0.30800918010E+03  0.37940317870E+03  0.17257877902E+03 0.  0.
        -24    2    5    5    0    0  0.70483663459E+02  0.95136852603E+02  0.31295156998E+03  0.34433641462E+03  0.81301376006E+02 0.  0.
          5    1    3    3  501    0 -0.44239762942E+02 -0.83243694984E+02 -0.24612998555E+02  0.97542601347E+02  0.47000000000E+01 0. -1.
        -11    1    4    4    0    0  0.28873456118E+02 -0.31163409461E+02  0.26193730376E+02  0.49909378562E+02  0.00000000000E+00 0.  1.
         12    1    4    4    0    0 -0.41504536062E+02 -0.12318541125E+02  0.74347030319E+02  0.86034027491E+02  0.00000000000E+00 0. -1.
         -5    1    5    5    0  502 -0.13612820574E+02  0.31588792967E+02 -0.49423898870E+01  0.35066764078E+02  0.47000000000E+01 0.  1.
         11    1    6    6    0    0  0.30690366983E+02  0.22502381478E+02  0.27074720000E+02  0.46704349485E+02  0.00000000000E+00 0. -1.
        -12    1    6    6    0    0  0.39793296475E+02  0.72634471125E+02  0.28587684998E+03  0.29763206513E+03  0.00000000000E+00 0.  1.
</event>
<event>
12    1  0.8724767E-002  0.2176225E+03  0.7818608E-02  0.1135750E+00
         21   -1    0    0  503  502  0.00000000000E+00  0.00000000000E+00  0.30341641160E+03  0.30341641160E+03  0.00000000000E+00 0.  1.
         21   -1    0    0  501  503 -0.00000000000E+00 -0.00000000000E+00 -0.23051899414E+03  0.23051899414E+03  0.00000000000E+00 0.  1.
          6    2    1    2  501    0 -0.26654393065E+02 -0.13051832403E+03 -0.11554054145E+03  0.24639231014E+03  0.17208737374E+03 0.  0.
         24    2    3    3    0    0  0.46566776853E+02 -0.10148270405E+03 -0.86497271190E+02  0.16230896756E+03  0.79970113792E+02 0.  0.
         -6    2    1    2    0  502  0.26654393065E+02  0.13051832403E+03  0.18843795892E+03  0.28754309560E+03  0.17154205866E+03 0.  0.
        -24    2    5    5    0    0  0.53864560502E+02  0.13432414083E+03  0.96711067045E+02  0.19167448684E+03  0.80260281137E+02 0.  0.
          5    1    3    3  501    0 -0.73221169918E+02 -0.29035619982E+02 -0.29043270261E+02  0.84083342580E+02  0.47000000000E+01 0. -1.
        -13    1    4    4    0    0  0.13593593558E+02 -0.98759178817E+02 -0.45379711556E+02  0.10953300602E+03  0.00000000000E+00 0.  1.
         14    1    4    4    0    0  0.32973183295E+02 -0.27235252278E+01 -0.41117559634E+02  0.52775961541E+02  0.00000000000E+00 0. -1.
         -5    1    5    5    0  502 -0.27210167437E+02 -0.38058168005E+01  0.91726891872E+02  0.95868608762E+02  0.47000000000E+01 0.  1.
         13    1    6    6    0    0 -0.19512497030E+02  0.39268781889E+02  0.14652972719E+02  0.46232936105E+02  0.00000000000E+00 0. -1.
        -14    1    6    6    0    0  0.73377057532E+02  0.95055358938E+02  0.82058094325E+02  0.14544155073E+03  0.00000000000E+00 0.  1.
</event>
<event>
12    1  0.8724767E-002  0.2432511E+03  0.7818608E-02  0.1118107E+00
         21   -1    0    0  503  502  0.00000000000E+00  0.00000000000E+00  0.15672322070E+03  0.15672322070E+03  0.00000000000E+00 0. -1.
         21   -1    0    0  501  503 -0.00000000000E+00 -0.00000000000E+00 -0.79266128425E+03  0.79266128425E+03  0.00000000000E+00 0.  1.
          6    2    1    2  501    0  0.10493500685E+03  0.13194786564E+03 -0.66414147776E+03  0.70728706962E+03  0.17535535765E+03 0.  0.
         24    2    3    3    0    0  0.12123692702E+03  0.15646652960E+03 -0.56064398069E+03  0.59958034103E+03  0.77425738000E+02 0.  0.
         -6    2    1    2    0  502 -0.10493500685E+03 -0.13194786564E+03  0.28203414214E+02  0.24209743533E+03  0.17144719510E+03 0.  0.
        -24    2    5    5    0    0 -0.33932939999E+02 -0.30301598812E+02 -0.40257052538E+02  0.10038581772E+03  0.79919026598E+02 0.  0.
          5    1    3    3  501    0 -0.16301920169E+02 -0.24518663961E+02 -0.10349749707E+03  0.10770672859E+03  0.47000000000E+01 0. -1.
        -11    1    4    4    0    0  0.67084831984E+02  0.44220569489E+02 -0.14644848355E+03  0.16704188631E+03  0.00000000000E+00 0.  1.
         12    1    4    4    0    0  0.54152095037E+02  0.11224596012E+03 -0.41419549714E+03  0.43253845471E+03  0.00000000000E+00 0. -1.
         -5    1    5    5    0  502 -0.71002066853E+02 -0.10164626683E+03  0.68460466753E+02  0.14171161761E+03  0.47000000000E+01 0.  1.
         11    1    6    6    0    0 -0.28296308433E+02 -0.51394094158E+02 -0.49418696371E+02  0.76708810030E+02  0.00000000000E+00 0. -1.
        -12    1    6    6    0    0 -0.56366315657E+01  0.21092495346E+02  0.91616438326E+01  0.23677007688E+02  0.00000000000E+00 0.  1.
</event>
<event>
12    1  0.8724767E-002  0.2016228E+03  0.7818608E-02  0.1148454E+00
         21   -1    0    0  501  502  0.00000000000E+00  0.00000000000E+00  0.17457507013E+03  0.17457507013E+03  0.00000000000E+00 0. -1.
         21   -1    0    0  502  503 -0.00000000000E+00 -0.00000000000E+00 -0.50986461407E+03  0.50986461407E+03  0.00000000000E+00 0. -1.
         -6    2    1    2    0  503 -0.76125443247E+02 -0.72452477986E+02 -0.42001200885E+03  0.46573980099E+03  0.17163633058E+03 0.  0.
        -24    2    3    3    0    0 -0.80266562368E+02  0.15856105637E+01 -0.30466695832E+03  0.32853426865E+03  0.93099811976E+02 0.  0.
          6    2    1    2  501    0  0.76125443247E+02  0.72452477986E+02  0.84722464898E+02  0.21869988321E+03  0.17206771395E+03 0.  0.
         24    2    5    5    0    0  0.23820163771E+02  0.51571849344E+01 -0.16727874788E+02  0.86114966461E+02  0.80882438731E+02 0.  0.
          5    1    5    5  501    0  0.52305279476E+02  0.67295293052E+02  0.10145033969E+03  0.13258491675E+03  0.47000000000E+01 0. -1.
        -11    1    6    6    0    0 -0.45719796634E+01 -0.95469968538E+01  0.28684728214E+02  0.30575509475E+02  0.00000000000E+00 0.  1.
         12    1    6    6    0    0  0.28392143435E+02  0.14704181788E+02 -0.45412603002E+02  0.55539456986E+02  0.00000000000E+00 0. -1.
         -5    1    3    3    0  503  0.41411191209E+01 -0.74038088550E+02 -0.11534505053E+03  0.13720553234E+03  0.47000000000E+01 0.  1.
         13    1    4    4    0    0 -0.93765014145E+02  0.28403311558E+01 -0.29979472706E+03  0.31412867385E+03  0.00000000000E+00 0. -1.
        -14    1    4    4    0    0  0.13498451777E+02 -0.12547205921E+01 -0.48722312551E+01  0.14405594800E+02  0.00000000000E+00 0.  1.
</event>
<event>
12    1  0.8724767E-002  0.2674678E+03  0.7818608E-02  0.1102803E+00
         21   -1    0    0  501  502  0.00000000000E+00  0.00000000000E+00  0.97033477165E+03  0.97033477165E+03  0.00000000000E+00 0.  1.
         21   -1    0    0  502  503 -0.00000000000E+00 -0.00000000000E+00 -0.80406709927E+02  0.80406709927E+02  0.00000000000E+00 0. -1.
         -6    2    1    2    0  503 -0.85912134828E+02  0.18473037779E+03  0.29247875111E+03  0.39633676301E+03  0.17329974747E+03 0.  0.
        -24    2    3    3    0    0  0.21743290911E+02  0.85342041051E+02  0.15365323427E+03  0.19443989256E+03  0.80259085135E+02 0.  0.
          6    2    1    2  501    0  0.85912134828E+02 -0.18473037779E+03  0.59744931061E+03  0.65440471857E+03  0.17260837043E+03 0.  0.
         24    2    5    5    0    0 -0.91705014008E+01 -0.13922265322E+03  0.30958951354E+03  0.34781539475E+03  0.75251821674E+02 0.  0.
          5    1    5    5  501    0  0.95082636229E+02 -0.45507724572E+02  0.28785979707E+03  0.30658932382E+03  0.47000000000E+01 0. -1.
        -13    1    6    6    0    0 -0.22843558785E+02 -0.16161268924E+02  0.10509684284E+03  0.10875826942E+03  0.00000000000E+00 0.  1.
         14    1    6    6    0    0  0.13673057384E+02 -0.12306138430E+03  0.20449267070E+03  0.23905712533E+03  0.00000000000E+00 0. -1.
         -5    1    3    3    0  503 -0.10765542574E+03  0.99388336742E+02  0.13882551684E+03  0.20189687045E+03  0.47000000000E+01 0.  1.
         13    1    4    4    0    0  0.12284909967E+02  0.80996592493E+02  0.63404637125E+02  0.10359302591E+03  0.00000000000E+00 0. -1.
        -14    1    4    4    0    0  0.94583809434E+01  0.43454485582E+01  0.90248597149E+02  0.90846866653E+02  0.00000000000E+00 0.  1.
</event>
<event>
12    1  0.8724767E-002  0.2597814E+03  0.7818608E-02  0.1107356E+00
         21   -1    0    0  503  502  0.00000000000E+00  0.00000000000E+00  0.22715600755E+03  0.22715600755E+03  0.00000000000E+00 0. -1.
         21   -1    0    0  501  503 -0.00000000000E+00 -0.00000000000E+00 -0.45899602721E+03  0.45899602721E+03  0.00000000000E+00 0. -1.
          6    2    1    2  501    0  0.12559115903E+03 -0.14880108948E+03 -0.32014426763E+03  0.41228476955E+03  0.17196358814E+03 0.  0.
         24    2    3    3    0    0  0.79072983941E+02 -0.13272273586E+03 -0.13237773484E+03  0.21811779268E+03  0.78636158356E+02 0.  0.
         -6    2    1    2    0  502 -0.12559115903E+03  0.14880108948E+03  0.88304247973E+02  0.27386726522E+03  0.17114536304E+03 0.  0.
        -24    2    5    5    0    0 -0.58142553106E+02  0.59422960766E+02 -0.25118306809E+02  0.11441655099E+03  0.74488744493E+02 0.  0.
          5    1    3    3  501    0  0.46518175085E+02 -0.16078353626E+02 -0.18776653279E+03  0.19416697687E+03  0.47000000000E+01 0. -1.
        -11    1    4    4    0    0  0.33203704210E+02 -0.11251942694E+03 -0.11700860006E+03  0.16569284807E+03  0.00000000000E+00 0.  1.
         12    1    4    4    0    0  0.45869279731E+02 -0.20203308914E+02 -0.15369134782E+02  0.52424944616E+02  0.00000000000E+00 0. -1.
         -5    1    5    5    0  502 -0.67448605920E+02  0.89378128717E+02  0.11342255478E+03  0.15945071422E+03  0.47000000000E+01 0.  1.
         13    1    6    6    0    0 -0.65846932031E+02  0.17639045686E+02 -0.81054468031E+01  0.68648762979E+02  0.00000000000E+00 0. -1.
        -14    1    6    6    0    0  0.77043789255E+01  0.41783915080E+02 -0.17012860006E+02  0.45767788013E+02  0.00000000000E+00 0.  1.
</event>
<event>
12    1  0.8724767E-002  0.1743636E+03  0.7818608E-02  0.1173375E+00
         21   -1    0    0  501  502  0.00000000000E+00  0.00000000000E+00  0.76672350859E+02  0.76672350859E+02  0.00000000000E+00 0.  1.
         21   -1    0    0  502  503 -0.00000000000E+00 -0.00000000000E+00 -0.41800043056E+03  0.41800043056E+03  0.00000000000E+00 0.  1.
         -6    2    1    2    0  503 -0.34188490174E+02 -0.41799487629E+01 -0.11456074547E+03  0.20862018809E+03  0.17091487251E+03 0.  0.
        -24    2    3    3    0    0 -0.39148490397E+02  0.56308145886E+02 -0.40191309858E+02  0.11251444346E+03  0.79630063459E+02 0.  0.
          6    2    1    2  501    0  0.34188490174E+02  0.41799487629E+01 -0.22676733423E+03  0.28605259333E+03  0.17092787206E+03 0.  0.
         24    2    5    5    0    0  0.22500313807E+02  0.26041105008E+01 -0.29256263812E+02  0.88133898735E+02  0.79991309660E+02 0.  0.
          5    1    5    5  501    0  0.11688176367E+02  0.15758382621E+01 -0.19751107042E+03  0.19791869460E+03  0.47000000000E+01 0. -1.
        -11    1    6    6    0    0  0.13363383533E+02 -0.12628098971E+02 -0.54357995964E+02  0.57383278299E+02  0.00000000000E+00 0.  1.
         12    1    6    6    0    0  0.91369302738E+01  0.15232209472E+02  0.25101732152E+02  0.30750620436E+02  0.00000000000E+00 0. -1.
         -5    1    3    3    0  503  0.49600002233E+01 -0.60488094649E+02 -0.74369435613E+02  0.96105744625E+02  0.47000000000E+01 0.  1.
         11    1    4    4    0    0 -0.20681049080E+02 -0.16922459344E+02 -0.22532587639E+02  0.34954154646E+02  0.00000000000E+00 0. -1.
        -12    1    4    4    0    0 -0.18467441317E+02  0.73230605230E+02 -0.17658722219E+02  0.77560288818E+02  0.00000000000E+00 0.  1.
</event>
<event>
12    1  0.8724767E-002  0.2317698E+03  0.7818608E-02  0.1125884E+00
         21   -1    0    0  501  502  0.00000000000E+00  0.00000000000E+00  0.57646627758E+02  0.57646627758E+02  0.00000000000E+00 0. -1.
         21   -1    0    0  502  503 -0.00000000000E+00 -0.00000000000E+00 -0.92086073319E+03  0.92086073319E+03  0.00000000000E+00 0.  1.
         -6    2    1    2    0  503  0.67811640223E+02 -0.13379371535E+03 -0.42424144274E+03  0.48210606747E+03  0.17304994001E+03 0.  0.
        -24    2    3    3    0    0  0.45956920325E+02 -0.24151907334E+02 -0.10833273327E+03  0.14696526487E+03  0.84660822273E+02 0.  0.
          6    2    1    2  501    0 -0.67811640223E+02  0.13379371535E+03 -0.43897266269E+03  0.49640129348E+03  0.17668635703E+03 0.  0.
         24    2    5    5    0    0 -0.37772246736E+02  0.16041688998E+03 -0.40095976407E+03  0.44091950322E+03  0.80504376908E+02 0.  0.
          5    1    5    5  501    0 -0.30039393487E+02 -0.26623174635E+02 -0.38012898626E+02  0.55481790262E+02  0.47000000000E+01 0. -1.
        -11    1    6    6    0    0 -0.59296537728E+02  0.76568128559E+02 -0.21320619916E+03  0.23417011137E+03  0.00000000000E+00 0.  1.
         12    1    6    6    0    0  0.21524290992E+02  0.83848761422E+02 -0.18775356491E+03  0.20674939185E+03  0.00000000000E+00 0. -1.
         -5    1    3    3    0  503  0.21854719898E+02 -0.10964180801E+03 -0.31590870947E+03  0.33514080260E+03  0.47000000000E+01 0.  1.
         11    1    4    4    0    0 -0.19528189551E+02  0.54110912314E+01 -0.51541422901E+02  0.55381841520E+02  0.00000000000E+00 0. -1.
        -12    1    4    4    0    0  0.65485109877E+02 -0.29562998565E+02 -0.56791310368E+02  0.91583423353E+02  0.00000000000E+00 0.  1.
</event>
<event>
12    1  0.8724767E-002  0.2104625E+03  0.7818608E-02  0.1141510E+00
         21   -1    0    0  501  502  0.00000000000E+00  0.00000000000E+00  0.26009055743E+03  0.26009055743E+03  0.00000000000E+00 0.  1.
         21   -1    0    0  502  503 -0.00000000000E+00 -0.00000000000E+00 -0.44172393983E+03  0.44172393983E+03  0.00000000000E+00 0.  1.
         -6    2    1    2    0  503  0.36600622632E+02  0.11489984233E+03 -0.36665163543E+03  0.42276221476E+03  0.17249025805E+03 0.  0.
        -24    2    3    3    0    0  0.21975495729E+02  0.21172612239E+01 -0.23279551252E+03  0.24705405736E+03  0.79715440158E+02 0.  0.
          6    2    1    2  501    0 -0.36600622632E+02 -0.11489984233E+03  0.18501825303E+03  0.27905228250E+03  0.17057796772E+03 0.  0.
         24    2    5    5    0    0  0.43419634904E+02 -0.70006939200E+02  0.95009715713E+02  0.15043563833E+03  0.82569964088E+02 0.  0.
          5    1    5    5  501    0 -0.80020257536E+02 -0.44892903125E+02  0.90008537316E+02  0.12861664417E+03  0.47000000000E+01 0. -1.
        -13    1    6    6    0    0 -0.11633436724E+02 -0.45345543751E+02  0.71981071227E+02  0.85865183882E+02  0.00000000000E+00 0.  1.
         14    1    6    6    0    0  0.55053071628E+02 -0.24661395449E+02  0.23028644486E+02  0.64570454452E+02  0.00000000000E+00 0. -1.
         -5    1    3    3    0  503  0.14625126903E+02  0.11278258110E+03 -0.13385612290E+03  0.17570815740E+03  0.47000000000E+01 0.  1.
         11    1    4    4    0    0 -0.21456364785E+02 -0.16838646077E+02 -0.39280616735E+02  0.47821359690E+02  0.00000000000E+00 0. -1.
        -12    1    4    4    0    0  0.43431860513E+02  0.18955907301E+02 -0.19351489579E+03  0.19923269767E+03  0.00000000000E+00 0.  1.
</event>
<event>
12    1  0.8724767E-002  0.1941920E+03  0.7818608E-02  0.1154832E+00
         21   -1    0    0  503  502  0.00000000000E+00  0.00000000000E+00  0.60335561861E+02  0.60335561861E+02  0.00000000000E+00 0.  1.
         21   -1    0    0  501  503 -0.00000000000E+00 -0.00000000000E+00 -0.86628078456E+03  0.86628078456E+03  0.00000000000E+00 0.  1.
          6    2    1    2  501    0 -0.64411179906E+02  0.62934365561E+02 -0.64853909108E+03  0.67698854705E+03  0.17204942808E+03 0.  0.
         24    2    3    3    0    0 -0.51434496972E+02 -0.21537362171E+02 -0.22882107500E+03  0.24863218826E+03  0.79683845464E+02 0.  0.
         -6    2    1    2    0  502  0.64411179906E+02 -0.62934365561E+02 -0.15740613162E+03  0.24962779938E+03  0.17154536859E+03 0.  0.
        -24    2    5    5    0    0  0.78691653060E+02 -0.82230582272E+02 -0.17218753477E+03  0.22104711058E+03  0.79114050872E+02 0.  0.
          5    1    3    3  501    0 -0.12976682934E+02  0.84471727732E+02 -0.41971801609E+03  0.42835635879E+03  0.47000000000E+01 0. -1.
        -11    1    4    4    0    0 -0.21988761569E+01  0.17752704578E+02 -0.13145567041E+03  0.13266720340E+03  0.00000000000E+00 0.  1.
         12    1    4    4    0    0 -0.49235620815E+02 -0.39290066749E+02 -0.97365404590E+02  0.11596498486E+03  0.00000000000E+00 0. -1.
         -5    1    5    5    0  502 -0.14280473154E+02  0.19296216711E+02  0.14781403150E+02  0.28580688794E+02  0.47000000000E+01 0.  1.
         11    1    6    6    0    0  0.86946466501E+02 -0.40380891089E+02 -0.11544792787E+03  0.15006174880E+03  0.00000000000E+00 0. -1.
        -12    1    6    6    0    0 -0.82548134413E+01 -0.41849691183E+02 -0.56739606899E+02  0.70985361787E+02  0.00000000000E+00 0.  1.
</event>
<event>
12    1  0.8724767E-002  0.1868407E+03  0.7818608E-02  0.1161722E+00
         21   -1    0    0  503  502  0.00000000000E+00  0.00000000000E+00  0.47731985811E+03  0.47731985811E+03  0.00000000000E+00 0. -1.
         21   -1    0    0  501  503 -0.00000000000E+00 -0.00000000000E+00 -0.18760796364E+03  0.18760796364E+03  0.00000000000E+00 0. -1.
          6    2    1    2  501    0  0.69685912480E+02 -0.17717091654E+02 -0.11581286659E+03  0.21843058807E+03  0.17067302072E+03 0.  0.
         24    2    3    3    0    0  0.51906770917E+02 -0.89686669006E+01 -0.15049506088E+03  0.17821147059E+03  0.79597833182E+02 0.  0.
         -6    2    1    2    0  502 -0.69685912480E+02  0.17717091654E+02  0.40552476106E+03  0.44649723368E+03  0.17245122822E+03 0.  0.
        -24    2    5    5    0    0  0.22507518390E+02  0.10827635947E+02  0.26555634624E+03  0.27868680360E+03  0.80760976895E+02 0.  0.
          5    1    3    3  501    0  0.17779141563E+02 -0.87484247532E+01  0.34682194289E+02  0.40219117483E+02  0.47000000000E+01 0. -1.
        -11    1    4    4    0    0 -0.83117301671E+01 -0.26054628520E+02 -0.21346332600E+02  0.34692858648E+02  0.00000000000E+00 0.  1.
         12    1    4    4    0    0  0.60218501084E+02  0.17085961619E+02 -0.12914872828E+03  0.14351861194E+03  0.00000000000E+00 0. -1.
         -5    1    5    5    0  502 -0.92193430870E+02  0.68894557068E+01  0.13996841482E+03  0.16781043008E+03  0.47000000000E+01 0.  1.
         11    1    6    6    0    0 -0.58320164662E+01 -0.32293980548E+02  0.96133731102E+02  0.10158054859E+03  0.00000000000E+00 0. -1.
        -12    1    6    6    0    0  0.28339534856E+02  0.43121616495E+02  0.16942261514E+03  0.17710625501E+03  0.00000000000E+00 0.  1.
</event>
<event>
12    1  0.8724767E-002  0.2393901E+03  0.7818608E-02  0.1120348E+00
         21   -1    0    0  503  502  0.00000000000E+00  0.00000000000E+00  0.10017169889E+03  0.10017169889E+03  0.00000000000E+00 0. -1.
         21   -1    0    0  501  503 -0.00000000000E+00 -0.00000000000E+00 -0.61371958113E+03  0.61371958113E+03  0.00000000000E+00 0. -1.
          6    2    1    2  501    0 -0.99487606718E+02  0.13447221277E+03 -0.16104830834E+03  0.28778852464E+03  0.17001505050E+03 0.  0.
         24    2    3    3    0    0 -0.85244135004E+02  0.13041493438E+03 -0.18829210937E+03  0.25642528678E+03  0.77623395884E+02 0.  0.
         -6    2    1    2    0  502  0.99487606718E+02 -0.13447221277E+03 -0.35249957390E+03  0.42610275538E+03  0.17125141939E+03 0.  0.
        -24    2    5    5    0    0  0.93369192128E+02 -0.53571415598E+02 -0.12515547959E+03  0.18466994651E+03  0.82773138545E+02 0.  0.
          5    1    3    3  501    0 -0.14243471714E+02  0.40572783905E+01  0.27243801028E+02  0.31363237856E+02  0.47000000000E+01 0. -1.
        -13    1    4    4    0    0  0.87726923368E+01 -0.32533154145E+01 -0.41815482399E+01  0.10248391957E+02  0.00000000000E+00 0.  1.
         14    1    4    4    0    0 -0.94016827341E+02  0.13366824979E+03 -0.18411056113E+03  0.24617689483E+03  0.00000000000E+00 0. -1.
         -5    1    5    5    0  502  0.61184145902E+01 -0.80900797169E+02 -0.22734409431E+03  0.24143280887E+03  0.47000000000E+01 0.  1.
         11    1    6    6    0    0  0.99799688095E+02 -0.54112824789E+02 -0.13277017428E+03  0.17468856497E+03  0.00000000000E+00 0. -1.
        -12    1    6    6    0    0 -0.64304959678E+01  0.54140919034E+00  0.76146946913E+01  0.99813815450E+01  0.00000000000E+00 0.  1.
</event>
<event>
12    1  0.8724767E-002  0.3194139E+03  0.7818608E-02  0.1075940E+00
         21   -1    0    0  501  502  0.00000000000E+00  0.00000000000E+00  0.10912939666E+04  0.10912939666E+04  0.00000000000E+00 0. -1.
         21   -1    0    0  502  503 -0.00000000000E+00 -0.00000000000E+00 -0.94462344422E+02  0.94462344422E+02  0.00000000000E+00 0. -1.
         -6    2    1    2    0  503  0.26283129474E+03 -0.59079509369E+02  0.43682489008E+03  0.54114803633E+03  0.17162323474E+03 0.  0.
        -24    2    3    3    0    0  0.45961133229E+02 -0.35964518188E+02  0.15281411853E+03  0.18302629986E+03  0.82101152748E+02 0.  0.
          6    2    1    2  501    0 -0.26283129474E+03  0.59079509369E+02  0.56000673207E+03  0.64460827467E+03  0.17129392834E+03 0.  0.
         24    2    5    5    0    0 -0.18129303694E+03  0.84339715110E+02  0.27699480665E+03  0.34896591402E+03  0.71209082632E+02 0.  0.
          5    1    5    5  501    0 -0.81538257802E+02 -0.25260205741E+02  0.28301192543E+03  0.29564236065E+03  0.47000000000E+01 0. -1.
        -13    1    6    6    0    0 -0.29698370763E+02 -0.56655949290E+01  0.16568365763E+02  0.34476121243E+02  0.00000000000E+00 0.  1.
         14    1    6    6    0    0 -0.15159466618E+03  0.90005310039E+02  0.26042644088E+03  0.31448979277E+03  0.00000000000E+00 0. -1.
         -5    1    3    3    0  503  0.21687016151E+03 -0.23114991182E+02  0.28401077155E+03  0.35812173646E+03  0.47000000000E+01 0.  1.
         11    1    4    4    0    0  0.47316809752E+02  0.60279446575E+01  0.12179377541E+03  0.13080114805E+03  0.00000000000E+00 0. -1.
        -12    1    4    4    0    0 -0.13556765233E+01 -0.41992462845E+02  0.31020343121E+02  0.52225151814E+02  0.00000000000E+00 0.  1.
</event>
<event>
12    1  0.8724767E-002  0.2506745E+03  0.7818608E-02  0.1113073E+00
         21   -1    0    0  501  502  0.00000000000E+00  0.00000000000E+00  0.26504550271E+03  0.26504550271E+03  0.00000000000E+00 0.  1.
         21   -1    0    0  502  503 -0.00000000000E+00 -0.00000000000E+00 -0.24167126405E+03  0.24167126405E+03  0.00000000000E+00 0. -1.
         -6    2    1    2    0  503  0.12136831397E+03  0.13568343822E+03 -0.27419144329E+02  0.25094795153E+03  0.17053680500E+03 0.  0.
        -24    2    3    3    0    0  0.58085204637E+02  0.51521268996E+02  0.46625323398E+02  0.12213531296E+03  0.81943771781E+02 0.  0.
          6    2    1    2  501    0 -0.12136831397E+03 -0.13568343822E+03  0.50793382992E+02  0.25576881522E+03  0.17232949847E+03 0.  0.
         24    2    5    5    0    0 -0.14606197320E+03 -0.70953785784E+02  0.31498780365E+02  0.18369887419E+03  0.79903463502E+02 0.  0.
          5    1    5    5  501    0  0.24693659234E+02 -0.64729652434E+02  0.19294602627E+02  0.72069941037E+02  0.47000000000E+01 0. -1.
        -11    1    6    6    0    0  0.43032005668E+01  0.93836920544E+01  0.36991947033E+01  0.10966095620E+02  0.00000000000E+00 0.  1.
         12    1    6    6    0    0 -0.15036517377E+03 -0.80337477838E+02  0.27799585662E+02  0.17273277857E+03  0.00000000000E+00 0. -1.
         -5    1    3    3    0  503  0.63283109332E+02  0.84162169222E+02 -0.74044467727E+02  0.12881263857E+03  0.47000000000E+01 0.  1.
         11    1    4    4    0    0  0.19878230850E+02  0.19495925644E+02 -0.23266896302E+02  0.36284757708E+02  0.00000000000E+00 0. -1.
        -12    1    4    4    0    0  0.38206973786E+02  0.32025343352E+02  0.69892219700E+02  0.85850555253E+02  0.00000000000E+00 0.  1.
</event>
<event>
12    1  0.8724767E-002  0.2172787E+03  0.7818608E-02  0.1136069E+00
         21   -1    0    0  503  502  0.00000000000E+00  0.00000000000E+00  0.10797313644E+03  0.10797313644E+03  0.00000000000E+00 0.  1.
         21   -1    0    0  501  503 -0.00000000000E+00 -0.00000000000E+00 -0.48019774236E+03  0.48019774236E+03  0.00000000000E+00 0.  1.
          6    2    1    2  501    0  0.11933827322E+03 -0.56227454390E+02 -0.96347846986E+02  0.23700421196E+03  0.17171178989E+03 0.  0.
         24    2    3    3    0    0  0.13727769851E+03 -0.41050635256E+01 -0.56693246495E+02  0.16893701025E+03  0.80396338090E+02 0.  0.
         -6    2    1    2    0  502 -0.11933827322E+03  0.56227454390E+02 -0.27587675893E+03  0.35116666683E+03  0.17264672511E+03 0.  0.
        -24    2    5    5    0    0 -0.46645810620E+02  0.24395813025E+01 -0.43614563844E+02  0.10187738371E+03  0.79340959961E+02 0.  0.
          5    1    3    3  501    0 -0.17939425295E+02 -0.52122390864E+02 -0.39654600490E+02  0.68067201716E+02  0.47000000000E+01 0. -1.
        -13    1    4    4    0    0  0.38766866858E+02 -0.33044716470E+02 -0.40320925465E+02  0.64966147207E+02  0.00000000000E+00 0.  1.
         14    1    4    4    0    0  0.98510831655E+02  0.28939652945E+02 -0.16372321031E+02  0.10397086304E+03  0.00000000000E+00 0. -1.
         -5    1    5    5    0  502 -0.72692462597E+02  0.53787873087E+02 -0.23226219509E+03  0.24928928312E+03  0.47000000000E+01 0.  1.
         11    1    6    6    0    0  0.15788306240E+02 -0.18966270455E+02 -0.42875446150E+01  0.25047416388E+02  0.00000000000E+00 0. -1.
        -12    1    6    6    0    0 -0.62434116861E+02  0.21405851758E+02 -0.39327019229E+02  0.76829967324E+02  0.00000000000E+00 0.  1.
</event>
<event>
12    1  0.8724767E-002  0.1907683E+03  0.7818608E-02  0.1157872E+00
         21   -1    0    0  503  502  0.00000000000E+00  0.00000000000E+00  0.30428242726E+03  0.30428242726E+03  0.00000000000E+00 0. -1.
         21   -1    0    0  501  503 -0.00000000000E+00 -0.00000000000E+00 -0.29539452365E+03  0.29539452365E+03  0.00000000000E+00 0.  1.
          6    2    1    2  501    0 -0.31958567381E+02  0.75577449845E+02 -0.22705176924E+03  0.29626295233E+03  0.17171467628E+03 0.  0.
         24    2    3    3    0    0 -0.59537499412E+02  0.86972222137E+02 -0.10242376333E+03  0.16802618620E+03  0.81445016394E+02 0.  0.
         -6    2    1    2    0  502  0.31958567381E+02 -0.75577449845E+02  0.23593967286E+03  0.30341399859E+03  0.17221853662E+03 0.  0.
        -24    2    5    5    0    0  0.35756473799E+02  0.20440721984E+02  0.14834604019E+03  0.17330386102E+03  0.79569668026E+02 0.  0.
          5    1    3    3  501    0  0.27578932031E+02 -0.11394772292E+02 -0.12462800592E+03  0.12823676613E+03  0.47000000000E+01 0. -1.
        -13    1    4    4    0    0  0.92563278428E+01  0.34877164972E+02 -0.64200840677E+02  0.73646752714E+02  0.00000000000E+00 0.  1.
         14    1    4    4    0    0 -0.68793827255E+02  0.52095057164E+02 -0.38222922649E+02  0.94379433486E+02  0.00000000000E+00 0. -1.
         -5    1    5    5    0  502 -0.37979064182E+01 -0.96018171829E+02  0.87593632670E+02  0.13011013757E+03  0.47000000000E+01 0.  1.
         11    1    6    6    0    0 -0.11980083281E+02  0.36232589010E+02  0.50530251765E+02  0.63321633311E+02  0.00000000000E+00 0. -1.
        -12    1    6    6    0    0  0.47736557080E+02 -0.15791867026E+02  0.97815788423E+02  0.10998222770E+03  0.00000000000E+00 0.  1.
</event>
<event>
12    1  0.8724767E-002  0.1784254E+03  0.7818608E-02  0.1169393E+00
         21   -1    0    0  503  502  0.00000000000E+00  0.00000000000E+00  0.49316291275E+03  0.49316291275E+03  0.00000000000E+00 0.  1.
         21   -1    0    0  501  503 -0.00000000000E+00 -0.00000000000E+00 -0.95974884161E+02  0.95974884161E+02  0.00000000000E+00 0.  1.
          6    2    1    2  501    0  0.24423015863E+02  0.36439895428E+02  0.36745293165E+03  0.40848168884E+03  0.17294878853E+03 0.  0.
         24    2    3    3    0    0  0.64379430350E+02  0.71425042822E+02  0.25021035010E+03  0.27968577072E+03  0.79828962465E+02 0.  0.
         -6    2    1    2    0  502 -0.24423015863E+02 -0.36439895428E+02  0.29735096936E+02  0.18065610807E+03  0.17270814605E+03 0.  0.
        -24    2    5    5    0    0  0.13084038921E+02  0.40120570650E+02 -0.59922487562E+00  0.90044049247E+02  0.79540678088E+02 0.  0.
          5    1    3    3  501    0 -0.39956414487E+02 -0.34985147394E+02  0.11724258155E+03  0.12879591812E+03  0.47000000000E+01 0. -1.
        -13    1    4    4    0    0 -0.53719774629E+01  0.10318298638E+02  0.11584295441E+03  0.11642557929E+03  0.00000000000E+00 0.  1.
         14    1    4    4    0    0  0.69751407813E+02  0.61106744184E+02  0.13436739570E+03  0.16326019142E+03  0.00000000000E+00 0. -1.
         -5    1    5    5    0  502 -0.37507054784E+02 -0.76560466078E+02  0.30334321812E+02  0.90612058824E+02  0.47000000000E+01 0.  1.
         11    1    6    6    0    0 -0.10674241785E+02 -0.52834047426E+01  0.28659045527E+02  0.31035378101E+02  0.00000000000E+00 0. -1.
        -12    1    6    6    0    0  0.23758280706E+02  0.45403975392E+02 -0.29258270402E+02  0.59008671146E+02  0.00000000000E+00 0.  1.
</event>
<event>
12    1  0.8724767E-002  0.1739048E+03  0.7818608E-02  0.1174212E+00
         21   -1    0    0  501  502  0.00000000000E+00  0.00000000000E+00  0.22914831203E+02  0.22914831203E+02  0.00000000000E+00 0. -1.
         21   -1    0    0  502  503 -0.00000000000E+00 -0.00000000000E+00 -0.13112245575E+04  0.13112245575E+04  0.00000000000E+00 0. -1.
         -6    2    1    2    0  503  0.95017248403E+01 -0.20712188365E+02 -0.67671302301E+03  0.69870122086E+03  0.17240534502E+03 0.  0.
        -24    2    3    3    0    0  0.27817894555E+02 -0.69168401885E+02 -0.33055776799E+03  0.34865974148E+03  0.82079682490E+02 0.  0.
          6    2    1    2  501    0 -0.95017248403E+01  0.20712188365E+02 -0.61159670327E+03  0.63543816783E+03  0.17091477456E+03 0.  0.
         24    2    5    5    0    0  0.49859983638E+02  0.35896339587E+02 -0.47612852868E+03  0.48668304285E+03  0.79921481516E+02 0.  0.
          5    1    5    5  501    0 -0.59361708479E+02 -0.15184151222E+02 -0.13546817459E+03  0.14875512498E+03  0.47000000000E+01 0. -1.
        -11    1    6    6    0    0 -0.35276969049E+01  0.25829408454E+02 -0.32575140719E+03  0.32679287365E+03  0.00000000000E+00 0.  1.
         12    1    6    6    0    0  0.53387680543E+02  0.10066931134E+02 -0.15037712150E+03  0.15989016920E+03  0.00000000000E+00 0. -1.
         -5    1    3    3    0  503 -0.18316169715E+02  0.48456213520E+02 -0.34615525502E+03  0.35004147937E+03  0.47000000000E+01 0.  1.
         13    1    4    4    0    0  0.24060114566E+01 -0.24708923843E+02 -0.26155609720E+03  0.26273163455E+03  0.00000000000E+00 0. -1.
        -14    1    4    4    0    0  0.25411883098E+02 -0.44459478041E+02 -0.69001670784E+02  0.85928106934E+02  0.00000000000E+00 0.  1.
</event>
<event>
12    1  0.8724767E-002  0.2031619E+03  0.7818608E-02  0.1147640E+00
         21   -1    0    0  501  502  0.00000000000E+00  0.00000000000E+00  0.73260918378E+03  0.73260918378E+03  0.00000000000E+00 0.  1.
         21   -1    0    0  502  503 -0.00000000000E+00 -0.00000000000E+00 -0.69378657322E+02  0.69378657322E+02  0.00000000000E+00 0.  1.
         -6    2    1    2    0  503 -0.54808055276E+01  0.10926131562E+03  0.15132953333E+03  0.25124525512E+03  0.16809365319E+03 0.  0.
        -24    2    3    3    0    0 -0.36070259999E+02  0.17165188161E+02  0.11837836721E+03  0.14865246412E+03  0.80550666814E+02 0.  0.
          6    2    1    2  501    0  0.54808055276E+01 -0.10926131562E+03  0.51190099312E+03  0.55074258598E+03  0.17119198266E+03 0.  0.
         24    2    5    5    0    0  0.53122548390E+02 -0.24908438756E+02  0.33158653844E+03  0.34599753459E+03  0.79512426709E+02 0.  0.
          5    1    5    5  501    0 -0.47641742862E+02 -0.84352876863E+02  0.18031445468E+03  0.20474505138E+03  0.47000000000E+01 0. -1.
        -13    1    6    6    0    0 -0.86824612261E+01 -0.11699955831E+02  0.86695511007E+01  0.16953914465E+02  0.00000000000E+00 0.  1.
         14    1    6    6    0    0  0.61805009616E+02 -0.13208482925E+02  0.32291698734E+03  0.32904362013E+03  0.00000000000E+00 0. -1.
         -5    1    3    3    0  503  0.30589454471E+02  0.92096127458E+02  0.32951166122E+02  0.10259279101E+03  0.47000000000E+01 0.  1.
         11    1    4    4    0    0 -0.58149272102E+01  0.32361853675E+02  0.10851592643E+03  0.11338787078E+03  0.00000000000E+00 0. -1.
        -12    1    4    4    0    0 -0.30255332788E+02 -0.15196665514E+02  0.98624407780E+01  0.35264593334E+02  0.00000000000E+00 0.  1.
</event>
<event>
12    1  0.8724767E-002  0.2156774E+03  0.7818608E-02  0.1137333E+00
         21   -1    0    0  503  502  0.00000000000E+00  0.00000000000E+00  0.39388464173E+03  0.39388464173E+03  0.00000000000E+00 0.  1.
         21   -1    0    0  501  503 -0.00000000000E+00 -0.00000000000E+00 -0.13294515176E+03  0.13294515176E+03  0.00000000000E+00 0.  1.
          6    2    1    2  501    0 -0.64882635279E+02  0.11210460362E+03  0.41141289447E+02  0.21956628831E+03  0.17245158959E+03 0.  0.
         24    2    3    3    0    0 -0.38025572615E+02  0.97696483132E+02  0.92367031333E+02  0.15977446293E+03  0.77496216283E+02 0.  0.
         -6    2    1    2    0  502  0.64882635279E+02 -0.11210460362E+03  0.21979820052E+03  0.30726350518E+03  0.17123788760E+03 0.  0.
        -24    2    5    5    0    0 -0.23695084329E+02 -0.70519414569E+02  0.15681140511E+03  0.19079562654E+03  0.79238308168E+02 0.  0.
          5    1    3    3  501    0 -0.26857062664E+02  0.14408120486E+02 -0.51225741885E+02  0.59791825382E+02  0.47000000000E+01 0. -1.
        -13    1    4    4    0    0  0.22825837528E+02  0.42218514686E+02  0.35685395980E+02  0.59806933774E+02  0.00000000000E+00 0.  1.
         14    1    4    4    0    0 -0.60851410143E+02  0.55477968445E+02  0.56681635353E+02  0.99967529155E+02  0.00000000000E+00 0. -1.
         -5    1    5    5    0  502  0.88577719607E+02 -0.41585189048E+02  0.62986795415E+02  0.11646787864E+03  0.47000000000E+01 0.  1.
         11    1    6    6    0    0 -0.42616046731E+02 -0.26726438719E+02  0.38869585168E+02  0.63571020259E+02  0.00000000000E+00 0. -1.
        -12    1    6    6    0    0  0.18920962402E+02 -0.43792975851E+02  0.11794181994E+03  0.12722460628E+03  0.00000000000E+00 0.  1.
</event>
<event>
12    1  0.8724767E-002  0.2279394E+03  0.7818608E-02  0.1128352E+00
         21   -1    0    0  501  502  0.00000000000E+00  0.00000000000E+00  0.30618114504E+03  0.30618114504E+03  0.00000000000E+00 0. -1.
         21   -1    0    0  502  503 -0.00000000000E+00 -0.00000000000E+00 -0.16967051757E+03  0.16967051757E+03  0.00000000000E+00 0.  1.
         -6    2    1    2    0  503  0.97831030801E+02  0.11250600954E+03  0.86598476681E+02  0.24251161071E+03  0.17054053007E+03 0.  0.
        -24    2    3    3    0    0  0.68172384376E+02 -0.49727458206E+01  0.24423128338E+02  0.10624438350E+03  0.77583359270E+02 0.  0.
          6    2    1    2  501    0 -0.97831030801E+02 -0.11250600954E+03  0.49912150798E+02  0.23334005190E+03  0.17241764484E+03 0.  0.
         24    2    5    5    0    0 -0.15454504313E+02 -0.11383249643E+03  0.55945753583E+02  0.15059861098E+03  0.79707812275E+02 0.  0.
          5    1    5    5  501    0 -0.82376526488E+02  0.13264868820E+01 -0.60336027855E+01  0.82741440924E+02  0.47000000000E+01 0. -1.
        -13    1    6    6    0    0 -0.86572758408E+01 -0.75599694762E+02  0.75436720748E+02  0.10714924690E+03  0.00000000000E+00 0.  1.
         14    1    6    6    0    0 -0.67972284719E+01 -0.38232801663E+02 -0.19490967164E+02  0.43449364080E+02  0.00000000000E+00 0. -1.
         -5    1    3    3    0  503  0.29658646424E+02  0.11747875536E+03  0.62175348342E+02  0.13626722721E+03  0.47000000000E+01 0.  1.
         13    1    4    4    0    0  0.33403602614E+02  0.62133165816E+01  0.50854172755E+02  0.61160059329E+02  0.00000000000E+00 0. -1.
        -14    1    4    4    0    0  0.34768781762E+02 -0.11186062402E+02 -0.26431044417E+02  0.45084324174E+02  0.00000000000E+00 0.  1.
</event>
<event>
12    1  0.8724767E-002  0.2032745E+03  0.7818608E-02  0.1147007E+00
         21   -1    0    0  501  502  0.00000000000E+00  0.00000000000E+00  0.56552315074E+03  0.56552315074E+03  0.00000000000E+00 0. -1.
         21   -1    0    0  502  503 -0.00000000000E+00 -0.00000000000E+00 -0.10544960117E+03  0.10544960117E+03  0.00000000000E+00 0.  1.
         -6    2    1    2    0  503  0.13261312790E+02 -0.10827193230E+03  0.44113546766E+02  0.20800055374E+03  0.17152128616E+03 0.  0.
        -24    2    3    3    0    0 -0.47181344226E+02 -0.32477054600E+02  0.52595878685E+02  0.11057253812E+03  0.78607387774E+02 0.  0.
          6    2    1    2  501    0 -0.13261312790E+02  0.10827193230E+03  0.41596000280E+03  0.46297219817E+03  0.17152801116E+03 0.  0.
         24    2    5    5    0    0  0.48205390222E+02  0.80011393984E+02  0.33961145448E+03  0.36085459717E+03  0.78450732750E+02 0.  0.
          5    1    5    5  501    0 -0.61466703012E+02  0.28260538313E+02  0.76348548320E+02  0.10211760101E+03  0.47000000000E+01 0. -1.
        -11    1    6    6    0    0 -0.13994773814E+02 -0.55677778637E+01  0.61023357408E+02  0.62854625875E+02  0.00000000000E+00 0.  1.
         12    1    6    6    0    0  0.62200164037E+02  0.85579171848E+02  0.27858809707E+03  0.29799997129E+03  0.00000000000E+00 0. -1.
         -5    1    3    3    0  503  0.60442657017E+02 -0.75794877697E+02 -0.84823319188E+01  0.97428015617E+02  0.47000000000E+01 0.  1.
         11    1    4    4    0    0  0.10747081852E+02  0.17066474459E+02  0.17302084034E+02  0.26573039546E+02  0.00000000000E+00 0. -1.
        -12    1    4    4    0    0 -0.57928426078E+02 -0.49543529058E+02  0.35293794651E+02  0.83999498572E+02  0.00000000000E+00 0.  1.
</event>
<event>
12    1  0.8724767E-002  0.2045586E+03  0.7818608E-02  0.1146485E+00
         21   -1    0    0  503  502  0.00000000000E+00  0.00000000000E+00  0.75695403365E+03  0.75695403365E+03  0.00000000000E+00 0.  1.
         21   -1    0    0  501  503 -0.00000000000E+00 -0.00000000000E+00 -0.80867581880E+02  0.80867581880E+02  0.00000000000E+00 0.  1.
          6    2    1    2  501    0 -0.10498776568E+03 -0.15135977533E+02  0.97744382233E+02  0.22436927820E+03  0.17186064116E+03 0.  0.
         24    2    3    3    0    0 -0.63853242157E+01 -0.30787419522E+02  0.91872336571E+02  0.12424944989E+03  0.77516204792E+02 0.  0.
         -6    2    1    2    0  502  0.10498776568E+03  0.15135977533E+02  0.57834206954E+03  0.61345233734E+03  0.17490766715E+03 0.  0.
        -24    2    5    5    0    0  0.48686436528E+02 -0.40525341618E+02  0.46505799977E+03  0.47516498224E+03  0.74095511267E+02 0.  0.
          5    1    3    3  501    0 -0.98602441466E+02  0.15651441989E+02  0.58720456622E+01  0.10011982830E+03  0.47000000000E+01 0. -1.
        -13    1    4    4    0    0 -0.16649090082E+02 -0.52920051129E+02  0.45098687826E+02  0.71495563888E+02  0.00000000000E+00 0.  1.
         14    1    4    4    0    0  0.10263765866E+02  0.22132631607E+02  0.46773648745E+02  0.52753886004E+02  0.00000000000E+00 0. -1.
         -5    1    5    5    0  502  0.56301329153E+02  0.55661319151E+02  0.11328406977E+03  0.13828735509E+03  0.47000000000E+01 0.  1.
         13    1    6    6    0    0  0.37100576555E+02  0.88710955017E+01  0.10839729453E+03  0.11491354393E+03  0.00000000000E+00 0. -1.
        -14    1    6    6    0    0  0.11585859973E+02 -0.49396437120E+02  0.35666070523E+03  0.36025143832E+03  0.00000000000E+00 0.  1.
</event>
<event>
12    1  0.8724767E-002  0.1805136E+03  0.7818608E-02  0.1167448E+00
         21   -1    0    0  503  502  0.00000000000E+00  0.00000000000E+00  0.14328071104E+03  0.14328071104E+03  0.00000000000E+00 0.  1.
         21   -1    0    0  501  503 -0.00000000000E+00 -0.00000000000E+00 -0.36997906779E+03  0.36997906779E+03  0.00000000000E+00 0. -1.
          6    2    1    2  501    0 -0.46074445789E+02  0.25406275818E+02  0.46471345063E+02  0.18583519380E+03  0.17206626612E+03 0.  0.
         24    2    3    3    0    0 -0.15767797791E+02 -0.43297993057E+02  0.61438908665E+02  0.10912217382E+03  0.77521414272E+02 0.  0.
         -6    2    1    2    0  502  0.46074445789E+02 -0.25406275818E+02 -0.27316970181E+03  0.32742458503E+03  0.17267553239E+03 0.  0.
        -24    2    5    5    0    0  0.76370143325E+02 -0.32483336381E+02 -0.10402483556E+03  0.15537810917E+03  0.80209877583E+02 0.  0.
          5    1    3    3  501    0 -0.30306647997E+02  0.68704268876E+02 -0.14967563602E+02  0.76713019982E+02  0.47000000000E+01 0. -1.
        -11    1    4    4    0    0 -0.29007921449E+02  0.23871880826E+01 -0.27444975854E+01  0.29235089204E+02  0.00000000000E+00 0.  1.
         12    1    4    4    0    0  0.13240123658E+02 -0.45685181140E+02  0.64183406250E+02  0.79887084614E+02  0.00000000000E+00 0. -1.
         -5    1    5    5    0  502 -0.30295697536E+02  0.70770605625E+01 -0.16914486625E+03  0.17204647586E+03  0.47000000000E+01 0.  1.
         13    1    6    6    0    0  0.26392759743E+01 -0.22874772478E+02 -0.69847177283E+02  0.73544878598E+02  0.00000000000E+00 0. -1.
        -14    1    6    6    0    0  0.73730867350E+02 -0.96085639033E+01 -0.34177658277E+02  0.81833230572E+02  0.00000000000E+00 0.  1.
</event>
<event>
12    1  0.8724767E-002  0.2691908E+03  0.7818608E-02  0.1101790E+00
         21   -1    0    0  503  502  0.00000000000E+00  0.00000000000E+00  0.11106396746E+04  0.11106396746E+04  0.00000000000E+00 0.  1.
         21   -1    0    0  501  503 -0.00000000000E+00 -0.00000000000E+00 -0.10758950659E+03  0.10758950659E+03  0.00000000000E+00 0. -1.
          6    2    1    2  501    0 -0.16027204851E+03  0.13040958646E+03  0.11922288176E+03  0.29441087259E+03  0.17253949285E+03 0.  0.
         24    2    3    3    0    0 -0.16912354462E+03  0.84820094330E+02  0.13479012932E+03  0.24520538538E+03  0.78486179099E+02 0.  0.
         -6    2    1    2    0  502  0.16027204851E+03 -0.13040958646E+03  0.88382728626E+03  0.92381830862E+03  0.17203431524E+03 0.  0.
        -24    2    5    5    0    0  0.11362877674E+03 -0.49856452811E+02  0.72248187344E+03  0.73748840124E+03  0.80696466679E+02 0.  0.
          5    1    3    3  501    0  0.88514961109E+01  0.45589492127E+02 -0.15567247559E+02  0.49205487218E+02  0.47000000000E+01 0. -1.
        -13    1    4    4    0    0  0.21459547175E+01  0.19041864224E+02  0.24632787560E+02  0.31208523479E+02  0.00000000000E+00 0.  1.
         14    1    4    4    0    0 -0.17126949933E+03  0.65778230106E+02  0.11015734176E+03  0.21399686190E+03  0.00000000000E+00 0. -1.
         -5    1    5    5    0  502  0.46643271764E+02 -0.80553133646E+02  0.16134541283E+03  0.18632990737E+03  0.47000000000E+01 0.  1.
         11    1    6    6    0    0  0.60479950258E+02 -0.15602008643E+02  0.16490158050E+03  0.17633428002E+03  0.00000000000E+00 0. -1.
        -12    1    6    6    0    0  0.53148826484E+02 -0.34254444168E+02  0.55758029294E+03  0.56115412123E+03  0.00000000000E+00 0.  1.
</event>
<event>
12    1  0.8724767E-002  0.1820135E+03  0.7818608E-02  0.1166644E+00
         21   -1    0    0  503  502  0.00000000000E+00  0.00000000000E+00  0.12680353343E+04  0.12680353343E+04  0.00000000000E+00 0.  1.
         21   -1    0    0  501  503 -0.00000000000E+00 -0.00000000000E+00 -0.32988347731E+02  0.32988347731E+02  0.00000000000E+00 0.  1.
          6    2    1    2  501    0  0.93836033446E+01  0.51802298789E+02  0.31533945867E+03  0.36409875045E+03  0.17423373873E+03 0.  0.
         24    2    3    3    0    0  0.41476568244E+02 -0.25485609886E+02  0.22442109188E+03  0.24043946595E+03  0.71249479162E+02 0.  0.
         -6    2    1    2    0  502 -0.93836033446E+01 -0.51802298789E+02  0.91970752793E+03  0.93692493161E+03  0.17086503555E+03 0.  0.
        -24    2    5    5    0    0  0.25214424069E+02  0.93268411920E+01  0.24426179590E+03  0.25782050506E+03  0.78005325085E+02 0.  0.
          5    1    3    3  501    0 -0.32092964900E+02  0.77287908675E+02  0.90918366794E+02  0.12365928450E+03  0.47000000000E+01 0. -1.
        -13    1    4    4    0    0  0.25918909616E+02 -0.34542103145E+02  0.54348911613E+02  0.69417223791E+02  0.00000000000E+00 0.  1.
         14    1    4    4    0    0  0.15557658629E+02  0.90564932589E+01  0.17007218026E+03  0.17102224216E+03  0.00000000000E+00 0. -1.
         -5    1    5    5    0  502 -0.34598027414E+02 -0.61129139981E+02  0.67544573202E+03  0.67910442655E+03  0.47000000000E+01 0.  1.
         13    1    6    6    0    0 -0.20690112752E+02  0.23053761710E+02  0.61207702163E+02  0.68599850574E+02  0.00000000000E+00 0. -1.
        -14    1    6    6    0    0  0.45904536821E+02 -0.13726920518E+02  0.18305409374E+03  0.18922065448E+03  0.00000000000E+00 0.  1.
</event>
<event>
12    1  0.8724767E-002  0.1735586E+03  0.7818608E-02  0.1174722E+00
         21   -1    0    0  503  502  0.00000000000E+00  0.00000000000E+00  0.14448896535E+03  0.14448896535E+03  0.00000000000E+00 0.  1.
         21   -1    0    0  501  503 -0.00000000000E+00 -0.00000000000E+00 -0.20647088510E+03  0.20647088510E+03  0.00000000000E+00 0.  1.
          6    2    1    2  501    0  0.81280362222E+01  0.28868756039E+00 -0.39826034355E+02  0.17806934612E+03  0.17336790563E+03 0.  0.
         24    2    3    3    0    0  0.11070750829E+02  0.53175132918E+02 -0.67190930358E+02  0.11826497166E+03  0.80757823857E+02 0.  0.
         -6    2    1    2    0  502 -0.81280362222E+01 -0.28868756039E+00 -0.22155885400E+02  0.17289050433E+03  0.17127199104E+03 0.  0.
        -24    2    5    5    0    0  0.31765563939E+02 -0.24213689427E+02  0.37568018228E+02  0.97042368472E+02  0.80065669778E+02 0.  0.
          5    1    3    3  501    0 -0.29427146070E+01 -0.52886445358E+02  0.27364896003E+02  0.59804374465E+02  0.47000000000E+01 0. -1.
        -13    1    4    4    0    0  0.44549917687E+02  0.28044882515E+02 -0.51254359077E+02  0.73472579413E+02  0.00000000000E+00 0.  1.
         14    1    4    4    0    0 -0.33479166858E+02  0.25130250403E+02 -0.15936571281E+02  0.44792392245E+02  0.00000000000E+00 0. -1.
         -5    1    5    5    0  502 -0.39893600161E+02  0.23925001867E+02 -0.59723903628E+02  0.75848135855E+02  0.47000000000E+01 0.  1.
         11    1    6    6    0    0  0.46998033143E+02 -0.56977176449E+01  0.50978209787E+02  0.69570518029E+02  0.00000000000E+00 0. -1.
        -12    1    6    6    0    0 -0.15232469204E+02 -0.18515971782E+02 -0.13410191559E+02  0.27471850443E+02  0.00000000000E+00 0.  1.
</event>
<event>
12    1  0.8724767E-002  0.2413323E+03  0.7818608E-02  0.1119069E+00
         21   -1    0    0  503  502  0.00000000000E+00  0.00000000000E+00  0.11989888073E+04  0.11989888073E+04  0.00000000000E+00 0.  1.
         21   -1    0    0  501  503 -0.00000000000E+00 -0.00000000000E+00 -0.53819411366E+02  0.53819411366E+02  0.00000000000E+00 0.  1.
          6    2    1    2  501    0  0.14744070361E+03 -0.82890439696E+02  0.37242952823E+03  0.44326007459E+03  0.17078101228E+03 0.  0.
         24    2    3    3    0    0  0.15418431465E+03 -0.63374098363E+02  0.19557374415E+03  0.26514095088E+03  0.65280588274E+02 0.  0.
         -6    2    1    2    0  502 -0.14744070361E+03  0.82890439696E+02  0.77273986768E+03  0.80954814405E+03  0.17213863123E+03 0.  0.
        -24    2    5    5    0    0 -0.10571152863E+03  0.64203335300E+02  0.73692105050E+03  0.75127628481E+03  0.77887264080E+02 0.  0.
          5    1    3    3  501    0 -0.67436110457E+01 -0.19516341334E+02  0.17685578407E+03  0.17811912370E+03  0.47000000000E+01 0. -1.
        -11    1    4    4    0    0  0.99565404770E+02 -0.57243225091E+02  0.16838341737E+03  0.20382107813E+03  0.00000000000E+00 0.  1.
         12    1    4    4    0    0  0.54618909883E+02 -0.61308732714E+01  0.27190326786E+02  0.61319872754E+02  0.00000000000E+00 0. -1.
         -5    1    5    5    0  502 -0.41729174977E+02  0.18687104396E+02  0.35818817187E+02  0.58271859243E+02  0.47000000000E+01 0.  1.
         13    1    6    6    0    0 -0.32573198221E+02 -0.16786145278E+02  0.21010838963E+03  0.21327991773E+03  0.00000000000E+00 0. -1.
        -14    1    6    6    0    0 -0.73138330409E+02  0.80989480578E+02  0.52681266087E+03  0.53799636708E+03  0.00000000000E+00 0.  1.
</event>
<event>
12    1  0.8724767E-002  0.1901544E+03  0.7818608E-02  0.1160728E+00
         21   -1    0    0  501  502  0.00000000000E+00  0.00000000000E+00  0.17075150867E+03  0.17075150867E+03  0.00000000000E+00 0.  1.
         21   -1    0    0  502  503 -0.00000000000E+00 -0.00000000000E+00 -0.24405260478E+03  0.24405260478E+03  0.00000000000E+00 0.  1.
         -6    2    1    2    0  503 -0.48709144068E+02  0.69857430901E+01 -0.12520396453E+03  0.22767240954E+03  0.18367719513E+03 0.  0.
        -24    2    3    3    0    0  0.65144259194E+01 -0.14828623745E+02 -0.14349628622E+03  0.16536503987E+03  0.80573484628E+02 0.  0.
          6    2    1    2  501    0  0.48709144068E+02 -0.69857430901E+01  0.51902868415E+02  0.18713170391E+03  0.17292479734E+03 0.  0.
         24    2    5    5    0    0 -0.38390342145E+02 -0.17996946626E+02 -0.26507140473E+01  0.83663107408E+02  0.72074827772E+02 0.  0.
          5    1    5    5  501    0  0.87099486213E+02  0.11011203536E+02  0.54553582463E+02  0.10346859650E+03  0.47000000000E+01 0. -1.
        -11    1    6    6    0    0 -0.37282766157E+02  0.31300732988E+01  0.27780870149E+02  0.46600201259E+02  0.00000000000E+00 0.  1.
         12    1    6    6    0    0 -0.11075759881E+01 -0.21127019925E+02 -0.30431584197E+02  0.37062906149E+02  0.00000000000E+00 0. -1.
         -5    1    3    3    0  503 -0.55223569987E+02  0.21814366835E+02  0.18292321692E+02  0.62307369672E+02  0.47000000000E+01 0.  1.
         11    1    4    4    0    0  0.61777540898E+01 -0.26133323314E+02 -0.61434460298E+01  0.27547362163E+02  0.00000000000E+00 0. -1.
        -12    1    4    4    0    0  0.33667182958E+00  0.11304699569E+02 -0.13735284019E+03  0.13781767770E+03  0.00000000000E+00 0.  1.
</event>
<event>
12    1  0.8724767E-002  0.2142442E+03  0.7818608E-02  0.1138369E+00
         21   -1    0    0  503  502  0.00000000000E+00  0.00000000000E+00  0.12494050653E+03  0.12494050653E+03  0.00000000000E+00 0.  1.
         21   -1    0    0  501  503 -0.00000000000E+00 -0.00000000000E+00 -0.55942778570E+03  0.55942778570E+03  0.00000000000E+00 0.  1.
          6    2    1    2  501    0 -0.10760596241E+03  0.68296228541E+02 -0.41808305687E+03  0.46949695134E+03  0.17143665565E+03 0.  0.
         24    2    3    3    0    0 -0.11666457990E+03  0.10460773223E+03 -0.32858054254E+03  0.37237139383E+03  0.78370148423E+02 0.  0.
         -6    2    1    2    0  502  0.10760596241E+03 -0.68296228541E+02 -0.16404222307E+02  0.21487134088E+03  0.17221259142E+03 0.  0.
        -24    2    5    5    0    0  0.45380511994E+02  0.31214873669E+02 -0.94871078631E+01  0.97209101338E+02  0.79535180646E+02 0.  0.
          5    1    3    3  501    0  0.90586174850E+01 -0.36311503685E+02 -0.89502514328E+02  0.97125557510E+02  0.47000000000E+01 0. -1.
        -11    1    4    4    0    0 -0.56735977295E+02  0.79521501587E+02 -0.12480178543E+03  0.15848698994E+03  0.00000000000E+00 0.  1.
         12    1    4    4    0    0 -0.59928602604E+02  0.25086230639E+02 -0.20377875711E+03  0.21388440389E+03  0.00000000000E+00 0. -1.
         -5    1    5    5    0  502  0.62225450420E+02 -0.99511102210E+02 -0.69171144439E+01  0.11766223955E+03  0.47000000000E+01 0.  1.
         13    1    6    6    0    0  0.49547694764E+02  0.26733027824E+02  0.25418132224E+02  0.61771435784E+02  0.00000000000E+00 0. -1.
        -14    1    6    6    0    0 -0.41671827700E+01  0.44818458453E+01 -0.34905240087E+02  0.35437665554E+02  0.00000000000E+00 0.  1.
</event>
<event>
12    1  0.8724767E-002  0.2343877E+03  0.7818608E-02  0.1123599E+00
         21   -1    0    0  503  502  0.00000000000E+00  0.00000000000E+00  0.21476860701E+03  0.21476860701E+03  0.00000000000E+00 0.  1.
         21   -1    0    0  501  503 -0.00000000000E+00 -0.00000000000E+00 -0.74791956777E+03  0.74791956777E+03  0.00000000000E+00 0. -1.
          6    2    1    2  501    0  0.13738325903E+03 -0.75203000894E+02 -0.65703810388E+03  0.69757380021E+03  0.17429998732E+03 0.  0.
         24    2    3    3    0    0  0.60394763979E+02 -0.46977894870E+02 -0.16631091783E+03  0.20002064113E+03  0.80588369916E+02 0.  0.
         -6    2    1    2    0  502 -0.13738325903E+03  0.75203000894E+02  0.12388714312E+03  0.26511437457E+03  0.17437877213E+03 0.  0.
        -24    2    5    5    0    0 -0.43736864548E+02  0.17137080098E+02 -0.12923056344E+02  0.89386121193E+02  0.74941847068E+02 0.  0.
          5    1    3    3  501    0  0.76988495047E+02 -0.28225106025E+02 -0.49072718605E+03  0.49755315908E+03  0.47000000000E+01 0. -1.
        -11    1    4    4    0    0  0.61845316564E+02 -0.66461285576E+02 -0.14529644947E+03  0.17132718374E+03  0.00000000000E+00 0.  1.
         12    1    4    4    0    0 -0.14505525853E+01  0.19483390706E+02 -0.21014468363E+02  0.28693457387E+02  0.00000000000E+00 0. -1.
         -5    1    5    5    0  502 -0.93646394477E+02  0.58065920796E+02  0.13681019947E+03  0.17572825338E+03  0.47000000000E+01 0.  1.
         13    1    6    6    0    0 -0.65229061081E+02  0.11869049841E+02 -0.10479406557E+02  0.67123190594E+02  0.00000000000E+00 0. -1.
        -14    1    6    6    0    0  0.21492196533E+02  0.52680302573E+01 -0.24436497866E+01  0.22262930600E+02  0.00000000000E+00 0.  1.
</event>
<event>
12    1  0.8724767E-002  0.2089851E+03  0.7818608E-02  0.1143020E+00
         21   -1    0    0  503  502  0.00000000000E+00  0.00000000000E+00  0.16440216239E+04  0.16440216239E+04  0.00000000000E+00 0.  1.
         21   -1    0    0  501  503 -0.00000000000E+00 -0.00000000000E+00 -0.56339193952E+02  0.56339193952E+02  0.00000000000E+00 0. -1.
          6    2    1    2  501    0  0.11284453604E+02  0.11248978401E+03  0.17444783944E+03  0.27222570416E+03  0.17576545428E+03 0.  0.
         24    2    3    3    0    0 -0.31589405190E+02  0.70561716905E+02  0.18072822680E+03  0.21174708112E+03  0.78722855556E+02 0.  0.
         -6    2    1    2    0  502 -0.11284453604E+02 -0.11248978401E+03  0.14132345905E+04  0.14281351137E+04  0.17192034424E+03 0.  0.
        -24    2    5    5    0    0 -0.55451110345E+02 -0.30373797250E+01  0.65011377746E+03  0.65592660061E+03  0.67139633857E+02 0.  0.
          5    1    3    3  501    0  0.42873858794E+02  0.41928067101E+02 -0.62803873641E+01  0.60478623035E+02  0.47000000000E+01 0. -1.
        -11    1    4    4    0    0  0.35482430875E+01  0.22724646008E+02  0.13466441262E+03  0.13661443405E+03  0.00000000000E+00 0.  1.
         12    1    4    4    0    0 -0.35137648277E+02  0.47837070897E+02  0.46063814186E+02  0.75132647071E+02  0.00000000000E+00 0. -1.
         -5    1    5    5    0  502  0.44166656741E+02 -0.10945240428E+03  0.76312081305E+03  0.77220851309E+03  0.47000000000E+01 0.  1.
         13    1    6    6    0    0 -0.35049464483E+02  0.20254311300E+02  0.54077844603E+03  0.54229146202E+03  0.00000000000E+00 0. -1.
        -14    1    6    6    0    0 -0.20401645862E+02 -0.23291691025E+02  0.10933533143E+03  0.11363513860E+03  0.00000000000E+00 0.  1.
</event>
<event>
12    1  0.8724767E-002  0.1988216E+03  0.7818608E-02  0.1151004E+00
         21   -1    0    0  501  502  0.00000000000E+00  0.00000000000E+00  0.14106257928E+03  0.14106257928E+03  0.00000000000E+00 0.  1.
         21   -1    0    0  502  503 -0.00000000000E+00 -0.00000000000E+00 -0.31390482104E+03  0.31390482104E+03  0.00000000000E+00 0.  1.
         -6    2    1    2    0  503  0.12483143007E+02  0.89428942865E+02 -0.16261203239E+03  0.25588280129E+03  0.17572697641E+03 0.  0.
        -24    2    3    3    0    0 -0.47238018794E+02  0.51836208806E+02 -0.14745710432E+03  0.18355305177E+03  0.83843319578E+02 0.  0.
          6    2    1    2  501    0 -0.12483143007E+02 -0.89428942865E+02 -0.10230209364E+02  0.19908459903E+03  0.17713456948E+03 0.  0.
         24    2    5    5    0    0 -0.37153615622E+02 -0.19554076083E+01  0.39645214548E+02  0.95306472720E+02  0.78277493145E+02 0.  0.
          5    1    5    5  501    0  0.24670472615E+02 -0.87473535257E+02 -0.49875423912E+02  0.10377812631E+03  0.47000000000E+01 0. -1.
        -13    1    6    6    0    0 -0.52139924387E+02 -0.25426831886E+02  0.32758070450E+02  0.66619716859E+02  0.00000000000E+00 0.  1.
         14    1    6    6    0    0  0.14986308764E+02  0.23471424277E+02  0.68871440983E+01  0.28686755861E+02  0.00000000000E+00 0. -1.
         -5    1    3    3    0  503  0.59721161801E+02  0.37592734059E+02 -0.15154928072E+02  0.72329749521E+02  0.47000000000E+01 0.  1.
         13    1    4    4    0    0 -0.21037866906E+02  0.46499576187E+01  0.47474338366E+01  0.22062458563E+02  0.00000000000E+00 0. -1.
        -14    1    4    4    0    0 -0.26200151888E+02  0.47186251188E+02 -0.15220453815E+03  0.16149059321E+03  0.00000000000E+00 0.  1.
</event>
<event>
12    1  0.8724767E-002  0.2199253E+03  0.7818608E-02  0.1134116E+00
         21   -1    0    0  501  502  0.00000000000E+00  0.00000000000E+00  0.45575761683E+03  0.45575761683E+03  0.00000000000E+00 0.  1.
         21   -1    0    0  502  503 -0.00000000000E+00 -0.00000000000E+00 -0.11415036786E+03  0.11415036786E+03  0.00000000000E+00 0.  1.
         -6    2    1    2    0  503 -0.55513958561E+01 -0.13578201725E+03  0.93461782549E+02  0.23896079593E+03  0.17291495883E+03 0.  0.
        -24    2    3    3    0    0  0.56732097176E+02 -0.81831948749E+02  0.16681049201E+02  0.12623451501E+03  0.75775303968E+02 0.  0.
          6    2    1    2  501    0  0.55513958561E+01  0.13578201725E+03  0.24814546641E+03  0.33094718877E+03  0.17170409152E+03 0.  0.
         24    2    5    5    0    0  0.27890164837E+02  0.13049021851E+03  0.26117260246E+03  0.30413636992E+03  0.80512389209E+02 0.  0.
          5    1    5    5  501    0 -0.22338768981E+02  0.52917987465E+01 -0.13027136042E+02  0.26810818843E+02  0.47000000000E+01 0. -1.
        -11    1    6    6    0    0 -0.11801972952E+02  0.95830608184E+02  0.12377875386E+03  0.15698398625E+03  0.00000000000E+00 0.  1.
         12    1    6    6    0    0  0.39692137790E+02  0.34659610322E+02  0.13739384860E+03  0.14715238368E+03  0.00000000000E+00 0. -1.
         -5    1    3    3    0  503 -0.62283493032E+02 -0.53950068502E+02  0.76780733348E+02  0.11272628092E+03  0.47000000000E+01 0.  1.
         13    1    4    4    0    0  0.28582544605E+02  0.90460759790E+01  0.33242405125E+01  0.30163619174E+02  0.00000000000E+00 0. -1.
        -14    1    4    4    0    0  0.28149552571E+02 -0.90878024728E+02  0.13356808689E+02  0.96070895837E+02  0.00000000000E+00 0.  1.
</event>
<event>
12    1  0.8724767E-002  0.1942399E+03  0.7818608E-02  0.1154957E+00
         21   -1    0    0  503  502  0.00000000000E+00  0.00000000000E+00  0.19132796617E+03  0.19132796617E+03  0.00000000000E+00 0. -1.
         21   -1    0    0  501  503 -0.00000000000E+00 -0.00000000000E+00 -0.33652039319E+03  0.33652039319E+03  0.00000000000E+00 0.  1.
          6    2    1    2  501    0 -0.13744242160E+02 -0.85839304268E+02 -0.24328945891E+03  0.31131797631E+03  0.17370040648E+03 0.  0.
         24    2    3    3    0    0  0.36694722405E+01 -0.10765160760E+03 -0.24845481138E+03  0.28254672518E+03  0.80625833120E+02 0.  0.
         -6    2    1    2    0  502  0.13744242160E+02  0.85839304268E+02  0.98097031892E+02  0.21653038304E+03  0.17235164277E+03 0.  0.
        -24    2    5    5    0    0  0.37422469353E+02  0.17905588870E+02  0.11174688862E+03  0.14315425123E+03  0.79276233536E+02 0.  0.
          5    1    3    3  501    0 -0.17413714401E+02  0.21812303328E+02  0.51653524749E+01  0.28771251135E+02  0.47000000000E+01 0. -1.
        -13    1    4    4    0    0  0.31269125067E+02 -0.32113511594E+02 -0.43852788232E+02  0.62706481683E+02  0.00000000000E+00 0.  1.
         14    1    4    4    0    0 -0.27599652826E+02 -0.75538096003E+02 -0.20460202315E+03  0.21984024350E+03  0.00000000000E+00 0. -1.
         -5    1    5    5    0  502 -0.23678227193E+02  0.67933715398E+02 -0.13649856730E+02  0.73376131811E+02  0.47000000000E+01 0.  1.
         13    1    6    6    0    0  0.51958065678E+02  0.33347802250E+02  0.10326520989E+03  0.12031383992E+03  0.00000000000E+00 0. -1.
        -14    1    6    6    0    0 -0.14535596325E+02 -0.15442213380E+02  0.84816787349E+01  0.22840411309E+02  0.00000000000E+00 0.  1.
</event>
<event>
12    1  0.8724767E-002  0.2111836E+03  0.7818608E-02  0.1140971E+00
         21   -1    0    0  501  502  0.00000000000E+00  0.00000000000E+00  0.46708086814E+02  0.46708086814E+02  0.00000000000E+00 0. -1.
         21   -1    0    0  502  503 -0.00000000000E+00 -0.00000000000E+00 -0.10173993562E+04  0.10173993562E+04  0.00000000000E+00 0. -1.
         -6    2    1    2    0  503 -0.63258689032E+02 -0.10256521227E+03 -0.62337784019E+03  0.65762849666E+03  0.17133015929E+03 0.  0.
        -24    2    3    3    0    0 -0.42926730727E+00 -0.92473897247E+02 -0.53452925128E+03  0.54824141962E+03  0.79344361944E+02 0.  0.
          6    2    1    2  501    0  0.63258689032E+02  0.10256521227E+03 -0.34731342920E+03  0.40647894635E+03  0.17342788478E+03 0.  0.
         24    2    5    5    0    0  0.50477827943E+02  0.13931631253E+03 -0.24799118344E+03  0.29970351714E+03  0.79784240741E+02 0.  0.
          5    1    5    5  501    0  0.12780861089E+02 -0.36751100261E+02 -0.99322245756E+02  0.10677542921E+03  0.47000000000E+01 0. -1.
        -13    1    6    6    0    0  0.62252822948E+02  0.83371692791E+02 -0.19837006109E+03  0.22400208539E+03  0.00000000000E+00 0.  1.
         14    1    6    6    0    0 -0.11774995005E+02  0.55944619742E+02 -0.49621122358E+02  0.75701431754E+02  0.00000000000E+00 0. -1.
         -5    1    3    3    0  503 -0.62829421724E+02 -0.10091315025E+02 -0.88848588910E+02  0.10938707705E+03  0.47000000000E+01 0.  1.
         11    1    4    4    0    0 -0.26394329135E+02 -0.91198258317E+02 -0.44495121022E+03  0.45496743005E+03  0.00000000000E+00 0. -1.
        -12    1    4    4    0    0  0.25965061827E+02 -0.12756389308E+01 -0.89578041059E+02  0.93273989570E+02  0.00000000000E+00 0.  1.
</event>
<event>
12    1  0.8724767E-002  0.2115443E+03  0.7818608E-02  0.1140864E+00
         21   -1    0    0  503  502  0.00000000000E+00  0.00000000000E+00  0.10574439070E+03  0.10574439070E+03  0.00000000000E+00 0. -1.
         21   -1    0    0  501  503 -0.00000000000E+00 -0.00000000000E+00 -0.62610385435E+03  0.62610385435E+03  0.00000000000E+00 0.  1.
          6    2    1    2  501    0 -0.11689775071E+02 -0.12020657683E+03 -0.47006403266E+03  0.51440714059E+03  0.17049410411E+03 0.  0.
         24    2    3    3    0    0  0.14336211653E+02 -0.14902956532E+03 -0.37448951593E+03  0.41113713092E+03  0.79849887728E+02 0.  0.
         -6    2    1    2    0  502  0.11689775071E+02  0.12020657683E+03 -0.50295430991E+02  0.21744110446E+03  0.17367996884E+03 0.  0.
        -24    2    5    5    0    0  0.10593652550E+02  0.15475437534E+03 -0.54626411489E+02  0.18229001260E+03  0.78641348545E+02 0.  0.
          5    1    3    3  501    0 -0.26025986724E+02  0.28822988494E+02 -0.95574516729E+02  0.10327000968E+03  0.47000000000E+01 0. -1.
        -13    1    4    4    0    0  0.22688885849E+02 -0.28853707184E+02 -0.16899670174E+03  0.17293700344E+03  0.00000000000E+00 0.  1.
         14    1    4    4    0    0 -0.83526741962E+01 -0.12017585814E+03 -0.20549281419E+03  0.23820012747E+03  0.00000000000E+00 0. -1.
         -5    1    5    5    0  502  0.10961225211E+01 -0.34547798514E+02  0.43309804987E+01  0.35151091858E+02  0.47000000000E+01 0.  1.
         13    1    6    6    0    0  0.39597876049E+01  0.15903335593E+03 -0.37516147054E+02  0.16344647291E+03  0.00000000000E+00 0. -1.
        -14    1    6    6    0    0  0.66338649452E+01 -0.42789805933E+01 -0.17110264435E+02  0.18843539691E+02  0.00000000000E+00 0.  1.
</event>
<event>
12    1  0.8724767E-002  0.1815873E+03  0.7818608E-02  0.1166331E+00
         21   -1    0    0  503  502  0.00000000000E+00  0.00000000000E+00  0.18626507042E+03  0.18626507042E+03  0.00000000000E+00 0.  1.
         21   -1    0    0  501  503 -0.00000000000E+00 -0.00000000000E+00 -0.23657287787E+03  0.23657287787E+03  0.00000000000E+00 0.  1.
          6    2    1    2  501    0  0.47902490930E+02  0.29136102066E+02 -0.13141050167E+03  0.22396214279E+03  0.17247249164E+03 0.  0.
         24    2    3    3    0    0  0.45929604698E+02 -0.28992788441E+02 -0.14090268126E+03  0.16484318082E+03  0.66102937203E+02 0.  0.
         -6    2    1    2    0  502 -0.47902490930E+02 -0.29136102066E+02  0.81102694230E+02  0.19887580550E+03  0.17271472989E+03 0.  0.
        -24    2    5    5    0    0 -0.37846337715E+02 -0.47542588074E+02  0.11868807510E+03  0.15557827901E+03  0.80156713819E+02 0.  0.
          5    1    3    3  501    0  0.19728862325E+01  0.58128890508E+02  0.94921795852E+01  0.59118961975E+02  0.47000000000E+01 0. -1.
        -13    1    4    4    0    0  0.58189697083E+02 -0.36489706208E+02 -0.98586107655E+02  0.12015306958E+03  0.00000000000E+00 0.  1.
         14    1    4    4    0    0 -0.12260092385E+02  0.74969177666E+01 -0.42316573604E+02  0.44690111243E+02  0.00000000000E+00 0. -1.
         -5    1    5    5    0  502 -0.10056153215E+02  0.18406486007E+02 -0.37585380871E+02  0.43297526486E+02  0.47000000000E+01 0.  1.
         11    1    6    6    0    0  0.23032810598E+02 -0.21135468039E+02  0.56821810988E+02  0.64853192498E+02  0.00000000000E+00 0. -1.
        -12    1    6    6    0    0 -0.60879148313E+02 -0.26407120035E+02  0.61866264113E+02  0.90725086515E+02  0.00000000000E+00 0.  1.
</event>
<event>
12    1  0.8724767E-002  0.1911663E+03  0.7818608E-02  0.1157579E+00
         21   -1    0    0  503  502  0.00000000000E+00  0.00000000000E+00  0.26565953458E+03  0.26565953458E+03  0.00000000000E+00 0. -1.
         21   -1    0    0  501  503 -0.00000000000E+00 -0.00000000000E+00 -0.18534881775E+03  0.18534881775E+03  0.00000000000E+00 0. -1.
          6    2    1    2  501    0  0.81010019290E+02  0.19433980454E+02 -0.74924134309E+02  0.20532455505E+03  0.17205883930E+03 0.  0.
         24    2    3    3    0    0  0.10732709221E+02 -0.31797997651E+02 -0.80003258534E+02  0.11808062463E+03  0.80101241164E+02 0.  0.
         -6    2    1    2    0  502 -0.81010019290E+02 -0.19433980454E+02  0.15523485115E+03  0.24568379728E+03  0.17123774822E+03 0.  0.
        -24    2    5    5    0    0  0.18587306117E+02 -0.63670057269E+00  0.39801117124E+02  0.91995795443E+02  0.80828238373E+02 0.  0.
          5    1    3    3  501    0  0.70277310068E+02  0.51231978105E+02  0.50791242253E+01  0.87243930413E+02  0.47000000000E+01 0. -1.
        -13    1    4    4    0    0  0.16445514522E+02  0.12796077895E+02  0.54358856983E+01  0.21534702476E+02  0.00000000000E+00 0.  1.
         14    1    4    4    0    0 -0.57128053005E+01 -0.44594075547E+02 -0.85439144232E+02  0.96545922158E+02  0.00000000000E+00 0. -1.
         -5    1    5    5    0  502 -0.99597325407E+02 -0.18797279881E+02  0.11543373402E+03  0.15368800184E+03  0.47000000000E+01 0.  1.
         13    1    6    6    0    0 -0.17042984453E+02 -0.26775780905E+02 -0.11329470364E+01  0.31759869822E+02  0.00000000000E+00 0. -1.
        -14    1    6    6    0    0  0.35630290570E+02  0.26139080332E+02  0.40934064160E+02  0.60235925621E+02  0.00000000000E+00 0.  1.
</event>
<event>
12    1  0.8724767E-002  0.1886822E+03  0.7818608E-02  0.1159773E+00
         21   -1    0    0  501  502  0.00000000000E+00  0.00000000000E+00  0.57287912992E+02  0.57287912992E+02  0.00000000000E+00 0. -1.
         21   -1    0    0  502  503 -0.00000000000E+00 -0.00000000000E+00 -0.62082628654E+03  0.62082628654E+03  0.00000000000E+00 0. -1.
         -6    2    1    2    0  503  0.20689391237E+02 -0.75976076409E+02 -0.26794738818E+03  0.32771447739E+03  0.17146591721E+03 0.  0.
        -24    2    3    3    0    0 -0.25341614872E+02 -0.64378276057E+02 -0.26010723979E+03  0.27937277259E+03  0.74877299638E+02 0.  0.
          6    2    1    2  501    0 -0.20689391237E+02  0.75976076409E+02 -0.29559098536E+03  0.35039972214E+03  0.17089622450E+03 0.  0.
         24    2    5    5    0    0 -0.73554378348E+02  0.19272101863E+02 -0.17450291802E+03  0.20654403875E+03  0.80171759733E+02 0.  0.
          5    1    5    5  501    0  0.52864987111E+02  0.56703974546E+02 -0.12108806734E+03  0.14385568339E+03  0.47000000000E+01 0. -1.
        -13    1    6    6    0    0 -0.51578013798E+02  0.13177042835E+02 -0.17581767251E+03  0.18370024478E+03  0.00000000000E+00 0.  1.
         14    1    6    6    0    0 -0.21976364550E+02  0.60950590286E+01  0.13147544879E+01  0.22843793966E+02  0.00000000000E+00 0. -1.
         -5    1    3    3    0  503  0.46031006109E+02 -0.11597800352E+02 -0.78401483909E+01  0.48341704802E+02  0.47000000000E+01 0.  1.
         13    1    4    4    0    0  0.29305556544E+01 -0.68085935217E+02 -0.21889223976E+03  0.22925552416E+03  0.00000000000E+00 0. -1.
        -14    1    4    4    0    0 -0.28272170526E+02  0.37076591592E+01 -0.41215000030E+02  0.50117248430E+02  0.00000000000E+00 0.  1.
</event>
<event>
12    1  0.8724767E-002  0.4992140E+03  0.7818608E-02  0.1014622E+00
         21   -1    0    0  503  502  0.00000000000E+00  0.00000000000E+00  0.34103069250E+03  0.34103069250E+03  0.00000000000E+00 0. -1.
         21   -1    0    0  501  503 -0.00000000000E+00 -0.00000000000E+00 -0.71805664293E+03  0.71805664293E+03  0.00000000000E+00 0.  1.
          6    2    1    2  501    0  0.28037022317E+03  0.36452292930E+03 -0.21322993469E+03  0.54284584450E+03  0.19424257466E+03 0.  0.
         24    2    3    3    0    0  0.12400947831E+03  0.29019662941E+03 -0.12061673266E+03  0.34644732979E+03  0.76713243246E+02 0.  0.
         -6    2    1    2    0  502 -0.28037022317E+03 -0.36452292930E+03 -0.16379601575E+03  0.51624149093E+03  0.16790388368E+03 0.  0.
        -24    2    5    5    0    0 -0.52276011624E+02 -0.96965726931E+02 -0.61369490165E+02  0.15000781003E+03  0.81246508579E+02 0.  0.
          5    1    3    3  501    0  0.15636074486E+03  0.74326299898E+02 -0.92613202026E+02  0.19639851471E+03  0.47000000000E+01 0. -1.
        -11    1    4    4    0    0  0.19987273515E+02  0.12308372248E+03 -0.23271407354E+02  0.12684893473E+03  0.00000000000E+00 0.  1.
         12    1    4    4    0    0  0.10402220480E+03  0.16711290692E+03 -0.97345325309E+02  0.21959839506E+03  0.00000000000E+00 0. -1.
         -5    1    5    5    0  502 -0.22809421155E+03 -0.26755720237E+03 -0.10242652558E+03  0.36623368090E+03  0.47000000000E+01 0.  1.
         11    1    6    6    0    0 -0.50763940200E+02 -0.52600860544E+02 -0.73834043393E+02  0.10390040480E+03  0.00000000000E+00 0. -1.
        -12    1    6    6    0    0 -0.15120714243E+01 -0.44364866387E+02  0.12464553228E+02  0.46107405226E+02  0.00000000000E+00 0.  1.
</event>
<event>
12    1  0.8724767E-002  0.2634362E+03  0.7818608E-02  0.1105366E+00
         21   -1    0    0  503  502  0.00000000000E+00  0.00000000000E+00  0.16351872475E+03  0.16351872475E+03  0.00000000000E+00 0.  1.
         21   -1    0    0  501  503 -0.00000000000E+00 -0.00000000000E+00 -0.42566742721E+03  0.42566742721E+03  0.00000000000E+00 0. -1.
          6    2    1    2  501    0 -0.14455110653E+03 -0.13724932350E+03 -0.10138566887E+03  0.28057090976E+03  0.16943607157E+03 0.  0.
         24    2    3    3    0    0 -0.10991928254E+03 -0.13547085830E+03 -0.21264278864E+02  0.19314063292E+03  0.80103260904E+02 0.  0.
         -6    2    1    2    0  502  0.14455110653E+03  0.13724932350E+03 -0.16076303359E+03  0.30861524220E+03  0.17223883288E+03 0.  0.
        -24    2    5    5    0    0  0.16589862826E+03  0.14631976747E+03 -0.13114842249E+03  0.27070607670E+03  0.84557921154E+02 0.  0.
          5    1    3    3  501    0 -0.34631823990E+02 -0.17784652022E+01 -0.80121390006E+02  0.87430276837E+02  0.47000000000E+01 0. -1.
        -13    1    4    4    0    0 -0.39448900076E+02 -0.10274376254E+03 -0.32212512715E+02  0.11467407045E+03  0.00000000000E+00 0.  1.
         14    1    4    4    0    0 -0.70470382462E+02 -0.32727095752E+02  0.10948233851E+02  0.78466562466E+02  0.00000000000E+00 0. -1.
         -5    1    5    5    0  502 -0.21347521732E+02 -0.90704439762E+01 -0.29614611108E+02  0.37909165502E+02  0.47000000000E+01 0.  1.
         11    1    6    6    0    0  0.37694135882E+02  0.14028651529E+02 -0.62065744589E+02  0.73958147590E+02  0.00000000000E+00 0. -1.
        -12    1    6    6    0    0  0.12820449238E+03  0.13229111594E+03 -0.69082677897E+02  0.19674792911E+03  0.00000000000E+00 0.  1.
</event>
<event>
12    1  0.8724767E-002  0.2473414E+03  0.7818608E-02  0.1115586E+00
         21   -1    0    0  501  502  0.00000000000E+00  0.00000000000E+00  0.60226807367E+02  0.60226807367E+02  0.00000000000E+00 0. -1.
         21   -1    0    0  502  503 -0.00000000000E+00 -0.00000000000E+00 -0.13835444098E+04  0.13835444098E+04  0.00000000000E+00 0.  1.
         -6    2    1    2    0  503 -0.76901211120E+02 -0.15379272122E+03 -0.10448668231E+04  0.10737431911E+04  0.17779697702E+03 0.  0.
        -24    2    3    3    0    0 -0.78074198190E+02 -0.13140246253E+02 -0.53533418255E+03  0.54513171146E+03  0.65708822404E+02 0.  0.
          6    2    1    2  501    0  0.76901211120E+02  0.15379272122E+03 -0.27845077936E+03  0.37002802609E+03  0.17268441215E+03 0.  0.
         24    2    5    5    0    0  0.94345056858E+02  0.83260969090E+02 -0.10863323032E+03  0.18526031849E+03  0.81773028261E+02 0.  0.
          5    1    5    5  501    0 -0.17443845738E+02  0.70531752127E+02 -0.16981754903E+03  0.18476770760E+03  0.47000000000E+01 0. -1.
        -11    1    6    6    0    0  0.69026250652E+02  0.31069772684E+02 -0.18253199494E+02  0.77866124505E+02  0.00000000000E+00 0.  1.
         12    1    6    6    0    0  0.25318806206E+02  0.52191196406E+02 -0.90380030829E+02  0.10739419399E+03  0.00000000000E+00 0. -1.
         -5    1    3    3    0  503  0.11729870701E+01 -0.14065247496E+03 -0.50953264051E+03  0.52861147959E+03  0.47000000000E+01 0.  1.
         13    1    4    4    0    0 -0.43705196353E+02 -0.18022208801E+02 -0.45714348800E+03  0.45958145395E+03  0.00000000000E+00 0. -1.
        -14    1    4    4    0    0 -0.34369001837E+02  0.48819625475E+01 -0.78190694550E+02  0.85550257509E+02  0.00000000000E+00 0.  1.
</event>
<event>
12    1  0.8724767E-002  0.3637445E+03  0.7818608E-02  0.1057229E+00
         21   -1    0    0  503  502  0.00000000000E+00  0.00000000000E+00  0.12211983070E+03  0.12211983070E+03  0.00000000000E+00 0. -1.
         21   -1    0    0  501  503 -0.00000000000E+00 -0.00000000000E+00 -0.11023514368E+04  0.11023514368E+04  0.00000000000E+00 0.  1.
          6    2    1    2  501    0  0.59254983638E+02  0.31430111417E+03 -0.57836723670E+03  0.68324133864E+03  0.17324469077E+03 0.  0.
         24    2    3    3    0    0  0.82726779677E+02  0.30813099873E+03 -0.56821257640E+03  0.65651676830E+03  0.79751505511E+02 0.  0.
         -6    2    1    2    0  502 -0.59254983638E+02 -0.31430111417E+03 -0.40186436940E+03  0.54122992887E+03  0.17070009096E+03 0.  0.
        -24    2    5    5    0    0 -0.10606293851E+03 -0.24515441963E+03 -0.31108755397E+03  0.41780071748E+03  0.80199357213E+02 0.  0.
          5    1    3    3  501    0 -0.23471796039E+02  0.61701154483E+01 -0.10154660301E+02  0.26724570338E+02  0.47000000000E+01 0. -1.
        -11    1    4    4    0    0  0.95536524086E+02  0.29476126664E+03 -0.52714633390E+03  0.61146928712E+03  0.00000000000E+00 0.  1.
         12    1    4    4    0    0 -0.12809744409E+02  0.13369732088E+02 -0.41066242507E+02  0.45047481190E+02  0.00000000000E+00 0. -1.
         -5    1    5    5    0  502  0.46807954872E+02 -0.69146694540E+02 -0.90776815432E+02  0.12342921139E+03  0.47000000000E+01 0.  1.
         11    1    6    6    0    0 -0.61123169006E+02 -0.81324819660E+02 -0.72551042233E+02  0.12495367866E+03  0.00000000000E+00 0. -1.
        -12    1    6    6    0    0 -0.44939769504E+02 -0.16382959997E+03 -0.23853651174E+03  0.29284703882E+03  0.00000000000E+00 0.  1.
</event>
<event>
12    1  0.8724767E-002  0.1882831E+03  0.7818608E-02  0.1160745E+00
         21   -1    0    0  501  502  0.00000000000E+00  0.00000000000E+00  0.48493805017E+02  0.48493805017E+02  0.00000000000E+00 0.  1.
         21   -1    0    0  502  503 -0.00000000000E+00 -0.00000000000E+00 -0.72057949941E+03  0.72057949941E+03  0.00000000000E+00 0.  1.
         -6    2    1    2    0  503  0.74733226024E+02 -0.71179656940E+01 -0.35210394973E+03  0.39780678590E+03  0.16922566881E+03 0.  0.
        -24    2    3    3    0    0  0.40902052021E+02 -0.49385365773E+02 -0.11631225233E+03  0.15583386178E+03  0.81509264647E+02 0.  0.
          6    2    1    2  501    0 -0.74733226024E+02  0.71179656940E+01 -0.31998174467E+03  0.37126651853E+03  0.17266959882E+03 0.  0.
         24    2    5    5    0    0  0.20699213048E+02 -0.19610861397E+02 -0.10660412136E+03  0.13594996418E+03  0.79403468208E+02 0.  0.
          5    1    5    5  501    0 -0.95432439072E+02  0.26728827091E+02 -0.21337762331E+03  0.23531655436E+03  0.47000000000E+01 0. -1.
        -13    1    6    6    0    0 -0.21989935012E+02 -0.24884706497E+02 -0.18762421450E+02  0.38142290413E+02  0.00000000000E+00 0.  1.
         14    1    6    6    0    0  0.42689148060E+02  0.52738450994E+01 -0.87841699907E+02  0.97807673762E+02  0.00000000000E+00 0. -1.
         -5    1    3    3    0  503  0.33831174003E+02  0.42267400079E+02 -0.23579169740E+03  0.24197292411E+03  0.47000000000E+01 0.  1.
         11    1    4    4    0    0  0.45847576260E+02 -0.16615284905E+02 -0.17826664526E+02  0.51921651645E+02  0.00000000000E+00 0. -1.
        -12    1    4    4    0    0 -0.49455242396E+01 -0.32770080867E+02 -0.98485587807E+02  0.10391221014E+03  0.00000000000E+00 0.  1.
</event>
<event>
12    1  0.8724767E-002  0.1936484E+03  0.7818608E-02  0.1155248E+00
         21   -1    0    0  503  502  0.00000000000E+00  0.00000000000E+00  0.25459947541E+02  0.25459947541E+02  0.00000000000E+00 0. -1.
         21   -1    0    0  501  503 -0.00000000000E+00 -0.00000000000E+00 -0.15604131097E+04  0.15604131097E+04  0.00000000000E+00 0. -1.
          6    2    1    2  501    0 -0.10798256024E+01 -0.88192978486E+02 -0.57864260584E+03  0.61018600042E+03  0.17239641043E+03 0.  0.
         24    2    3    3    0    0  0.12776328705E+02 -0.14751995553E+02 -0.47582301171E+03  0.48298721927E+03  0.80549733466E+02 0.  0.
         -6    2    1    2    0  502  0.10798256024E+01  0.88192978486E+02 -0.95631055629E+03  0.97568705680E+03  0.17220971301E+03 0.  0.
        -24    2    5    5    0    0  0.46560499570E+02  0.10071721675E+03 -0.82324286449E+03  0.83442684000E+03  0.78914507604E+02 0.  0.
          5    1    3    3  501    0 -0.13856154308E+02 -0.73440982933E+02 -0.10281959414E+03  0.12719878115E+03  0.47000000000E+01 0. -1.
        -13    1    4    4    0    0  0.43711494115E+02 -0.24902135975E+02 -0.29336544417E+03  0.29764760192E+03  0.00000000000E+00 0.  1.
         14    1    4    4    0    0 -0.30935165410E+02  0.10150140422E+02 -0.18245756754E+03  0.18533961735E+03  0.00000000000E+00 0. -1.
         -5    1    5    5    0  502 -0.45480673967E+02 -0.12524238269E+02 -0.13306769180E+03  0.14126021680E+03  0.47000000000E+01 0.  1.
         11    1    6    6    0    0  0.33641218498E+02  0.40789090481E+02 -0.61711236610E+03  0.61937319435E+03  0.00000000000E+00 0. -1.
        -12    1    6    6    0    0  0.12919281071E+02  0.59928126274E+02 -0.20613049839E+03  0.21505364566E+03  0.00000000000E+00 0.  1.
</event>
<event>
12    1  0.8724767E-002  0.2224358E+03  0.7818608E-02  0.1132083E+00
         21   -1    0    0  501  502  0.00000000000E+00  0.00000000000E+00  0.13764931872E+03  0.13764931872E+03  0.00000000000E+00 0.  1.
         21   -1    0    0  502  503 -0.00000000000E+00 -0.00000000000E+00 -0.36118597344E+03  0.36118597344E+03  0.00000000000E+00 0. -1.
         -6    2    1    2    0  503  0.62211236590E+01  0.14080886089E+03 -0.12919987329E+03  0.25722175266E+03  0.17205983001E+03 0.  0.
        -24    2    3    3    0    0 -0.55957307700E+02  0.92410874167E+02 -0.42337440890E+02  0.13985184764E+03  0.78071060174E+02 0.  0.
          6    2    1    2  501    0 -0.62211236590E+01 -0.14080886089E+03 -0.94336781431E+02  0.24161353950E+03  0.17208090091E+03 0.  0.
         24    2    5    5    0    0 -0.50029179407E+02 -0.85175347369E+02 -0.72816333802E+01  0.12929736802E+03  0.83108535063E+02 0.  0.
          5    1    5    5  501    0  0.43808055748E+02 -0.55633513516E+02 -0.87055148051E+02  0.11231617148E+03  0.47000000000E+01 0. -1.
        -11    1    6    6    0    0  0.28494855485E+01 -0.69334718857E+02  0.12788129036E+02  0.70561739286E+02  0.00000000000E+00 0.  1.
         12    1    6    6    0    0 -0.52878664956E+02 -0.15840628512E+02 -0.20069762416E+02  0.58735628732E+02  0.00000000000E+00 0. -1.
         -5    1    3    3    0  503  0.62178431359E+02  0.48397986719E+02 -0.86862432397E+02  0.11736990503E+03  0.47000000000E+01 0.  1.
         13    1    4    4    0    0 -0.28288720851E+02  0.77001465898E+02 -0.61775500096E+02  0.10269220949E+03  0.00000000000E+00 0. -1.
        -14    1    4    4    0    0 -0.27668586849E+02  0.15409408269E+02  0.19438059206E+02  0.37159638146E+02  0.00000000000E+00 0.  1.
</event>
<event>
12    1  0.8724767E-002  0.2381240E+03  0.7818608E-02  0.1121426E+00
         21   -1    0    0  503  502  0.00000000000E+00  0.00000000000E+00  0.70335465985E+03  0.70335465985E+03  0.00000000000E+00 0. -1.
         21   -1    0    0  501  503 -0.00000000000E+00 -0.00000000000E+00 -0.92806741653E+02  0.92806741653E+02  0.00000000000E+00 0. -1.
          6    2    1    2  501    0 -0.16354021177E+03  0.26401326067E+02  0.15537766696E+03  0.28246597983E+03  0.16793564092E+03 0.  0.
         24    2    3    3    0    0 -0.12931275528E+03  0.33417285391E+02  0.37630238697E+02  0.15955426629E+03  0.78759287629E+02 0.  0.
         -6    2    1    2    0  502  0.16354021177E+03 -0.26401326067E+02  0.45517025123E+03  0.51369542166E+03  0.17105729376E+03 0.  0.
        -24    2    5    5    0    0  0.12178846754E+03 -0.69626412294E+01  0.44256249935E+03  0.46571505045E+03  0.78409394759E+02 0.  0.
          5    1    3    3  501    0 -0.34227456490E+02 -0.70159593241E+01  0.11774742826E+03  0.12291171354E+03  0.47000000000E+01 0. -1.
        -13    1    4    4    0    0 -0.11198076959E+03  0.57105866514E+02  0.30446682256E+02  0.12933589297E+03  0.00000000000E+00 0.  1.
         14    1    4    4    0    0 -0.17331985684E+02 -0.23688581123E+02  0.71835564405E+01  0.30218373327E+02  0.00000000000E+00 0. -1.
         -5    1    5    5    0  502  0.41751744229E+02 -0.19438684837E+02  0.12607751883E+02  0.47980371215E+02  0.47000000000E+01 0.  1.
         11    1    6    6    0    0  0.60004396048E+02 -0.33783607824E+02  0.30330960393E+03  0.31102825521E+03  0.00000000000E+00 0. -1.
        -12    1    6    6    0    0  0.61784071489E+02  0.26820966594E+02  0.13925289542E+03  0.15468679524E+03  0.00000000000E+00 0.  1.
</event>
<event>
12    1  0.8724767E-002  0.2199554E+03  0.7818608E-02  0.1134128E+00
         21   -1    0    0  501  502  0.00000000000E+00  0.00000000000E+00  0.83469474406E+02  0.83469474406E+02  0.00000000000E+00 0. -1.
         21   -1    0    0  502  503 -0.00000000000E+00 -0.00000000000E+00 -0.11277013101E+04  0.11277013101E+04  0.00000000000E+00 0. -1.
         -6    2    1    2    0  503  0.10187754965E+03  0.92063600041E+02 -0.94475550500E+03  0.96976668729E+03  0.17038110800E+03 0.  0.
        -24    2    3    3    0    0  0.83966041130E+02 -0.67245000246E+01 -0.57499116757E+03  0.58658570382E+03  0.79827502658E+02 0.  0.
          6    2    1    2  501    0 -0.10187754965E+03 -0.92063600041E+02 -0.99476330723E+02  0.24140409725E+03  0.17183031229E+03 0.  0.
         24    2    5    5    0    0  0.15947884227E+02 -0.30002997989E+02 -0.26588083704E+02  0.89518819000E+02  0.78435820009E+02 0.  0.
          5    1    5    5  501    0 -0.11782543388E+03 -0.62060602052E+02 -0.72888247019E+02  0.15188527825E+03  0.47000000000E+01 0. -1.
        -11    1    6    6    0    0 -0.52988365053E+01  0.25501086684E+02 -0.83624729569E+01  0.27355329359E+02  0.00000000000E+00 0.  1.
         12    1    6    6    0    0  0.21246720733E+02 -0.55504084673E+02 -0.18225610747E+02  0.62163489641E+02  0.00000000000E+00 0. -1.
         -5    1    3    3    0  503  0.17911508523E+02  0.98788100065E+02 -0.36976433744E+03  0.38318098347E+03  0.47000000000E+01 0.  1.
         11    1    4    4    0    0  0.57366471230E+02  0.33689186809E+02 -0.37255127170E+03  0.37844461071E+03  0.00000000000E+00 0. -1.
        -12    1    4    4    0    0  0.26599569900E+02 -0.40413686833E+02 -0.20243989587E+03  0.20814109311E+03  0.00000000000E+00 0.  1.
</event>
<event>
12    1  0.8724767E-002  0.2286111E+03  0.7818608E-02  0.1127627E+00
         21   -1    0    0  503  502  0.00000000000E+00  0.00000000000E+00  0.12133918100E+03  0.12133918100E+03  0.00000000000E+00 0. -1.
         21   -1    0    0  501  503 -0.00000000000E+00 -0.00000000000E+00 -0.43255645696E+03  0.43255645696E+03  0.00000000000E+00 0. -1.
          6    2    1    2  501    0 -0.12995266724E+03 -0.73643558976E+02 -0.17397379866E+03  0.28725208168E+03  0.17301967029E+03 0.  0.
         24    2    3    3    0    0 -0.19774737686E+02  0.16793480683E+02 -0.86298239629E+02  0.11983903573E+03  0.78999665049E+02 0.  0.
         -6    2    1    2    0  502  0.12995266724E+03  0.73643558976E+02 -0.13724347729E+03  0.26664355627E+03  0.17306630100E+03 0.  0.
        -24    2    5    5    0    0  0.83905717774E+02  0.92035578268E+02 -0.15441250160E+03  0.21396098492E+03  0.80158376200E+02 0.  0.
          5    1    3    3  501    0 -0.11017792955E+03 -0.90437039659E+02 -0.87675559035E+02  0.16741304595E+03  0.47000000000E+01 0. -1.
        -11    1    4    4    0    0  0.69963715015E+01 -0.27270037256E+02 -0.47869644933E+02  0.55534737347E+02  0.00000000000E+00 0.  1.
         12    1    4    4    0    0 -0.26771109188E+02  0.44063517940E+02 -0.38428594695E+02  0.64304298384E+02  0.00000000000E+00 0. -1.
         -5    1    5    5    0  502  0.46046949466E+02 -0.18392019293E+02  0.17169024307E+02  0.52682571354E+02  0.47000000000E+01 0.  1.
         13    1    6    6    0    0  0.90512276533E+02  0.63292433617E+02 -0.87736662050E+02  0.14105362889E+03  0.00000000000E+00 0. -1.
        -14    1    6    6    0    0 -0.66065587588E+01  0.28743144651E+02 -0.66675839549E+02  0.72907356026E+02  0.00000000000E+00 0.  1.
</event>
<event>
12    1  0.8724767E-002  0.1962674E+03  0.7818608E-02  0.1153330E+00
         21   -1    0    0  503  502  0.00000000000E+00  0.00000000000E+00  0.63000643239E+03  0.63000643239E+03  0.00000000000E+00 0.  1.
         21   -1    0    0  501  503 -0.00000000000E+00 -0.00000000000E+00 -0.61067128852E+02  0.61067128852E+02  0.00000000000E+00 0. -1.
          6    2    1    2  501    0  0.78323868345E+02 -0.51592827550E+02  0.25186693168E+03  0.31817174639E+03  0.17029345472E+03 0.  0.
         24    2    3    3    0    0  0.43428678994E+02 -0.10349849638E+03  0.17513106585E+03  0.21906394750E+03  0.68703231059E+02 0.  0.
         -6    2    1    2    0  502 -0.78323868345E+02  0.51592827550E+02  0.31707237186E+03  0.37290181485E+03  0.17240773276E+03 0.  0.
        -24    2    5    5    0    0 -0.11632312000E+03  0.35249161663E+01  0.21106176301E+03  0.25036689566E+03  0.67771833077E+02 0.  0.
          5    1    3    3  501    0  0.34895189351E+02  0.51905668827E+02  0.76735865830E+02  0.99107798890E+02  0.47000000000E+01 0. -1.
        -13    1    4    4    0    0 -0.31904378370E+01 -0.76919273531E+02  0.90047966933E+02  0.11847105082E+03  0.00000000000E+00 0.  1.
         14    1    4    4    0    0  0.46619116831E+02 -0.26579222847E+02  0.85083098919E+02  0.10059289668E+03  0.00000000000E+00 0. -1.
         -5    1    5    5    0  502  0.37999251658E+02  0.48067911384E+02  0.10601060885E+03  0.12253491919E+03  0.47000000000E+01 0.  1.
         13    1    6    6    0    0 -0.47846760844E+01  0.21123109301E+02  0.37534173625E+02  0.43334663510E+02  0.00000000000E+00 0. -1.
        -14    1    6    6    0    0 -0.11153844392E+03 -0.17598193135E+02  0.17352758938E+03  0.20703223215E+03  0.00000000000E+00 0.  1.
</event>
<event>
12    1  0.8724767E-002  0.1779247E+03  0.7818608E-02  0.1170235E+00
         21   -1    0    0  503  502  0.00000000000E+00  0.00000000000E+00  0.46963875796E+03  0.46963875796E+03  0.00000000000E+00 0.  1.
         21   -1    0    0  501  503 -0.00000000000E+00 -0.00000000000E+00 -0.78682616383E+02  0.78682616383E+02  0.00000000000E+00 0.  1.
          6    2    1    2  501    0  0.23007288462E+01 -0.37465594203E+02  0.89631374380E+02  0.19922593872E+03  0.17392017504E+03 0.  0.
         24    2    3    3    0    0  0.71542224829E+01 -0.86693783518E+02  0.28316619103E+02  0.12030471066E+03  0.78130643735E+02 0.  0.
         -6    2    1    2    0  502 -0.23007288462E+01  0.37465594203E+02  0.30132476720E+03  0.34909543562E+03  0.17222672192E+03 0.  0.
        -24    2    5    5    0    0 -0.48362947599E+02 -0.19145262869E+02  0.11318939860E+03  0.14724518406E+03  0.78509798655E+02 0.  0.
          5    1    3    3  501    0 -0.48534936367E+01  0.49228189315E+02  0.61314755277E+02  0.78921228059E+02  0.47000000000E+01 0. -1.
        -13    1    4    4    0    0 -0.33947818274E+02 -0.33793889268E+02  0.86814553197E+00  0.47908610855E+02  0.00000000000E+00 0.  1.
         14    1    4    4    0    0  0.41102040757E+02 -0.52899894251E+02  0.27448473571E+02  0.72396099809E+02  0.00000000000E+00 0. -1.
         -5    1    5    5    0  502  0.46062218753E+02  0.56610857072E+02  0.18813536860E+03  0.20185025156E+03  0.47000000000E+01 0.  1.
         11    1    6    6    0    0 -0.19103274807E+02 -0.25449628344E+01  0.11193409692E+03  0.11358104594E+03  0.00000000000E+00 0. -1.
        -12    1    6    6    0    0 -0.29259672792E+02 -0.16600300035E+02  0.12553016759E+01  0.33664138121E+02  0.00000000000E+00 0.  1.
</event>
<event>
12    1  0.8724767E-002  0.2471011E+03  0.7818608E-02  0.1115214E+00
         21   -1    0    0  501  502  0.00000000000E+00  0.00000000000E+00  0.29918379614E+03  0.29918379614E+03  0.00000000000E+00 0. -1.
         21   -1    0    0  502  503 -0.00000000000E+00 -0.00000000000E+00 -0.25961361738E+03  0.25961361738E+03  0.00000000000E+00 0.  1.
         -6    2    1    2    0  503  0.20357883174E+02  0.17596522520E+03  0.14936773333E+03  0.28840055817E+03  0.17171475856E+03 0.  0.
        -24    2    3    3    0    0  0.14042271848E+02  0.11599686378E+03  0.17293833382E+03  0.22348711947E+03  0.79914751183E+02 0.  0.
          6    2    1    2  501    0 -0.20357883174E+02 -0.17596522520E+03 -0.10979755457E+03  0.27039685534E+03  0.17228102770E+03 0.  0.
         24    2    5    5    0    0 -0.51280618725E+02 -0.16210617721E+03 -0.13381390135E+03  0.22859776806E+03  0.73774418459E+02 0.  0.
          5    1    5    5  501    0  0.30922735551E+02 -0.13859047990E+02  0.24016346785E+02  0.41799087287E+02  0.47000000000E+01 0. -1.
        -13    1    6    6    0    0 -0.44565934357E+02 -0.13166970064E+03 -0.65824880975E+02  0.15380490086E+03  0.00000000000E+00 0.  1.
         14    1    6    6    0    0 -0.67146843678E+01 -0.30436476569E+02 -0.67989020380E+02  0.74792867202E+02  0.00000000000E+00 0. -1.
         -5    1    3    3    0  503  0.63156113256E+01  0.59968361419E+02 -0.23570600487E+02  0.64913438708E+02  0.47000000000E+01 0.  1.
         13    1    4    4    0    0  0.25599965388E+02  0.30718106926E+02  0.10950283358E+03  0.11657543001E+03  0.00000000000E+00 0. -1.
        -14    1    4    4    0    0 -0.11557693540E+02  0.85278756855E+02  0.63435500243E+02  0.10691168945E+03  0.00000000000E+00 0.  1.
</event>
<event>
12    1  0.8724767E-002  0.1776539E+03  0.7818608E-02  0.1170169E+00
         21   -1    0    0  501  502  0.00000000000E+00  0.00000000000E+00  0.20077139058E+03  0.20077139058E+03  0.00000000000E+00 0. -1.
         21   -1    0    0  502  503 -0.00000000000E+00 -0.00000000000E+00 -0.43864268356E+03  0.43864268356E+03  0.00000000000E+00 0. -1.
         -6    2    1    2    0  503 -0.54916716845E+01  0.43156750729E+02 -0.37518775263E+03  0.41512257351E+03  0.17224470303E+03 0.  0.
        -24    2    3    3    0    0 -0.11892803342E+02  0.57714791911E+02 -0.11119648874E+03  0.15061096987E+03  0.82743997730E+02 0.  0.
          6    2    1    2  501    0  0.54916716845E+01 -0.43156750729E+02  0.13731645965E+03  0.22429150064E+03  0.17192499404E+03 0.  0.
         24    2    5    5    0    0 -0.11342824255E+02  0.32273149621E+02  0.29959631481E+02  0.91925913435E+02  0.79891039510E+02 0.  0.
          5    1    5    5  501    0  0.16834495940E+02 -0.75429900350E+02  0.10735682817E+03  0.13236558720E+03  0.47000000000E+01 0. -1.
        -13    1    6    6    0    0 -0.33631314429E+02 -0.11108451655E+02  0.14842602746E+01  0.35449485708E+02  0.00000000000E+00 0.  1.
         14    1    6    6    0    0  0.22288490174E+02  0.43381601276E+02  0.28475371206E+02  0.56476427727E+02  0.00000000000E+00 0. -1.
         -5    1    3    3    0  503  0.64011316576E+01 -0.14558041182E+02 -0.26399126389E+03  0.26451160364E+03  0.47000000000E+01 0.  1.
         11    1    4    4    0    0 -0.16836737917E+02  0.33099731373E+02 -0.11872704607E+03  0.12439927423E+03  0.00000000000E+00 0. -1.
        -12    1    4    4    0    0  0.49439345745E+01  0.24615060538E+02  0.75305573334E+01  0.26211695636E+02  0.00000000000E+00 0.  1.
</event>
<event>
12    1  0.8724767E-002  0.2315146E+03  0.7818608E-02  0.1125651E+00
         21   -1    0    0  503  502  0.00000000000E+00  0.00000000000E+00  0.17432529826E+03  0.17432529826E+03  0.00000000000E+00 0. -1.
         21   -1    0    0  501  503 -0.00000000000E+00 -0.00000000000E+00 -0.36107804824E+03  0.36107804824E+03  0.00000000000E+00 0.  1.
          6    2    1    2  501    0 -0.75481020539E+02 -0.13414154380E+03 -0.19713504302E+03  0.30407439771E+03  0.17293835874E+03 0.  0.
         24    2    3    3    0    0 -0.91203586852E+02 -0.72245583459E+02 -0.19345486064E+03  0.23993437323E+03  0.81278544344E+02 0.  0.
         -6    2    1    2    0  502  0.75481020539E+02  0.13414154380E+03  0.10382293035E+02  0.23132894879E+03  0.17237735438E+03 0.  0.
        -24    2    5    5    0    0  0.52699704214E+02  0.96659295656E+02 -0.57669209526E+02  0.15023021698E+03  0.84398472182E+02 0.  0.
          5    1    3    3  501    0  0.15722566313E+02 -0.61895960338E+02 -0.36801823833E+01  0.64140024478E+02  0.47000000000E+01 0. -1.
        -11    1    4    4    0    0 -0.80838292491E+02 -0.13257413466E+02 -0.11656738557E+03  0.14247295857E+03  0.00000000000E+00 0.  1.
         12    1    4    4    0    0 -0.10365294361E+02 -0.58988169992E+02 -0.76887475067E+02  0.97461414664E+02  0.00000000000E+00 0. -1.
         -5    1    5    5    0  502  0.22781316325E+02  0.37482248141E+02  0.68051502560E+02  0.81098731803E+02  0.47000000000E+01 0.  1.
         13    1    6    6    0    0  0.61305104942E+02  0.30526724338E+02 -0.12325824475E+02  0.69585362971E+02  0.00000000000E+00 0. -1.
        -14    1    6    6    0    0 -0.86054007284E+01  0.66132571318E+02 -0.45343385051E+02  0.80644854012E+02  0.00000000000E+00 0.  1.
</event>
<event>
12    1  0.8724767E-002  0.2258108E+03  0.7818608E-02  0.1129761E+00
         21   -1    0    0  501  502  0.00000000000E+00  0.00000000000E+00  0.15100541072E+03  0.15100541072E+03  0.00000000000E+00 0.  1.
         21   -1    0    0  502  503 -0.00000000000E+00 -0.00000000000E+00 -0.33672768244E+03  0.33672768244E+03  0.00000000000E+00 0.  1.
         -6    2    1    2    0  503 -0.14434272335E+03 -0.15786168039E+02 -0.86899920727E+02  0.24124503079E+03  0.17194052394E+03 0.  0.
        -24    2    3    3    0    0 -0.10448032830E+03 -0.47329262357E+02  0.18533627540E+01  0.13885746970E+03  0.78241701540E+02 0.  0.
          6    2    1    2  501    0  0.14434272335E+03  0.15786168039E+02 -0.98822350986E+02  0.24648806237E+03  0.17293490957E+03 0.  0.
         24    2    5    5    0    0  0.11561946381E+03  0.29100806382E+02  0.19965315357E+01  0.14071073821E+03  0.74704808185E+02 0.  0.
          5    1    5    5  501    0  0.28723259545E+02 -0.13314638343E+02 -0.10081888252E+03  0.10577732416E+03  0.47000000000E+01 0. -1.
        -11    1    6    6    0    0  0.97806744070E+02 -0.91362064097E+01  0.54756508225E+01  0.98385020227E+02  0.00000000000E+00 0.  1.
         12    1    6    6    0    0  0.17812719737E+02  0.38237012791E+02 -0.34791192868E+01  0.42325717982E+02  0.00000000000E+00 0. -1.
         -5    1    3    3    0  503 -0.39862395050E+02  0.31543094317E+02 -0.88753283481E+02  0.10238756109E+03  0.47000000000E+01 0.  1.
         13    1    4    4    0    0 -0.58633595816E+00 -0.55899111572E+00  0.22967310922E+02  0.22981593328E+02  0.00000000000E+00 0. -1.
        -14    1    4    4    0    0 -0.10389399234E+03 -0.46770271241E+02 -0.21113948168E+02  0.11587587637E+03  0.00000000000E+00 0.  1.
</event>
<event>
12    1  0.8724767E-002  0.3000896E+03  0.7818608E-02  0.1085461E+00
         21   -1    0    0  503  502  0.00000000000E+00  0.00000000000E+00  0.67545931428E+03  0.67545931428E+03  0.00000000000E+00 0. -1.
         21   -1    0    0  501  503 -0.00000000000E+00 -0.00000000000E+00 -0.16121591695E+03  0.16121591695E+03  0.00000000000E+00 0.  1.
          6    2    1    2  501    0  0.12628068809E+03 -0.20816143280E+03  0.80957696306E+02  0.31081815986E+03  0.17543028706E+03 0.  0.
         24    2    3    3    0    0  0.21047968836E+01 -0.10529045310E+03  0.67040252771E+02  0.14889881063E+03  0.81153870088E+02 0.  0.
         -6    2    1    2    0  502 -0.12628068809E+03  0.20816143280E+03  0.43328570102E+03  0.52585707138E+03  0.17178814429E+03 0.  0.
        -24    2    5    5    0    0 -0.17805237837E+00  0.71272416977E+02  0.20170979086E+03  0.22872079027E+03  0.80910883364E+02 0.  0.
          5    1    3    3  501    0  0.12417589120E+03 -0.10287097970E+03  0.13917443534E+02  0.16191934923E+03  0.47000000000E+01 0. -1.
        -11    1    4    4    0    0  0.35806126584E+02 -0.71950935673E+02  0.21572187284E+02  0.83212830196E+02  0.00000000000E+00 0.  1.
         12    1    4    4    0    0 -0.33701329700E+02 -0.33339517428E+02  0.45468065487E+02  0.65685980430E+02  0.00000000000E+00 0. -1.
         -5    1    5    5    0  502 -0.12610263571E+03  0.13688901582E+03  0.23157591016E+03  0.29713628111E+03  0.47000000000E+01 0.  1.
         11    1    6    6    0    0 -0.36195221344E+02  0.54988452442E+02  0.14848203319E+03  0.16242148297E+03  0.00000000000E+00 0. -1.
        -12    1    6    6    0    0  0.36017168966E+02  0.16283964536E+02  0.53227757670E+02  0.66299307295E+02  0.00000000000E+00 0.  1.
</event>
<event>
12    1  0.8724767E-002  0.1915886E+03  0.7818608E-02  0.1157158E+00
         21   -1    0    0  503  502  0.00000000000E+00  0.00000000000E+00  0.24718629277E+03  0.24718629277E+03  0.00000000000E+00 0.  1.
         21   -1    0    0  501  503 -0.00000000000E+00 -0.00000000000E+00 -0.41096774854E+03  0.41096774854E+03  0.00000000000E+00 0.  1.
          6    2    1    2  501    0  0.80710268612E+02 -0.23442821093E+02 -0.34504673584E+03  0.39440552480E+03  0.17156559901E+03 0.  0.
         24    2    3    3    0    0  0.87632605811E+02  0.18122492876E+02 -0.32693522423E+03  0.34830009204E+03  0.80115010597E+02 0.  0.
         -6    2    1    2    0  502 -0.80710268612E+02  0.23442821093E+02  0.18126528006E+03  0.26374851651E+03  0.17216987217E+03 0.  0.
        -24    2    5    5    0    0 -0.27283041909E+02 -0.22653568846E+02  0.17125344106E+03  0.19232252237E+03  0.80016641883E+02 0.  0.
          5    1    3    3  501    0 -0.69223371991E+01 -0.41565313968E+02 -0.18111511603E+02  0.46105432762E+02  0.47000000000E+01 0. -1.
        -13    1    4    4    0    0  0.54370652406E+02  0.48067915126E+02 -0.16419805896E+03  0.17952073661E+03  0.00000000000E+00 0.  1.
         14    1    4    4    0    0  0.33261953405E+02 -0.29945422251E+02 -0.16273716528E+03  0.16877935543E+03  0.00000000000E+00 0. -1.
         -5    1    5    5    0  502 -0.53427226703E+02  0.46096389939E+02  0.10011839002E+02  0.71425994140E+02  0.47000000000E+01 0.  1.
         13    1    6    6    0    0 -0.40913025718E+02 -0.44190840045E+02  0.10103432367E+03  0.11762074892E+03  0.00000000000E+00 0. -1.
        -14    1    6    6    0    0  0.13629983809E+02  0.21537271198E+02  0.70219117387E+02  0.74701773446E+02  0.00000000000E+00 0.  1.
</event>
<event>
12    1  0.8724767E-002  0.1842950E+03  0.7818608E-02  0.1165246E+00
         21   -1    0    0  503  502  0.00000000000E+00  0.00000000000E+00  0.56223077477E+03  0.56223077477E+03  0.00000000000E+00 0. -1.
         21   -1    0    0  501  503 -0.00000000000E+00 -0.00000000000E+00 -0.73842593218E+02  0.73842593218E+02  0.00000000000E+00 0. -1.
          6    2    1    2  501    0 -0.59618230432E+02 -0.16902733935E+02  0.39339680809E+03  0.43442570906E+03  0.17356443258E+03 0.  0.
         24    2    3    3    0    0  0.93497519728E+01  0.14651097638E+02  0.87040067898E+02  0.11878545632E+03  0.78942629100E+02 0.  0.
         -6    2    1    2    0  502  0.59618230432E+02  0.16902733935E+02  0.94991373461E+02  0.20164765894E+03  0.16672846640E+03 0.  0.
        -24    2    5    5    0    0  0.79513715274E+02 -0.24475649967E+02  0.10324755981E+03  0.15476210056E+03  0.79810781245E+02 0.  0.
          5    1    3    3  501    0 -0.68967982405E+02 -0.31553831573E+02  0.30635674020E+03  0.31564025274E+03  0.47000000000E+01 0. -1.
        -13    1    4    4    0    0  0.42225122126E+02  0.19160685480E+02  0.60897048005E+02  0.76541121382E+02  0.00000000000E+00 0.  1.
         14    1    4    4    0    0 -0.32875370153E+02 -0.45095878416E+01  0.26143019892E+02  0.42244334937E+02  0.00000000000E+00 0. -1.
         -5    1    5    5    0  502 -0.19895484842E+02  0.41378383902E+02 -0.82561863526E+01  0.46885558379E+02  0.47000000000E+01 0.  1.
         13    1    6    6    0    0  0.35675648588E+02 -0.20235367246E+02 -0.15934236151E+01  0.41045840089E+02  0.00000000000E+00 0. -1.
        -14    1    6    6    0    0  0.43838066686E+02 -0.42402827211E+01  0.10484098343E+03  0.11371626047E+03  0.00000000000E+00 0.  1.
</event>
<event>
12    1  0.8724767E-002  0.2668683E+03  0.7818608E-02  0.1103601E+00
         21   -1    0    0  503  502  0.00000000000E+00  0.00000000000E+00  0.10592462307E+03  0.10592462307E+03  0.00000000000E+00 0.  1.
         21   -1    0    0  501  503 -0.00000000000E+00 -0.00000000000E+00 -0.66461422237E+03  0.66461422237E+03  0.00000000000E+00 0. -1.
          6    2    1    2  501    0  0.15432072414E+03  0.13346951616E+03 -0.29327176621E+03  0.39415428145E+03  0.16649405719E+03 0.  0.
         24    2    3    3    0    0  0.14974631890E+03  0.69982865071E+02 -0.15162832142E+03  0.23879522795E+03  0.81917346183E+02 0.  0.
         -6    2    1    2    0  502 -0.15432072414E+03 -0.13346951616E+03 -0.26541783309E+03  0.37638456400E+03  0.17201661622E+03 0.  0.
        -24    2    5    5    0    0 -0.82934446894E+02 -0.67078235399E+02 -0.57133512085E+02  0.14636662749E+03  0.82348887635E+02 0.  0.
          5    1    3    3  501    0  0.45744052367E+01  0.63486651091E+02 -0.14164344480E+03  0.15535905350E+03  0.47000000000E+01 0. -1.
        -11    1    4    4    0    0  0.25363968989E+02 -0.16895485716E+02 -0.40714432834E+02  0.50857186331E+02  0.00000000000E+00 0.  1.
         12    1    4    4    0    0  0.12438234992E+03  0.86878350788E+02 -0.11091388858E+03  0.18793804162E+03  0.00000000000E+00 0. -1.
         -5    1    5    5    0  502 -0.71386277248E+02 -0.66391280763E+02 -0.20828432100E+03  0.23001793651E+03  0.47000000000E+01 0.  1.
         11    1    6    6    0    0  0.56092170644E+01  0.10392272602E+02  0.55618135030E+01  0.13053597794E+02  0.00000000000E+00 0. -1.
        -12    1    6    6    0    0 -0.88543663958E+02 -0.77470508002E+02 -0.62695325588E+02  0.13331302970E+03  0.00000000000E+00 0.  1.
</event>
<event>
12    1  0.8724767E-002  0.1720090E+03  0.7818608E-02  0.1176130E+00
         21   -1    0    0  501  502  0.00000000000E+00  0.00000000000E+00  0.13485602960E+03  0.13485602960E+03  0.00000000000E+00 0.  1.
         21   -1    0    0  502  503 -0.00000000000E+00 -0.00000000000E+00 -0.22666071135E+03  0.22666071135E+03  0.00000000000E+00 0.  1.
         -6    2    1    2    0  503  0.12194712875E+02  0.17506645122E+02 -0.82190872387E+02  0.19063693730E+03  0.17068072156E+03 0.  0.
        -24    2    3    3    0    0  0.29222949887E+02 -0.33523527605E+01 -0.11811190355E+03  0.14549860405E+03  0.79713254565E+02 0.  0.
          6    2    1    2  501    0 -0.12194712875E+02 -0.17506645122E+02 -0.96138093595E+01  0.17087980366E+03  0.16926986832E+03 0.  0.
         24    2    5    5    0    0 -0.64373794488E+02 -0.83652404766E+01  0.26860395137E+02  0.10639197976E+03  0.79898747586E+02 0.  0.
          5    1    5    5  501    0  0.52179081613E+02 -0.91414046450E+01 -0.36474204497E+02  0.64487823894E+02  0.47000000000E+01 0. -1.
        -11    1    6    6    0    0 -0.39730370176E+01 -0.19237937096E+02 -0.20857932535E+02  0.28651991143E+02  0.00000000000E+00 0.  1.
         12    1    6    6    0    0 -0.60400757471E+02  0.10872696619E+02  0.47718327672E+02  0.77739988620E+02  0.00000000000E+00 0. -1.
         -5    1    3    3    0  503 -0.17028237012E+02  0.20858997882E+02  0.35921031160E+02  0.45138333243E+02  0.47000000000E+01 0.  1.
         13    1    4    4    0    0 -0.19081179810E+02 -0.16909202095E+02 -0.12113957443E+02  0.28226946406E+02  0.00000000000E+00 0. -1.
        -14    1    4    4    0    0  0.48304129697E+02  0.13556849334E+02 -0.10599794610E+03  0.11727165765E+03  0.00000000000E+00 0.  1.
</event>
<event>
12    1  0.8724767E-002  0.1985619E+03  0.7818608E-02  0.1151615E+00
         21   -1    0    0  503  502  0.00000000000E+00  0.00000000000E+00  0.58735993283E+02  0.58735993283E+02  0.00000000000E+00 0. -1.
         21   -1    0    0  501  503 -0.00000000000E+00 -0.00000000000E+00 -0.10927227620E+04  0.10927227620E+04  0.00000000000E+00 0. -1.
          6    2    1    2  501    0 -0.92502472231E+02 -0.14385667688E+02 -0.88131431286E+03  0.90340563928E+03  0.17510904096E+03 0.  0.
         24    2    3    3    0    0 -0.10154998780E+03  0.46136522618E+02 -0.65943099988E+03  0.67319033215E+03  0.76778909579E+02 0.  0.
         -6    2    1    2    0  502  0.92502472231E+02  0.14385667688E+02 -0.15267245589E+03  0.24805311604E+03  0.17163279053E+03 0.  0.
        -24    2    5    5    0    0  0.11495445614E+03  0.15500020134E+01 -0.66464696988E+02  0.15792701777E+03  0.85477818781E+02 0.  0.
          5    1    3    3  501    0  0.90475155681E+01 -0.60522190306E+02 -0.22188331298E+03  0.23021530713E+03  0.47000000000E+01 0. -1.
        -11    1    4    4    0    0  0.82065632955E+01  0.12371451723E+02 -0.16190033037E+03  0.16257957274E+03  0.00000000000E+00 0.  1.
         12    1    4    4    0    0 -0.10975655109E+03  0.33765070895E+02 -0.49753066951E+03  0.51061075941E+03  0.00000000000E+00 0. -1.
         -5    1    5    5    0  502 -0.22451983905E+02  0.12835665675E+02 -0.86207758901E+02  0.90126098270E+02  0.47000000000E+01 0.  1.
         11    1    6    6    0    0  0.73254552427E+01 -0.27984313141E+02 -0.19000660004E+01  0.28989555487E+02  0.00000000000E+00 0. -1.
        -12    1    6    6    0    0  0.10762900089E+03  0.29534315155E+02 -0.64564630988E+02  0.12893746228E+03  0.00000000000E+00 0.  1.
</event>
<event>
12    1  0.8724767E-002  0.1865244E+03  0.7818608E-02  0.1162283E+00
         21   -1    0    0  501  502  0.00000000000E+00  0.00000000000E+00  0.17035131429E+03  0.17035131429E+03  0.00000000000E+00 0.  1.
         21   -1    0    0  502  503 -0.00000000000E+00 -0.00000000000E+00 -0.38403683960E+03  0.38403683960E+03  0.00000000000E+00 0.  1.
         -6    2    1    2    0  503 -0.66352321067E+02  0.23047663249E+02 -0.29768550312E+03  0.34982194772E+03  0.16977900650E+03 0.  0.
        -24    2    3    3    0    0 -0.41574520391E+02  0.69214878744E+02 -0.12330769514E+03  0.16768172397E+03  0.79957693108E+02 0.  0.
          6    2    1    2  501    0  0.66352321067E+02 -0.23047663249E+02  0.83999977811E+02  0.20456620616E+03  0.17279326127E+03 0.  0.
         24    2    5    5    0    0  0.60220562185E+02  0.43928452016E+02  0.81625290197E+02  0.13710416036E+03  0.81108802117E+02 0.  0.
          5    1    5    5  501    0  0.61317588820E+01 -0.66976115265E+02  0.23746876146E+01  0.67462045805E+02  0.47000000000E+01 0. -1.
        -13    1    6    6    0    0 -0.15266882502E+02  0.85927631603E+01  0.40574142200E+02  0.44194731534E+02  0.00000000000E+00 0.  1.
         14    1    6    6    0    0  0.75487444687E+02  0.35335688856E+02  0.41051147997E+02  0.92909428822E+02  0.00000000000E+00 0. -1.
         -5    1    3    3    0  503 -0.24777800676E+02 -0.46167215495E+02 -0.17437780798E+03  0.18214022375E+03  0.47000000000E+01 0.  1.
         11    1    4    4    0    0  0.11538531386E+02  0.23455825522E+02 -0.35066367390E+00  0.26142616978E+02  0.00000000000E+00 0. -1.
        -12    1    4    4    0    0 -0.53113051777E+02  0.45759053222E+02 -0.12295703146E+03  0.14153910699E+03  0.00000000000E+00 0.  1.
</event>
<event>
12    1  0.8724767E-002  0.2286833E+03  0.7818608E-02  0.1127854E+00
         21   -1    0    0  503  502  0.00000000000E+00  0.00000000000E+00  0.10442297059E+03  0.10442297059E+03  0.00000000000E+00 0.  1.
         21   -1    0    0  501  503 -0.00000000000E+00 -0.00000000000E+00 -0.51470687924E+03  0.51470687924E+03  0.00000000000E+00 0.  1.
          6    2    1    2  501    0 -0.99087530596E+02  0.11050700635E+03 -0.26134140316E+03  0.34621978259E+03  0.17186818113E+03 0.  0.
         24    2    3    3    0    0 -0.26176043242E+02  0.79132581111E+01 -0.17282362025E+03  0.19227482471E+03  0.79710724554E+02 0.  0.
         -6    2    1    2    0  502  0.99087530596E+02 -0.11050700635E+03 -0.14894250550E+03  0.27291006724E+03  0.17397096795E+03 0.  0.
        -24    2    5    5    0    0  0.71034332286E+02 -0.13554009667E+03 -0.15777410111E+03  0.23400345306E+03  0.80299158737E+02 0.  0.
          5    1    3    3  501    0 -0.72911487354E+02  0.10259374824E+03 -0.88517782907E+02  0.15394495788E+03  0.47000000000E+01 0. -1.
        -13    1    4    4    0    0 -0.17640905642E+02  0.38051520368E+02 -0.48754499526E+02  0.64312681317E+02  0.00000000000E+00 0.  1.
         14    1    4    4    0    0 -0.85351376001E+01 -0.30138262257E+02 -0.12406912072E+03  0.12796214340E+03  0.00000000000E+00 0. -1.
         -5    1    5    5    0  502  0.28053198310E+02  0.25033090319E+02  0.88315956145E+01  0.38906614187E+02  0.47000000000E+01 0.  1.
         13    1    6    6    0    0  0.24286139912E+02 -0.40549766043E+02 -0.10619083694E+03  0.11623508063E+03  0.00000000000E+00 0. -1.
        -14    1    6    6    0    0  0.46748192373E+02 -0.94990330625E+02 -0.51583264166E+02  0.11776837243E+03  0.00000000000E+00 0.  1.
</event>
<event>
12    1  0.8724767E-002  0.2384893E+03  0.7818608E-02  0.1120919E+00
         21   -1    0    0  501  502  0.00000000000E+00  0.00000000000E+00  0.62899728423E+03  0.62899728423E+03  0.00000000000E+00 0.  1.
         21   -1    0    0  502  503 -0.00000000000E+00 -0.00000000000E+00 -0.11002471293E+03  0.11002471293E+03  0.00000000000E+00 0.  1.
         -6    2    1    2    0  503 -0.16478885274E+03 -0.16752943637E+02  0.41678673812E+03  0.48019613646E+03  0.17158414055E+03 0.  0.
        -24    2    3    3    0    0 -0.11123437833E+03 -0.28557336924E+02  0.13899228700E+03  0.19700137573E+03  0.79385627040E+02 0.  0.
          6    2    1    2  501    0  0.16478885274E+03  0.16752943637E+02  0.10218583317E+03  0.25882586070E+03  0.17062489430E+03 0.  0.
         24    2    5    5    0    0  0.15151147276E+03  0.32414375093E+02  0.18410034940E+02  0.17244273952E+03  0.73424457343E+02 0.  0.
          5    1    5    5  501    0  0.13277379984E+02 -0.15661431457E+02  0.83775798232E+02  0.86383121174E+02  0.47000000000E+01 0. -1.
        -13    1    6    6    0    0  0.10830065593E+03  0.14669810231E+02  0.45568539215E+02  0.11840915157E+03  0.00000000000E+00 0.  1.
         14    1    6    6    0    0  0.43210816826E+02  0.17744564862E+02 -0.27158504275E+02  0.54033587956E+02  0.00000000000E+00 0. -1.
         -5    1    3    3    0  503 -0.53554474419E+02  0.11804393287E+02  0.27779445112E+03  0.28319476073E+03  0.47000000000E+01 0.  1.
         13    1    4    4    0    0 -0.10756147322E+02 -0.98063457241E+01 -0.90218188783E+01  0.17124612041E+02  0.00000000000E+00 0. -1.
        -14    1    4    4    0    0 -0.10047823100E+03 -0.18750991200E+02  0.14801410588E+03  0.17987676369E+03  0.00000000000E+00 0.  1.
</event>
<event>
12    1  0.8724767E-002  0.1975912E+03  0.7818608E-02  0.1155442E+00
         21   -1    0    0  501  502  0.00000000000E+00  0.00000000000E+00  0.18993417571E+03  0.18993417571E+03  0.00000000000E+00 0.  1.
         21   -1    0    0  502  503 -0.00000000000E+00 -0.00000000000E+00 -0.18895868531E+03  0.18895868531E+03  0.00000000000E+00 0. -1.
         -6    2    1    2    0  503  0.58868482727E+02 -0.56766736422E+01 -0.12279080087E-01  0.18129918363E+03  0.17138165290E+03 0.  0.
        -24    2    3    3    0    0  0.51922850103E+02 -0.43472887759E+02  0.51420909137E+02  0.11692326838E+03  0.80256254955E+02 0.  0.
          6    2    1    2  501    0 -0.58868482727E+02  0.56766736422E+01  0.98776948451E+00  0.19759367739E+03  0.18853265705E+03 0.  0.
         24    2    5    5    0    0 -0.10743952284E+03  0.20500721542E+02  0.30892699220E+02  0.13847267303E+03  0.79099884061E+02 0.  0.
          5    1    5    5  501    0  0.48571040116E+02 -0.14824047900E+02 -0.29904929735E+02  0.59121004360E+02  0.47000000000E+01 0. -1.
        -11    1    6    6    0    0 -0.43471737318E+02 -0.11463216039E+02  0.47139698593E+02  0.65140989023E+02  0.00000000000E+00 0.  1.
         12    1    6    6    0    0 -0.63967785525E+02  0.31963937581E+02 -0.16246999373E+02  0.73331684007E+02  0.00000000000E+00 0. -1.
         -5    1    3    3    0  503  0.69456326245E+01  0.37796214117E+02 -0.51433188218E+02  0.64375915251E+02  0.47000000000E+01 0.  1.
         13    1    4    4    0    0 -0.13741166324E+02 -0.28077067701E+01 -0.10832969741E+02  0.17721628104E+02  0.00000000000E+00 0. -1.
        -14    1    4    4    0    0  0.65664016427E+02 -0.40665180989E+02  0.62253878878E+02  0.99201640277E+02  0.00000000000E+00 0.  1.
</event>
<event>
12    1  0.8724767E-002  0.2119484E+03  0.7818608E-02  0.1140390E+00
         21   -1    0    0  503  502  0.00000000000E+00  0.00000000000E+00  0.22816692772E+03  0.22816692772E+03  0.00000000000E+00 0. -1.
         21   -1    0    0  501  503 -0.00000000000E+00 -0.00000000000E+00 -0.19531704801E+03  0.19531704801E+03  0.00000000000E+00 0.  1.
          6    2    1    2  501    0  0.72914261629E+02  0.97879101979E+02  0.21616485902E+02  0.21123811323E+03  0.17104812148E+03 0.  0.
         24    2    3    3    0    0  0.52771620241E+02  0.19799707311E+02  0.66501362177E+02  0.11883216108E+03  0.80757532298E+02 0.  0.
         -6    2    1    2    0  502 -0.72914261629E+02 -0.97879101979E+02  0.11233393817E+02  0.21224586251E+03  0.17327812574E+03 0.  0.
        -24    2    5    5    0    0 -0.72055024534E+02 -0.10566439094E+03  0.58263312256E+02  0.16433707165E+03  0.85177282717E+02 0.  0.
          5    1    3    3  501    0  0.20142641387E+02  0.78079394668E+02 -0.44884876276E+02  0.92405952146E+02  0.47000000000E+01 0. -1.
        -13    1    4    4    0    0  0.53465974405E+02  0.28885336197E+02  0.99834792373E+01  0.61584437352E+02  0.00000000000E+00 0.  1.
         14    1    4    4    0    0 -0.69435416393E+00 -0.90856288855E+01  0.56517882940E+02  0.57247723727E+02  0.00000000000E+00 0. -1.
         -5    1    5    5    0  502 -0.85923709482E+00  0.77852889615E+01 -0.47029918439E+02  0.47908790852E+02  0.47000000000E+01 0.  1.
         11    1    6    6    0    0 -0.55048635587E+02 -0.17871475646E+02  0.46295526283E+02  0.74114895099E+02  0.00000000000E+00 0. -1.
        -12    1    6    6    0    0 -0.17006388947E+02 -0.87792915295E+02  0.11967785973E+02  0.90222176553E+02  0.00000000000E+00 0.  1.
</event>
<event>
12    1  0.8724767E-002  0.1853727E+03  0.7818608E-02  0.1162940E+00
         21   -1    0    0  501  502  0.00000000000E+00  0.00000000000E+00  0.59558329679E+02  0.59558329679E+02  0.00000000000E+00 0.  1.
         21   -1    0    0  502  503 -0.00000000000E+00 -0.00000000000E+00 -0.14954512785E+04  0.14954512785E+04  0.00000000000E+00 0.  1.
         -6    2    1    2    0  503 -0.37407306985E+01 -0.69630432062E+02 -0.13275669980E+04  0.13403062116E+04  0.17065818642E+03 0.  0.
        -24    2    3    3    0    0  0.55073204157E+02 -0.13724386195E+02 -0.87962613688E+03  0.88505060215E+03  0.79693231083E+02 0.  0.
          6    2    1    2  501    0  0.37407306985E+01  0.69630432062E+02 -0.10832595088E+03  0.21470339662E+03  0.17175752312E+03 0.  0.
         24    2    5    5    0    0  0.49931290552E+02  0.88081170524E+02 -0.51585941887E+02  0.13910236362E+03  0.80230491637E+02 0.  0.
          5    1    5    5  501    0 -0.46190559853E+02 -0.18450738461E+02 -0.56740008994E+02  0.75601032995E+02  0.47000000000E+01 0. -1.
        -11    1    6    6    0    0 -0.14130405391E+02  0.53857516574E+02 -0.30432988739E+02  0.63454450211E+02  0.00000000000E+00 0.  1.
         12    1    6    6    0    0  0.64061695943E+02  0.34223653950E+02 -0.21152953148E+02  0.75647913412E+02  0.00000000000E+00 0. -1.
         -5    1    3    3    0  503 -0.58813934855E+02 -0.55906045868E+02 -0.44794086107E+03  0.45525560942E+03  0.47000000000E+01 0.  1.
         11    1    4    4    0    0  0.56876804432E+02 -0.11929534140E+02 -0.88045780721E+03  0.88237363682E+03  0.00000000000E+00 0. -1.
        -12    1    4    4    0    0 -0.18036002754E+01 -0.17948520542E+01  0.83167032867E+00  0.26769653314E+01  0.00000000000E+00 0.  1.
</event>
<event>
12    1  0.8724767E-002  0.1750086E+03  0.7818608E-02  0.1172864E+00
         21   -1    0    0  503  502  0.00000000000E+00  0.00000000000E+00  0.29039713452E+03  0.29039713452E+03  0.00000000000E+00 0. -1.
         21   -1    0    0  501  503 -0.00000000000E+00 -0.00000000000E+00 -0.14057102682E+03  0.14057102682E+03  0.00000000000E+00 0. -1.
          6    2    1    2  501    0  0.72212274524E+01 -0.31901062043E+02 -0.33192529610E+02  0.17812847158E+03  0.17192493851E+03 0.  0.
         24    2    3    3    0    0  0.45342248767E+02 -0.10278048954E+02  0.33660499233E+02  0.98052355128E+02  0.79496398183E+02 0.  0.
         -6    2    1    2    0  502 -0.72212274524E+01  0.31901062043E+02  0.18301863731E+03  0.25283968976E+03  0.17135420401E+03 0.  0.
        -24    2    5    5    0    0  0.38727628447E+02 -0.33011804795E+02  0.10002888201E+03  0.13779897034E+03  0.79957304428E+02 0.  0.
          5    1    3    3  501    0 -0.38121021314E+02 -0.21623013088E+02 -0.66853028843E+02  0.80076116455E+02  0.47000000000E+01 0. -1.
        -13    1    4    4    0    0 -0.26908895000E+01  0.29497841645E+02  0.13082247129E+02  0.32380684643E+02  0.00000000000E+00 0.  1.
         14    1    4    4    0    0  0.48033138267E+02 -0.39775890599E+02  0.20578252103E+02  0.65671670485E+02  0.00000000000E+00 0. -1.
         -5    1    5    5    0  502 -0.45948855899E+02  0.64912866837E+02  0.82989755306E+02  0.11504071942E+03  0.47000000000E+01 0.  1.
         13    1    6    6    0    0  0.55447388955E+02 -0.13389598135E+02  0.96054908704E+02  0.11171499347E+03  0.00000000000E+00 0. -1.
        -14    1    6    6    0    0 -0.16719760508E+02 -0.19622206660E+02  0.39739733016E+01  0.26083976872E+02  0.00000000000E+00 0.  1.
</event>
<event>
12    1  0.8724767E-002  0.2497001E+03  0.7818608E-02  0.1113593E+00
         21   -1    0    0  501  502  0.00000000000E+00  0.00000000000E+00  0.36935126941E+03  0.36935126941E+03  0.00000000000E+00 0. -1.
         21   -1    0    0  502  503 -0.00000000000E+00 -0.00000000000E+00 -0.50535857338E+03  0.50535857338E+03  0.00000000000E+00 0. -1.
         -6    2    1    2    0  503 -0.16161175069E+03  0.80791471550E+02 -0.42510824404E+03  0.49270264229E+03  0.17144461128E+03 0.  0.
        -24    2    3    3    0    0 -0.62401764034E+02  0.58907789699E+02 -0.10687927465E+03  0.15861689889E+03  0.79825017528E+02 0.  0.
          6    2    1    2  501    0  0.16161175069E+03 -0.80791471550E+02  0.28910094007E+03  0.38200720050E+03  0.17235001551E+03 0.  0.
         24    2    5    5    0    0  0.40714475858E+02 -0.85328685715E+02  0.10784283782E+03  0.16403168122E+03  0.79609431749E+02 0.  0.
          5    1    5    5  501    0  0.12089727483E+03  0.45372141651E+01  0.18125810225E+03  0.21797551928E+03  0.47000000000E+01 0. -1.
        -13    1    6    6    0    0  0.29093241860E+01 -0.10681315845E+02  0.72263779203E+02  0.73106829093E+02  0.00000000000E+00 0.  1.
         14    1    6    6    0    0  0.37805151672E+02 -0.74647369871E+02  0.35579058618E+02  0.90924852124E+02  0.00000000000E+00 0. -1.
         -5    1    3    3    0  503 -0.99209986657E+02  0.21883681851E+02 -0.31822896939E+03  0.33408574340E+03  0.47000000000E+01 0.  1.
         13    1    4    4    0    0 -0.21271919904E+02 -0.19007200054E+02 -0.33134680461E+02  0.43722708969E+02  0.00000000000E+00 0. -1.
        -14    1    4    4    0    0 -0.41129844129E+02  0.77914989754E+02 -0.73744594186E+02  0.11489418992E+03  0.00000000000E+00 0.  1.
</event>
<event>
12    1  0.8724767E-002  0.2758682E+03  0.7818608E-02  0.1098067E+00
         21   -1    0    0  501  502  0.00000000000E+00  0.00000000000E+00  0.16277473324E+03  0.16277473324E+03  0.00000000000E+00 0. -1.
         21   -1    0    0  502  503 -0.00000000000E+00 -0.00000000000E+00 -0.74252108811E+03  0.74252108811E+03  0.00000000000E+00 0.  1.
         -6    2    1    2    0  503  0.20516441580E+03 -0.66260831584E+02 -0.56570308553E+03  0.62907036680E+03  0.17095791909E+03 0.  0.
        -24    2    3    3    0    0  0.13111595148E+03  0.13664817052E+02 -0.23419587403E+03  0.28008554528E+03  0.78880195886E+02 0.  0.
          6    2    1    2  501    0 -0.20516441580E+03  0.66260831584E+02 -0.14043269344E+02  0.27622545456E+03  0.17210564494E+03 0.  0.
         24    2    5    5    0    0 -0.95888038661E+02 -0.31472559186E+02  0.32466190387E+01  0.12852923757E+03  0.79524753604E+02 0.  0.
          5    1    5    5  501    0 -0.10927637714E+03  0.97733390770E+02 -0.17289888383E+02  0.14769621699E+03  0.47000000000E+01 0. -1.
        -13    1    6    6    0    0 -0.33043751917E+01 -0.23894993298E+02  0.23254032672E+02  0.33505814952E+02  0.00000000000E+00 0.  1.
         14    1    6    6    0    0 -0.92583663470E+02 -0.75775658880E+01 -0.20007413633E+02  0.95023422621E+02  0.00000000000E+00 0. -1.
         -5    1    3    3    0  503  0.74048464317E+02 -0.79925648636E+02 -0.33150721150E+03  0.34898482152E+03  0.47000000000E+01 0.  1.
         13    1    4    4    0    0  0.51114834911E+02 -0.10851802338E+01 -0.27710067009E+02  0.58152831210E+02  0.00000000000E+00 0. -1.
        -14    1    4    4    0    0  0.80001116571E+02  0.14749997286E+02 -0.20648580702E+03  0.22193271407E+03  0.00000000000E+00 0.  1.
</event>
<event>
12    1  0.8724767E-002  0.1920496E+03  0.7818608E-02  0.1157540E+00
         21   -1    0    0  503  502  0.00000000000E+00  0.00000000000E+00  0.59470767640E+03  0.59470767640E+03  0.00000000000E+00 0.  1.
         21   -1    0    0  501  503 -0.00000000000E+00 -0.00000000000E+00 -0.16953235384E+03  0.16953235384E+03  0.00000000000E+00 0.  1.
          6    2    1    2  501    0 -0.60793421893E+02  0.53029225364E+02 -0.94363702989E+02  0.21034127118E+03  0.16979694647E+03 0.  0.
         24    2    3    3    0    0 -0.41849120281E+02 -0.34891855248E+02 -0.60850043447E+02  0.11424622263E+03  0.79879166034E+02 0.  0.
         -6    2    1    2    0  502  0.60793421893E+02 -0.53029225364E+02  0.51953902554E+03  0.55389875906E+03  0.17428452983E+03 0.  0.
        -24    2    5    5    0    0  0.30914326896E+01 -0.11523684936E+02  0.43999471412E+03  0.44712040487E+03  0.78606333874E+02 0.  0.
          5    1    3    3  501    0 -0.18944301612E+02  0.87921080613E+02 -0.33513659542E+02  0.96095048549E+02  0.47000000000E+01 0. -1.
        -13    1    4    4    0    0 -0.78411432858E+01  0.25800578465E+02 -0.14129362136E+02  0.30443262827E+02  0.00000000000E+00 0.  1.
         14    1    4    4    0    0 -0.34007976995E+02 -0.60692433713E+02 -0.46720681311E+02  0.83802959802E+02  0.00000000000E+00 0. -1.
         -5    1    5    5    0  502  0.57701989204E+02 -0.41505540428E+02  0.79544311423E+02  0.10677835419E+03  0.47000000000E+01 0.  1.
         13    1    6    6    0    0 -0.21949445594E+02  0.23918572896E+02  0.12483496272E+03  0.12898699240E+03  0.00000000000E+00 0. -1.
        -14    1    6    6    0    0  0.25040878284E+02 -0.35442257832E+02  0.31515975140E+03  0.31813341247E+03  0.00000000000E+00 0.  1.
</event>
<event>
12    1  0.8724767E-002  0.1785665E+03  0.7818608E-02  0.1169365E+00
         21   -1    0    0  503  502  0.00000000000E+00  0.00000000000E+00  0.13584708289E+04  0.13584708289E+04  0.00000000000E+00 0.  1.
         21   -1    0    0  501  503 -0.00000000000E+00 -0.00000000000E+00 -0.26148400892E+02  0.26148400892E+02  0.00000000000E+00 0.  1.
          6    2    1    2  501    0  0.11365135909E+02  0.46460676871E+02  0.44213558442E+03  0.47683317048E+03  0.17204138061E+03 0.  0.
         24    2    3    3    0    0 -0.54837774082E+02  0.34333279424E+02  0.32877197032E+03  0.34491161021E+03  0.81774414383E+02 0.  0.
         -6    2    1    2    0  502 -0.11365135909E+02 -0.46460676871E+02  0.89018684357E+03  0.90778605931E+03  0.17133345321E+03 0.  0.
        -24    2    5    5    0    0  0.50476073302E+02 -0.40957892848E+02  0.70330798862E+03  0.71080785692E+03  0.79876777790E+02 0.  0.
          5    1    3    3  501    0  0.66202909991E+02  0.12127397447E+02  0.11336361410E+03  0.13192156027E+03  0.47000000000E+01 0. -1.
        -13    1    4    4    0    0  0.71629106812E+01 -0.26058344317E+01 -0.67520503024E+00  0.76520300800E+01  0.00000000000E+00 0.  1.
         14    1    4    4    0    0 -0.62000684763E+02  0.36939113856E+02  0.32944717535E+03  0.33725958013E+03  0.00000000000E+00 0. -1.
         -5    1    5    5    0  502 -0.61841209212E+02 -0.55027840227E+01  0.18687885495E+03  0.19697820239E+03  0.47000000000E+01 0.  1.
         11    1    6    6    0    0  0.96014297046E+01 -0.78161363445E+01  0.11177445957E+02  0.16679770317E+02  0.00000000000E+00 0. -1.
        -12    1    6    6    0    0  0.40874643598E+02 -0.33141756504E+02  0.69213054267E+03  0.69412808660E+03  0.00000000000E+00 0.  1.
</event>
<event>
12    1  0.8724767E-002  0.1807849E+03  0.7818608E-02  0.1167485E+00
         21   -1    0    0  503  502  0.00000000000E+00  0.00000000000E+00  0.20058891585E+03  0.20058891585E+03  0.00000000000E+00 0. -1.
         21   -1    0    0  501  503 -0.00000000000E+00 -0.00000000000E+00 -0.16190494986E+03  0.16190494986E+03  0.00000000000E+00 0. -1.
          6    2    1    2  501    0 -0.40617395394E+02 -0.42054497874E+02  0.81870501628E+01  0.17915476730E+03  0.16914800991E+03 0.  0.
         24    2    3    3    0    0 -0.48294611873E+02 -0.81269738246E+02  0.40371158482E+02  0.12763116534E+03  0.75648820473E+02 0.  0.
         -6    2    1    2    0  502  0.40617395394E+02  0.42054497874E+02  0.30496915820E+02  0.18333909841E+03  0.17106960435E+03 0.  0.
        -24    2    5    5    0    0  0.51040085716E+02  0.55356396548E+02  0.76688947312E+02  0.13392890963E+03  0.79914561915E+02 0.  0.
          5    1    3    3  501    0  0.76772164790E+01  0.39215240372E+02 -0.32184108319E+02  0.51523601957E+02  0.47000000000E+01 0. -1.
        -13    1    4    4    0    0 -0.83002228503E+01 -0.78624826004E+02  0.15823226126E+02  0.80629594124E+02  0.00000000000E+00 0.  1.
         14    1    4    4    0    0 -0.39994389023E+02 -0.26449122421E+01  0.24547932356E+02  0.47001571219E+02  0.00000000000E+00 0. -1.
         -5    1    5    5    0  502 -0.10422690322E+02 -0.13301898674E+02 -0.46192031493E+02  0.49410188780E+02  0.47000000000E+01 0.  1.
         11    1    6    6    0    0  0.52674321788E+02  0.41758733980E+01  0.60273239054E+02  0.80155383104E+02  0.00000000000E+00 0. -1.
        -12    1    6    6    0    0 -0.16342360723E+01  0.51180523150E+02  0.16415708258E+02  0.53773526526E+02  0.00000000000E+00 0.  1.
</event>
<event>
12    1  0.8724767E-002  0.2526774E+03  0.7818608E-02  0.1111647E+00
         21   -1    0    0  501  502  0.00000000000E+00  0.00000000000E+00  0.21216880612E+04  0.21216880612E+04  0.00000000000E+00 0. -1.
         21   -1    0    0  502  503 -0.00000000000E+00 -0.00000000000E+00 -0.31895513282E+02  0.31895513282E+02  0.00000000000E+00 0. -1.
         -6    2    1    2    0  503  0.18447861266E+03 -0.26692488550E+01  0.78733409269E+03  0.82684174230E+03  0.17243204425E+03 0.  0.
        -24    2    3    3    0    0  0.13129102950E+03 -0.55724448279E+02  0.64957826281E+03  0.66986234285E+03  0.80131705854E+02 0.  0.
          6    2    1    2  501    0 -0.18447861266E+03  0.26692488550E+01  0.13024584553E+04  0.13267418322E+04  0.17264523809E+03 0.  0.
         24    2    5    5    0    0 -0.12871496678E+03 -0.39795281112E+02  0.57672629786E+03  0.59761764883E+03  0.79890077451E+02 0.  0.
          5    1    5    5  501    0 -0.55763645884E+02  0.42464529967E+02  0.72573215741E+03  0.72912418339E+03  0.47000000000E+01 0. -1.
        -13    1    6    6    0    0 -0.28105032664E+02 -0.22453763202E+02  0.30898245990E+03  0.31106948560E+03  0.00000000000E+00 0.  1.
         14    1    6    6    0    0 -0.10060993411E+03 -0.17341517910E+02  0.26774383796E+03  0.28654816323E+03  0.00000000000E+00 0. -1.
         -5    1    3    3    0  503  0.53187583163E+02  0.53055199424E+02  0.13775582988E+03  0.15697939946E+03  0.47000000000E+01 0.  1.
         13    1    4    4    0    0  0.80890461935E+02 -0.62729098925E+01  0.46907717124E+03  0.47604202421E+03  0.00000000000E+00 0. -1.
        -14    1    4    4    0    0  0.50400567563E+02 -0.49451538387E+02  0.18050109157E+03  0.19382031864E+03  0.00000000000E+00 0.  1.
</event>
<event>
12    1  0.8724767E-002  0.1824167E+03  0.7818608E-02  0.1165762E+00
         21   -1    0    0  501  502  0.00000000000E+00  0.00000000000E+00  0.62626968881E+02  0.62626968881E+02  0.00000000000E+00 0.  1.
         21   -1    0    0  502  503 -0.00000000000E+00 -0.00000000000E+00 -0.16771732997E+04  0.16771732997E+04  0.00000000000E+00 0.  1.
         -6    2    1    2    0  503 -0.32754553010E+02 -0.43310844655E+02 -0.15281649851E+04  0.15390139902E+04  0.17414692220E+03 0.  0.
        -24    2    3    3    0    0 -0.26265956919E+02 -0.87968741005E+02 -0.13388803999E+04  0.13443677116E+04  0.79343676311E+02 0.  0.
          6    2    1    2  501    0  0.32754553010E+02  0.43310844655E+02 -0.86381345754E+02  0.20078627836E+03  0.17292976226E+03 0.  0.
         24    2    5    5    0    0  0.15002873504E+02 -0.42618703520E+02 -0.56712443910E+02  0.10804285212E+03  0.80096919392E+02 0.  0.
          5    1    5    5  501    0  0.17751679506E+02  0.85929548176E+02 -0.29668901845E+02  0.92743426245E+02  0.47000000000E+01 0. -1.
        -11    1    6    6    0    0 -0.59210344098E+01  0.22008887973E+02 -0.69226746659E+01  0.23819597453E+02  0.00000000000E+00 0.  1.
         12    1    6    6    0    0  0.20923907914E+02 -0.64627591494E+02 -0.49789769244E+02  0.84223254663E+02  0.00000000000E+00 0. -1.
         -5    1    3    3    0  503 -0.64885960907E+01  0.44657896350E+02 -0.18928458520E+03  0.19464627862E+03  0.47000000000E+01 0.  1.
         11    1    4    4    0    0 -0.13581158439E+02 -0.49462924646E+02 -0.27671499246E+03  0.28142888237E+03  0.00000000000E+00 0. -1.
        -12    1    4    4    0    0 -0.12684798481E+02 -0.38505816360E+02 -0.10621654074E+04  0.10629388293E+04  0.00000000000E+00 0.  1.
</event>
<event>
12    1  0.8724767E-002  0.3389247E+03  0.7818608E-02  0.1067382E+00
         21   -1    0    0  503  502  0.00000000000E+00  0.00000000000E+00  0.83011081864E+03  0.83011081864E+03  0.00000000000E+00 0.  1.
         21   -1    0    0  501  503 -0.00000000000E+00 -0.00000000000E+00 -0.77270655504E+03  0.77270655504E+03  0.00000000000E+00 0. -1.
          6    2    1    2  501    0 -0.33207216436E+02 -0.28859412457E+03 -0.69767843625E+03  0.77564497972E+03  0.17458707337E+03 0.  0.
         24    2    3    3    0    0  0.61393158081E+00 -0.43495758318E+02 -0.13463381108E+03  0.16061781030E+03  0.76023417404E+02 0.  0.
         -6    2    1    2    0  502  0.33207216436E+02  0.28859412457E+03  0.75508269985E+03  0.82717239396E+03  0.17226432525E+03 0.  0.
        -24    2    5    5    0    0  0.53507493947E+01  0.29019322906E+03  0.62154234108E+03  0.69066723907E+03  0.80409033420E+02 0.  0.
          5    1    3    3  501    0 -0.33821148017E+02 -0.24509836625E+03 -0.56304462517E+03  0.61502716942E+03  0.47000000000E+01 0. -1.
        -11    1    4    4    0    0  0.10322987054E+02 -0.24124848466E+02 -0.21001292214E+01  0.26324568714E+02  0.00000000000E+00 0.  1.
         12    1    4    4    0    0 -0.97090554732E+01 -0.19370909852E+02 -0.13253368186E+03  0.13429324158E+03  0.00000000000E+00 0. -1.
         -5    1    5    5    0  502  0.27856467042E+02 -0.15991044910E+01  0.13354035877E+03  0.13650515489E+03  0.47000000000E+01 0.  1.
         13    1    6    6    0    0 -0.16434915485E+02  0.52182850915E+02  0.64900061659E+02  0.84883298593E+02  0.00000000000E+00 0. -1.
        -14    1    6    6    0    0  0.21785664879E+02  0.23801037814E+03  0.55664227942E+03  0.60578394048E+03  0.00000000000E+00 0.  1.
</event>
<event>
12    1  0.8724767E-002  0.1799117E+03  0.7818608E-02  0.1167926E+00
         21   -1    0    0  501  502  0.00000000000E+00  0.00000000000E+00  0.20530520910E+03  0.20530520910E+03  0.00000000000E+00 0.  1.
         21   -1    0    0  502  503 -0.00000000000E+00 -0.00000000000E+00 -0.15752983129E+03  0.15752983129E+03  0.00000000000E+00 0.  1.
         -6    2    1    2    0  503  0.30520917569E+02 -0.42608214675E+02  0.22882285250E+02  0.18136098247E+03  0.17210816546E+03 0.  0.
        -24    2    3    3    0    0  0.40670539698E+02 -0.64421528160E+02  0.67482729207E+02  0.13046771105E+03  0.81631359144E+02 0.  0.
          6    2    1    2  501    0 -0.30520917569E+02  0.42608214675E+02  0.24893092561E+02  0.18147405792E+03  0.17194819358E+03 0.  0.
         24    2    5    5    0    0 -0.51296821750E+02  0.85404863846E+02  0.35954962038E+02  0.13240628509E+03  0.79456342383E+02 0.  0.
          5    1    5    5  501    0  0.20775904181E+02 -0.42796649170E+02 -0.11061869476E+02  0.49067772836E+02  0.47000000000E+01 0. -1.
        -13    1    6    6    0    0 -0.66628207832E+02  0.60135805911E+02  0.54306234631E+01  0.89917322595E+02  0.00000000000E+00 0.  1.
         14    1    6    6    0    0  0.15331386082E+02  0.25269057934E+02  0.30524338575E+02  0.42488962490E+02  0.00000000000E+00 0. -1.
         -5    1    3    3    0  503 -0.10149622129E+02  0.21813313485E+02 -0.44600443956E+02  0.50893271418E+02  0.47000000000E+01 0.  1.
         13    1    4    4    0    0  0.56616517006E+01 -0.12598875043E+02 -0.19155151327E+02  0.23615795025E+02  0.00000000000E+00 0. -1.
        -14    1    4    4    0    0  0.35008887998E+02 -0.51822653118E+02  0.86637880533E+02  0.10685191603E+03  0.00000000000E+00 0.  1.
</event>
<event>
12    1  0.8724767E-002  0.1757747E+03  0.7818608E-02  0.1172231E+00
         21   -1    0    0  501  502  0.00000000000E+00  0.00000000000E+00  0.11608898050E+03  0.11608898050E+03  0.00000000000E+00 0.  1.
         21   -1    0    0  502  503 -0.00000000000E+00 -0.00000000000E+00 -0.66754044668E+03  0.66754044668E+03  0.00000000000E+00 0.  1.
         -6    2    1    2    0  503  0.32108499870E+02 -0.44742749058E+01 -0.57983795453E+03  0.60557734810E+03  0.17164176680E+03 0.  0.
        -24    2    3    3    0    0  0.85589711885E+02 -0.60321218579E+01 -0.45908505151E+03  0.47341827533E+03  0.77484150790E+02 0.  0.
          6    2    1    2  501    0 -0.32108499870E+02  0.44742749058E+01  0.28386488352E+02  0.17805207908E+03  0.17275929857E+03 0.  0.
         24    2    5    5    0    0 -0.88449863773E+02  0.18598835610E+02  0.80635550208E+00  0.11358033155E+03  0.68778967846E+02 0.  0.
          5    1    5    5  501    0  0.56341363903E+02 -0.14124560704E+02  0.27580132850E+02  0.64471747530E+02  0.47000000000E+01 0. -1.
        -13    1    6    6    0    0 -0.72933794769E+02  0.25540143491E+02  0.27423982207E+02  0.81998244792E+02  0.00000000000E+00 0.  1.
         14    1    6    6    0    0 -0.15516069004E+02 -0.69413078815E+01 -0.26617626705E+02  0.31582086756E+02  0.00000000000E+00 0. -1.
         -5    1    3    3    0  503 -0.53481212015E+02  0.15578469520E+01 -0.12075290302E+03  0.13215907277E+03  0.47000000000E+01 0.  1.
         11    1    4    4    0    0  0.20269004425E+02  0.92002778132E+01 -0.22281872805E+02  0.31495388677E+02  0.00000000000E+00 0. -1.
        -12    1    4    4    0    0  0.65320707460E+02 -0.15232399671E+02 -0.43680317870E+03  0.44192288665E+03  0.00000000000E+00 0.  1.
</event>
<event>
12    1  0.8724767E-002  0.2339579E+03  0.7818608E-02  0.1124040E+00
         21   -1    0    0  503  502  0.00000000000E+00  0.00000000000E+00  0.27894862338E+03  0.27894862338E+03  0.00000000000E+00 0. -1.
         21   -1    0    0  501  503 -0.00000000000E+00 -0.00000000000E+00 -0.20148594303E+03  0.20148594303E+03  0.00000000000E+00 0.  1.
          6    2    1    2  501    0 -0.26367961057E+02 -0.15472972511E+03 -0.28521279255E+01  0.23307501341E+03  0.17227672519E+03 0.  0.
         24    2    3    3    0    0 -0.28836872272E+02 -0.83923690580E+02  0.64497817275E+02  0.13520931377E+03  0.79036947398E+02 0.  0.
         -6    2    1    2    0  502  0.26367961057E+02  0.15472972511E+03  0.80314808270E+02  0.24735955300E+03  0.17349271693E+03 0.  0.
        -24    2    5    5    0    0  0.74466116896E+02  0.14375070725E+03  0.81198957493E+02  0.19779300028E+03  0.79494225343E+02 0.  0.
          5    1    3    3  501    0  0.24689112145E+01 -0.70806034528E+02 -0.67349945201E+02  0.97865699643E+02  0.47000000000E+01 0. -1.
        -13    1    4    4    0    0  0.57382383273E+01  0.13235806340E+02  0.18511396852E+01  0.14544437655E+02  0.00000000000E+00 0.  1.
         14    1    4    4    0    0 -0.34575110599E+02 -0.97159496920E+02  0.62646677590E+02  0.12066487611E+03  0.00000000000E+00 0. -1.
         -5    1    5    5    0  502 -0.48098155839E+02  0.10979017862E+02 -0.88414922251E+00  0.49566552716E+02  0.47000000000E+01 0.  1.
         11    1    6    6    0    0  0.36984345047E+02  0.38496920966E+02  0.66230047035E+02  0.85066290813E+02  0.00000000000E+00 0. -1.
        -12    1    6    6    0    0  0.37481771849E+02  0.10525378628E+03  0.14968910458E+02  0.11272670947E+03  0.00000000000E+00 0.  1.
</event>
<event>
12    1  0.8724767E-002  0.3340132E+03  0.7818608E-02  0.1069473E+00
         21   -1    0    0  503  502  0.00000000000E+00  0.00000000000E+00  0.90892220434E+03  0.90892220434E+03  0.00000000000E+00 0. -1.
         21   -1    0    0  501  503 -0.00000000000E+00 -0.00000000000E+00 -0.15448698964E+03  0.15448698964E+03  0.00000000000E+00 0.  1.
          6    2    1    2  501    0 -0.19596411854E+03  0.20719033933E+03  0.61907991457E+03  0.70301235540E+03  0.17215300973E+03 0.  0.
         24    2    3    3    0    0 -0.30682897838E+02  0.11544095267E+03  0.24208330089E+03  0.28124895183E+03  0.78921445509E+02 0.  0.
         -6    2    1    2    0  502  0.19596411854E+03 -0.20719033933E+03  0.13535530013E+03  0.36039683858E+03  0.17388229213E+03 0.  0.
        -24    2    5    5    0    0  0.72144313720E+02 -0.26387002271E+02  0.70899326216E+02  0.13192834331E+03  0.80481658903E+02 0.  0.
          5    1    3    3  501    0 -0.16528122070E+03  0.91749386660E+02  0.37699661368E+03  0.42176340357E+03  0.47000000000E+01 0. -1.
        -13    1    4    4    0    0 -0.12861643235E+02  0.39429350366E+02  0.20400302625E+02  0.46219778063E+02  0.00000000000E+00 0.  1.
         14    1    4    4    0    0 -0.17821254603E+02  0.76011602303E+02  0.22168299827E+03  0.23502917377E+03  0.00000000000E+00 0. -1.
         -5    1    5    5    0  502  0.12381980482E+03 -0.18080333706E+03  0.64455973915E+02  0.22846849527E+03  0.47000000000E+01 0.  1.
         11    1    6    6    0    0 -0.17747109807E+01  0.20337634755E+02  0.27648972294E+02  0.34369094480E+02  0.00000000000E+00 0. -1.
        -12    1    6    6    0    0  0.73919024701E+02 -0.46724637026E+02  0.43250353922E+02  0.97559248830E+02  0.00000000000E+00 0.  1.
</event>
<event>
12    1  0.8724767E-002  0.1894506E+03  0.7818608E-02  0.1159576E+00
         21   -1    0    0  503  502  0.00000000000E+00  0.00000000000E+00  0.42779867014E+02  0.42779867014E+02  0.00000000000E+00 0.  1.
         21   -1    0    0  501  503 -0.00000000000E+00 -0.00000000000E+00 -0.13098966317E+04  0.13098966317E+04  0.00000000000E+00 0.  1.
          6    2    1    2  501    0 -0.34708504564E+02 -0.63471147301E+02 -0.10470686465E+04  0.10640696739E+04  0.17509498495E+03 0.  0.
         24    2    3    3    0    0  0.34035675484E+02 -0.34371143780E+02 -0.32966899065E+03  0.34278129287E+03  0.80483343721E+02 0.  0.
         -6    2    1    2    0  502  0.34708504564E+02  0.63471147301E+02 -0.22004811820E+03  0.28860682476E+03  0.17216114005E+03 0.  0.
        -24    2    5    5    0    0  0.82737283279E+02  0.26394871636E+02 -0.18114160242E+03  0.21637649337E+03  0.80401240436E+02 0.  0.
          5    1    3    3  501    0 -0.68744180048E+02 -0.29100003521E+02 -0.71739965583E+03  0.72128838108E+03  0.47000000000E+01 0. -1.
        -13    1    4    4    0    0 -0.18285550666E+02  0.13213181708E+02 -0.63996261166E+02  0.67856252307E+02  0.00000000000E+00 0.  1.
         14    1    4    4    0    0  0.52321226150E+02 -0.47584325488E+02 -0.26567272948E+03  0.27492504056E+03  0.00000000000E+00 0. -1.
         -5    1    5    5    0  502 -0.48028778715E+02  0.37076275666E+02 -0.38906515786E+02  0.72230331390E+02  0.47000000000E+01 0.  1.
         13    1    6    6    0    0 -0.11033866481E+02  0.12238915734E+02 -0.61714013254E+02  0.63876104294E+02  0.00000000000E+00 0. -1.
        -14    1    6    6    0    0  0.93771149760E+02  0.14155955902E+02 -0.11942758916E+03  0.15250038908E+03  0.00000000000E+00 0.  1.
</event>
<event>
12    1  0.8724767E-002  0.1833833E+03  0.7818608E-02  0.1165235E+00
         21   -1    0    0  501  502  0.00000000000E+00  0.00000000000E+00  0.36901060290E+03  0.36901060290E+03  0.00000000000E+00 0.  1.
         21   -1    0    0  502  503 -0.00000000000E+00 -0.00000000000E+00 -0.13010501241E+03  0.13010501241E+03  0.00000000000E+00 0.  1.
         -6    2    1    2    0  503 -0.15257164153E+02  0.58211382376E+02  0.25907494030E+03  0.31741025652E+03  0.17322846232E+03 0.  0.
        -24    2    3    3    0    0 -0.43960907390E+02  0.20565533887E+02  0.58680089246E+02  0.11144593652E+03  0.81371624848E+02 0.  0.
          6    2    1    2  501    0  0.15257164153E+02 -0.58211382376E+02 -0.20169349804E+02  0.18170535879E+03  0.17026064914E+03 0.  0.
         24    2    5    5    0    0  0.24042912441E+02 -0.32523063039E+01  0.46556168323E+02  0.94687692857E+02  0.78801289550E+02 0.  0.
          5    1    5    5  501    0 -0.87857482881E+01 -0.54959076072E+02 -0.66725518127E+02  0.87017665936E+02  0.47000000000E+01 0. -1.
        -11    1    6    6    0    0  0.14333206326E+02 -0.24950227102E+02 -0.12238915731E+02  0.31268925377E+02  0.00000000000E+00 0.  1.
         12    1    6    6    0    0  0.97097061153E+01  0.21697920798E+02  0.58795084053E+02  0.63418767480E+02  0.00000000000E+00 0. -1.
         -5    1    3    3    0  503  0.28703743237E+02  0.37645848488E+02  0.20039485105E+03  0.20596432000E+03  0.47000000000E+01 0.  1.
         13    1    4    4    0    0 -0.65266680381E+01 -0.15499865238E+02  0.57009034833E+02  0.59437978353E+02  0.00000000000E+00 0. -1.
        -14    1    4    4    0    0 -0.37434239352E+02  0.36065399125E+02  0.16710544128E+01  0.52007958168E+02  0.00000000000E+00 0.  1.
</event>
<event>
12    1  0.8724767E-002  0.2221986E+03  0.7818608E-02  0.1132400E+00
         21   -1    0    0  501  502  0.00000000000E+00  0.00000000000E+00  0.27611590721E+02  0.27611590721E+02  0.00000000000E+00 0.  1.
         21   -1    0    0  502  503 -0.00000000000E+00 -0.00000000000E+00 -0.19940401382E+04  0.19940401382E+04  0.00000000000E+00 0. -1.
         -6    2    1    2    0  503 -0.12067720382E+03  0.70387517393E+02 -0.65185247513E+03  0.68842914605E+03  0.17177208640E+03 0.  0.
        -24    2    3    3    0    0 -0.12948761417E+03  0.37795644019E+02 -0.62681501702E+03  0.64613472740E+03  0.79984170032E+02 0.  0.
          6    2    1    2  501    0  0.12067720382E+03 -0.70387517393E+02 -0.13145760723E+04  0.13332225829E+04  0.17278546050E+03 0.  0.
         24    2    5    5    0    0  0.11807630356E+03 -0.10706573749E+03 -0.11870803723E+04  0.12004472085E+04  0.80675922407E+02 0.  0.
          5    1    5    5  501    0  0.26009002680E+01  0.36678220099E+02 -0.12749569999E+03  0.13277537432E+03  0.47000000000E+01 0. -1.
        -11    1    6    6    0    0  0.63040164400E+01  0.25049179849E+01 -0.60476253425E+01  0.90878495625E+01  0.00000000000E+00 0.  1.
         12    1    6    6    0    0  0.11177228712E+03 -0.10957065548E+03 -0.11810327470E+04  0.11913593590E+04  0.00000000000E+00 0. -1.
         -5    1    3    3    0  503  0.88104103480E+01  0.32591873374E+02 -0.25037458114E+02  0.42294418655E+02  0.47000000000E+01 0.  1.
         13    1    4    4    0    0 -0.26620714110E+02  0.46487091028E+02 -0.21887318404E+03  0.22533349229E+03  0.00000000000E+00 0. -1.
        -14    1    4    4    0    0 -0.10286690006E+03 -0.86914470094E+01 -0.40794183298E+03  0.42080123511E+03  0.00000000000E+00 0.  1.
</event>
<event>
12    1  0.8724767E-002  0.1939024E+03  0.7818608E-02  0.1155245E+00
         21   -1    0    0  503  502  0.00000000000E+00  0.00000000000E+00  0.28976505467E+02  0.28976505467E+02  0.00000000000E+00 0.  1.
         21   -1    0    0  501  503 -0.00000000000E+00 -0.00000000000E+00 -0.24499797083E+04  0.24499797083E+04  0.00000000000E+00 0.  1.
          6    2    1    2  501    0  0.42255539982E+02 -0.74372701699E+02 -0.20615390573E+04  0.20705291997E+04  0.17271668397E+03 0.  0.
         24    2    3    3    0    0  0.85295086917E+02 -0.89170874760E+02 -0.14133084486E+04  0.14206858336E+04  0.75370883634E+02 0.  0.
         -6    2    1    2    0  502 -0.42255539982E+02  0.74372701699E+02 -0.35946414555E+03  0.40842701401E+03  0.17401529939E+03 0.  0.
        -24    2    5    5    0    0  0.11256162578E+02  0.10394165428E+03 -0.22732029993E+03  0.26274959228E+03  0.80201376494E+02 0.  0.
          5    1    3    3  501    0 -0.43039546934E+02  0.14798173061E+02 -0.64823060861E+03  0.64984336610E+03  0.47000000000E+01 0. -1.
        -13    1    4    4    0    0  0.86464110149E+02 -0.53408940248E+02 -0.81562323555E+03  0.82193054428E+03  0.00000000000E+00 0.  1.
         14    1    4    4    0    0 -0.11690232324E+01 -0.35761934512E+02 -0.59768521309E+03  0.59875528934E+03  0.00000000000E+00 0. -1.
         -5    1    5    5    0  502 -0.53511702560E+02 -0.29568952582E+02 -0.13214384562E+03  0.14567742173E+03  0.47000000000E+01 0.  1.
         11    1    6    6    0    0  0.30599480480E+02  0.16775535792E+02 -0.29431661123E+02  0.45650514599E+02  0.00000000000E+00 0. -1.
        -12    1    6    6    0    0 -0.19343317902E+02  0.87166118489E+02 -0.19788863881E+03  0.21709907768E+03  0.00000000000E+00 0.  1.
</event>
<event>
12    1  0.8724767E-002  0.2046343E+03  0.7818608E-02  0.1146728E+00
         21   -1    0    0  501  502  0.00000000000E+00  0.00000000000E+00  0.56216898344E+03  0.56216898344E+03  0.00000000000E+00 0. -1.
         21   -1    0    0  502  503 -0.00000000000E+00 -0.00000000000E+00 -0.74644072701E+02  0.74644072701E+02  0.00000000000E+00 0. -1.
         -6    2    1    2    0  503  0.10434133659E+03  0.16125085010E+02  0.19913510694E+03  0.28553453796E+03  0.17529417749E+03 0.  0.
        -24    2    3    3    0    0  0.34541531680E+02  0.60621850455E+02  0.55334896773E+02  0.11954488363E+03  0.79755264634E+02 0.  0.
          6    2    1    2  501    0 -0.10434133659E+03 -0.16125085010E+02  0.28838980379E+03  0.35127851818E+03  0.17053089314E+03 0.  0.
         24    2    5    5    0    0 -0.22155047744E+01  0.16034914740E+02  0.63481979701E+02  0.10214086457E+03  0.78363049433E+02 0.  0.
          5    1    5    5  501    0 -0.10212583181E+03 -0.32159999751E+02  0.22490782409E+03  0.24913765361E+03  0.47000000000E+01 0. -1.
        -13    1    6    6    0    0 -0.31158798036E+02  0.19810035997E+02  0.56396837028E+01  0.37351228273E+02  0.00000000000E+00 0.  1.
         14    1    6    6    0    0  0.28943293261E+02 -0.37751212569E+01  0.57842295998E+02  0.64789636298E+02  0.00000000000E+00 0. -1.
         -5    1    3    3    0  503  0.69799804908E+02 -0.44496765445E+02  0.14380021017E+03  0.16598965433E+03  0.47000000000E+01 0.  1.
         13    1    4    4    0    0  0.41475752726E+02 -0.37578459733E+00  0.85259413945E+01  0.42344668554E+02  0.00000000000E+00 0. -1.
        -14    1    4    4    0    0 -0.69342210459E+01  0.60997635053E+02  0.46808955379E+02  0.77200215072E+02  0.00000000000E+00 0.  1.
</event>
<event>
12    1  0.8724767E-002  0.1889121E+03  0.7818608E-02  0.1159470E+00
         21   -1    0    0  501  502  0.00000000000E+00  0.00000000000E+00  0.15747009134E+04  0.15747009134E+04  0.00000000000E+00 0.  1.
         21   -1    0    0  502  503 -0.00000000000E+00 -0.00000000000E+00 -0.24765019010E+02  0.24765019010E+02  0.00000000000E+00 0.  1.
         -6    2    1    2    0  503 -0.11472378650E+02 -0.75424099770E+02  0.54109570370E+03  0.57309061029E+03  0.17270748897E+03 0.  0.
        -24    2    3    3    0    0  0.24056018038E+02  0.19227130186E+02  0.29483714725E+03  0.30684544334E+03  0.79226309761E+02 0.  0.
          6    2    1    2  501    0  0.11472378650E+02  0.75424099770E+02  0.10088401907E+04  0.10263753221E+04  0.17282176136E+03 0.  0.
         24    2    5    5    0    0  0.14519285793E+02  0.94435299055E+02  0.44575742420E+03  0.46294386998E+03  0.80551288957E+02 0.  0.
          5    1    5    5  501    0 -0.30469071424E+01 -0.19011199285E+02  0.56308276650E+03  0.56343145215E+03  0.47000000000E+01 0. -1.
        -11    1    6    6    0    0 -0.99596543452E+01  0.17814732502E+01  0.39486046828E+01  0.10860931846E+02  0.00000000000E+00 0.  1.
         12    1    6    6    0    0  0.24478940138E+02  0.92653825805E+02  0.44180881952E+03  0.45208293813E+03  0.00000000000E+00 0. -1.
         -5    1    3    3    0  503 -0.35528396688E+02 -0.94651229957E+02  0.24625855645E+03  0.26624516696E+03  0.47000000000E+01 0.  1.
         11    1    4    4    0    0 -0.23184947490E+02  0.25700007559E+02  0.87525401575E+02  0.94120816505E+02  0.00000000000E+00 0. -1.
        -12    1    4    4    0    0  0.47240965528E+02 -0.64728773733E+01  0.20731174568E+03  0.21272462683E+03  0.00000000000E+00 0.  1.
</event>
<event>
12    1  0.8724767E-002  0.2505137E+03  0.7818608E-02  0.1113141E+00
         21   -1    0    0  503  502  0.00000000000E+00  0.00000000000E+00  0.12990881097E+04  0.12990881097E+04  0.00000000000E+00 0.  1.
         21   -1    0    0  501  503 -0.00000000000E+00 -0.00000000000E+00 -0.49045051174E+02  0.49045051174E+02  0.00000000000E+00 0. -1.
          6    2    1    2  501    0  0.16794040814E+03 -0.68427632481E+02  0.53081827634E+03  0.58652868230E+03  0.17135206764E+03 0.  0.
         24    2    3    3    0    0  0.18735479581E+03 -0.50927306161E+02  0.51379206587E+03  0.55498249849E+03  0.79547951860E+02 0.  0.
         -6    2    1    2    0  502 -0.16794040814E+03  0.68427632481E+02  0.71922478219E+03  0.76160447859E+03  0.17283163168E+03 0.  0.
        -24    2    5    5    0    0 -0.17892739251E+03  0.58844635387E+02  0.46544688107E+03  0.50736470838E+03  0.72804157184E+02 0.  0.
          5    1    3    3  501    0 -0.19414387672E+02 -0.17500326320E+02  0.17026210469E+02  0.31546183809E+02  0.47000000000E+01 0. -1.
        -11    1    4    4    0    0  0.13884503808E+03 -0.37763195881E+01  0.29685729637E+03  0.32774450353E+03  0.00000000000E+00 0.  1.
         12    1    4    4    0    0  0.48509757731E+02 -0.47150986573E+02  0.21693476951E+03  0.22723799496E+03  0.00000000000E+00 0. -1.
         -5    1    5    5    0  502  0.10986984368E+02  0.95829970936E+01  0.25377790112E+03  0.25423977021E+03  0.47000000000E+01 0.  1.
         13    1    6    6    0    0 -0.86906226816E+02  0.65975516523E+02  0.27030025508E+03  0.29149217646E+03  0.00000000000E+00 0. -1.
        -14    1    6    6    0    0 -0.92021165694E+02 -0.71308811355E+01  0.19514662600E+03  0.21587253192E+03  0.00000000000E+00 0.  1.
</event>
<event>
12    1  0.8724767E-002  0.1850033E+03  0.7818608E-02  0.1163379E+00
         21   -1    0    0  501  502  0.00000000000E+00  0.00000000000E+00  0.17916889372E+03  0.17916889372E+03  0.00000000000E+00 0. -1.
         21   -1    0    0  502  503 -0.00000000000E+00 -0.00000000000E+00 -0.28422358026E+03  0.28422358026E+03  0.00000000000E+00 0. -1.
         -6    2    1    2    0  503 -0.42143725251E+02  0.44176175924E+02 -0.18610076184E+03  0.26141552849E+03  0.17313854822E+03 0.  0.
        -24    2    3    3    0    0 -0.26288338951E+02 -0.28285764245E+02 -0.41318087587E+02  0.98669595172E+02  0.80853839895E+02 0.  0.
          6    2    1    2  501    0  0.42143725251E+02 -0.44176175924E+02  0.81046075301E+02  0.20197694549E+03  0.17463846109E+03 0.  0.
         24    2    5    5    0    0  0.28327508394E+02 -0.69693799551E+02 -0.47443406417E+01  0.11128999808E+03  0.81873570075E+02 0.  0.
          5    1    5    5  501    0  0.13816216857E+02  0.25517623627E+02  0.85790415943E+02  0.90686947415E+02  0.47000000000E+01 0. -1.
        -13    1    6    6    0    0  0.12221008642E+02 -0.17431417577E+01 -0.33549792438E+02  0.35748848486E+02  0.00000000000E+00 0.  1.
         14    1    6    6    0    0  0.16106499751E+02 -0.67950657794E+02  0.28805451796E+02  0.75541149594E+02  0.00000000000E+00 0. -1.
         -5    1    3    3    0  503 -0.15855386300E+02  0.72461940170E+02 -0.14478267425E+03  0.16274593332E+03  0.47000000000E+01 0.  1.
         13    1    4    4    0    0 -0.23596297548E+02  0.17132375582E+02 -0.44342556913E+02  0.53071328461E+02  0.00000000000E+00 0. -1.
        -14    1    4    4    0    0 -0.26920414037E+01 -0.45418139828E+02  0.30244693260E+01  0.45598266711E+02  0.00000000000E+00 0.  1.
</event>
<event>
12    1  0.8724767E-002  0.2466683E+03  0.7818608E-02  0.1117033E+00
         21   -1    0    0  503  502  0.00000000000E+00  0.00000000000E+00  0.78329795439E+02  0.78329795439E+02  0.00000000000E+00 0. -1.
         21   -1    0    0  501  503 -0.00000000000E+00 -0.00000000000E+00 -0.90011615711E+03  0.90011615711E+03  0.00000000000E+00 0.  1.
          6    2    1    2  501    0  0.98131247420E+02 -0.12887937342E+03 -0.60619188641E+03  0.65083909587E+03  0.17286784244E+03 0.  0.
         24    2    3    3    0    0  0.81583013303E+02 -0.33039563812E+02 -0.46080032965E+03  0.47585364523E+03  0.79701612527E+02 0.  0.
         -6    2    1    2    0  502 -0.98131247420E+02  0.12887937342E+03 -0.21559447526E+03  0.32760685668E+03  0.18602591262E+03 0.  0.
        -24    2    5    5    0    0 -0.10744446416E+03  0.67582115720E+02 -0.60404977831E+02  0.16042444157E+03  0.77301907245E+02 0.  0.
          5    1    3    3  501    0  0.16548234117E+02 -0.95839809606E+02 -0.14539155676E+03  0.17498545064E+03  0.47000000000E+01 0. -1.
        -13    1    4    4    0    0  0.10468748109E+02 -0.34724193957E+02 -0.72210965167E+02  0.80807102555E+02  0.00000000000E+00 0.  1.
         14    1    4    4    0    0  0.71114265194E+02  0.16846301449E+01 -0.38858936448E+03  0.39504654268E+03  0.00000000000E+00 0. -1.
         -5    1    5    5    0  502  0.93132167409E+01  0.61297257699E+02 -0.15518949743E+03  0.16718241510E+03  0.47000000000E+01 0.  1.
         11    1    6    6    0    0  0.19956230345E+01  0.11242544675E+02  0.12845847631E+02  0.17187004493E+02  0.00000000000E+00 0. -1.
        -12    1    6    6    0    0 -0.10944008720E+03  0.56339571045E+02 -0.73250825462E+02  0.14323743708E+03  0.00000000000E+00 0.  1.
</event>
<event>
12    1  0.8724767E-002  0.1882131E+03  0.7818608E-02  0.1160670E+00
         21   -1    0    0  503  502  0.00000000000E+00  0.00000000000E+00  0.99233512741E+03  0.99233512741E+03  0.00000000000E+00 0.  1.
         21   -1    0    0  501  503 -0.00000000000E+00 -0.00000000000E+00 -0.70497796639E+02  0.70497796639E+02  0.00000000000E+00 0.  1.
          6    2    1    2  501    0  0.66474086206E+02  0.25230023412E+02  0.83401432398E+02  0.20353151364E+03  0.17150486844E+03 0.  0.
         24    2    3    3    0    0  0.71044577741E+02  0.52855742873E+02 -0.40768137847E+00  0.11504350699E+03  0.73442363220E+02 0.  0.
         -6    2    1    2    0  502 -0.66474086206E+02 -0.25230023412E+02  0.83843589837E+03  0.85930141041E+03  0.17426646274E+03 0.  0.
        -24    2    5    5    0    0 -0.54551363913E+02 -0.63609870195E+02  0.33035211208E+03  0.34960896605E+03  0.77922039851E+02 0.  0.
          5    1    3    3  501    0 -0.45704915346E+01 -0.27625719461E+02  0.83809113776E+02  0.88488006648E+02  0.47000000000E+01 0. -1.
        -11    1    4    4    0    0  0.67063545583E+02  0.67175124187E+01  0.83455389372E+01  0.67913858228E+02  0.00000000000E+00 0.  1.
         12    1    4    4    0    0  0.39810321578E+01  0.46138230454E+02 -0.87532203157E+01  0.47129648762E+02  0.00000000000E+00 0. -1.
         -5    1    5    5    0  502 -0.11922722293E+02  0.38379846784E+02  0.50808378629E+03  0.50969244436E+03  0.47000000000E+01 0.  1.
         11    1    6    6    0    0  0.15423451024E+02  0.17637505309E+01  0.23524760369E+02  0.28185244506E+02  0.00000000000E+00 0. -1.
        -12    1    6    6    0    0 -0.69974814936E+02 -0.65373620726E+02  0.30682735171E+03  0.32142372154E+03  0.00000000000E+00 0.  1.
</event>
<event>
12    1  0.8724767E-002  0.1885581E+03  0.7818608E-02  0.1159995E+00
         21   -1    0    0  501  502  0.00000000000E+00  0.00000000000E+00  0.18570520235E+03  0.18570520235E+03  0.00000000000E+00 0.  1.
         21   -1    0    0  502  503 -0.00000000000E+00 -0.00000000000E+00 -0.20531894211E+03  0.20531894211E+03  0.00000000000E+00 0.  1.
         -6    2    1    2    0  503  0.40657484246E+02  0.64403560659E+02  0.42833686082E+02  0.19239419721E+03  0.17140581323E+03 0.  0.
        -24    2    3    3    0    0 -0.93428228673E+01  0.66626608803E+02  0.78375157885E+02  0.13082911886E+03  0.80294455783E+02 0.  0.
          6    2    1    2  501    0 -0.40657484246E+02 -0.64403560659E+02 -0.62447425849E+02  0.19862994725E+03  0.17249152239E+03 0.  0.
         24    2    5    5    0    0 -0.43589392971E+02  0.21854599233E+01  0.20088984258E+02  0.92436525867E+02  0.78969187733E+02 0.  0.
          5    1    5    5  501    0  0.29319087247E+01 -0.66589020583E+02 -0.82536410107E+02  0.10619342138E+03  0.47000000000E+01 0. -1.
        -11    1    6    6    0    0  0.49289029963E+01 -0.30465688496E+02  0.13142273578E+02  0.33543577852E+02  0.00000000000E+00 0.  1.
         12    1    6    6    0    0 -0.48518295967E+02  0.32651148419E+02  0.69467106798E+01  0.58892948015E+02  0.00000000000E+00 0. -1.
         -5    1    3    3    0  503  0.50000307114E+02 -0.22230481435E+01 -0.35541471802E+02  0.61565078351E+02  0.47000000000E+01 0.  1.
         13    1    4    4    0    0 -0.61763806815E+01 -0.67876753561E+01  0.51927161423E+02  0.52731871847E+02  0.00000000000E+00 0. -1.
        -14    1    4    4    0    0 -0.31664421859E+01  0.73414284159E+02  0.26447996462E+02  0.78097247016E+02  0.00000000000E+00 0.  1.
</event>
<event>
12    1  0.8724767E-002  0.2441330E+03  0.7818608E-02  0.1117094E+00
         21   -1    0    0  501  502  0.00000000000E+00  0.00000000000E+00  0.16914249128E+03  0.16914249128E+03  0.00000000000E+00 0. -1.
         21   -1    0    0  502  503 -0.00000000000E+00 -0.00000000000E+00 -0.39041055546E+03  0.39041055546E+03  0.00000000000E+00 0. -1.
         -6    2    1    2    0  503  0.11000874109E+03  0.13361535876E+03 -0.19817769277E+03  0.31433055776E+03  0.17197184193E+03 0.  0.
        -24    2    3    3    0    0  0.10254666956E+03  0.13335037168E+03 -0.22109323451E+03  0.28977521652E+03  0.82397310024E+02 0.  0.
          6    2    1    2  501    0 -0.11000874109E+03 -0.13361535876E+03 -0.23090371416E+02  0.24522248899E+03  0.17217989616E+03 0.  0.
         24    2    5    5    0    0 -0.26031318046E+02 -0.12854933931E+03  0.13713890402E+02  0.15327404788E+03  0.78117224778E+02 0.  0.
          5    1    5    5  501    0 -0.83977423046E+02 -0.50660194490E+01 -0.36804261817E+02  0.91948441109E+02  0.47000000000E+01 0. -1.
        -11    1    6    6    0    0 -0.76984989471E+01 -0.12353796277E+02 -0.25428274457E+02  0.29299834647E+02  0.00000000000E+00 0.  1.
         12    1    6    6    0    0 -0.18332819099E+02 -0.11619554303E+03  0.39142164858E+02  0.12397421323E+03  0.00000000000E+00 0. -1.
         -5    1    3    3    0  503  0.74620715288E+01  0.26498707627E+00  0.22915541743E+02  0.24555341232E+02  0.47000000000E+01 0.  1.
         11    1    4    4    0    0  0.95604334818E+02  0.76716794318E+02 -0.10916193175E+03  0.16414013132E+03  0.00000000000E+00 0. -1.
        -12    1    4    4    0    0  0.69423347446E+01  0.56633577364E+02 -0.11193130276E+03  0.12563508520E+03  0.00000000000E+00 0.  1.
</event>
<event>
12    1  0.8724767E-002  0.1955078E+03  0.7818608E-02  0.1153733E+00
         21   -1    0    0  501  502  0.00000000000E+00  0.00000000000E+00  0.28060607878E+03  0.28060607878E+03  0.00000000000E+00 0.  1.
         21   -1    0    0  502  503 -0.00000000000E+00 -0.00000000000E+00 -0.13617269942E+03  0.13617269942E+03  0.00000000000E+00 0.  1.
         -6    2    1    2    0  503 -0.70271428331E+02  0.56811036475E+02  0.60405903255E+02  0.20397859480E+03  0.17260598624E+03 0.  0.
        -24    2    3    3    0    0  0.28328020520E+02  0.25190393165E+02  0.31764022708E+02  0.96441793111E+02  0.82795130687E+02 0.  0.
          6    2    1    2  501    0  0.70271428331E+02 -0.56811036475E+02  0.84027476103E+02  0.21280018340E+03  0.17337166380E+03 0.  0.
         24    2    5    5    0    0  0.11766224877E+03 -0.39170703369E+02  0.66984730623E+02  0.15923138289E+03  0.74087315874E+02 0.  0.
          5    1    5    5  501    0 -0.47390820439E+02 -0.17640333106E+02  0.17042745479E+02  0.53568800504E+02  0.47000000000E+01 0. -1.
        -13    1    6    6    0    0  0.50247625904E+02 -0.62778703877E+01 -0.10141273005E+02  0.51643789402E+02  0.00000000000E+00 0.  1.
         14    1    6    6    0    0  0.67414622865E+02 -0.32892832981E+02  0.77126003628E+02  0.10758759349E+03  0.00000000000E+00 0. -1.
         -5    1    3    3    0  503 -0.98599448850E+02  0.31620643310E+02  0.28641880547E+02  0.10753680169E+03  0.47000000000E+01 0.  1.
         13    1    4    4    0    0 -0.14635089039E+02 -0.19998998497E+02  0.22369896427E+02  0.33384997202E+02  0.00000000000E+00 0. -1.
        -14    1    4    4    0    0  0.42963109559E+02  0.45189391662E+02  0.93941262809E+01  0.63056795909E+02  0.00000000000E+00 0.  1.
</event>
<event>
12    1  0.8724767E-002  0.1859740E+03  0.7818608E-02  0.1163309E+00
         21   -1    0    0  503  502  0.00000000000E+00  0.00000000000E+00  0.82730258133E+02  0.82730258133E+02  0.00000000000E+00 0.  1.
         21   -1    0    0  501  503 -0.00000000000E+00 -0.00000000000E+00 -0.41159678649E+03  0.41159678649E+03  0.00000000000E+00 0.  1.
          6    2    1    2  501    0  0.61163042949E+02  0.36106730616E+02 -0.13611258673E+03  0.22648305477E+03  0.16650322524E+03 0.  0.
         24    2    3    3    0    0  0.59134056047E+01  0.69071212675E+02 -0.42753751865E+02  0.11300556118E+03  0.78336280058E+02 0.  0.
         -6    2    1    2    0  502 -0.61163042949E+02 -0.36106730616E+02 -0.19275394163E+03  0.26784398986E+03  0.17187701146E+03 0.  0.
        -24    2    5    5    0    0 -0.10104332377E+03  0.99113826140E+01 -0.14675643119E+03  0.19138508252E+03  0.69157869653E+02 0.  0.
          5    1    3    3  501    0  0.55249637344E+02 -0.32964482058E+02 -0.93358834865E+02  0.11347749359E+03  0.47000000000E+01 0. -1.
        -11    1    4    4    0    0  0.37506803916E+02  0.19045640657E+02 -0.32037401362E+02  0.52876193642E+02  0.00000000000E+00 0.  1.
         12    1    4    4    0    0 -0.31593398312E+02  0.50025572018E+02 -0.10716350502E+02  0.60129367540E+02  0.00000000000E+00 0. -1.
         -5    1    5    5    0  502  0.39880280817E+02 -0.46018113231E+02 -0.45997510445E+02  0.76458907333E+02  0.47000000000E+01 0.  1.
         11    1    6    6    0    0  0.83359064231E+01  0.97273959303E+01 -0.99042607296E+01  0.16192712808E+02  0.00000000000E+00 0. -1.
        -12    1    6    6    0    0 -0.10937923019E+03  0.18398668376E+00 -0.13685217046E+03  0.17519236972E+03  0.00000000000E+00 0.  1.
</event>
<event>
12    1  0.8724767E-002  0.1741717E+03  0.7818608E-02  0.1174307E+00
         21   -1    0    0  503  502  0.00000000000E+00  0.00000000000E+00  0.79705664408E+02  0.79705664408E+02  0.00000000000E+00 0. -1.
         21   -1    0    0  501  503 -0.00000000000E+00 -0.00000000000E+00 -0.81992097823E+03  0.81992097823E+03  0.00000000000E+00 0. -1.
          6    2    1    2  501    0  0.23115169216E+02  0.82511757461E+00 -0.70314561488E+03  0.72439598435E+03  0.17262906637E+03 0.  0.
         24    2    3    3    0    0 -0.14654529481E+02  0.41007766439E+02 -0.21792996093E+03  0.23603390941E+03  0.79511925996E+02 0.  0.
         -6    2    1    2    0  502 -0.23115169216E+02 -0.82511757461E+00 -0.37069698944E+02  0.17523065829E+03  0.16969569575E+03 0.  0.
        -24    2    5    5    0    0  0.37213437972E+02 -0.40698995549E+02  0.76563753749E+00  0.93480614392E+02  0.75477088325E+02 0.  0.
          5    1    3    3  501    0  0.37769698697E+02 -0.40182648865E+02 -0.48521565395E+03  0.48836207495E+03  0.47000000000E+01 0. -1.
        -13    1    4    4    0    0 -0.28855384677E+02 -0.23282148848E+01 -0.26499124530E+02  0.39246113314E+02  0.00000000000E+00 0.  1.
         14    1    4    4    0    0  0.14200855196E+02  0.43335981324E+02 -0.19143083640E+03  0.19678779609E+03  0.00000000000E+00 0. -1.
         -5    1    5    5    0  502 -0.60328607188E+02  0.39873877974E+02 -0.37835336482E+02  0.81750043894E+02  0.47000000000E+01 0.  1.
         13    1    6    6    0    0 -0.13510091622E+02 -0.27419762876E+02 -0.20600821377E+02  0.36861359351E+02  0.00000000000E+00 0. -1.
        -14    1    6    6    0    0  0.50723529594E+02 -0.13279232673E+02  0.21366458915E+02  0.56619255041E+02  0.00000000000E+00 0.  1.
</event>
<event>
12    1  0.8724767E-002  0.1845964E+03  0.7818608E-02  0.1167456E+00
         21   -1    0    0  501  502  0.00000000000E+00  0.00000000000E+00  0.19101423637E+03  0.19101423637E+03  0.00000000000E+00 0.  1.
         21   -1    0    0  502  503 -0.00000000000E+00 -0.00000000000E+00 -0.18437418014E+03  0.18437418014E+03  0.00000000000E+00 0.  1.
         -6    2    1    2    0  503  0.21517260071E+02  0.61058499983E+02 -0.60509804760E+02  0.19426082706E+03  0.17287191662E+03 0.  0.
        -24    2    3    3    0    0  0.77984951385E+02  0.33358269893E+02 -0.59960438346E+02  0.13118710263E+03  0.80127242042E+02 0.  0.
          6    2    1    2  501    0 -0.21517260071E+02 -0.61058499983E+02  0.67149860991E+02  0.18112758945E+03  0.15526418430E+03 0.  0.
         24    2    5    5    0    0  0.13796752317E+02 -0.90878967145E+02  0.48367610203E+02  0.13101568789E+03  0.79852036379E+02 0.  0.
          5    1    5    5  501    0 -0.35314012388E+02  0.29820467163E+02  0.18782250788E+02  0.50111901554E+02  0.47000000000E+01 0. -1.
        -13    1    6    6    0    0  0.31167002014E+02 -0.26117483857E+02 -0.10271884513E+02  0.41940631719E+02  0.00000000000E+00 0.  1.
         14    1    6    6    0    0 -0.17370249697E+02 -0.64761483288E+02  0.58639494716E+02  0.89075056176E+02  0.00000000000E+00 0. -1.
         -5    1    3    3    0  503 -0.56467691314E+02  0.27700230090E+02 -0.54936641338E+00  0.63073724424E+02  0.47000000000E+01 0.  1.
         11    1    4    4    0    0  0.55903197807E+00  0.17908389898E+02 -0.48125616365E+02  0.51352681488E+02  0.00000000000E+00 0. -1.
        -12    1    4    4    0    0  0.77425919407E+02  0.15449879995E+02 -0.11834821981E+02  0.79834421142E+02  0.00000000000E+00 0.  1.
</event>
<event>
12    1  0.8724767E-002  0.2068952E+03  0.7818608E-02  0.1144237E+00
         21   -1    0    0  503  502  0.00000000000E+00  0.00000000000E+00  0.47357509605E+03  0.47357509605E+03  0.00000000000E+00 0.  1.
         21   -1    0    0  501  503 -0.00000000000E+00 -0.00000000000E+00 -0.23266377428E+03  0.23266377428E+03  0.00000000000E+00 0.  1.
          6    2    1    2  501    0 -0.17025127201E+01 -0.11505859000E+03 -0.15617991796E+03  0.25848101598E+03  0.17081829869E+03 0.  0.
         24    2    3    3    0    0 -0.35782638867E+02 -0.48060534977E+02 -0.15365831169E+03  0.18312424540E+03  0.79582662904E+02 0.  0.
         -6    2    1    2    0  502  0.17025127201E+01  0.11505859000E+03  0.39709123972E+03  0.44775785435E+03  0.17194262353E+03 0.  0.
        -24    2    5    5    0    0 -0.78757195411E+01  0.14015456295E+03  0.24643009222E+03  0.29464867187E+03  0.79904449258E+02 0.  0.
          5    1    3    3  501    0  0.34080126146E+02 -0.66998055018E+02 -0.25216062699E+01  0.75356770582E+02  0.47000000000E+01 0. -1.
        -11    1    4    4    0    0 -0.39247182179E+02 -0.67532579258E+02 -0.13481014589E+03  0.15580361358E+03  0.00000000000E+00 0.  1.
         12    1    4    4    0    0  0.34645433124E+01  0.19472044281E+02 -0.18848165798E+02  0.27320631815E+02  0.00000000000E+00 0. -1.
         -5    1    5    5    0  502  0.95782322613E+01 -0.25095972957E+02  0.15066114750E+03  0.15310918248E+03  0.47000000000E+01 0.  1.
         13    1    6    6    0    0 -0.40562952870E+02  0.98716895884E+02  0.18574715626E+03  0.21422507962E+03  0.00000000000E+00 0. -1.
        -14    1    6    6    0    0  0.32687233329E+02  0.41437667069E+02  0.60682935960E+02  0.80423592257E+02  0.00000000000E+00 0.  1.
</event>
<event>
12    1  0.8724767E-002  0.2071564E+03  0.7818608E-02  0.1143922E+00
         21   -1    0    0  501  502  0.00000000000E+00  0.00000000000E+00  0.14532843679E+03  0.14532843679E+03  0.00000000000E+00 0.  1.
         21   -1    0    0  502  503 -0.00000000000E+00 -0.00000000000E+00 -0.35758340056E+03  0.35758340056E+03  0.00000000000E+00 0. -1.
         -6    2    1    2    0  503  0.73415455791E+02  0.88174362320E+02 -0.21167113433E+03  0.29617300847E+03  0.17247966408E+03 0.  0.
        -24    2    3    3    0    0  0.50416351257E+02  0.11140955882E+03 -0.21844185812E+03  0.26245704984E+03  0.78822327811E+02 0.  0.
          6    2    1    2  501    0 -0.73415455791E+02 -0.88174362320E+02 -0.58382944203E+00  0.20673882888E+03  0.17197690307E+03 0.  0.
         24    2    5    5    0    0 -0.15847617440E+02 -0.43246904596E+02 -0.63116328689E+02  0.11048429168E+03  0.78113161661E+02 0.  0.
          5    1    5    5  501    0 -0.57567838351E+02 -0.44927457724E+02  0.62532499247E+02  0.96254537202E+02  0.47000000000E+01 0. -1.
        -11    1    6    6    0    0 -0.23802391232E+01 -0.56423957041E+02 -0.14443518223E+02  0.58291883527E+02  0.00000000000E+00 0.  1.
         12    1    6    6    0    0 -0.13467378317E+02  0.13177052445E+02 -0.48672810466E+02  0.52192408151E+02  0.00000000000E+00 0. -1.
         -5    1    3    3    0  503  0.22999104534E+02 -0.23235196504E+02  0.67707237879E+01  0.33715958633E+02  0.47000000000E+01 0.  1.
         11    1    4    4    0    0  0.71920042825E+02  0.89033493856E+02 -0.17132719792E+03  0.20603995811E+03  0.00000000000E+00 0. -1.
        -12    1    4    4    0    0 -0.21503691568E+02  0.22376064968E+02 -0.47114660192E+02  0.56417091732E+02  0.00000000000E+00 0.  1.
</event>
<event>
12    1  0.8724767E-002  0.1761908E+03  0.7818608E-02  0.1171617E+00
         21   -1    0    0  501  502  0.00000000000E+00  0.00000000000E+00  0.26613021565E+02  0.26613021565E+02  0.00000000000E+00 0.  1.
         21   -1    0    0  502  503 -0.00000000000E+00 -0.00000000000E+00 -0.23374452926E+04  0.23374452926E+04  0.00000000000E+00 0.  1.
         -6    2    1    2    0  503  0.12877776525E+02 -0.36730715415E+02 -0.19922646266E+04  0.20000136150E+04  0.17152590251E+03 0.  0.
        -24    2    3    3    0    0  0.20776253837E+02 -0.12355484586E+02 -0.19397255282E+04  0.19413707579E+04  0.76164193696E+02 0.  0.
          6    2    1    2  501    0 -0.12877776525E+02  0.36730715415E+02 -0.31856764444E+03  0.36404469916E+03  0.17183776162E+03 0.  0.
         24    2    5    5    0    0  0.49636673354E+02 -0.14212210323E+02 -0.15038369609E+03  0.17746718549E+03  0.78826135328E+02 0.  0.
          5    1    5    5  501    0 -0.62514449879E+02  0.50942925737E+02 -0.16818394835E+03  0.18657751367E+03  0.47000000000E+01 0. -1.
        -13    1    6    6    0    0  0.59085615433E+02  0.11676771701E+02 -0.69231565789E+02  0.91763100700E+02  0.00000000000E+00 0.  1.
         14    1    6    6    0    0 -0.94489420791E+01 -0.25888982024E+02 -0.81152130300E+02  0.85704084785E+02  0.00000000000E+00 0. -1.
         -5    1    3    3    0  503 -0.78984773120E+01 -0.24375230828E+02 -0.52539098407E+02  0.58642857052E+02  0.47000000000E+01 0.  1.
         13    1    4    4    0    0 -0.17528878121E+02 -0.14264524828E+02 -0.14394034471E+04  0.14395808493E+04  0.00000000000E+00 0. -1.
        -14    1    4    4    0    0  0.38305131959E+02  0.19090402419E+01 -0.50032208106E+03  0.50178990859E+03  0.00000000000E+00 0.  1.
</event>
<event>
12    1  0.8724767E-002  0.2173955E+03  0.7818608E-02  0.1136199E+00
         21   -1    0    0  501  502  0.00000000000E+00  0.00000000000E+00  0.17914490577E+03  0.17914490577E+03  0.00000000000E+00 0.  1.
         21   -1    0    0  502  503 -0.00000000000E+00 -0.00000000000E+00 -0.92981310406E+03  0.92981310406E+03  0.00000000000E+00 0.  1.
         -6    2    1    2    0  503 -0.40873730119E+02 -0.12453019655E+03 -0.84587082618E+03  0.87336031987E+03  0.17344267665E+03 0.  0.
        -24    2    3    3    0    0  0.15616543516E+02 -0.66331840185E+02 -0.68734571731E+03  0.69522975024E+03  0.79097920629E+02 0.  0.
          6    2    1    2  501    0  0.40873730119E+02  0.12453019655E+03  0.95202627882E+02  0.23559768996E+03  0.17106811360E+03 0.  0.
         24    2    5    5    0    0 -0.12114922021E+02  0.31260083216E+01  0.35163762531E+02  0.90086420538E+02  0.81991034305E+02 0.  0.
          5    1    5    5  501    0  0.52988652141E+02  0.12140418823E+03  0.60038865350E+02  0.14551126942E+03  0.47000000000E+01 0. -1.
        -13    1    6    6    0    0  0.28846588506E+02 -0.19053974559E+02  0.58872942287E+01  0.35069072532E+02  0.00000000000E+00 0.  1.
         14    1    6    6    0    0 -0.40961510528E+02  0.22179982880E+02  0.29276468303E+02  0.55017348006E+02  0.00000000000E+00 0. -1.
         -5    1    3    3    0  503 -0.56490273635E+02 -0.58198356366E+02 -0.15852510886E+03  0.17813056964E+03  0.47000000000E+01 0.  1.
         13    1    4    4    0    0 -0.14966849984E+02  0.97065151139E+01 -0.22251656888E+03  0.22323047834E+03  0.00000000000E+00 0. -1.
        -14    1    4    4    0    0  0.30583393500E+02 -0.76038355299E+02 -0.46482914843E+03  0.47199927189E+03  0.00000000000E+00 0.  1.
</event>
<event>
12    1  0.8724767E-002  0.1812905E+03  0.7818608E-02  0.1167228E+00
         21   -1    0    0  501  502  0.00000000000E+00  0.00000000000E+00  0.38202464246E+03  0.38202464246E+03  0.00000000000E+00 0. -1.
         21   -1    0    0  502  503 -0.00000000000E+00 -0.00000000000E+00 -0.18836142242E+03  0.18836142242E+03  0.00000000000E+00 0.  1.
         -6    2    1    2    0  503  0.24691182401E+01  0.47453127971E+02 -0.11504374615E+03  0.21238291625E+03  0.17208586139E+03 0.  0.
        -24    2    3    3    0    0  0.60225987336E+02  0.29315667968E+02 -0.32851062060E+02  0.11019411696E+03  0.81098540036E+02 0.  0.
          6    2    1    2  501    0 -0.24691182401E+01 -0.47453127971E+02  0.30870696618E+03  0.35800314862E+03  0.17495247228E+03 0.  0.
         24    2    5    5    0    0  0.53562231515E+02 -0.19563238150E+02  0.10099916646E+03  0.14101932855E+03  0.80212134165E+02 0.  0.
          5    1    5    5  501    0 -0.56031349756E+02 -0.27889889821E+02  0.20770779972E+03  0.21698382008E+03  0.47000000000E+01 0. -1.
        -11    1    6    6    0    0 -0.64599442406E+01 -0.35479322148E+02  0.42080402262E+02  0.55419071033E+02  0.00000000000E+00 0.  1.
         12    1    6    6    0    0  0.60022175756E+02  0.15916083998E+02  0.58918764197E+02  0.85600257516E+02  0.00000000000E+00 0. -1.
         -5    1    3    3    0  503 -0.57756869096E+02  0.18137460003E+02 -0.82192684085E+02  0.10218879929E+03  0.47000000000E+01 0.  1.
         11    1    4    4    0    0 -0.25153691198E+01  0.12562913999E+02  0.21821415456E+02  0.25304704354E+02  0.00000000000E+00 0. -1.
        -12    1    4    4    0    0  0.62741356456E+02  0.16752753969E+02 -0.54672477516E+02  0.84889412609E+02  0.00000000000E+00 0.  1.
</event>
<event>
12    1  0.8724767E-002  0.1907194E+03  0.7818608E-02  0.1157864E+00
         21   -1    0    0  503  502  0.00000000000E+00  0.00000000000E+00  0.33146192761E+03  0.33146192761E+03  0.00000000000E+00 0. -1.
         21   -1    0    0  501  503 -0.00000000000E+00 -0.00000000000E+00 -0.12122532032E+03  0.12122532032E+03  0.00000000000E+00 0. -1.
          6    2    1    2  501    0  0.80069692868E+02  0.16794473384E+02  0.34996739258E+02  0.19368358027E+03  0.17203298362E+03 0.  0.
         24    2    3    3    0    0  0.25364018809E+02  0.57761882042E+02 -0.22305765690E+02  0.10437117117E+03  0.80100098128E+02 0.  0.
         -6    2    1    2    0  502 -0.80069692868E+02 -0.16794473384E+02  0.17523986803E+03  0.25900366766E+03  0.17228081281E+03 0.  0.
        -24    2    5    5    0    0 -0.37741885121E+02  0.56157941129E+02  0.78955853305E+02  0.13091619917E+03  0.79541562657E+02 0.  0.
          5    1    3    3  501    0  0.54705674059E+02 -0.40967408659E+02  0.57302504948E+02  0.89312409103E+02  0.47000000000E+01 0. -1.
        -13    1    4    4    0    0 -0.23199085068E+02 -0.33716839850E+01 -0.93014451086E+01  0.25220679650E+02  0.00000000000E+00 0.  1.
         14    1    4    4    0    0  0.48563103877E+02  0.61133566027E+02 -0.13004320582E+02  0.79150491515E+02  0.00000000000E+00 0. -1.
         -5    1    5    5    0  502 -0.42327807747E+02 -0.72952414512E+02  0.96284014723E+02  0.12808746849E+03  0.47000000000E+01 0.  1.
         11    1    6    6    0    0 -0.33062451100E+02  0.60753003926E+02  0.20566640227E+02  0.72159821570E+02  0.00000000000E+00 0. -1.
        -12    1    6    6    0    0 -0.46794340208E+01 -0.45950627978E+01  0.58389213078E+02  0.58756377601E+02  0.00000000000E+00 0.  1.
</event>
<event>
12    1  0.8724767E-002  0.3475064E+03  0.7818608E-02  0.1063684E+00
         21   -1    0    0  503  502  0.00000000000E+00  0.00000000000E+00  0.17508993585E+04  0.17508993585E+04  0.00000000000E+00 0.  1.
         21   -1    0    0  501  503 -0.00000000000E+00 -0.00000000000E+00 -0.13555116095E+03  0.13555116095E+03  0.00000000000E+00 0. -1.
          6    2    1    2  501    0  0.11639323460E+03 -0.27828555809E+03  0.14600046487E+03  0.37656858912E+03  0.17174844879E+03 0.  0.
         24    2    3    3    0    0  0.55127303710E+02 -0.17542404953E+03  0.16874139995E+03  0.25461267758E+03  0.50411692674E+02 0.  0.
         -6    2    1    2    0  502 -0.11639323460E+03  0.27828555809E+03  0.14693477326E+04  0.15098819303E+04  0.17254114616E+03 0.  0.
        -24    2    5    5    0    0 -0.24721048776E+02  0.91985432472E+02  0.34868050543E+03  0.37013254968E+03  0.79671572287E+02 0.  0.
          5    1    3    3  501    0  0.61265930890E+02 -0.10286150856E+03 -0.22740935075E+02  0.12195591154E+03  0.47000000000E+01 0. -1.
        -13    1    4    4    0    0  0.80843452047E+01 -0.10194679535E+03  0.10491781494E+03  0.14651366357E+03  0.00000000000E+00 0.  1.
         14    1    4    4    0    0  0.47042958505E+02 -0.73477254179E+02  0.63823585003E+02  0.10809901401E+03  0.00000000000E+00 0. -1.
         -5    1    5    5    0  502 -0.91672185824E+02  0.18630012562E+03  0.11206672272E+04  0.11397493806E+04  0.47000000000E+01 0.  1.
         13    1    6    6    0    0  0.40446057538E+01 -0.11859232562E+02  0.15332377856E+02  0.19801061673E+02  0.00000000000E+00 0. -1.
        -14    1    6    6    0    0 -0.28765654529E+02  0.10384466503E+03  0.33334812757E+03  0.35033148801E+03  0.00000000000E+00 0.  1.
</event>
<event>
12    1  0.8724767E-002  0.2092024E+03  0.7818608E-02  0.1142490E+00
         21   -1    0    0  501  502  0.00000000000E+00  0.00000000000E+00  0.15695052541E+03  0.15695052541E+03  0.00000000000E+00 0.  1.
         21   -1    0    0  502  503 -0.00000000000E+00 -0.00000000000E+00 -0.33970020202E+03  0.33970020202E+03  0.00000000000E+00 0.  1.
         -6    2    1    2    0  503 -0.11783812246E+03  0.24531851678E+01 -0.19787388168E+03  0.28690231705E+03  0.17107608031E+03 0.  0.
        -24    2    3    3    0    0 -0.72391722115E+02  0.41798883438E+02 -0.48444500906E+02  0.12576669369E+03  0.80515113403E+02 0.  0.
          6    2    1    2  501    0  0.11783812246E+03 -0.24531851678E+01  0.15124205065E+02  0.20974841039E+03  0.17284042600E+03 0.  0.
         24    2    5    5    0    0  0.11400989641E+03 -0.36040137104E+02 -0.36512557456E+02  0.14785185234E+03  0.78929433204E+02 0.  0.
          5    1    5    5  501    0  0.38282260444E+01  0.33586951936E+02  0.51636762522E+02  0.61896558052E+02  0.47000000000E+01 0. -1.
        -13    1    6    6    0    0  0.46483393485E+02  0.23781621572E+02 -0.57114664369E+01  0.52525158195E+02  0.00000000000E+00 0.  1.
         14    1    6    6    0    0  0.67526502926E+02 -0.59821758676E+02 -0.30801091019E+02  0.95326694144E+02  0.00000000000E+00 0. -1.
         -5    1    3    3    0  503 -0.45446400340E+02 -0.39345698270E+02 -0.14942938077E+03  0.16113562335E+03  0.47000000000E+01 0.  1.
         11    1    4    4    0    0  0.96881817197E+01  0.30225301711E+02 -0.48444214661E+01  0.32107602649E+02  0.00000000000E+00 0. -1.
        -12    1    4    4    0    0 -0.82079903835E+02  0.11573581727E+02 -0.43600079440E+02  0.93659091041E+02  0.00000000000E+00 0.  1.
</event>
<event>
12    1  0.8724767E-002  0.1830564E+03  0.7818608E-02  0.1165232E+00
         21   -1    0    0  501  502  0.00000000000E+00  0.00000000000E+00  0.26758231501E+04  0.26758231501E+04  0.00000000000E+00 0. -1.
         21   -1    0    0  502  503 -0.00000000000E+00 -0.00000000000E+00 -0.13165144306E+02  0.13165144306E+02  0.00000000000E+00 0.  1.
         -6    2    1    2    0  503  0.16933088476E+02  0.57725142461E+02  0.10168700331E+04  0.10332155112E+04  0.17288929046E+03 0.  0.
        -24    2    3    3    0    0 -0.16175661736E+02 -0.24885519074E+02  0.34524138273E+03  0.35569957429E+03  0.80309611539E+02 0.  0.
          6    2    1    2  501    0 -0.16933088476E+02 -0.57725142461E+02  0.16457879727E+04  0.16557727832E+04  0.17130830998E+03 0.  0.
         24    2    5    5    0    0  0.19353690966E+02  0.23770412717E+02  0.10212975295E+04  0.10249252109E+04  0.80519850348E+02 0.  0.
          5    1    5    5  501    0 -0.36286779442E+02 -0.81495555178E+02  0.62449044315E+03  0.63084757228E+03  0.47000000000E+01 0. -1.
        -11    1    6    6    0    0  0.16686390382E+02 -0.20905052158E+02  0.70165869070E+03  0.70216833813E+03  0.00000000000E+00 0.  1.
         12    1    6    6    0    0  0.26673005840E+01  0.44675464876E+02  0.31963883884E+03  0.32275687281E+03  0.00000000000E+00 0. -1.
         -5    1    3    3    0  503  0.33108750211E+02  0.82610661535E+02  0.67162865038E+03  0.67751593690E+03  0.47000000000E+01 0.  1.
         13    1    4    4    0    0 -0.10845328041E+02  0.28648803705E+02  0.98152437717E+02  0.10282157421E+03  0.00000000000E+00 0. -1.
        -14    1    4    4    0    0 -0.53303336952E+01 -0.53534322779E+02  0.24708894502E+03  0.25287800008E+03  0.00000000000E+00 0.  1.
</event>
<event>
12    1  0.8724767E-002  0.1945211E+03  0.7818608E-02  0.1154646E+00
         21   -1    0    0  501  502  0.00000000000E+00  0.00000000000E+00  0.11163349149E+04  0.11163349149E+04  0.00000000000E+00 0.  1.
         21   -1    0    0  502  503 -0.00000000000E+00 -0.00000000000E+00 -0.38093851107E+02  0.38093851107E+02  0.00000000000E+00 0.  1.
         -6    2    1    2    0  503  0.59214049115E+02 -0.67246728422E+02  0.34277349157E+03  0.39367189020E+03  0.17162594359E+03 0.  0.
        -24    2    3    3    0    0 -0.18762938725E+02 -0.20109891260E+02  0.21180975608E+03  0.23406023003E+03  0.95730679053E+02 0.  0.
          6    2    1    2  501    0 -0.59214049115E+02  0.67246728422E+02  0.73546757218E+03  0.76075687576E+03  0.17265586640E+03 0.  0.
         24    2    5    5    0    0 -0.11642551313E+02 -0.20262530149E+02  0.46892178449E+03  0.47617004425E+03  0.79398689786E+02 0.  0.
          5    1    5    5  501    0 -0.47571497803E+02  0.87509258571E+02  0.26654578769E+03  0.28458683152E+03  0.47000000000E+01 0. -1.
        -11    1    6    6    0    0 -0.39719032088E+02 -0.31223144495E+02  0.34243211446E+03  0.34613904615E+03  0.00000000000E+00 0.  1.
         12    1    6    6    0    0  0.28076480775E+02  0.10960614346E+02  0.12648967003E+03  0.13003099809E+03  0.00000000000E+00 0. -1.
         -5    1    3    3    0  503  0.77976987840E+02 -0.47136837163E+02  0.13096373549E+03  0.15961166017E+03  0.47000000000E+01 0.  1.
         13    1    4    4    0    0 -0.42059453759E+02 -0.38256876127E+02  0.18712404810E+03  0.19557094774E+03  0.00000000000E+00 0. -1.
        -14    1    4    4    0    0  0.23296515034E+02  0.18146984868E+02  0.24685707985E+02  0.38489282290E+02  0.00000000000E+00 0.  1.
</event>
<event>
12    1  0.8724767E-002  0.2165323E+03  0.7818608E-02  0.1136867E+00
         21   -1    0    0  503  502  0.00000000000E+00  0.00000000000E+00  0.53118822784E+02  0.53118822784E+02  0.00000000000E+00 0.  1.
         21   -1    0    0  501  503 -0.00000000000E+00 -0.00000000000E+00 -0.93365669667E+03  0.93365669667E+03  0.00000000000E+00 0. -1.
          6    2    1    2  501    0  0.10550258034E+03 -0.76145352638E+02 -0.56232581392E+03  0.60187925669E+03  0.17064410169E+03 0.  0.
         24    2    3    3    0    0  0.17915503022E+02  0.20188067428E+02 -0.19437924930E+03  0.21154813014E+03  0.78998705635E+02 0.  0.
         -6    2    1    2    0  502 -0.10550258034E+03  0.76145352638E+02 -0.31821205996E+03  0.38489626277E+03  0.17308179800E+03 0.  0.
        -24    2    5    5    0    0  0.11030331790E+02  0.56737388556E+01 -0.12668182963E+03  0.14983863772E+03  0.79053601211E+02 0.  0.
          5    1    3    3  501    0  0.87587077320E+02 -0.96333420066E+02 -0.36794656462E+03  0.39033112654E+03  0.47000000000E+01 0. -1.
        -13    1    4    4    0    0  0.46182199511E+02  0.27294678206E+02 -0.13845798946E+03  0.14848706965E+03  0.00000000000E+00 0.  1.
         14    1    4    4    0    0 -0.28266696488E+02 -0.71066107783E+01 -0.55921259849E+02  0.63061060491E+02  0.00000000000E+00 0. -1.
         -5    1    5    5    0  502 -0.11653291213E+03  0.70471613782E+02 -0.19153023034E+03  0.23505762504E+03  0.47000000000E+01 0.  1.
         13    1    6    6    0    0 -0.25737914207E+02 -0.21794954313E+02 -0.46373667162E+02  0.57340886523E+02  0.00000000000E+00 0. -1.
        -14    1    6    6    0    0  0.36768245997E+02  0.27468693168E+02 -0.80308162467E+02  0.92497751199E+02  0.00000000000E+00 0.  1.
</event>
<event>
12    1  0.8724767E-002  0.2295474E+03  0.7818608E-02  0.1127021E+00
         21   -1    0    0  501  502  0.00000000000E+00  0.00000000000E+00  0.11476390750E+03  0.11476390750E+03  0.00000000000E+00 0.  1.
         21   -1    0    0  502  503 -0.00000000000E+00 -0.00000000000E+00 -0.65182870043E+03  0.65182870043E+03  0.00000000000E+00 0.  1.
         -6    2    1    2    0  503  0.62501339159E+02 -0.13874013297E+03 -0.47745843141E+03  0.52977216128E+03  0.17186258248E+03 0.  0.
        -24    2    3    3    0    0  0.36265462044E+02 -0.88063659793E+02 -0.13698317089E+03  0.18451585185E+03  0.78811918912E+02 0.  0.
          6    2    1    2  501    0 -0.62501339159E+02  0.13874013297E+03 -0.59606361522E+02  0.23682044664E+03  0.17139359299E+03 0.  0.
         24    2    5    5    0    0 -0.83995788675E+02  0.12000843123E+03 -0.94384683338E+02  0.19160419206E+03  0.79664181935E+02 0.  0.
          5    1    5    5  501    0  0.21494449516E+02  0.18731701737E+02  0.34778321817E+02  0.45216254581E+02  0.47000000000E+01 0. -1.
        -11    1    6    6    0    0 -0.57430402351E+02  0.90171252322E+02 -0.22327632040E+02  0.10921368510E+03  0.00000000000E+00 0.  1.
         12    1    6    6    0    0 -0.26565386324E+02  0.29837178911E+02 -0.72057051298E+02  0.82390506964E+02  0.00000000000E+00 0. -1.
         -5    1    3    3    0  503  0.26235877115E+02 -0.50676473177E+02 -0.34047526051E+03  0.34525630943E+03  0.47000000000E+01 0.  1.
         13    1    4    4    0    0  0.30552980958E+02  0.37442434393E+01 -0.25419289807E+02  0.39920474679E+02  0.00000000000E+00 0. -1.
        -14    1    4    4    0    0  0.57124810863E+01 -0.91807903232E+02 -0.11156388108E+03  0.14459537717E+03  0.00000000000E+00 0.  1.
</event>
<event>
12    1  0.8724767E-002  0.4299856E+03  0.7818608E-02  0.1034154E+00
         21   -1    0    0  501  502  0.00000000000E+00  0.00000000000E+00  0.44825270602E+03  0.44825270602E+03  0.00000000000E+00 0.  1.
         21   -1    0    0  502  503 -0.00000000000E+00 -0.00000000000E+00 -0.43576270328E+03  0.43576270328E+03  0.00000000000E+00 0. -1.
         -6    2    1    2    0  503 -0.98069445063E+02  0.38175033369E+03  0.11586868888E+03  0.44532362009E+03  0.17186227106E+03 0.  0.
        -24    2    3    3    0    0 -0.60082919527E+00  0.84871373602E+02  0.44669656869E+02  0.12481053114E+03  0.79867261045E+02 0.  0.
          6    2    1    2  501    0  0.98069445063E+02 -0.38175033369E+03 -0.10337868614E+03  0.43869178922E+03  0.16251892151E+03 0.  0.
         24    2    5    5    0    0  0.12872589848E+02 -0.10765536051E+03 -0.65700931726E+02  0.14916068270E+03  0.78593362431E+02 0.  0.
          5    1    5    5  501    0  0.85196855215E+02 -0.27409497319E+03 -0.37677754417E+02  0.28953110652E+03  0.47000000000E+01 0. -1.
        -13    1    6    6    0    0  0.26485550023E+02 -0.37871401097E+02  0.78352399796E+01  0.46873429217E+02  0.00000000000E+00 0.  1.
         14    1    6    6    0    0 -0.13612960175E+02 -0.69783959409E+02 -0.73536171705E+02  0.10228725348E+03  0.00000000000E+00 0. -1.
         -5    1    3    3    0  503 -0.97468615868E+02  0.29687896009E+03  0.71199032013E+02  0.32051308894E+03  0.47000000000E+01 0.  1.
         11    1    4    4    0    0 -0.20536297671E+02 -0.61303321846E+01 -0.14479474295E+00  0.21432252803E+02  0.00000000000E+00 0. -1.
        -12    1    4    4    0    0  0.19935468475E+02  0.91001705787E+02  0.44814451612E+02  0.10337827834E+03  0.00000000000E+00 0.  1.
</event>
<event>
12    1  0.8724767E-002  0.2089193E+03  0.7818608E-02  0.1142690E+00
         21   -1    0    0  501  502  0.00000000000E+00  0.00000000000E+00  0.73685487299E+02  0.73685487299E+02  0.00000000000E+00 0. -1.
         21   -1    0    0  502  503 -0.00000000000E+00 -0.00000000000E+00 -0.59801761900E+03  0.59801761900E+03  0.00000000000E+00 0. -1.
         -6    2    1    2    0  503  0.82633668979E+02 -0.82401484843E+02 -0.30351661926E+03  0.36771826499E+03  0.17168592336E+03 0.  0.
        -24    2    3    3    0    0  0.57377213135E+02 -0.11654029040E+03 -0.17424397042E+03  0.23156814803E+03  0.79931608777E+02 0.  0.
          6    2    1    2  501    0 -0.82633668979E+02  0.82401484843E+02 -0.22081551244E+03  0.30398484131E+03  0.17328867609E+03 0.  0.
         24    2    5    5    0    0 -0.55223114959E+02 -0.23523539308E+02 -0.94606322059E+02  0.13688517360E+03  0.78639972349E+02 0.  0.
          5    1    5    5  501    0 -0.27410554019E+02  0.10592502415E+03 -0.12620919038E+03  0.16709966771E+03  0.47000000000E+01 0. -1.
        -11    1    6    6    0    0 -0.40527931383E+02  0.11377559135E+02 -0.89198520633E+02  0.98632338293E+02  0.00000000000E+00 0.  1.
         12    1    6    6    0    0 -0.14695183576E+02 -0.34901098443E+02 -0.54078014255E+01  0.38252835309E+02  0.00000000000E+00 0. -1.
         -5    1    3    3    0  503  0.25256455844E+02  0.34138805560E+02 -0.12927264885E+03  0.13615011695E+03  0.47000000000E+01 0.  1.
         13    1    4    4    0    0 -0.47879222435E+01 -0.44185676416E+02 -0.10401445972E+03  0.11311191816E+03  0.00000000000E+00 0. -1.
        -14    1    4    4    0    0  0.62165135378E+02 -0.72354613986E+02 -0.70229510698E+02  0.11845622987E+03  0.00000000000E+00 0.  1.
</event>
<event>
12    1  0.8724767E-002  0.2106386E+03  0.7818608E-02  0.1141448E+00
         21   -1    0    0  503  502  0.00000000000E+00  0.00000000000E+00  0.28809335106E+02  0.28809335106E+02  0.00000000000E+00 0.  1.
         21   -1    0    0  501  503 -0.00000000000E+00 -0.00000000000E+00 -0.15746547829E+04  0.15746547829E+04  0.00000000000E+00 0.  1.
          6    2    1    2  501    0  0.93454327116E+02  0.69933718464E+02 -0.62825926407E+03  0.66201149653E+03  0.17298867715E+03 0.  0.
         24    2    3    3    0    0 -0.16213303535E+02  0.46420905653E+02 -0.31045286745E+03  0.32496129655E+03  0.82468719243E+02 0.  0.
         -6    2    1    2    0  502 -0.93454327116E+02 -0.69933718464E+02 -0.91758618372E+03  0.94145262147E+03  0.17534023405E+03 0.  0.
        -24    2    5    5    0    0 -0.41856923664E+02 -0.49694658624E+01 -0.73750304968E+03  0.74312291788E+03  0.80896385212E+02 0.  0.
          5    1    3    3  501    0  0.10966763065E+03  0.23512812811E+02 -0.31780639662E+03  0.33705019999E+03  0.47000000000E+01 0. -1.
        -13    1    4    4    0    0  0.28466471470E+02  0.26363673484E+02 -0.20567229056E+03  0.20929996269E+03  0.00000000000E+00 0.  1.
         14    1    4    4    0    0 -0.44679775005E+02  0.20057232168E+02 -0.10478057689E+03  0.11566133386E+03  0.00000000000E+00 0. -1.
         -5    1    5    5    0  502 -0.51597403452E+02 -0.64964252601E+02 -0.18008313405E+03  0.19832970359E+03  0.47000000000E+01 0.  1.
         13    1    6    6    0    0 -0.54029884907E+02  0.22630706177E+02 -0.39879028499E+03  0.40306955817E+03  0.00000000000E+00 0. -1.
        -14    1    6    6    0    0  0.12172961243E+02 -0.27600172039E+02 -0.33871276469E+03  0.34005335971E+03  0.00000000000E+00 0.  1.
</event>
<event>
12    1  0.8724767E-002  0.1885892E+03  0.7818608E-02  0.1161232E+00
         21   -1    0    0  503  502  0.00000000000E+00  0.00000000000E+00  0.24874528977E+03  0.24874528977E+03  0.00000000000E+00 0.  1.
         21   -1    0    0  501  503 -0.00000000000E+00 -0.00000000000E+00 -0.14652780719E+03  0.14652780719E+03  0.00000000000E+00 0.  1.
          6    2    1    2  501    0 -0.98594207883E+00  0.67705347566E+02  0.30079702503E+01  0.18218061560E+03  0.16910275765E+03 0.  0.
         24    2    3    3    0    0  0.61064181573E+02  0.33109970282E+02 -0.17619820086E+02  0.10805468418E+03  0.80871826428E+02 0.  0.
         -6    2    1    2    0  502  0.98594207883E+00 -0.67705347566E+02  0.99209512325E+02  0.21309248136E+03  0.17601389748E+03 0.  0.
        -24    2    5    5    0    0 -0.56789493621E+02 -0.82144848596E+01  0.24183375876E+02  0.10116315158E+03  0.79728434208E+02 0.  0.
          5    1    3    3  501    0 -0.62050123651E+02  0.34595377284E+02  0.20627790336E+02  0.74125931419E+02  0.47000000000E+01 0. -1.
        -13    1    4    4    0    0  0.20589745064E+02  0.40723246730E+02 -0.40437934622E+02  0.60971690009E+02  0.00000000000E+00 0.  1.
         14    1    4    4    0    0  0.40474436509E+02 -0.76132764479E+01  0.22818114536E+02  0.47082994169E+02  0.00000000000E+00 0. -1.
         -5    1    5    5    0  502  0.57775435700E+02 -0.59490862706E+02  0.75026136449E+02  0.11192932979E+03  0.47000000000E+01 0.  1.
         13    1    6    6    0    0 -0.59204291028E+02  0.24014966231E+02  0.62322572581E+01  0.64192738762E+02  0.00000000000E+00 0. -1.
        -14    1    6    6    0    0  0.24147974075E+01 -0.32229451091E+02  0.17951118618E+02  0.36970412816E+02  0.00000000000E+00 0.  1.
</event>
<event>
12    1  0.8724767E-002  0.1825638E+03  0.7818608E-02  0.1166908E+00
         21   -1    0    0  503  502  0.00000000000E+00  0.00000000000E+00  0.18747174061E+03  0.18747174061E+03  0.00000000000E+00 0.  1.
         21   -1    0    0  501  503 -0.00000000000E+00 -0.00000000000E+00 -0.27539637954E+03  0.27539637954E+03  0.00000000000E+00 0.  1.
          6    2    1    2  501    0  0.39504407186E+02  0.98827179668E+01 -0.18655509860E+03  0.26102170015E+03  0.17796420100E+03 0.  0.
         24    2    3    3    0    0  0.49270786645E+02  0.24063002360E+02 -0.20992859895E+03  0.23161297437E+03  0.81042672339E+02 0.  0.
         -6    2    1    2    0  502 -0.39504407186E+02 -0.98827179668E+01  0.98630459665E+02  0.20184642000E+03  0.17133517850E+03 0.  0.
        -24    2    5    5    0    0  0.15748439613E+02 -0.19519757866E+02  0.11680715749E+03  0.14270056671E+03  0.78041690147E+02 0.  0.
          5    1    3    3  501    0 -0.97663794590E+01 -0.14180284393E+02  0.23373500355E+02  0.29408725781E+02  0.47000000000E+01 0. -1.
        -11    1    4    4    0    0  0.56628919757E+01 -0.25733378466E+02 -0.98910302202E+02  0.10235977234E+03  0.00000000000E+00 0.  1.
         12    1    4    4    0    0  0.43607894669E+02  0.49796380825E+02 -0.11101829675E+03  0.12925320203E+03  0.00000000000E+00 0. -1.
         -5    1    5    5    0  502 -0.55252846800E+02  0.96370398991E+01 -0.18176697830E+02  0.59145853291E+02  0.47000000000E+01 0.  1.
         11    1    6    6    0    0 -0.82090449239E+01 -0.40102180473E+02  0.31247994039E+02  0.51497674013E+02  0.00000000000E+00 0. -1.
        -12    1    6    6    0    0  0.23957484537E+02  0.20582422608E+02  0.85559163455E+02  0.91202892700E+02  0.00000000000E+00 0.  1.
</event>
<event>
12    1  0.8724767E-002  0.2036100E+03  0.7818608E-02  0.1148074E+00
         21   -1    0    0  503  502  0.00000000000E+00  0.00000000000E+00  0.53522050684E+02  0.53522050684E+02  0.00000000000E+00 0.  1.
         21   -1    0    0  501  503 -0.00000000000E+00 -0.00000000000E+00 -0.12149735940E+04  0.12149735940E+04  0.00000000000E+00 0.  1.
          6    2    1    2  501    0  0.86990798814E+02 -0.38903957039E+02 -0.97864675700E+03  0.99960317516E+03  0.17993364288E+03 0.  0.
         24    2    3    3    0    0 -0.68820184347E-01 -0.28003975367E+02 -0.21261899719E+03  0.22855271918E+03  0.79027084634E+02 0.  0.
         -6    2    1    2    0  502 -0.86990798814E+02  0.38903957039E+02 -0.18280478629E+03  0.26889246950E+03  0.17264024245E+03 0.  0.
        -24    2    5    5    0    0 -0.45676770690E+02 -0.18138955444E+02 -0.22209209761E+02  0.93467921662E+02  0.76338812515E+02 0.  0.
          5    1    3    3  501    0  0.87059618999E+02 -0.10899981672E+02 -0.76602775981E+03  0.77105045597E+03  0.47000000000E+01 0. -1.
        -13    1    4    4    0    0 -0.15134083803E+02 -0.37228657164E+02 -0.20568705684E+03  0.20957618843E+03  0.00000000000E+00 0.  1.
         14    1    4    4    0    0  0.15065263619E+02  0.92246817977E+01 -0.69319403516E+01  0.18976530748E+02  0.00000000000E+00 0. -1.
         -5    1    5    5    0  502 -0.41314028124E+02  0.57042912483E+02 -0.16059557652E+03  0.17542454784E+03  0.47000000000E+01 0.  1.
         11    1    6    6    0    0 -0.57670939043E+02 -0.24642558809E+01 -0.37209769146E+02  0.68677337507E+02  0.00000000000E+00 0. -1.
        -12    1    6    6    0    0  0.11994168353E+02 -0.15674699563E+02  0.15000559384E+02  0.24790584155E+02  0.00000000000E+00 0.  1.
</event>
<event>
12    1  0.8724767E-002  0.2001102E+03  0.7818608E-02  0.1149734E+00
         21   -1    0    0  501  502  0.00000000000E+00  0.00000000000E+00  0.29522670840E+04  0.29522670840E+04  0.00000000000E+00 0.  1.
         21   -1    0    0  502  503 -0.00000000000E+00 -0.00000000000E+00 -0.13563082234E+02  0.13563082234E+02  0.00000000000E+00 0.  1.
         -6    2    1    2    0  503  0.48784486798E+01 -0.10209983217E+03  0.14009303276E+04  0.14150910017E+04  0.17154761884E+03 0.  0.
        -24    2    3    3    0    0  0.60710460926E+02 -0.98317124460E+02  0.83409338800E+03  0.84547909129E+03  0.75967735796E+02 0.  0.
          6    2    1    2  501    0 -0.48784486798E+01  0.10209983217E+03  0.15377736742E+04  0.15507391645E+04  0.17203461347E+03 0.  0.
         24    2    5    5    0    0 -0.26323968619E+02  0.66748425403E+02  0.14462252313E+04  0.14501765487E+04  0.79349223734E+02 0.  0.
          5    1    5    5  501    0  0.21445519939E+02  0.35351406765E+02  0.91548442931E+02  0.10056261576E+03  0.47000000000E+01 0. -1.
        -13    1    6    6    0    0 -0.33625547675E+02  0.23305041903E+00  0.74708876238E+03  0.74784513815E+03  0.00000000000E+00 0.  1.
         14    1    6    6    0    0  0.73015790555E+01  0.66515374984E+02  0.69913646890E+03  0.70233141060E+03  0.00000000000E+00 0. -1.
         -5    1    3    3    0  503 -0.55832012246E+02 -0.37827077078E+01  0.56683693956E+03  0.56961191044E+03  0.47000000000E+01 0.  1.
         11    1    4    4    0    0 -0.10909154221E+02 -0.14048628072E+02  0.27370695041E+03  0.27428428373E+03  0.00000000000E+00 0. -1.
        -12    1    4    4    0    0  0.71619615147E+02 -0.84268496388E+02  0.56038643759E+03  0.57119480756E+03  0.00000000000E+00 0.  1.
</event>
<event>
12    1  0.8724767E-002  0.2269489E+03  0.7818608E-02  0.1128880E+00
         21   -1    0    0  503  502  0.00000000000E+00  0.00000000000E+00  0.70341946611E+03  0.70341946611E+03  0.00000000000E+00 0. -1.
         21   -1    0    0  501  503 -0.00000000000E+00 -0.00000000000E+00 -0.73925243529E+02  0.73925243529E+02  0.00000000000E+00 0.  1.
          6    2    1    2  501    0  0.12855825785E+03  0.73511829296E+02  0.27309578105E+03  0.35482176656E+03  0.17142335224E+03 0.  0.
         24    2    3    3    0    0  0.12445305351E+03  0.69189653287E+02  0.29208599976E+03  0.33437054863E+03  0.78826784019E+02 0.  0.
         -6    2    1    2    0  502 -0.12855825785E+03 -0.73511829296E+02  0.35639844153E+03  0.42252294307E+03  0.17197259547E+03 0.  0.
        -24    2    5    5    0    0 -0.96137861190E+02 -0.49729675310E+02  0.35743447018E+03  0.38202805052E+03  0.80439430324E+02 0.  0.
          5    1    3    3  501    0  0.41052043324E+01  0.43221760094E+01 -0.18990218718E+02  0.20451217935E+02  0.47000000000E+01 0. -1.
        -11    1    4    4    0    0  0.59291391222E+02 -0.92974541222E+01  0.12379645707E+03  0.13757715838E+03  0.00000000000E+00 0.  1.
         12    1    4    4    0    0  0.65161662293E+02  0.78487107409E+02  0.16828954270E+03  0.19679339024E+03  0.00000000000E+00 0. -1.
         -5    1    5    5    0  502 -0.32420396657E+02 -0.23782153986E+02 -0.10360286497E+01  0.40494892554E+02  0.47000000000E+01 0.  1.
         13    1    6    6    0    0 -0.92045390039E+02 -0.24929934661E+02  0.18865494536E+03  0.21138718949E+03  0.00000000000E+00 0. -1.
        -14    1    6    6    0    0 -0.40924711503E+01 -0.24799740649E+02  0.16877952482E+03  0.17064086103E+03  0.00000000000E+00 0.  1.
</event>
<event>
12    1  0.8724767E-002  0.1773752E+03  0.7818608E-02  0.1171022E+00
         21   -1    0    0  503  502  0.00000000000E+00  0.00000000000E+00  0.10334023377E+04  0.10334023377E+04  0.00000000000E+00 0.  1.
         21   -1    0    0  501  503 -0.00000000000E+00 -0.00000000000E+00 -0.30052349197E+02  0.30052349197E+02  0.00000000000E+00 0.  1.
          6    2    1    2  501    0  0.28475211606E+02  0.33671871192E+02  0.52111510949E+03  0.54963326852E+03  0.16908914789E+03 0.  0.
         24    2    3    3    0    0  0.69165894468E+01  0.72947135704E+02  0.46549365461E+03  0.47805703758E+03  0.80529900552E+02 0.  0.
         -6    2    1    2    0  502 -0.28475211606E+02 -0.33671871192E+02  0.48223487906E+03  0.51382141843E+03  0.17180610835E+03 0.  0.
        -24    2    5    5    0    0 -0.77306946318E+02  0.78026991944E+01  0.34512244779E+03  0.36240613811E+03  0.78685824073E+02 0.  0.
          5    1    3    3  501    0  0.21558622159E+02 -0.39275264512E+02  0.55621454888E+02  0.71576230942E+02  0.47000000000E+01 0. -1.
        -13    1    4    4    0    0 -0.36729446604E+02  0.35106599262E+02  0.23568443192E+03  0.24109889467E+03  0.00000000000E+00 0.  1.
         14    1    4    4    0    0  0.43646036051E+02  0.37840536442E+02  0.22980922268E+03  0.23695814291E+03  0.00000000000E+00 0. -1.
         -5    1    5    5    0  502  0.48831734712E+02 -0.41474570386E+02  0.13711243127E+03  0.15141528031E+03  0.47000000000E+01 0.  1.
         11    1    6    6    0    0 -0.15089893774E+02 -0.19043032168E+02  0.20841395805E+03  0.20982545098E+03  0.00000000000E+00 0. -1.
        -12    1    6    6    0    0 -0.62217052544E+02  0.26845731362E+02  0.13670848974E+03  0.15258068714E+03  0.00000000000E+00 0.  1.
</event>
<event>
12    1  0.8724767E-002  0.1805865E+03  0.7818608E-02  0.1167524E+00
         21   -1    0    0  503  502  0.00000000000E+00  0.00000000000E+00  0.42460197588E+04  0.42460197588E+04  0.00000000000E+00 0.  1.
         21   -1    0    0  501  503 -0.00000000000E+00 -0.00000000000E+00 -0.88426130311E+01  0.88426130311E+01  0.00000000000E+00 0.  1.
          6    2    1    2  501    0 -0.20106097659E+02  0.49551909414E+02  0.29003748689E+04  0.29059176719E+04  0.17124102573E+03 0.  0.
         24    2    3    3    0    0 -0.10297440876E+02  0.46287672347E+02  0.28865050671E+04  0.28879920926E+04  0.79613055908E+02 0.  0.
         -6    2    1    2    0  502  0.20106097659E+02 -0.49551909414E+02  0.13368022769E+04  0.13489447000E+04  0.17248718535E+03 0.  0.
        -24    2    5    5    0    0  0.79092111196E+01  0.38859276658E+02  0.57296814823E+03  0.57989985862E+03  0.80117090139E+02 0.  0.
          5    1    3    3  501    0 -0.98086567834E+01  0.32642370665E+01  0.13869801812E+02  0.17925579317E+02  0.47000000000E+01 0. -1.
        -13    1    4    4    0    0 -0.33665841615E+02 -0.68812415015E+01  0.11721152196E+04  0.11726187908E+04  0.00000000000E+00 0.  1.
         14    1    4    4    0    0  0.23368400739E+02  0.53168913849E+02  0.17143898474E+04  0.17153733018E+04  0.00000000000E+00 0. -1.
         -5    1    5    5    0  502  0.12196886540E+02 -0.88411186072E+02  0.76383412867E+03  0.76904484133E+03  0.47000000000E+01 0.  1.
         13    1    6    6    0    0 -0.28252043735E+02  0.15395633801E+02  0.41217240940E+03  0.41342629160E+03  0.00000000000E+00 0. -1.
        -14    1    6    6    0    0  0.36161254855E+02  0.23463642857E+02  0.16079573883E+03  0.16647356702E+03  0.00000000000E+00 0.  1.
</event>
<event>
12    1  0.8724767E-002  0.2266401E+03  0.7818608E-02  0.1129182E+00
         21   -1    0    0  501  502  0.00000000000E+00  0.00000000000E+00  0.72885100227E+03  0.72885100227E+03  0.00000000000E+00 0.  1.
         21   -1    0    0  502  503 -0.00000000000E+00 -0.00000000000E+00 -0.33730741929E+03  0.33730741929E+03  0.00000000000E+00 0.  1.
         -6    2    1    2    0  503  0.62996993571E+02 -0.13307281206E+03 -0.27867412258E+03  0.35865752032E+03  0.17116937745E+03 0.  0.
        -24    2    3    3    0    0  0.98997513994E+02 -0.53367096358E+02 -0.14983859541E+03  0.20287009577E+03  0.77821053271E+02 0.  0.
          6    2    1    2  501    0 -0.62996993571E+02  0.13307281206E+03  0.67021770556E+03  0.70750090124E+03  0.17230425965E+03 0.  0.
         24    2    5    5    0    0 -0.13619642343E+02  0.15041556586E+03  0.45901416131E+03  0.48985917493E+03  0.80359653268E+02 0.  0.
          5    1    5    5  501    0 -0.49377351228E+02 -0.17342753799E+02  0.21120354425E+03  0.21764172630E+03  0.47000000000E+01 0. -1.
        -13    1    6    6    0    0 -0.39538048176E+02  0.97425844586E+02  0.22238278706E+03  0.24598608991E+03  0.00000000000E+00 0.  1.
         14    1    6    6    0    0  0.25918405833E+02  0.52989721275E+02  0.23663137424E+03  0.24387308502E+03  0.00000000000E+00 0. -1.
         -5    1    3    3    0  503 -0.36000520423E+02 -0.79705715703E+02 -0.12883552717E+03  0.15578742455E+03  0.47000000000E+01 0.  1.
         11    1    4    4    0    0  0.83439741111E+02 -0.17831143916E+02 -0.13811486617E+03  0.16234486856E+03  0.00000000000E+00 0. -1.
        -12    1    4    4    0    0  0.15557772883E+02 -0.35535952443E+02 -0.11723729237E+02  0.40525227209E+02  0.00000000000E+00 0.  1.
</event>
<event>
12    1  0.8724767E-002  0.1920589E+03  0.7818608E-02  0.1156886E+00
         21   -1    0    0  503  502  0.00000000000E+00  0.00000000000E+00  0.20419414133E+03  0.20419414133E+03  0.00000000000E+00 0. -1.
         21   -1    0    0  501  503 -0.00000000000E+00 -0.00000000000E+00 -0.18025772834E+03  0.18025772834E+03  0.00000000000E+00 0. -1.
          6    2    1    2  501    0 -0.77778741239E+02 -0.30074913141E+02  0.24366763105E+02  0.19359848229E+03  0.17301040493E+03 0.  0.
         24    2    3    3    0    0 -0.80558087959E+02 -0.60428631918E+02 -0.29362415272E+02  0.13164698820E+03  0.79545917427E+02 0.  0.
         -6    2    1    2    0  502  0.77778741239E+02  0.30074913141E+02 -0.43035010990E+00  0.19085338738E+03  0.17167060693E+03 0.  0.
        -24    2    5    5    0    0  0.16147243107E+02 -0.42169169336E+02 -0.18571275253E+02  0.94060659450E+02  0.80396163399E+02 0.  0.
          5    1    3    3  501    0  0.27793467204E+01  0.30353718777E+02  0.53729178377E+02  0.61951494097E+02  0.47000000000E+01 0. -1.
        -11    1    4    4    0    0 -0.75633330279E+02 -0.19852257617E+02  0.48480233454E+01  0.78345491969E+02  0.00000000000E+00 0.  1.
         12    1    4    4    0    0 -0.49247576806E+01 -0.40576374300E+02 -0.34210438617E+02  0.53301496226E+02  0.00000000000E+00 0. -1.
         -5    1    5    5    0  502  0.61631498132E+02  0.72244082476E+02  0.18140925143E+02  0.96792727928E+02  0.47000000000E+01 0.  1.
         13    1    6    6    0    0  0.22527740317E+01  0.11502405700E+02 -0.34451099028E+02  0.36390363449E+02  0.00000000000E+00 0. -1.
        -14    1    6    6    0    0  0.13894469076E+02 -0.53671575035E+02  0.15879823776E+02  0.57670296001E+02  0.00000000000E+00 0.  1.
</event>
<event>
12    1  0.8724767E-002  0.1966567E+03  0.7818608E-02  0.1157469E+00
         21   -1    0    0  503  502  0.00000000000E+00  0.00000000000E+00  0.12872329866E+04  0.12872329866E+04  0.00000000000E+00 0. -1.
         21   -1    0    0  501  503 -0.00000000000E+00 -0.00000000000E+00 -0.31820018667E+02  0.31820018667E+02  0.00000000000E+00 0. -1.
          6    2    1    2  501    0  0.22911817928E+02  0.25495726573E+02  0.39854223287E+03  0.44442071338E+03  0.19364626417E+03 0.  0.
         24    2    3    3    0    0  0.28340051376E+02  0.86770969510E+02  0.33215033777E+03  0.35378906963E+03  0.80687664752E+02 0.  0.
         -6    2    1    2    0  502 -0.22911817928E+02 -0.25495726573E+02  0.85687073510E+03  0.87463229192E+03  0.17198606317E+03 0.  0.
        -24    2    5    5    0    0 -0.25428656004E+02 -0.90283703607E+01  0.85259599033E+03  0.85680333409E+03  0.80398399005E+02 0.  0.
          5    1    3    3  501    0 -0.54282334476E+01 -0.61275242936E+02  0.66391895092E+02  0.90631643752E+02  0.47000000000E+01 0. -1.
        -11    1    4    4    0    0  0.38173458826E+01  0.23734476965E+02  0.23013847169E+03  0.23139060845E+03  0.00000000000E+00 0.  1.
         12    1    4    4    0    0  0.24522705493E+02  0.63036492545E+02  0.10201186608E+03  0.12239846118E+03  0.00000000000E+00 0. -1.
         -5    1    5    5    0  502  0.25168380756E+01 -0.16467356213E+02  0.42747447708E+01  0.17828957832E+02  0.47000000000E+01 0.  1.
         13    1    6    6    0    0  0.10792722775E+02 -0.36795778280E+02  0.44918963817E+03  0.45082340578E+03  0.00000000000E+00 0. -1.
        -14    1    6    6    0    0 -0.36221378779E+02  0.27767407920E+02  0.40340635216E+03  0.40597992831E+03  0.00000000000E+00 0.  1.
</event>
<event>
12    1  0.8724767E-002  0.1833050E+03  0.7818608E-02  0.1164755E+00
         21   -1    0    0  501  502  0.00000000000E+00  0.00000000000E+00  0.20270388388E+04  0.20270388388E+04  0.00000000000E+00 0.  1.
         21   -1    0    0  502  503 -0.00000000000E+00 -0.00000000000E+00 -0.18981588643E+02  0.18981588643E+02  0.00000000000E+00 0.  1.
         -6    2    1    2    0  503  0.64030499364E+02  0.29946367924E+01  0.63548839339E+03  0.66126557529E+03  0.17122438563E+03 0.  0.
        -24    2    3    3    0    0  0.91423054281E+02  0.22151028459E+02  0.29491242132E+03  0.31902092280E+03  0.77150307976E+02 0.  0.
          6    2    1    2  501    0 -0.64030499364E+02 -0.29946367924E+01  0.13725688568E+04  0.13847548521E+04  0.17173194603E+03 0.  0.
         24    2    5    5    0    0 -0.30223439997E+02  0.42688893831E+02  0.41658575336E+03  0.42707239630E+03  0.78175084278E+02 0.  0.
          5    1    5    5  501    0 -0.33807059367E+02 -0.45683530623E+02  0.95598310340E+03  0.95768245584E+03  0.47000000000E+01 0. -1.
        -11    1    6    6    0    0 -0.60949682121E+01  0.26648213162E+02  0.37713793165E+03  0.37812735340E+03  0.00000000000E+00 0.  1.
         12    1    6    6    0    0 -0.24128471785E+02  0.16040680668E+02  0.39447821704E+02  0.48945042897E+02  0.00000000000E+00 0. -1.
         -5    1    3    3    0  503 -0.27392554917E+02 -0.19156391666E+02  0.34057597207E+03  0.34224465249E+03  0.47000000000E+01 0.  1.
         13    1    4    4    0    0  0.60362710016E+02  0.49708928760E+02  0.21824899143E+03  0.23183454578E+03  0.00000000000E+00 0. -1.
        -14    1    4    4    0    0  0.31060344265E+02 -0.27557900302E+02  0.76663429890E+02  0.87186377018E+02  0.00000000000E+00 0.  1.
</event>
<event>
12    1  0.8724767E-002  0.2592901E+03  0.7818608E-02  0.1107824E+00
         21   -1    0    0  501  502  0.00000000000E+00  0.00000000000E+00  0.91540702429E+02  0.91540702429E+02  0.00000000000E+00 0.  1.
         21   -1    0    0  502  503 -0.00000000000E+00 -0.00000000000E+00 -0.15374410302E+04  0.15374410302E+04  0.00000000000E+00 0. -1.
         -6    2    1    2    0  503  0.19309910144E+03  0.61378569573E+00 -0.13144340559E+04  0.13397642587E+04  0.17304260112E+03 0.  0.
        -24    2    3    3    0    0  0.18540823883E+03 -0.19554196762E+01 -0.79501974406E+03  0.82026539676E+03  0.79993055878E+02 0.  0.
          6    2    1    2  501    0 -0.19309910144E+03 -0.61378569573E+00 -0.13146627182E+03  0.28921747390E+03  0.17051606046E+03 0.  0.
         24    2    5    5    0    0 -0.12466135435E+03 -0.59477398062E+02 -0.48119369215E+02  0.16626444929E+03  0.79059340087E+02 0.  0.
          5    1    5    5  501    0 -0.68437747091E+02  0.58863612366E+02 -0.83346902603E+02  0.12295302461E+03  0.47000000000E+01 0. -1.
        -11    1    6    6    0    0 -0.19231302185E+01 -0.70161529731E-01  0.15623714993E+02  0.15741785879E+02  0.00000000000E+00 0.  1.
         12    1    6    6    0    0 -0.12273822413E+03 -0.59407236532E+02 -0.63743084208E+02  0.15052266341E+03  0.00000000000E+00 0. -1.
         -5    1    3    3    0  503  0.76908626142E+01  0.25692053719E+01 -0.51941431188E+03  0.51949886195E+03  0.47000000000E+01 0.  1.
         13    1    4    4    0    0  0.86581184485E+02 -0.15448022886E+02 -0.52698233944E+03  0.53427083862E+03  0.00000000000E+00 0. -1.
        -14    1    4    4    0    0  0.98827054343E+02  0.13492603210E+02 -0.26803740462E+03  0.28599455814E+03  0.00000000000E+00 0.  1.
</event>
<event>
12    1  0.8724767E-002  0.1812814E+03  0.7818608E-02  0.1167480E+00
         21   -1    0    0  501  502  0.00000000000E+00  0.00000000000E+00  0.96680670373E+02  0.96680670373E+02  0.00000000000E+00 0. -1.
         21   -1    0    0  502  503 -0.00000000000E+00 -0.00000000000E+00 -0.33560500475E+03  0.33560500475E+03  0.00000000000E+00 0. -1.
         -6    2    1    2    0  503  0.29713377698E+02  0.31507937451E+02 -0.98811181889E+02  0.20316855502E+03  0.17215741967E+03 0.  0.
        -24    2    3    3    0    0 -0.48442989332E+02  0.20261984863E+02 -0.70793644326E+02  0.11925215872E+03  0.80324753572E+02 0.  0.
          6    2    1    2  501    0 -0.29713377698E+02 -0.31507937451E+02 -0.14011315248E+03  0.22911712010E+03  0.17603216833E+03 0.  0.
         24    2    5    5    0    0 -0.64935552159E+02  0.33537658316E+02 -0.38464068535E+02  0.10331506379E+03  0.62073483705E+02 0.  0.
          5    1    5    5  501    0  0.35222174461E+02 -0.65045595767E+02 -0.10164908395E+03  0.12580205630E+03  0.47000000000E+01 0. -1.
        -13    1    6    6    0    0 -0.52263007972E+02 -0.70698255939E+01 -0.27049783077E+02  0.59271369148E+02  0.00000000000E+00 0.  1.
         14    1    6    6    0    0 -0.12672544187E+02  0.40607483910E+02 -0.11414285458E+02  0.44043694647E+02  0.00000000000E+00 0. -1.
         -5    1    3    3    0  503  0.78156367030E+02  0.11245952588E+02 -0.28017537563E+02  0.83916396300E+02  0.47000000000E+01 0.  1.
         13    1    4    4    0    0 -0.24997035928E+02 -0.29167725287E+02 -0.15367196212E+02  0.41373405987E+02  0.00000000000E+00 0. -1.
        -14    1    4    4    0    0 -0.23445953404E+02  0.49429710150E+02 -0.55426448114E+02  0.77878752733E+02  0.00000000000E+00 0.  1.
</event>
<event>
12    1  0.8724767E-002  0.2874402E+03  0.7818608E-02  0.1091891E+00
         21   -1    0    0  503  502  0.00000000000E+00  0.00000000000E+00  0.77222893579E+02  0.77222893579E+02  0.00000000000E+00 0. -1.
         21   -1    0    0  501  503 -0.00000000000E+00 -0.00000000000E+00 -0.10665801352E+04  0.10665801352E+04  0.00000000000E+00 0. -1.
          6    2    1    2  501    0  0.21023042174E+03 -0.92388457056E+02 -0.46990882737E+03  0.55085043513E+03  0.17288562295E+03 0.  0.
         24    2    3    3    0    0  0.57240320867E+02 -0.30866224659E+02 -0.12189055096E+03  0.16571439844E+03  0.91513809228E+02 0.  0.
         -6    2    1    2    0  502 -0.21023042174E+03  0.92388457056E+02 -0.51944841425E+03  0.59295259364E+03  0.17039268184E+03 0.  0.
        -24    2    5    5    0    0 -0.18216987420E+03  0.11536389690E+02 -0.33932807574E+03  0.39347859165E+03  0.79767836588E+02 0.  0.
          5    1    3    3  501    0  0.15299010087E+03 -0.61522232397E+02 -0.34801827641E+03  0.38513603669E+03  0.47000000000E+01 0. -1.
        -13    1    4    4    0    0  0.21547975182E+02 -0.26061031395E+02 -0.12506922940E+03  0.12956004297E+03  0.00000000000E+00 0.  1.
         14    1    4    4    0    0  0.35692345685E+02 -0.48051932645E+01  0.31786784398E+01  0.36154355469E+02  0.00000000000E+00 0. -1.
         -5    1    5    5    0  502 -0.28060547541E+02  0.80852067366E+02 -0.18012033851E+03  0.19947400199E+03  0.47000000000E+01 0.  1.
         13    1    6    6    0    0 -0.11227622648E+03 -0.14146675550E+02 -0.13587986840E+03  0.17683160944E+03  0.00000000000E+00 0. -1.
        -14    1    6    6    0    0 -0.69893647710E+02  0.25683065240E+02 -0.20344820734E+03  0.21664698221E+03  0.00000000000E+00 0.  1.
</event>
<event>
12    1  0.8724767E-002  0.1818836E+03  0.7818608E-02  0.1167319E+00
         21   -1    0    0  501  502  0.00000000000E+00  0.00000000000E+00  0.93639138768E+02  0.93639138768E+02  0.00000000000E+00 0. -1.
         21   -1    0    0  502  503 -0.00000000000E+00 -0.00000000000E+00 -0.36843964893E+03  0.36843964893E+03  0.00000000000E+00 0. -1.
         -6    2    1    2    0  503  0.77948247738E+01  0.36812214019E+02 -0.20035648762E+03  0.27060002499E+03  0.17794873699E+03 0.  0.
        -24    2    3    3    0    0  0.62879038305E+02  0.61953509734E+02 -0.14966513101E+03  0.19149213053E+03  0.80483375846E+02 0.  0.
          6    2    1    2  501    0 -0.77948247738E+01 -0.36812214019E+02 -0.74444022541E+02  0.19147876271E+03  0.17235517307E+03 0.  0.
         24    2    5    5    0    0  0.42339187953E+02 -0.64013874127E+02 -0.75948148394E+02  0.13422754491E+03  0.79740389087E+02 0.  0.
          5    1    5    5  501    0 -0.50134012727E+02  0.27201660108E+02  0.15041258527E+01  0.57251217798E+02  0.47000000000E+01 0. -1.
        -13    1    6    6    0    0  0.54232629586E+01 -0.71334996808E+02 -0.38970703959E+02  0.81466614743E+02  0.00000000000E+00 0.  1.
         14    1    6    6    0    0  0.36915924994E+02  0.73211226806E+01 -0.36977444435E+02  0.52760930170E+02  0.00000000000E+00 0. -1.
         -5    1    3    3    0  503 -0.55084213532E+02 -0.25141295716E+02 -0.50691356609E+02  0.79107894458E+02  0.47000000000E+01 0.  1.
         13    1    4    4    0    0  0.39501306374E+02  0.23737075968E+01 -0.14869974186E+02  0.42274150794E+02  0.00000000000E+00 0. -1.
        -14    1    4    4    0    0  0.23377731931E+02  0.59579802138E+02 -0.13479515682E+03  0.14921797973E+03  0.00000000000E+00 0.  1.
</event>
<event>
12    1  0.8724767E-002  0.1828718E+03  0.7818608E-02  0.1165612E+00
         21   -1    0    0  503  502  0.00000000000E+00  0.00000000000E+00  0.15211901454E+03  0.15211901454E+03  0.00000000000E+00 0. -1.
         21   -1    0    0  501  503 -0.00000000000E+00 -0.00000000000E+00 -0.25710840143E+03  0.25710840143E+03  0.00000000000E+00 0. -1.
          6    2    1    2  501    0  0.53856817918E+02  0.33496661461E+02 -0.13299056293E+03  0.22422430315E+03  0.16901912651E+03 0.  0.
         24    2    3    3    0    0  0.85296694437E+02  0.60456506681E+02 -0.60572221290E+02  0.14066710540E+03  0.72025865260E+02 0.  0.
         -6    2    1    2    0  502 -0.53856817918E+02 -0.33496661461E+02  0.28001176040E+02  0.18500311282E+03  0.17152114367E+03 0.  0.
        -24    2    5    5    0    0 -0.33702840992E+02 -0.45850814438E+02  0.80608971895E+02  0.12713707730E+03  0.80173882277E+02 0.  0.
          5    1    3    3  501    0 -0.31439876519E+02 -0.26959845220E+02 -0.72418341641E+02  0.83557197750E+02  0.47000000000E+01 0. -1.
        -13    1    4    4    0    0  0.43214544360E+01 -0.15404158057E+02 -0.75740876380E+01  0.17701125880E+02  0.00000000000E+00 0.  1.
         14    1    4    4    0    0  0.80975240001E+02  0.75860664737E+02 -0.52998133652E+02  0.12296597952E+03  0.00000000000E+00 0. -1.
         -5    1    5    5    0  502 -0.20153976926E+02  0.12354152977E+02 -0.52607795854E+02  0.57866035516E+02  0.47000000000E+01 0.  1.
         11    1    6    6    0    0  0.22655872264E+02 -0.31453040703E+02  0.22041274839E+02  0.44591480285E+02  0.00000000000E+00 0. -1.
        -12    1    6    6    0    0 -0.56358713257E+02 -0.14397773735E+02  0.58567697055E+02  0.82545597017E+02  0.00000000000E+00 0.  1.
</event>
<event>
12    1  0.8724767E-002  0.1854280E+03  0.7818608E-02  0.1162999E+00
         21   -1    0    0  501  502  0.00000000000E+00  0.00000000000E+00  0.53374152632E+02  0.53374152632E+02  0.00000000000E+00 0.  1.
         21   -1    0    0  502  503 -0.00000000000E+00 -0.00000000000E+00 -0.99551310838E+03  0.99551310838E+03  0.00000000000E+00 0. -1.
         -6    2    1    2    0  503 -0.32877408922E+02 -0.60928669168E+02 -0.78611914122E+03  0.80769229254E+03  0.17201833768E+03 0.  0.
        -24    2    3    3    0    0  0.28757912224E+02 -0.56836506534E+01 -0.22661330605E+03  0.24207776438E+03  0.79929544769E+02 0.  0.
          6    2    1    2  501    0  0.32877408922E+02  0.60928669168E+02 -0.15601981453E+03  0.24119496847E+03  0.17041010400E+03 0.  0.
         24    2    5    5    0    0  0.14523677273E+01  0.97376382766E+02 -0.76725432877E+02  0.14832054787E+03  0.81412060390E+02 0.  0.
          5    1    5    5  501    0  0.31425041195E+02 -0.36447713598E+02 -0.79294381648E+02  0.92874420599E+02  0.47000000000E+01 0. -1.
        -11    1    6    6    0    0  0.34287666194E+02  0.85300599826E+02 -0.54570345418E+02  0.10691005090E+03  0.00000000000E+00 0.  1.
         12    1    6    6    0    0 -0.32835298467E+02  0.12075782940E+02 -0.22155087460E+02  0.41410496971E+02  0.00000000000E+00 0. -1.
         -5    1    3    3    0  503 -0.61635321146E+02 -0.55245018515E+02 -0.55950583516E+03  0.56561452816E+03  0.47000000000E+01 0.  1.
         13    1    4    4    0    0 -0.72619133142E+01  0.31641274086E+02 -0.10384746454E+03  0.10880349949E+03  0.00000000000E+00 0. -1.
        -14    1    4    4    0    0  0.36019825538E+02 -0.37324924740E+02 -0.12276584152E+03  0.13327426489E+03  0.00000000000E+00 0.  1.
</event>
<event>
12    1  0.8724767E-002  0.2657775E+03  0.7818608E-02  0.1103777E+00
         21   -1    0    0  501  502  0.00000000000E+00  0.00000000000E+00  0.70195279419E+03  0.70195279419E+03  0.00000000000E+00 0. -1.
         21   -1    0    0  502  503 -0.00000000000E+00 -0.00000000000E+00 -0.13793229372E+03  0.13793229372E+03  0.00000000000E+00 0.  1.
         -6    2    1    2    0  503  0.11804413010E+02 -0.20193727416E+03  0.63349905938E+02  0.27322310734E+03  0.17239387733E+03 0.  0.
        -24    2    3    3    0    0  0.65071069733E+02 -0.96786467078E+02  0.54201723577E+01  0.14180022889E+03  0.80473985351E+02 0.  0.
          6    2    1    2  501    0 -0.11804413010E+02  0.20193727416E+03  0.50067059453E+03  0.56666198057E+03  0.17180439208E+03 0.  0.
         24    2    5    5    0    0  0.29213397166E+02  0.32590537207E+02  0.15290679147E+03  0.17766001298E+03  0.79164560548E+02 0.  0.
          5    1    5    5  501    0 -0.41017810176E+02  0.16934673695E+03  0.34776380306E+03  0.38900196759E+03  0.47000000000E+01 0. -1.
        -13    1    6    6    0    0  0.36169729186E+02  0.47548436987E+02  0.14925065016E+03  0.16076336567E+03  0.00000000000E+00 0.  1.
         14    1    6    6    0    0 -0.69563320202E+01 -0.14957899781E+02  0.36561413060E+01  0.16896647309E+02  0.00000000000E+00 0. -1.
         -5    1    3    3    0  503 -0.53266656723E+02 -0.10515080708E+03  0.57929733581E+02  0.13142287845E+03  0.47000000000E+01 0.  1.
         13    1    4    4    0    0  0.67424444808E+02 -0.74725742401E+02  0.33442633976E+02  0.10605848435E+03  0.00000000000E+00 0. -1.
        -14    1    4    4    0    0 -0.23533750753E+01 -0.22060724678E+02 -0.28022461618E+02  0.35741744539E+02  0.00000000000E+00 0.  1.
</event>
<event>
12    1  0.8724767E-002  0.1936992E+03  0.7818608E-02  0.1155413E+00
         21   -1    0    0  503  502  0.00000000000E+00  0.00000000000E+00  0.81663757241E+02  0.81663757241E+02  0.00000000000E+00 0. -1.
         21   -1    0    0  501  503 -0.00000000000E+00 -0.00000000000E+00 -0.48819216619E+03  0.48819216619E+03  0.00000000000E+00 0. -1.
          6    2    1    2  501    0 -0.77831352413E+02  0.36875518320E+02 -0.13154861162E+03  0.23414612936E+03  0.17349884554E+03 0.  0.
         24    2    3    3    0    0  0.11934355203E+02  0.95274377552E+01 -0.11167336040E+03  0.13811011848E+03  0.79813936749E+02 0.  0.
         -6    2    1    2    0  502  0.77831352413E+02 -0.36875518320E+02 -0.27497979732E+03  0.33570979407E+03  0.17224881313E+03 0.  0.
        -24    2    5    5    0    0  0.32552103644E+02 -0.21619023386E+02 -0.27334373143E+03  0.28767087528E+03  0.80689003877E+02 0.  0.
          5    1    3    3  501    0 -0.89765707616E+02  0.27348080564E+02 -0.19875251218E+02  0.96036010878E+02  0.47000000000E+01 0. -1.
        -11    1    4    4    0    0  0.36004835498E+02  0.15182132604E+02 -0.21481389034E+02  0.44590306171E+02  0.00000000000E+00 0.  1.
         12    1    4    4    0    0 -0.24070480294E+02 -0.56546948486E+01 -0.90191971367E+02  0.93519812310E+02  0.00000000000E+00 0. -1.
         -5    1    5    5    0  502  0.45279248769E+02 -0.15256494934E+02 -0.16360658924E+01  0.48038918788E+02  0.47000000000E+01 0.  1.
         13    1    6    6    0    0  0.24208405765E+02 -0.50529644945E+02 -0.21292892663E+03  0.22017724616E+03  0.00000000000E+00 0. -1.
        -14    1    6    6    0    0  0.83436978789E+01  0.28910621559E+02 -0.60414804799E+02  0.67493629123E+02  0.00000000000E+00 0.  1.
</event>
<event>
12    1  0.8724767E-002  0.2274632E+03  0.7818608E-02  0.1128756E+00
         21   -1    0    0  501  502  0.00000000000E+00  0.00000000000E+00  0.96697032190E+03  0.96697032190E+03  0.00000000000E+00 0. -1.
         21   -1    0    0  502  503 -0.00000000000E+00 -0.00000000000E+00 -0.19004218705E+03  0.19004218705E+03  0.00000000000E+00 0.  1.
         -6    2    1    2    0  503 -0.14268691980E+03 -0.37370125865E+02 -0.10220638946E+03  0.24937047418E+03  0.17315716548E+03 0.  0.
        -24    2    3    3    0    0 -0.10341877048E+03 -0.77333739052E+02 -0.24743612019E+02  0.15365396662E+03  0.79506891776E+02 0.  0.
          6    2    1    2  501    0  0.14268691980E+03  0.37370125865E+02  0.87913452431E+03  0.90764203478E+03  0.17082291436E+03 0.  0.
         24    2    5    5    0    0  0.26296843452E+02  0.55487469696E+02  0.29157660168E+03  0.30837474011E+03  0.79420919270E+02 0.  0.
          5    1    5    5  501    0  0.11639007634E+03 -0.18117343831E+02  0.58755792263E+03  0.59926729467E+03  0.47000000000E+01 0. -1.
        -11    1    6    6    0    0  0.27143058256E+02  0.75429244679E+02  0.24195586003E+03  0.25489008369E+03  0.00000000000E+00 0.  1.
         12    1    6    6    0    0 -0.84621480421E+00 -0.19941774983E+02  0.49620741659E+02  0.53484656414E+02  0.00000000000E+00 0. -1.
         -5    1    3    3    0  503 -0.39268149319E+02  0.39963613187E+02 -0.77462777439E+02  0.95716507555E+02  0.47000000000E+01 0.  1.
         13    1    4    4    0    0 -0.17795516095E+02 -0.22536513542E+02  0.27149700918E+02  0.39518110983E+02  0.00000000000E+00 0. -1.
        -14    1    4    4    0    0 -0.85623254382E+02 -0.54797225509E+02 -0.51893312937E+02  0.11413585564E+03  0.00000000000E+00 0.  1.
</event>
<event>
12    1  0.8724767E-002  0.2302845E+03  0.7818608E-02  0.1126470E+00
         21   -1    0    0  501  502  0.00000000000E+00  0.00000000000E+00  0.15225621882E+03  0.15225621882E+03  0.00000000000E+00 0.  1.
         21   -1    0    0  502  503 -0.00000000000E+00 -0.00000000000E+00 -0.41949780915E+03  0.41949780915E+03  0.00000000000E+00 0. -1.
         -6    2    1    2    0  503 -0.15150411756E+03  0.14547264281E+02 -0.25164732391E+03  0.34111192354E+03  0.17281738402E+03 0.  0.
        -24    2    3    3    0    0 -0.74585910205E+02  0.36099803914E+02 -0.22950819469E+03  0.25808690545E+03  0.84074880252E+02 0.  0.
          6    2    1    2  501    0  0.15150411756E+03 -0.14547264281E+02 -0.15594266426E+02  0.23064210443E+03  0.17259049411E+03 0.  0.
         24    2    5    5    0    0  0.49752244389E+02 -0.51755039819E+02 -0.50224072664E+02  0.11680372895E+03  0.77244958751E+02 0.  0.
          5    1    5    5  501    0  0.10175187317E+03  0.37207775538E+02  0.34629806238E+02  0.11383837549E+03  0.47000000000E+01 0. -1.
        -13    1    6    6    0    0  0.97570752201E+01 -0.22310772869E+01  0.19789994382E+02  0.22177062483E+02  0.00000000000E+00 0.  1.
         14    1    6    6    0    0  0.39995169169E+02 -0.49523962532E+02 -0.70014067046E+02  0.94626666464E+02  0.00000000000E+00 0. -1.
         -5    1    3    3    0  503 -0.76918207352E+02 -0.21552539633E+02 -0.22139129212E+02  0.83025018092E+02  0.47000000000E+01 0.  1.
         13    1    4    4    0    0 -0.17762127548E+02 -0.18124010323E+02 -0.12390453161E+03  0.12647650327E+03  0.00000000000E+00 0. -1.
        -14    1    4    4    0    0 -0.56823782657E+02  0.54223814237E+02 -0.10560366308E+03  0.13161040218E+03  0.00000000000E+00 0.  1.
</event>
<event>
12    1  0.8724767E-002  0.2515942E+03  0.7818608E-02  0.1112392E+00
         21   -1    0    0  503  502  0.00000000000E+00  0.00000000000E+00  0.42794457823E+03  0.42794457823E+03  0.00000000000E+00 0. -1.
         21   -1    0    0  501  503 -0.00000000000E+00 -0.00000000000E+00 -0.30099083835E+03  0.30099083835E+03  0.00000000000E+00 0. -1.
          6    2    1    2  501    0  0.48435315626E+01  0.18298276584E+03 -0.19669310306E+03  0.31935532313E+03  0.17260791763E+03 0.  0.
         24    2    3    3    0    0 -0.53275961594E+02  0.12555116679E+03 -0.17123150776E+03  0.23364274010E+03  0.81653396667E+02 0.  0.
         -6    2    1    2    0  502 -0.48435315626E+01 -0.18298276584E+03  0.32364684295E+03  0.40958009345E+03  0.17176268981E+03 0.  0.
        -24    2    5    5    0    0  0.23260899144E+02 -0.46357949863E+02  0.20650252096E+03  0.22736845403E+03  0.79768375825E+02 0.  0.
          5    1    3    3  501    0  0.58119493157E+02  0.57431599055E+02 -0.25461595303E+02  0.85712583033E+02  0.47000000000E+01 0. -1.
        -11    1    4    4    0    0  0.17239742045E+02  0.57362195369E+02 -0.52650233607E+02  0.79747584680E+02  0.00000000000E+00 0.  1.
         12    1    4    4    0    0 -0.70515703639E+02  0.68188971417E+02 -0.11858127415E+03  0.15389515542E+03  0.00000000000E+00 0. -1.
         -5    1    5    5    0  502 -0.28104430707E+02 -0.13662481598E+03  0.11714432199E+03  0.18221163942E+03  0.47000000000E+01 0.  1.
         13    1    6    6    0    0 -0.19517780478E+02 -0.31191494759E+02  0.15225424361E+03  0.15663718523E+03  0.00000000000E+00 0. -1.
        -14    1    6    6    0    0  0.42778679622E+02 -0.15166455104E+02  0.54248277347E+02  0.70731268798E+02  0.00000000000E+00 0.  1.
</event>
<event>
12    1  0.8724767E-002  0.2114667E+03  0.7818608E-02  0.1140656E+00
         21   -1    0    0  503  502  0.00000000000E+00  0.00000000000E+00  0.43996132469E+03  0.43996132469E+03  0.00000000000E+00 0.  1.
         21   -1    0    0  501  503 -0.00000000000E+00 -0.00000000000E+00 -0.17676647534E+04  0.17676647534E+04  0.00000000000E+00 0.  1.
          6    2    1    2  501    0  0.29707415799E+02 -0.11661977054E+03 -0.17355403992E+04  0.17482251905E+04  0.17236048903E+03 0.  0.
         24    2    3    3    0    0 -0.34409260990E+02 -0.10508415518E+03 -0.14035131786E+04  0.14098346116E+04  0.74550069123E+02 0.  0.
         -6    2    1    2    0  502 -0.29707415799E+02  0.11661977054E+03  0.40783697043E+03  0.45940088759E+03  0.17388352318E+03 0.  0.
        -24    2    5    5    0    0  0.32091119147E+02  0.67039790042E+02  0.11536766872E+03  0.15635367043E+03  0.74917273659E+02 0.  0.
          5    1    3    3  501    0  0.64116676790E+02 -0.11535615363E+02 -0.33202722064E+03  0.33839057893E+03  0.47000000000E+01 0. -1.
        -11    1    4    4    0    0  0.23318538840E+02 -0.26450945229E+02 -0.43177787304E+03  0.43321534876E+03  0.00000000000E+00 0.  1.
         12    1    4    4    0    0 -0.57727799830E+02 -0.78633209947E+02 -0.97173530552E+03  0.97661926285E+03  0.00000000000E+00 0. -1.
         -5    1    5    5    0  502 -0.61798534947E+02  0.49579980497E+02  0.29246930171E+03  0.30304721717E+03  0.47000000000E+01 0.  1.
         11    1    6    6    0    0 -0.16101380353E+02  0.69542527704E+00  0.46687153786E+02  0.49390569892E+02  0.00000000000E+00 0. -1.
        -12    1    6    6    0    0  0.48192499500E+02  0.66344364765E+02  0.68680514935E+02  0.10696310053E+03  0.00000000000E+00 0.  1.
</event>
<event>
12    1  0.8724767E-002  0.1973992E+03  0.7818608E-02  0.1155415E+00
         21   -1    0    0  503  502  0.00000000000E+00  0.00000000000E+00  0.26888229695E+04  0.26888229695E+04  0.00000000000E+00 0.  1.
         21   -1    0    0  501  503 -0.00000000000E+00 -0.00000000000E+00 -0.15482671267E+02  0.15482671267E+02  0.00000000000E+00 0.  1.
          6    2    1    2  501    0 -0.17797805778E+02  0.56332005957E+02  0.88575316663E+03  0.90748285426E+03  0.18835180325E+03 0.  0.
         24    2    3    3    0    0 -0.19402561950E+02  0.70407461527E+02  0.25890120152E+03  0.28045321392E+03  0.79312691308E+02 0.  0.
         -6    2    1    2    0  502  0.17797805778E+02 -0.56332005957E+02  0.17875871316E+04  0.17968227865E+04  0.17208810612E+03 0.  0.
        -24    2    5    5    0    0  0.70493396186E+02 -0.20563947017E+02  0.81144438924E+03  0.81859330282E+03  0.79125241076E+02 0.  0.
          5    1    3    3  501    0  0.16047561725E+01 -0.14075455571E+02  0.62685196511E+03  0.62702964033E+03  0.47000000000E+01 0. -1.
        -13    1    4    4    0    0 -0.22941631394E+02  0.86052122856E+02  0.23792984937E+03  0.25405097819E+03  0.00000000000E+00 0.  1.
         14    1    4    4    0    0  0.35390694439E+01 -0.15644661329E+02  0.20971352153E+02  0.26402235734E+02  0.00000000000E+00 0. -1.
         -5    1    5    5    0  502 -0.52695590409E+02 -0.35768058940E+02  0.97614274236E+03  0.97822948368E+03  0.47000000000E+01 0.  1.
         11    1    6    6    0    0  0.40944459121E+01 -0.37039157443E+02  0.37109609144E+03  0.37296242808E+03  0.00000000000E+00 0. -1.
        -12    1    6    6    0    0  0.66398950274E+02  0.16475210427E+02  0.44034829779E+03  0.44563087475E+03  0.00000000000E+00 0.  1.
</event>
<event>
12    1  0.8724767E-002  0.2319875E+03  0.7818608E-02  0.1126596E+00
         21   -1    0    0  503  502  0.00000000000E+00  0.00000000000E+00  0.76138268131E+03  0.76138268131E+03  0.00000000000E+00 0. -1.
         21   -1    0    0  501  503 -0.00000000000E+00 -0.00000000000E+00 -0.20492598978E+03  0.20492598978E+03  0.00000000000E+00 0.  1.
          6    2    1    2  501    0  0.70640876174E+02  0.13529461668E+03 -0.11768185151E+03  0.25337039508E+03  0.16447726967E+03 0.  0.
         24    2    3    3    0    0  0.81526632277E+02  0.30677106378E+02 -0.83074097240E+02  0.14254120306E+03  0.76347968615E+02 0.  0.
         -6    2    1    2    0  502 -0.70640876174E+02 -0.13529461668E+03  0.67413854303E+03  0.71293827602E+03  0.17470959766E+03 0.  0.
        -24    2    5    5    0    0 -0.36451985464E+01  0.37939914917E+00  0.16822398321E+03  0.18485921827E+03  0.76551881981E+02 0.  0.
          5    1    3    3  501    0 -0.10885756103E+02  0.10461751030E+03 -0.34607754269E+02  0.11082919202E+03  0.47000000000E+01 0. -1.
        -13    1    4    4    0    0  0.29078709081E+02  0.26531275005E+02 -0.80802560386E+02  0.89880663327E+02  0.00000000000E+00 0.  1.
         14    1    4    4    0    0  0.52447923196E+02  0.41458313722E+01 -0.22715368539E+01  0.52660539734E+02  0.00000000000E+00 0. -1.
         -5    1    5    5    0  502 -0.66995677627E+02 -0.13567401583E+03  0.50591455982E+03  0.52807905775E+03  0.47000000000E+01 0.  1.
         11    1    6    6    0    0 -0.14591898341E+02  0.12703821844E+02  0.16722985724E+03  0.16834528725E+03  0.00000000000E+00 0. -1.
        -12    1    6    6    0    0  0.10946699794E+02 -0.12324422695E+02  0.99412596950E+00  0.16513931016E+02  0.00000000000E+00 0.  1.
</event>
<event>
12    1  0.8724767E-002  0.1756699E+03  0.7818608E-02  0.1172299E+00
         21   -1    0    0  503  502  0.00000000000E+00  0.00000000000E+00  0.19385795944E+03  0.19385795944E+03  0.00000000000E+00 0. -1.
         21   -1    0    0  501  503 -0.00000000000E+00 -0.00000000000E+00 -0.20519018367E+03  0.20519018367E+03  0.00000000000E+00 0. -1.
          6    2    1    2  501    0  0.11548285862E+02  0.33896477619E+02  0.89698322448E+02  0.19639797125E+03  0.17100888854E+03 0.  0.
         24    2    3    3    0    0  0.70634397086E+02  0.38642148188E+02  0.36204931339E+02  0.11641470537E+03  0.75889082909E+02 0.  0.
         -6    2    1    2    0  502 -0.11548285862E+02 -0.33896477619E+02 -0.10103054668E+03  0.20265017186E+03  0.17198135565E+03 0.  0.
        -24    2    5    5    0    0  0.42750562000E+01  0.24407903732E+02 -0.11210646235E+03  0.14105029405E+03  0.81934758687E+02 0.  0.
          5    1    3    3  501    0 -0.59086111224E+02 -0.47456705696E+01  0.53493391109E+02  0.79983265882E+02  0.47000000000E+01 0. -1.
        -11    1    4    4    0    0  0.77905286090E+01 -0.10550790450E+02 -0.16272107590E+02  0.20899593310E+02  0.00000000000E+00 0.  1.
         12    1    4    4    0    0  0.62843868477E+02  0.49192938638E+02  0.52477038929E+02  0.95515112060E+02  0.00000000000E+00 0. -1.
         -5    1    5    5    0  502 -0.15823342062E+02 -0.58304381350E+02  0.11075915670E+02  0.61599877813E+02  0.47000000000E+01 0.  1.
         11    1    6    6    0    0 -0.36334211098E+02 -0.21194614412E+01 -0.39290301002E+02  0.53557396928E+02  0.00000000000E+00 0. -1.
        -12    1    6    6    0    0  0.40609267298E+02  0.26527365173E+02 -0.72816161346E+02  0.87492897121E+02  0.00000000000E+00 0.  1.
</event>
<event>
12    1  0.8724767E-002  0.1886859E+03  0.7818608E-02  0.1160029E+00
         21   -1    0    0  501  502  0.00000000000E+00  0.00000000000E+00  0.45240137630E+03  0.45240137630E+03  0.00000000000E+00 0.  1.
         21   -1    0    0  502  503 -0.00000000000E+00 -0.00000000000E+00 -0.88589291408E+02  0.88589291408E+02  0.00000000000E+00 0.  1.
         -6    2    1    2    0  503 -0.75698964113E+02 -0.29061392475E+02  0.89136201020E+02  0.20868073390E+03  0.17037455405E+03 0.  0.
        -24    2    3    3    0    0 -0.33494071604E+02  0.15575703852E+02  0.11286429418E+03  0.14265925463E+03  0.79049722627E+02 0.  0.
          6    2    1    2  501    0  0.75698964113E+02  0.29061392475E+02  0.27467588388E+03  0.33230993381E+03  0.16854718398E+03 0.  0.
         24    2    5    5    0    0  0.69424895813E+02  0.65041696651E+02  0.26771139003E+03  0.29483273546E+03  0.78782708049E+02 0.  0.
          5    1    5    5  501    0  0.62740683004E+01 -0.35980304177E+02  0.69644938474E+01  0.37477198351E+02  0.47000000000E+01 0. -1.
        -11    1    6    6    0    0  0.66973376281E+02  0.11215439038E+02  0.12440581979E+03  0.14173223769E+03  0.00000000000E+00 0.  1.
         12    1    6    6    0    0  0.24515195323E+01  0.53826257613E+02  0.14330557024E+03  0.15310049777E+03  0.00000000000E+00 0. -1.
         -5    1    3    3    0  503 -0.42204892509E+02 -0.44637096327E+02 -0.23728093159E+02  0.66021479271E+02  0.47000000000E+01 0.  1.
         11    1    4    4    0    0  0.11220025486E+02 -0.12276139922E+02  0.77372261287E+02  0.79139493301E+02  0.00000000000E+00 0. -1.
        -12    1    4    4    0    0 -0.44714097090E+02  0.27851843774E+02  0.35492032891E+02  0.63519761326E+02  0.00000000000E+00 0.  1.
</event>
<event>
12    1  0.8724767E-002  0.1937155E+03  0.7818608E-02  0.1155581E+00
         21   -1    0    0  501  502  0.00000000000E+00  0.00000000000E+00  0.52986135121E+03  0.52986135121E+03  0.00000000000E+00 0.  1.
         21   -1    0    0  502  503 -0.00000000000E+00 -0.00000000000E+00 -0.10847286094E+03  0.10847286094E+03  0.00000000000E+00 0. -1.
         -6    2    1    2    0  503 -0.12474837824E+02  0.83849269120E+02  0.20214191136E+02  0.19283838628E+03  0.17202240606E+03 0.  0.
        -24    2    3    3    0    0 -0.54592112497E+02  0.70397785595E+01 -0.17865303241E+02  0.97205230112E+02  0.78101411460E+02 0.  0.
          6    2    1    2  501    0  0.12474837824E+02 -0.83849269120E+02  0.40117429913E+03  0.44549582587E+03  0.17418206303E+03 0.  0.
         24    2    5    5    0    0 -0.58898226074E+02 -0.59220782255E+02  0.28849563287E+03  0.30977829405E+03  0.75873310150E+02 0.  0.
          5    1    5    5  501    0  0.71373063899E+02 -0.24628486865E+02  0.11267866626E+03  0.13571753183E+03  0.47000000000E+01 0. -1.
        -13    1    6    6    0    0 -0.73927466317E+02 -0.62764637270E+02  0.23885066269E+03  0.25778733297E+03  0.00000000000E+00 0.  1.
         14    1    6    6    0    0  0.15029240243E+02  0.35438550154E+01  0.49644970173E+02  0.51990961081E+02  0.00000000000E+00 0. -1.
         -5    1    3    3    0  503  0.42117274673E+02  0.76809490561E+02  0.38079494378E+02  0.95633156165E+02  0.47000000000E+01 0.  1.
         13    1    4    4    0    0 -0.72396053093E+02  0.10163709828E+02 -0.19669230422E+01  0.73132470813E+02  0.00000000000E+00 0. -1.
        -14    1    4    4    0    0  0.17803940596E+02 -0.31239312686E+01 -0.15898380199E+02  0.24072759299E+02  0.00000000000E+00 0.  1.
</event>
<event>
12    1  0.8724767E-002  0.1818259E+03  0.7818608E-02  0.1166120E+00
         21   -1    0    0  501  502  0.00000000000E+00  0.00000000000E+00  0.22564275346E+03  0.22564275346E+03  0.00000000000E+00 0. -1.
         21   -1    0    0  502  503 -0.00000000000E+00 -0.00000000000E+00 -0.18277483085E+03  0.18277483085E+03  0.00000000000E+00 0. -1.
         -6    2    1    2    0  503 -0.55194686848E+02 -0.17255774945E+02 -0.69836220173E+02  0.19449495972E+03  0.17206677914E+03 0.  0.
        -24    2    3    3    0    0 -0.10148389488E+03 -0.17467928065E+02 -0.26138545655E+02  0.13066461782E+03  0.76065165157E+02 0.  0.
          6    2    1    2  501    0  0.55194686848E+02  0.17255774945E+02  0.11270414279E+03  0.21392262459E+03  0.17238459990E+03 0.  0.
         24    2    5    5    0    0  0.10231830625E+03  0.12974810471E+02  0.65133658082E+02  0.14666191409E+03  0.81424456570E+02 0.  0.
          5    1    5    5  501    0 -0.47123619401E+02  0.42809644736E+01  0.47570484703E+02  0.67260710501E+02  0.47000000000E+01 0. -1.
        -11    1    6    6    0    0  0.42528067082E+00 -0.23150746259E+02  0.89263335910E+01  0.24815667377E+02  0.00000000000E+00 0.  1.
         12    1    6    6    0    0  0.10189302558E+03  0.36125556730E+02  0.56207324491E+02  0.12184624671E+03  0.00000000000E+00 0. -1.
         -5    1    3    3    0  503  0.46289208032E+02  0.21215311975E+00 -0.43697674518E+02  0.63830341903E+02  0.47000000000E+01 0.  1.
         13    1    4    4    0    0 -0.87078278787E+02 -0.41863253261E+02 -0.31909796490E+02  0.10175162761E+03  0.00000000000E+00 0. -1.
        -14    1    4    4    0    0 -0.14405616093E+02  0.24395325197E+02  0.57712508345E+01  0.28912990206E+02  0.00000000000E+00 0.  1.
</event>
<event>
12    1  0.8724767E-002  0.2137610E+03  0.7818608E-02  0.1138756E+00
         21   -1    0    0  501  502  0.00000000000E+00  0.00000000000E+00  0.14297311098E+02  0.14297311098E+02  0.00000000000E+00 0. -1.
         21   -1    0    0  502  503 -0.00000000000E+00 -0.00000000000E+00 -0.32586685149E+04  0.32586685149E+04  0.00000000000E+00 0. -1.
         -6    2    1    2    0  503  0.39629574985E+02  0.12085375476E+03 -0.18645921365E+04  0.18767265813E+04  0.17094645939E+03 0.  0.
        -24    2    3    3    0    0  0.74563029297E+02  0.77086342952E+02 -0.89351150250E+03  0.90402127114E+03  0.85963387347E+02 0.  0.
          6    2    1    2  501    0 -0.39629574985E+02 -0.12085375476E+03 -0.13797790673E+04  0.13962392447E+04  0.17180692881E+03 0.  0.
         24    2    5    5    0    0  0.14755947992E+01  0.66541793716E+01 -0.61876324131E+03  0.62350702357E+03  0.76463090213E+02 0.  0.
          5    1    5    5  501    0 -0.41105169784E+02 -0.12750793413E+03 -0.76101582595E+03  0.77273222115E+03  0.47000000000E+01 0. -1.
        -11    1    6    6    0    0  0.90394583378E+01 -0.33223663826E+02 -0.35102921096E+03  0.35271380834E+03  0.00000000000E+00 0.  1.
         12    1    6    6    0    0 -0.75638635385E+01  0.39877843198E+02 -0.26773403035E+03  0.27079321523E+03  0.00000000000E+00 0. -1.
         -5    1    3    3    0  503 -0.34933454312E+02  0.43767411804E+02 -0.97108063402E+03  0.97270531012E+03  0.47000000000E+01 0.  1.
         11    1    4    4    0    0  0.12164612193E+02  0.71045488419E+02 -0.56525461465E+03  0.56983174587E+03  0.00000000000E+00 0. -1.
        -12    1    4    4    0    0  0.62398417105E+02  0.60408545332E+01 -0.32825688785E+03  0.33418952527E+03  0.00000000000E+00 0.  1.
</event>
<event>
12    1  0.8724767E-002  0.1729457E+03  0.7818608E-02  0.1175104E+00
         21   -1    0    0  503  502  0.00000000000E+00  0.00000000000E+00  0.49288636893E+03  0.49288636893E+03  0.00000000000E+00 0.  1.
         21   -1    0    0  501  503 -0.00000000000E+00 -0.00000000000E+00 -0.10210079269E+03  0.10210079269E+03  0.00000000000E+00 0.  1.
          6    2    1    2  501    0 -0.37058554591E+01  0.82741816629E+01  0.46176239113E+01  0.17186079942E+03  0.17155936722E+03 0.  0.
         24    2    3    3    0    0 -0.58389378296E+02 -0.13197035621E+02  0.33464050278E+02  0.10624443595E+03  0.81145278743E+02 0.  0.
         -6    2    1    2    0  502  0.37058554591E+01 -0.82741816629E+01  0.38616795232E+03  0.42312636220E+03  0.17270794867E+03 0.  0.
        -24    2    5    5    0    0  0.56000939352E+02 -0.45804363410E+02  0.22523751801E+03  0.24973667095E+03  0.80014501076E+02 0.  0.
          5    1    3    3  501    0  0.54683522837E+02  0.21471217284E+02 -0.28846426367E+02  0.65616363474E+02  0.47000000000E+01 0. -1.
        -13    1    4    4    0    0  0.12205372471E+02 -0.20072901983E+02 -0.70920046320E+01  0.24539540356E+02  0.00000000000E+00 0.  1.
         14    1    4    4    0    0 -0.70594750767E+02  0.68758663622E+01  0.40556054910E+02  0.81704895594E+02  0.00000000000E+00 0. -1.
         -5    1    5    5    0  502 -0.52295083893E+02  0.37530181747E+02  0.16093043432E+03  0.17338969125E+03  0.47000000000E+01 0.  1.
         13    1    6    6    0    0  0.16965893681E+01 -0.21022304176E+01 -0.68733023183E+01  0.73851251155E+01  0.00000000000E+00 0. -1.
        -14    1    6    6    0    0  0.54304349984E+02 -0.43702132992E+02  0.23211082032E+03  0.24235154583E+03  0.00000000000E+00 0.  1.
</event>
<event>
12    1  0.8724767E-002  0.2144810E+03  0.7818608E-02  0.1138242E+00
         21   -1    0    0  503  502  0.00000000000E+00  0.00000000000E+00  0.12729950791E+04  0.12729950791E+04  0.00000000000E+00 0.  1.
         21   -1    0    0  501  503 -0.00000000000E+00 -0.00000000000E+00 -0.39262757676E+02  0.39262757676E+02  0.00000000000E+00 0.  1.
          6    2    1    2  501    0 -0.29293530136E+02 -0.12259471763E+03  0.80528157750E+03  0.83312097505E+03  0.17240813297E+03 0.  0.
         24    2    3    3    0    0 -0.27480281694E+02 -0.15770475528E+03  0.67298510389E+03  0.69615218466E+03  0.78057404650E+02 0.  0.
         -6    2    1    2    0  502  0.29293530136E+02  0.12259471763E+03  0.42845074389E+03  0.47913686169E+03  0.17353534680E+03 0.  0.
        -24    2    5    5    0    0  0.38079267646E+02  0.11202884130E+03  0.18026813863E+03  0.23052969671E+03  0.81528199735E+02 0.  0.
          5    1    3    3  501    0 -0.18132484429E+01  0.35110037649E+02  0.13229647360E+03  0.13696879039E+03  0.47000000000E+01 0. -1.
        -13    1    4    4    0    0  0.61038116897E+01 -0.77091133410E+02  0.45145174072E+03  0.45802726291E+03  0.00000000000E+00 0.  1.
         14    1    4    4    0    0 -0.33584093383E+02 -0.80613621869E+02  0.22153336317E+03  0.23812492175E+03  0.00000000000E+00 0. -1.
         -5    1    5    5    0  502 -0.87857375097E+01  0.10565876332E+02  0.24818260526E+03  0.24860716498E+03  0.47000000000E+01 0.  1.
         11    1    6    6    0    0  0.50742276265E+02  0.38841113901E+02  0.11542178190E+03  0.13193027881E+03  0.00000000000E+00 0. -1.
        -12    1    6    6    0    0 -0.12663008619E+02  0.73187727397E+02  0.64846356730E+02  0.98599417899E+02  0.00000000000E+00 0.  1.
</event>
<event>
12    1  0.8724767E-002  0.2922396E+03  0.7818608E-02  0.1089221E+00
         21   -1    0    0  501  502  0.00000000000E+00  0.00000000000E+00  0.14117473829E+03  0.14117473829E+03  0.00000000000E+00 0. -1.
         21   -1    0    0  502  503 -0.00000000000E+00 -0.00000000000E+00 -0.73883583803E+03  0.73883583803E+03  0.00000000000E+00 0. -1.
         -6    2    1    2    0  503 -0.23545669724E+03 -0.16689578378E+02 -0.48641230088E+03  0.56731220149E+03  0.17183657706E+03 0.  0.
        -24    2    3    3    0    0 -0.12490926041E+03 -0.73814240758E+02 -0.28353754778E+03  0.32926972989E+03  0.83511367766E+02 0.  0.
          6    2    1    2  501    0  0.23545669724E+03  0.16689578378E+02 -0.11124879886E+03  0.31269837484E+03  0.17229503788E+03 0.  0.
         24    2    5    5    0    0  0.84866232779E+02 -0.13023431683E+02 -0.10752431851E+03  0.15908746147E+03  0.79846440665E+02 0.  0.
          5    1    5    5  501    0  0.15059046446E+03  0.29713010062E+02 -0.37244803570E+01  0.15361091337E+03  0.47000000000E+01 0. -1.
        -11    1    6    6    0    0  0.23611899965E+02  0.26288805514E+02 -0.67088073432E+02  0.75825013763E+02  0.00000000000E+00 0.  1.
         12    1    6    6    0    0  0.61254332814E+02 -0.39312237198E+02 -0.40436245076E+02  0.83262447705E+02  0.00000000000E+00 0. -1.
         -5    1    3    3    0  503 -0.11054743683E+03  0.57124662380E+02 -0.20287475309E+03  0.23804247160E+03  0.47000000000E+01 0.  1.
         11    1    4    4    0    0 -0.10535797377E+03 -0.17524033617E+02 -0.16416755106E+03  0.19585295303E+03  0.00000000000E+00 0. -1.
        -12    1    4    4    0    0 -0.19551286636E+02 -0.56290207141E+02 -0.11936999673E+03  0.13341677686E+03  0.00000000000E+00 0.  1.
</event>
<event>
12    1  0.8724767E-002  0.1973628E+03  0.7818608E-02  0.1152335E+00
         21   -1    0    0  503  502  0.00000000000E+00  0.00000000000E+00  0.24357859297E+03  0.24357859297E+03  0.00000000000E+00 0.  1.
         21   -1    0    0  501  503 -0.00000000000E+00 -0.00000000000E+00 -0.54601729268E+03  0.54601729268E+03  0.00000000000E+00 0.  1.
          6    2    1    2  501    0 -0.78891557773E+02 -0.56834623931E+02 -0.48359087758E+03  0.52170002926E+03  0.16987269139E+03 0.  0.
         24    2    3    3    0    0 -0.65343199889E+02 -0.58320932477E+02 -0.49122168134E+03  0.50538787795E+03  0.80293847952E+02 0.  0.
         -6    2    1    2    0  502  0.78891557773E+02  0.56834623931E+02  0.18115217788E+03  0.26789585639E+03  0.17174989361E+03 0.  0.
        -24    2    5    5    0    0 -0.78845698625E+01  0.38276414069E+02  0.32586451378E+02  0.94782111785E+02  0.79965752576E+02 0.  0.
          5    1    3    3  501    0 -0.13548357884E+02  0.14863085452E+01  0.76308037577E+01  0.16312151312E+02  0.47000000000E+01 0. -1.
        -13    1    4    4    0    0 -0.83115228043E+02 -0.57416296156E+02 -0.41947215495E+03  0.43146455356E+03  0.00000000000E+00 0.  1.
         14    1    4    4    0    0  0.17772028154E+02 -0.90463632067E+00 -0.71749526391E+02  0.73923324391E+02  0.00000000000E+00 0. -1.
         -5    1    5    5    0  502  0.86776127636E+02  0.18558209862E+02  0.14856572650E+03  0.17311374460E+03  0.47000000000E+01 0.  1.
         13    1    6    6    0    0  0.29742705990E+02  0.20259297946E+01 -0.52526306250E+01  0.30270828856E+02  0.00000000000E+00 0. -1.
        -14    1    6    6    0    0 -0.37627275853E+02  0.36250484274E+02  0.37839082003E+02  0.64511282928E+02  0.00000000000E+00 0.  1.
</event>
<event>
12    1  0.8724767E-002  0.2523161E+03  0.7818608E-02  0.1111910E+00
         21   -1    0    0  501  502  0.00000000000E+00  0.00000000000E+00  0.17626027847E+03  0.17626027847E+03  0.00000000000E+00 0. -1.
         21   -1    0    0  502  503 -0.00000000000E+00 -0.00000000000E+00 -0.83670305069E+03  0.83670305069E+03  0.00000000000E+00 0.  1.
         -6    2    1    2    0  503 -0.99192319895E+02  0.15563898525E+03 -0.71215427554E+03  0.75540267794E+03  0.17148435385E+03 0.  0.
        -24    2    3    3    0    0  0.80437577909E+01  0.28069227439E+02 -0.25983364455E+03  0.27333456793E+03  0.79659774164E+02 0.  0.
          6    2    1    2  501    0  0.99192319895E+02 -0.15563898525E+03  0.51711503322E+02  0.25756065122E+03  0.17204882860E+03 0.  0.
         24    2    5    5    0    0  0.93621941769E+02 -0.90390926243E+02  0.94261651800E+02  0.17932419263E+03  0.79601002095E+02 0.  0.
          5    1    5    5  501    0  0.55703781256E+01 -0.65248059009E+02 -0.42550148478E+02  0.78236458588E+02  0.47000000000E+01 0. -1.
        -11    1    6    6    0    0 -0.57055687607E+01  0.96495450377E+01  0.38731739432E+01  0.11860384088E+02  0.00000000000E+00 0.  1.
         12    1    6    6    0    0  0.99327510530E+02 -0.10004047128E+03  0.90388477856E+02  0.16746380854E+03  0.00000000000E+00 0. -1.
         -5    1    3    3    0  503 -0.10723607769E+03  0.12756975781E+03 -0.45232063099E+03  0.48206811001E+03  0.47000000000E+01 0.  1.
         13    1    4    4    0    0  0.78336162864E+01 -0.27038886617E+02 -0.64490074577E+02  0.70366445502E+02  0.00000000000E+00 0. -1.
        -14    1    4    4    0    0  0.21014150444E+00  0.55108114057E+02 -0.19534356997E+03  0.20296812243E+03  0.00000000000E+00 0.  1.
</event>
<event>
12    1  0.8724767E-002  0.1973461E+03  0.7818608E-02  0.1153486E+00
         21   -1    0    0  501  502  0.00000000000E+00  0.00000000000E+00  0.63009632897E+02  0.63009632897E+02  0.00000000000E+00 0. -1.
         21   -1    0    0  502  503 -0.00000000000E+00 -0.00000000000E+00 -0.74901787685E+03  0.74901787685E+03  0.00000000000E+00 0.  1.
         -6    2    1    2    0  503 -0.79326084953E+02  0.18402066989E+02 -0.52112409747E+03  0.55486556112E+03  0.17226201591E+03 0.  0.
        -24    2    3    3    0    0 -0.18936755703E+01  0.35808636464E+02 -0.13333737952E+03  0.15901281664E+03  0.78869351642E+02 0.  0.
          6    2    1    2  501    0  0.79326084953E+02 -0.18402066989E+02 -0.16488414648E+03  0.25716194863E+03  0.17976157053E+03 0.  0.
         24    2    5    5    0    0 -0.98379764044E+01 -0.21660488733E+02 -0.14129122753E+03  0.16475219279E+03  0.81327187950E+02 0.  0.
          5    1    5    5  501    0  0.89164061358E+02  0.32584217441E+01 -0.23592918952E+02  0.92409755842E+02  0.47000000000E+01 0. -1.
        -11    1    6    6    0    0  0.19351902173E+02 -0.14963437234E+02 -0.46914982529E+01  0.24908045436E+02  0.00000000000E+00 0.  1.
         12    1    6    6    0    0 -0.29189878578E+02 -0.66970514988E+01 -0.13659972928E+03  0.13984414735E+03  0.00000000000E+00 0. -1.
         -5    1    3    3    0  503 -0.77432409383E+02 -0.17406569475E+02 -0.38778671796E+03  0.39585274447E+03  0.47000000000E+01 0.  1.
         11    1    4    4    0    0  0.38063226678E+02  0.11081068416E+02 -0.60115087362E+02  0.72009881481E+02  0.00000000000E+00 0. -1.
        -12    1    4    4    0    0 -0.39956902248E+02  0.24727568048E+02 -0.73222292154E+02  0.87002935164E+02  0.00000000000E+00 0.  1.
</event>
<event>
12    1  0.8724767E-002  0.2124928E+03  0.7818608E-02  0.1139993E+00
         21   -1    0    0  503  502  0.00000000000E+00  0.00000000000E+00  0.16558455356E+04  0.16558455356E+04  0.00000000000E+00 0. -1.
         21   -1    0    0  501  503 -0.00000000000E+00 -0.00000000000E+00 -0.10189715689E+03  0.10189715689E+03  0.00000000000E+00 0. -1.
          6    2    1    2  501    0 -0.12063904621E+03 -0.25738395774E+02  0.22612012657E+02  0.21173355446E+03  0.17059762742E+03 0.  0.
         24    2    3    3    0    0 -0.11539141337E+03  0.17563346820E+02 -0.28624097814E+02  0.14428129299E+03  0.79837980308E+02 0.  0.
         -6    2    1    2    0  502  0.12063904621E+03  0.25738395774E+02  0.15313363660E+04  0.15460091380E+04  0.17302295904E+03 0.  0.
        -24    2    5    5    0    0  0.89090529843E+02  0.34349948660E+02  0.14781584657E+04  0.14834036525E+04  0.80105587343E+02 0.  0.
          5    1    3    3  501    0 -0.52476328421E+01 -0.43301742594E+02  0.51236110471E+02  0.67452261477E+02  0.47000000000E+01 0. -1.
        -13    1    4    4    0    0 -0.85458381414E+02  0.27080962761E+02  0.14623065215E+02  0.90831423716E+02  0.00000000000E+00 0.  1.
         14    1    4    4    0    0 -0.29933031956E+02 -0.95176159405E+01 -0.43247163028E+02  0.53449869273E+02  0.00000000000E+00 0. -1.
         -5    1    5    5    0  502  0.31548516369E+02 -0.86115528862E+01  0.53177900363E+02  0.62605485505E+02  0.47000000000E+01 0.  1.
         11    1    6    6    0    0  0.25156972561E+02 -0.17617127040E+02  0.74455513444E+03  0.74518828806E+03  0.00000000000E+00 0. -1.
        -12    1    6    6    0    0  0.63933557282E+02  0.51967075700E+02  0.73360333123E+03  0.73821536444E+03  0.00000000000E+00 0.  1.
</event>
<event>
12    1  0.8724767E-002  0.2207260E+03  0.7818608E-02  0.1133535E+00
         21   -1    0    0  501  502  0.00000000000E+00  0.00000000000E+00  0.11265592496E+04  0.11265592496E+04  0.00000000000E+00 0. -1.
         21   -1    0    0  502  503 -0.00000000000E+00 -0.00000000000E+00 -0.47026176051E+02  0.47026176051E+02  0.00000000000E+00 0. -1.
         -6    2    1    2    0  503  0.10586875733E+02 -0.13679126566E+03  0.36787339823E+03  0.42848178146E+03  0.17158632703E+03 0.  0.
        -24    2    3    3    0    0 -0.27171193215E+02 -0.15341659108E+03  0.32168325996E+03  0.36637145954E+03  0.80454971685E+02 0.  0.
          6    2    1    2  501    0 -0.10586875733E+02  0.13679126566E+03  0.71165967527E+03  0.74510364414E+03  0.17290464078E+03 0.  0.
         24    2    5    5    0    0  0.64060857822E+02  0.89449930438E+02  0.46354643132E+03  0.48167289808E+03  0.70911234608E+02 0.  0.
          5    1    5    5  501    0 -0.74647733555E+02  0.47341335224E+02  0.24811324396E+03  0.26343074607E+03  0.47000000000E+01 0. -1.
        -13    1    6    6    0    0  0.20751331878E+02  0.21741587343E+02  0.37237859646E+02  0.47853658020E+02  0.00000000000E+00 0.  1.
         14    1    6    6    0    0  0.43309525944E+02  0.67708343095E+02  0.42630857167E+03  0.43381924006E+03  0.00000000000E+00 0. -1.
         -5    1    3    3    0  503  0.37758068948E+02  0.16625325418E+02  0.46190138270E+02  0.62110321923E+02  0.47000000000E+01 0.  1.
         11    1    4    4    0    0 -0.24421785535E+02 -0.89125561787E+02  0.10282449875E+03  0.13824856931E+03  0.00000000000E+00 0. -1.
        -12    1    4    4    0    0 -0.27494076804E+01 -0.64291029293E+02  0.21885876121E+03  0.22812289023E+03  0.00000000000E+00 0.  1.
</event>
<event>
12    1  0.8724767E-002  0.1740009E+03  0.7818608E-02  0.1173770E+00
         21   -1    0    0  501  502  0.00000000000E+00  0.00000000000E+00  0.22122901989E+03  0.22122901989E+03  0.00000000000E+00 0. -1.
         21   -1    0    0  502  503 -0.00000000000E+00 -0.00000000000E+00 -0.16318715021E+03  0.16318715021E+03  0.00000000000E+00 0. -1.
         -6    2    1    2    0  503 -0.14852713364E+02  0.15395025749E+02  0.10636386063E+03  0.20383010936E+03  0.17255675218E+03 0.  0.
        -24    2    3    3    0    0  0.30913556457E+02  0.13002856322E+01  0.12934997051E+03  0.15050408945E+03  0.70446627704E+02 0.  0.
          6    2    1    2  501    0  0.14852713364E+02 -0.15395025749E+02 -0.48321990942E+02  0.18058606074E+03  0.17268092139E+03 0.  0.
         24    2    5    5    0    0 -0.13810300669E+02 -0.73325814036E+02 -0.19653652645E+02  0.10972345970E+03  0.78010077160E+02 0.  0.
          5    1    5    5  501    0  0.28663014033E+02  0.57930788287E+02 -0.28668338297E+02  0.70862601037E+02  0.47000000000E+01 0. -1.
        -11    1    6    6    0    0 -0.39360327940E+02 -0.61689523625E+02  0.36052615661E+01  0.73265480627E+02  0.00000000000E+00 0.  1.
         12    1    6    6    0    0  0.25550027271E+02 -0.11636290411E+02 -0.23258914211E+02  0.36457979077E+02  0.00000000000E+00 0. -1.
         -5    1    3    3    0  503 -0.45766269821E+02  0.14094740117E+02 -0.22986109880E+02  0.53326019912E+02  0.47000000000E+01 0.  1.
         13    1    4    4    0    0 -0.10184737832E+02 -0.21607829299E+02  0.74510771284E+02  0.78246291983E+02  0.00000000000E+00 0. -1.
        -14    1    4    4    0    0  0.41098294289E+02  0.22908114931E+02  0.54839199223E+02  0.72257797465E+02  0.00000000000E+00 0.  1.
</event>
<event>
12    1  0.8724767E-002  0.2088224E+03  0.7818608E-02  0.1142504E+00
         21   -1    0    0  503  502  0.00000000000E+00  0.00000000000E+00  0.74858597128E+03  0.74858597128E+03  0.00000000000E+00 0. -1.
         21   -1    0    0  501  503 -0.00000000000E+00 -0.00000000000E+00 -0.43857948056E+03  0.43857948056E+03  0.00000000000E+00 0. -1.
          6    2    1    2  501    0  0.95446882178E+02  0.69391667187E+02 -0.39775803048E+03  0.44923766232E+03  0.17227221379E+03 0.  0.
         24    2    3    3    0    0 -0.33476581312E+01  0.12203298876E+02 -0.94626307315E+02  0.12529044092E+03  0.81138333918E+02 0.  0.
         -6    2    1    2    0  502 -0.95446882178E+02 -0.69391667187E+02  0.70776452121E+03  0.73792778952E+03  0.17228318048E+03 0.  0.
        -24    2    5    5    0    0 -0.13416282517E+03 -0.69601670299E+02  0.54893363136E+03  0.57437868402E+03  0.75754107751E+02 0.  0.
          5    1    3    3  501    0  0.98794540309E+02  0.57188368311E+02 -0.30313172317E+03  0.32394722141E+03  0.47000000000E+01 0. -1.
        -13    1    4    4    0    0 -0.19971998950E+02  0.28390022082E+02 -0.95964095107E+02  0.10204891791E+03  0.00000000000E+00 0.  1.
         14    1    4    4    0    0  0.16624340819E+02 -0.16186723205E+02  0.13377877927E+01  0.23241523013E+02  0.00000000000E+00 0. -1.
         -5    1    5    5    0  502  0.38715942997E+02  0.21000311146E+00  0.15883088984E+03  0.16354910551E+03  0.47000000000E+01 0.  1.
         13    1    6    6    0    0 -0.44108467959E+02 -0.47205857626E+01  0.27919050015E+03  0.28269272408E+03  0.00000000000E+00 0. -1.
        -14    1    6    6    0    0 -0.90054357215E+02 -0.64881084536E+02  0.26974313121E+03  0.29168595993E+03  0.00000000000E+00 0.  1.
</event>
<event>
12    1  0.8724767E-002  0.2582280E+03  0.7818608E-02  0.1108692E+00
         21   -1    0    0  501  502  0.00000000000E+00  0.00000000000E+00  0.13742840628E+04  0.13742840628E+04  0.00000000000E+00 0. -1.
         21   -1    0    0  502  503 -0.00000000000E+00 -0.00000000000E+00 -0.12547822215E+03  0.12547822215E+03  0.00000000000E+00 0. -1.
         -6    2    1    2    0  503 -0.70114098177E+02  0.17947167250E+03  0.33440343453E+02  0.25726680508E+03  0.16715826164E+03 0.  0.
        -24    2    3    3    0    0 -0.63447608509E+02  0.63272316171E+02  0.65917078224E+02  0.13633888938E+03  0.78830492423E+02 0.  0.
          6    2    1    2  501    0  0.70114098177E+02 -0.17947167250E+03  0.12153654972E+04  0.12424954799E+04  0.17191758990E+03 0.  0.
         24    2    5    5    0    0  0.16512222519E+02 -0.16858042599E+03  0.71699008106E+03  0.74110548622E+03  0.80439740418E+02 0.  0.
          5    1    5    5  501    0  0.53601875658E+02 -0.10891246515E+02  0.49837541617E+03  0.50138999368E+03  0.47000000000E+01 0. -1.
        -13    1    6    6    0    0 -0.10540791981E+02 -0.14365339777E+03  0.63669756885E+03  0.65278725567E+03  0.00000000000E+00 0.  1.
         14    1    6    6    0    0  0.27053014500E+02 -0.24927028218E+02  0.80292512217E+02  0.88318230549E+02  0.00000000000E+00 0. -1.
         -5    1    3    3    0  503 -0.66664896682E+01  0.11619935633E+03 -0.32476734771E+02  0.12092791571E+03  0.47000000000E+01 0.  1.
         13    1    4    4    0    0 -0.10430770113E+02  0.28025059695E+02 -0.14938815665E+02  0.33427131937E+02  0.00000000000E+00 0. -1.
        -14    1    4    4    0    0 -0.53016838397E+02  0.35247256476E+02  0.80855893890E+02  0.10291175744E+03  0.00000000000E+00 0.  1.
</event>
<event>
12    1  0.8724767E-002  0.2193511E+03  0.7818608E-02  0.1134523E+00
         21   -1    0    0  501  502  0.00000000000E+00  0.00000000000E+00  0.38604296721E+03  0.38604296721E+03  0.00000000000E+00 0.  1.
         21   -1    0    0  502  503 -0.00000000000E+00 -0.00000000000E+00 -0.22974683777E+03  0.22974683777E+03  0.00000000000E+00 0. -1.
         -6    2    1    2    0  503  0.46891490658E+02  0.12707535290E+03  0.28695047533E+03  0.36118622490E+03  0.17253392872E+03 0.  0.
        -24    2    3    3    0    0  0.63890654192E+02 -0.33900785685E+01  0.83300578119E+02  0.11868762490E+03  0.55265338723E+02 0.  0.
          6    2    1    2  501    0 -0.46891490658E+02 -0.12707535290E+03 -0.13065434589E+03  0.25460358007E+03  0.17148022531E+03 0.  0.
         24    2    5    5    0    0 -0.67951573086E+02 -0.15311762829E+03 -0.10599190866E+03  0.21274604803E+03  0.77228051064E+02 0.  0.
          5    1    5    5  501    0  0.21060082428E+02  0.26042275383E+02 -0.24662437223E+02  0.41857532043E+02  0.47000000000E+01 0. -1.
        -13    1    6    6    0    0  0.75241982880E+01 -0.30172253950E+02  0.39746211973E+01  0.31349259672E+02  0.00000000000E+00 0.  1.
         14    1    6    6    0    0 -0.75475771374E+02 -0.12294537434E+03 -0.10996652986E+03  0.18139678835E+03  0.00000000000E+00 0. -1.
         -5    1    3    3    0  503 -0.16999163533E+02  0.13046543147E+03  0.20364989721E+03  0.24249860000E+03  0.47000000000E+01 0.  1.
         11    1    4    4    0    0  0.60302789917E+02 -0.13998641475E+02  0.87102664705E+02  0.10686094999E+03  0.00000000000E+00 0. -1.
        -12    1    4    4    0    0  0.35878642743E+01  0.10608562906E+02 -0.38020865851E+01  0.11826674908E+02  0.00000000000E+00 0.  1.
</event>
<event>
12    1  0.8724767E-002  0.1744180E+03  0.7818608E-02  0.1174185E+00
         21   -1    0    0  503  502  0.00000000000E+00  0.00000000000E+00  0.20956054381E+02  0.20956054381E+02  0.00000000000E+00 0.  1.
         21   -1    0    0  501  503 -0.00000000000E+00 -0.00000000000E+00 -0.14245305242E+04  0.14245305242E+04  0.00000000000E+00 0.  1.
          6    2    1    2  501    0  0.35743164385E+01 -0.11998203288E+01 -0.67512726661E+03  0.69644920989E+03  0.17096918005E+03 0.  0.
         24    2    3    3    0    0 -0.15163500985E+02  0.27691994851E+02 -0.16423019070E+03  0.18437133011E+03  0.77617353005E+02 0.  0.
         -6    2    1    2    0  502 -0.35743164385E+01  0.11998203288E+01 -0.72844720316E+03  0.74903736865E+03  0.17437728215E+03 0.  0.
        -24    2    5    5    0    0 -0.12644391609E+02  0.95104367511E+01 -0.73114601964E+03  0.73559466731E+03  0.79212899746E+02 0.  0.
          5    1    3    3  501    0  0.18737817423E+02 -0.28891815180E+02 -0.51089707591E+03  0.51207787978E+03  0.47000000000E+01 0. -1.
        -11    1    4    4    0    0 -0.12520401867E+02 -0.24727685827E+02 -0.33380836915E+02  0.43387776879E+02  0.00000000000E+00 0.  1.
         12    1    4    4    0    0 -0.26430991176E+01  0.52419680678E+02 -0.13084935379E+03  0.14098355323E+03  0.00000000000E+00 0. -1.
         -5    1    5    5    0  502  0.90700751705E+01 -0.83106164223E+01  0.26988164800E+01  0.13442701340E+02  0.47000000000E+01 0.  1.
         11    1    6    6    0    0  0.25191476006E+02  0.10451198653E+02 -0.11124925912E+03  0.11454359725E+03  0.00000000000E+00 0. -1.
        -12    1    6    6    0    0 -0.37835867615E+02 -0.94076190178E+00 -0.61989676052E+03  0.62105107006E+03  0.00000000000E+00 0.  1.
</event>
<event>
12    1  0.8724767E-002  0.2052223E+03  0.7818608E-02  0.1145751E+00
         21   -1    0    0  503  502  0.00000000000E+00  0.00000000000E+00  0.18529598244E+03  0.18529598244E+03  0.00000000000E+00 0.  1.
         21   -1    0    0  501  503 -0.00000000000E+00 -0.00000000000E+00 -0.30520173634E+03  0.30520173634E+03  0.00000000000E+00 0.  1.
          6    2    1    2  501    0 -0.87136778952E+02  0.66551174262E+02 -0.18515141810E+03  0.27515335798E+03  0.17148307714E+03 0.  0.
         24    2    3    3    0    0 -0.64962676163E+02  0.10919633574E+03 -0.10622941068E+03  0.18262728659E+03  0.76967844460E+02 0.  0.
         -6    2    1    2    0  502  0.87136778952E+02 -0.66551174262E+02  0.65245664198E+02  0.21534436080E+03  0.17347714544E+03 0.  0.
        -24    2    5    5    0    0  0.10786663871E+03 -0.38280311656E+02  0.95710109034E+02  0.16866308878E+03  0.78652517682E+02 0.  0.
          5    1    3    3  501    0 -0.22174102788E+02 -0.42645161480E+02 -0.78922007419E+02  0.92526071392E+02  0.47000000000E+01 0. -1.
        -13    1    4    4    0    0  0.42373569749E+01  0.13777501998E+02  0.96411895166E+01  0.17341490442E+02  0.00000000000E+00 0.  1.
         14    1    4    4    0    0 -0.69200033138E+02  0.95418833744E+02 -0.11587060019E+03  0.16528579615E+03  0.00000000000E+00 0. -1.
         -5    1    5    5    0  502 -0.20729859761E+02 -0.28270862606E+02 -0.30464444836E+02  0.46681272019E+02  0.47000000000E+01 0.  1.
         11    1    6    6    0    0  0.28464861411E+02  0.22814013753E+01  0.70410746247E+02  0.75981091822E+02  0.00000000000E+00 0. -1.
        -12    1    6    6    0    0  0.79401777302E+02 -0.40561713032E+02  0.25299362788E+02  0.92681996958E+02  0.00000000000E+00 0.  1.
</event>
<event>
12    1  0.8724767E-002  0.2390044E+03  0.7818608E-02  0.1120700E+00
         21   -1    0    0  501  502  0.00000000000E+00  0.00000000000E+00  0.29730786961E+03  0.29730786961E+03  0.00000000000E+00 0. -1.
         21   -1    0    0  502  503 -0.00000000000E+00 -0.00000000000E+00 -0.19845766583E+03  0.19845766583E+03  0.00000000000E+00 0. -1.
         -6    2    1    2    0  503 -0.12238257131E+03 -0.10755330108E+03  0.97410928602E+02  0.25675683604E+03  0.17288718144E+03 0.  0.
        -24    2    3    3    0    0 -0.13063091549E+02 -0.97698984006E+02  0.66156871635E+02  0.14253441137E+03  0.78889739021E+02 0.  0.
          6    2    1    2  501    0  0.12238257131E+03  0.10755330108E+03  0.14392751768E+01  0.23900869941E+03  0.17486532116E+03 0.  0.
         24    2    5    5    0    0  0.10766007014E+03  0.11892105041E+02 -0.29628673176E+02  0.13724857026E+03  0.78912602924E+02 0.  0.
          5    1    5    5  501    0  0.14722501172E+02  0.95661196040E+02  0.31067948353E+02  0.10176012914E+03  0.47000000000E+01 0. -1.
        -11    1    6    6    0    0  0.54455066267E+01 -0.24672905034E+02 -0.84647069446E+01  0.26646895671E+02  0.00000000000E+00 0.  1.
         12    1    6    6    0    0  0.10221456351E+03  0.36565010076E+02 -0.21163966232E+02  0.11060167459E+03  0.00000000000E+00 0. -1.
         -5    1    3    3    0  503 -0.10931947976E+03 -0.98543170752E+01  0.31254056968E+02  0.11422242467E+03  0.47000000000E+01 0.  1.
         11    1    4    4    0    0 -0.46304127017E+02 -0.52095779984E+02  0.39627183470E+02  0.80177030007E+02  0.00000000000E+00 0. -1.
        -12    1    4    4    0    0  0.33241035468E+02 -0.45603204022E+02  0.26529688164E+02  0.62357381361E+02  0.00000000000E+00 0.  1.
</event>
<event>
12    1  0.8724767E-002  0.1989890E+03  0.7818608E-02  0.1150813E+00
         21   -1    0    0  503  502  0.00000000000E+00  0.00000000000E+00  0.17212758234E+03  0.17212758234E+03  0.00000000000E+00 0.  1.
         21   -1    0    0  501  503 -0.00000000000E+00 -0.00000000000E+00 -0.77432743584E+03  0.77432743584E+03  0.00000000000E+00 0. -1.
          6    2    1    2  501    0  0.86062965637E+02  0.51692407852E+02 -0.69851296585E+03  0.72630364884E+03  0.17180712376E+03 0.  0.
         24    2    3    3    0    0  0.36181587590E+02 -0.19299970354E+02 -0.52254229399E+03  0.53004912789E+03  0.78867184747E+02 0.  0.
         -6    2    1    2    0  502 -0.86062965637E+02 -0.51692407852E+02  0.96313112351E+02  0.22015136935E+03  0.17062083909E+03 0.  0.
        -24    2    5    5    0    0  0.11227631516E+01  0.50053475816E+01  0.80997897901E+02  0.11492479205E+03  0.81367894544E+02 0.  0.
          5    1    3    3  501    0  0.49881378047E+02  0.70992378206E+02 -0.17597067186E+03  0.19625452095E+03  0.47000000000E+01 0. -1.
        -13    1    4    4    0    0 -0.11047054200E+02 -0.11821936071E+02 -0.22434076834E+02  0.27660140678E+02  0.00000000000E+00 0.  1.
         14    1    4    4    0    0  0.47228641790E+02 -0.74780342832E+01 -0.50010821716E+03  0.50238898721E+03  0.00000000000E+00 0. -1.
         -5    1    5    5    0  502 -0.87185728789E+02 -0.56697755434E+02  0.15315214451E+02  0.10522657730E+03  0.47000000000E+01 0.  1.
         13    1    6    6    0    0 -0.23829403793E+01  0.39847469418E+02  0.65332152677E+02  0.76562323615E+02  0.00000000000E+00 0. -1.
        -14    1    6    6    0    0  0.35057035309E+01 -0.34842121836E+02  0.15665745224E+02  0.38362468439E+02  0.00000000000E+00 0.  1.
</event>
<event>
12    1  0.8724767E-002  0.2168084E+03  0.7818608E-02  0.1136585E+00
         21   -1    0    0  503  502  0.00000000000E+00  0.00000000000E+00  0.35388144809E+03  0.35388144809E+03  0.00000000000E+00 0. -1.
         21   -1    0    0  501  503 -0.00000000000E+00 -0.00000000000E+00 -0.14905330885E+03  0.14905330885E+03  0.00000000000E+00 0. -1.
          6    2    1    2  501    0 -0.32045923430E+02 -0.12605933774E+03  0.18747118648E+03  0.28543267174E+03  0.17148896902E+03 0.  0.
         24    2    3    3    0    0  0.93971455909E+01 -0.82847687982E+02  0.19422862902E+03  0.22499652631E+03  0.77114400544E+02 0.  0.
         -6    2    1    2    0  502  0.32045923430E+02  0.12605933774E+03  0.17356952753E+02  0.21750208520E+03  0.17345891565E+03 0.  0.
        -24    2    5    5    0    0  0.20139592663E+02  0.14099262214E+03  0.57010088390E+02  0.17323895312E+03  0.80480196378E+02 0.  0.
          5    1    3    3  501    0 -0.41443069020E+02 -0.43211649754E+02 -0.67574425383E+01  0.60436145426E+02  0.47000000000E+01 0. -1.
        -11    1    4    4    0    0 -0.32636995630E+02 -0.22987518531E+02  0.58668125537E+02  0.70961598390E+02  0.00000000000E+00 0.  1.
         12    1    4    4    0    0  0.42034141221E+02 -0.59860169451E+02  0.13556050348E+03  0.15403492792E+03  0.00000000000E+00 0. -1.
         -5    1    5    5    0  502  0.11906330767E+02 -0.14933284407E+02 -0.39653135637E+02  0.44263132078E+02  0.47000000000E+01 0.  1.
         11    1    6    6    0    0  0.32446958202E+02  0.16973931132E+02  0.10752067473E+01  0.36634348694E+02  0.00000000000E+00 0. -1.
        -12    1    6    6    0    0 -0.12307365539E+02  0.12401869101E+03  0.55934881643E+02  0.13660460443E+03  0.00000000000E+00 0.  1.
</event>
<event>
12    1  0.8724767E-002  0.1750491E+03  0.7818608E-02  0.1172896E+00
         21   -1    0    0  503  502  0.00000000000E+00  0.00000000000E+00  0.34965402619E+03  0.34965402619E+03  0.00000000000E+00 0.  1.
         21   -1    0    0  501  503 -0.00000000000E+00 -0.00000000000E+00 -0.36861155599E+03  0.36861155599E+03  0.00000000000E+00 0.  1.
          6    2    1    2  501    0  0.62160257165E+01 -0.30262335568E+02 -0.32325808725E+03  0.36720857912E+03  0.17144066517E+03 0.  0.
         24    2    3    3    0    0  0.68807834718E+02 -0.22582997393E+02 -0.24571983804E+03  0.26715370977E+03  0.75817913108E+02 0.  0.
         -6    2    1    2    0  502 -0.62160257165E+01  0.30262335568E+02  0.30430055745E+03  0.35105700306E+03  0.17230131224E+03 0.  0.
        -24    2    5    5    0    0  0.28447434916E+02  0.32134216292E+02  0.68888135754E+02  0.11305247005E+03  0.78698293040E+02 0.  0.
          5    1    3    3  501    0 -0.62591809001E+02 -0.76793381746E+01 -0.77538249213E+02  0.10005486935E+03  0.47000000000E+01 0. -1.
        -13    1    4    4    0    0  0.63809828904E+02 -0.46633487895E+02 -0.20348912459E+03  0.21829842025E+03  0.00000000000E+00 0.  1.
         14    1    4    4    0    0  0.49980058139E+01  0.24050490502E+02 -0.42230713452E+02  0.48855289521E+02  0.00000000000E+00 0. -1.
         -5    1    5    5    0  502 -0.34663460632E+02 -0.18718807245E+01  0.23541242170E+03  0.23800453300E+03  0.47000000000E+01 0.  1.
         13    1    6    6    0    0  0.49840119571E+02  0.38521029892E+02  0.64770839962E+02  0.90350257178E+02  0.00000000000E+00 0. -1.
        -14    1    6    6    0    0 -0.21392684656E+02 -0.63868136003E+01  0.41172957920E+01  0.22702212874E+02  0.00000000000E+00 0.  1.
</event>
<event>
12    1  0.8724767E-002  0.2683261E+03  0.7818608E-02  0.1102293E+00
         21   -1    0    0  503  502  0.00000000000E+00  0.00000000000E+00  0.25080018998E+03  0.25080018998E+03  0.00000000000E+00 0.  1.
         21   -1    0    0  501  503 -0.00000000000E+00 -0.00000000000E+00 -0.42395243776E+03  0.42395243776E+03  0.00000000000E+00 0. -1.
          6    2    1    2  501    0  0.17874604429E+03  0.10236714529E+03 -0.27850104351E+03  0.38648667120E+03  0.17140576127E+03 0.  0.
         24    2    3    3    0    0  0.86243133461E+02  0.78874961240E+02 -0.24900699508E+03  0.28648337068E+03  0.80056857896E+02 0.  0.
         -6    2    1    2    0  502 -0.17874604429E+03 -0.10236714529E+03  0.10534879573E+03  0.28826595654E+03  0.17195846055E+03 0.  0.
        -24    2    5    5    0    0 -0.16730137037E+03 -0.11765255208E+03  0.13109043575E+03  0.25587234216E+03  0.80337298918E+02 0.  0.
          5    1    3    3  501    0  0.92502910832E+02  0.23492184048E+02 -0.29494048431E+02  0.10000330053E+03  0.47000000000E+01 0. -1.
        -11    1    4    4    0    0  0.83717844829E+02  0.64734589850E+02 -0.13480482537E+03  0.17138140392E+03  0.00000000000E+00 0.  1.
         12    1    4    4    0    0  0.25252886321E+01  0.14140371390E+02 -0.11420216970E+03  0.11510196675E+03  0.00000000000E+00 0. -1.
         -5    1    5    5    0  502 -0.11444673922E+02  0.15285406790E+02 -0.25741640021E+02  0.32393614385E+02  0.47000000000E+01 0.  1.
         13    1    6    6    0    0 -0.49646978536E+02 -0.30406343954E+01  0.74676795794E+01  0.50297456930E+02  0.00000000000E+00 0. -1.
        -14    1    6    6    0    0 -0.11765439183E+03 -0.11461191768E+03  0.12362275617E+03  0.20557488523E+03  0.00000000000E+00 0.  1.
</event>
<event>
12    1  0.8724767E-002  0.2306046E+03  0.7818608E-02  0.1126256E+00
         21   -1    0    0  503  502  0.00000000000E+00  0.00000000000E+00  0.29623551667E+03  0.29623551667E+03  0.00000000000E+00 0. -1.
         21   -1    0    0  501  503 -0.00000000000E+00 -0.00000000000E+00 -0.20271680609E+03  0.20271680609E+03  0.00000000000E+00 0. -1.
          6    2    1    2  501    0  0.15383639195E+03  0.80516113300E+01 -0.37995217452E+02  0.23348222070E+03  0.17128878218E+03 0.  0.
         24    2    3    3    0    0  0.50909997857E+02 -0.21830459177E+02 -0.72247401434E+02  0.12086746658E+03  0.79503840366E+02 0.  0.
         -6    2    1    2    0  502 -0.15383639195E+03 -0.80516113300E+01  0.13151392803E+03  0.26547010206E+03  0.17160418960E+03 0.  0.
        -24    2    5    5    0    0 -0.12914640072E+03 -0.47760047339E+02  0.42826158107E+02  0.16510095296E+03  0.80401678521E+02 0.  0.
          5    1    3    3  501    0  0.10292639410E+03  0.29882070507E+02  0.34252183982E+02  0.11261475413E+03  0.47000000000E+01 0. -1.
        -11    1    4    4    0    0 -0.80093699658E+01  0.14594090276E+02  0.47354182302E+01  0.17307849781E+02  0.00000000000E+00 0.  1.
         12    1    4    4    0    0  0.58919367823E+02 -0.36424549452E+02 -0.76982819664E+02  0.10355961680E+03  0.00000000000E+00 0. -1.
         -5    1    5    5    0  502 -0.24689991235E+02  0.39708436009E+02  0.88687769923E+02  0.10036914910E+03  0.47000000000E+01 0.  1.
         13    1    6    6    0    0 -0.91221143381E+02 -0.19985189791E+02 -0.10546611950E+02  0.93978379611E+02  0.00000000000E+00 0. -1.
        -14    1    6    6    0    0 -0.37925257337E+02 -0.27774857548E+02  0.53372770057E+02  0.71122573346E+02  0.00000000000E+00 0.  1.
</event>
<event>
12    1  0.8724767E-002  0.1871161E+03  0.7818608E-02  0.1161365E+00
         21   -1    0    0  501  502  0.00000000000E+00  0.00000000000E+00  0.84689605745E+03  0.84689605745E+03  0.00000000000E+00 0.  1.
         21   -1    0    0  502  503 -0.00000000000E+00 -0.00000000000E+00 -0.43265980078E+02  0.43265980078E+02  0.00000000000E+00 0.  1.
         -6    2    1    2    0  503  0.37316578526E+02 -0.59820710934E+02  0.30049317783E+03  0.35335744301E+03  0.17202990472E+03 0.  0.
        -24    2    3    3    0    0  0.61965801161E+02  0.80919688720E+01  0.23555090749E+03  0.25609848593E+03  0.78720797788E+02 0.  0.
          6    2    1    2  501    0 -0.37316578526E+02  0.59820710934E+02  0.50313689954E+03  0.53680459451E+03  0.17332451796E+03 0.  0.
         24    2    5    5    0    0 -0.44217435825E+02  0.24170634509E+02  0.48599873863E+03  0.49637742123E+03  0.87500680870E+02 0.  0.
          5    1    5    5  501    0  0.69008572986E+01  0.35650076425E+02  0.17138160910E+02  0.40427173287E+02  0.47000000000E+01 0. -1.
        -11    1    6    6    0    0  0.26448883955E+02  0.10732426955E+02  0.16132497618E+03  0.16383063325E+03  0.00000000000E+00 0.  1.
         12    1    6    6    0    0 -0.70666319780E+02  0.13438207554E+02  0.32467376244E+03  0.33254678798E+03  0.00000000000E+00 0. -1.
         -5    1    3    3    0  503 -0.24649222634E+02 -0.67912679806E+02  0.64942270341E+02  0.97258957078E+02  0.47000000000E+01 0.  1.
         11    1    4    4    0    0 -0.49150899320E+01  0.10851053905E+02  0.13364227846E+03  0.13417213598E+03  0.00000000000E+00 0. -1.
        -12    1    4    4    0    0  0.66880891093E+02 -0.27590850328E+01  0.10190862903E+03  0.12192634996E+03  0.00000000000E+00 0.  1.
</event>
<event>
12    1  0.8724767E-002  0.1873308E+03  0.7818608E-02  0.1161441E+00
         21   -1    0    0  501  502  0.00000000000E+00  0.00000000000E+00  0.15818140446E+04  0.15818140446E+04  0.00000000000E+00 0.  1.
         21   -1    0    0  502  503 -0.00000000000E+00 -0.00000000000E+00 -0.22113354686E+02  0.22113354686E+02  0.00000000000E+00 0.  1.
         -6    2    1    2    0  503  0.59943311601E+02 -0.33173065303E+02  0.70679744749E+03  0.73120137745E+03  0.17435357677E+03 0.  0.
        -24    2    3    3    0    0  0.28488329982E+02 -0.88321852419E+02  0.50493505347E+03  0.51953815271E+03  0.79675274282E+02 0.  0.
          6    2    1    2  501    0 -0.59943311601E+02  0.33173065303E+02  0.85290324238E+03  0.87272602180E+03  0.17179381650E+03 0.  0.
         24    2    5    5    0    0 -0.39633638795E+02 -0.47818794705E+02  0.46846144562E+03  0.47929273737E+03  0.80049607200E+02 0.  0.
          5    1    5    5  501    0 -0.20309672806E+02  0.80991860008E+02  0.38444179676E+03  0.39343328443E+03  0.47000000000E+01 0. -1.
        -11    1    6    6    0    0 -0.39447743594E+02 -0.29712370865E+02  0.45240264066E+03  0.45509020944E+03  0.00000000000E+00 0.  1.
         12    1    6    6    0    0 -0.18589520036E+00 -0.18106423840E+02  0.16058804964E+02  0.24202527929E+02  0.00000000000E+00 0. -1.
         -5    1    3    3    0  503  0.31454981620E+02  0.55148787116E+02  0.20186239402E+03  0.21166322474E+03  0.47000000000E+01 0.  1.
         13    1    4    4    0    0  0.46148981858E+02 -0.24979142424E+02  0.15983279410E+03  0.16822665708E+03  0.00000000000E+00 0. -1.
        -14    1    4    4    0    0 -0.17660651877E+02 -0.63342709996E+02  0.34510225938E+03  0.35131149563E+03  0.00000000000E+00 0.  1.
</event>
<event>
12    1  0.8724767E-002  0.3296511E+03  0.7818608E-02  0.1071312E+00
         21   -1    0    0  503  502  0.00000000000E+00  0.00000000000E+00  0.24521370897E+03  0.24521370897E+03  0.00000000000E+00 0. -1.
         21   -1    0    0  501  503 -0.00000000000E+00 -0.00000000000E+00 -0.48151026322E+03  0.48151026322E+03  0.00000000000E+00 0. -1.
          6    2    1    2  501    0 -0.11643534643E+03  0.25550138560E+03 -0.15301405624E+02  0.33000605414E+03  0.17271860008E+03 0.  0.
         24    2    3    3    0    0 -0.97658825733E+02  0.23207797368E+03  0.34512205163E+02  0.27165624887E+03  0.95961414815E+02 0.  0.
         -6    2    1    2    0  502  0.11643534643E+03 -0.25550138560E+03 -0.22099514863E+03  0.39671791805E+03  0.17236038652E+03 0.  0.
        -24    2    5    5    0    0  0.10581078139E+03 -0.10807987895E+03 -0.16886853874E+03  0.23992105755E+03  0.78538836175E+02 0.  0.
          5    1    3    3  501    0 -0.18776520697E+02  0.23423411920E+02 -0.49813610787E+02  0.58349805270E+02  0.47000000000E+01 0. -1.
        -11    1    4    4    0    0 -0.59397910491E+02  0.22054577840E+03  0.20553130196E+02  0.22932724065E+03  0.00000000000E+00 0.  1.
         12    1    4    4    0    0 -0.38260915242E+02  0.11532195276E+02  0.13959074967E+02  0.42329008221E+02  0.00000000000E+00 0. -1.
         -5    1    5    5    0  502  0.10624565043E+02 -0.14742150665E+03 -0.52126609894E+02  0.15679686050E+03  0.47000000000E+01 0.  1.
         11    1    6    6    0    0  0.76154882533E+02 -0.62416162940E+02 -0.52828271029E+02  0.11174153100E+03  0.00000000000E+00 0. -1.
        -12    1    6    6    0    0  0.29655898854E+02 -0.45663716013E+02 -0.11604026771E+03  0.12817952655E+03  0.00000000000E+00 0.  1.
</event>
<event>
12    1  0.8724767E-002  0.2349142E+03  0.7818608E-02  0.1123491E+00
         21   -1    0    0  503  502  0.00000000000E+00  0.00000000000E+00  0.13361882093E+04  0.13361882093E+04  0.00000000000E+00 0.  1.
         21   -1    0    0  501  503 -0.00000000000E+00 -0.00000000000E+00 -0.22893159465E+03  0.22893159465E+03  0.00000000000E+00 0.  1.
          6    2    1    2  501    0  0.14347086582E+03  0.67470487617E+02 -0.15566648016E+03  0.28053449195E+03  0.17126410041E+03 0.  0.
         24    2    3    3    0    0  0.11872579822E+03  0.21007963614E+02 -0.28001510820E+02  0.14236242928E+03  0.70326573658E+02 0.  0.
         -6    2    1    2    0  502 -0.14347086582E+03 -0.67470487617E+02  0.12629230948E+04  0.12845853120E+04  0.17334510189E+03 0.  0.
        -24    2    5    5    0    0 -0.13998854533E+02 -0.64433772413E+02  0.51172289863E+03  0.52228875022E+03  0.81102001663E+02 0.  0.
          5    1    3    3  501    0  0.24745067595E+02  0.46462524003E+02 -0.12766496934E+03  0.13817206267E+03  0.47000000000E+01 0. -1.
        -13    1    4    4    0    0  0.28545415199E+02  0.37074320664E+02 -0.18330687872E+02  0.50252961101E+02  0.00000000000E+00 0.  1.
         14    1    4    4    0    0  0.90180383023E+02 -0.16066357049E+02 -0.96708229478E+01  0.92109468175E+02  0.00000000000E+00 0. -1.
         -5    1    5    5    0  502 -0.12947201129E+03 -0.30367152044E+01  0.75120019615E+03  0.76229656174E+03  0.47000000000E+01 0.  1.
         11    1    6    6    0    0 -0.42632779477E+02 -0.54221325395E+02  0.27039996333E+03  0.27905849957E+03  0.00000000000E+00 0. -1.
        -12    1    6    6    0    0  0.28633924944E+02 -0.10212447018E+02  0.24132293530E+03  0.24323025066E+03  0.00000000000E+00 0.  1.
</event>
<event>
12    1  0.8724767E-002  0.2121424E+03  0.7818608E-02  0.1139914E+00
         21   -1    0    0  503  502  0.00000000000E+00  0.00000000000E+00  0.18382640745E+02  0.18382640745E+02  0.00000000000E+00 0. -1.
         21   -1    0    0  501  503 -0.00000000000E+00 -0.00000000000E+00 -0.24830923047E+04  0.24830923047E+04  0.00000000000E+00 0.  1.
          6    2    1    2  501    0  0.28971450135E+02 -0.12005347430E+03 -0.10803996454E+04  0.11010303308E+04  0.17248830122E+03 0.  0.
         24    2    3    3    0    0  0.57157957904E+02 -0.13779691737E+03 -0.99479697861E+03  0.10090563370E+04  0.79489872916E+02 0.  0.
         -6    2    1    2    0  502 -0.28971450135E+02  0.12005347430E+03 -0.13843100186E+04  0.14004446146E+04  0.17227509819E+03 0.  0.
        -24    2    5    5    0    0  0.46433031022E+02  0.92352150651E+02 -0.90155512149E+03  0.91102906544E+03  0.80544241855E+02 0.  0.
          5    1    3    3  501    0 -0.28186507769E+02  0.17743443073E+02 -0.85602666755E+02  0.91973993867E+02  0.47000000000E+01 0. -1.
        -11    1    4    4    0    0  0.66008978690E+02 -0.59297941688E+02 -0.58838082828E+03  0.59503397402E+03  0.00000000000E+00 0.  1.
         12    1    4    4    0    0 -0.88510207855E+01 -0.78498975685E+02 -0.40641615034E+03  0.41402236293E+03  0.00000000000E+00 0. -1.
         -5    1    5    5    0  502 -0.75404481157E+02  0.27701323648E+02 -0.48275489706E+03  0.48941554915E+03  0.47000000000E+01 0.  1.
         11    1    6    6    0    0  0.61933371763E+02  0.66719478686E+02 -0.48995521993E+03  0.49834059528E+03  0.00000000000E+00 0. -1.
        -12    1    6    6    0    0 -0.15500340740E+02  0.25632671965E+02 -0.41159990157E+03  0.41268847016E+03  0.00000000000E+00 0.  1.
</event>
<event>
12    1  0.8724767E-002  0.1838527E+03  0.7818608E-02  0.1164383E+00
         21   -1    0    0  501  502  0.00000000000E+00  0.00000000000E+00  0.50714188067E+03  0.50714188067E+03  0.00000000000E+00 0. -1.
         21   -1    0    0  502  503 -0.00000000000E+00 -0.00000000000E+00 -0.67156867269E+02  0.67156867269E+02  0.00000000000E+00 0. -1.
         -6    2    1    2    0  503 -0.64622370792E+02  0.77487291096E+01  0.18740778156E+03  0.26253280557E+03  0.17194680515E+03 0.  0.
        -24    2    3    3    0    0 -0.70987620781E+02 -0.54799865520E+02  0.13282694341E+03  0.17914215267E+03  0.80041529243E+02 0.  0.
          6    2    1    2  501    0  0.64622370792E+02 -0.77487291096E+01  0.25257723184E+03  0.31176594237E+03  0.17078246739E+03 0.  0.
         24    2    5    5    0    0 -0.95701256616E+01 -0.50457471413E+02  0.11470445181E+03  0.14940967771E+03  0.80799732689E+02 0.  0.
          5    1    5    5  501    0  0.74192496454E+02  0.42708742304E+02  0.13787278004E+03  0.16235626466E+03  0.47000000000E+01 0. -1.
        -13    1    6    6    0    0  0.10912535828E+01 -0.14004034273E+02 -0.11159651481E+02  0.17939945136E+02  0.00000000000E+00 0.  1.
         14    1    6    6    0    0 -0.10661379244E+02 -0.36453437140E+02  0.12586410329E+03  0.13146973258E+03  0.00000000000E+00 0. -1.
         -5    1    3    3    0  503  0.63652499888E+01  0.62548594630E+02  0.54580838145E+02  0.83390652895E+02  0.47000000000E+01 0.  1.
         11    1    4    4    0    0 -0.47532903940E+02 -0.15752113418E+02  0.12263613446E+03  0.13246557104E+03  0.00000000000E+00 0. -1.
        -12    1    4    4    0    0 -0.23454716841E+02 -0.39047752102E+02  0.10190808949E+02  0.46676581638E+02  0.00000000000E+00 0.  1.
</event>
<event>
12    1  0.8724767E-002  0.1879636E+03  0.7818608E-02  0.1161185E+00
         21   -1    0    0  503  502  0.00000000000E+00  0.00000000000E+00  0.31968477751E+02  0.31968477751E+02  0.00000000000E+00 0.  1.
         21   -1    0    0  501  503 -0.00000000000E+00 -0.00000000000E+00 -0.20904420591E+04  0.20904420591E+04  0.00000000000E+00 0.  1.
          6    2    1    2  501    0  0.67699614074E+02 -0.14855754912E+02 -0.17713157856E+04  0.17812607643E+04  0.17471796348E+03 0.  0.
         24    2    3    3    0    0  0.68253132200E+02 -0.36310657418E+02 -0.60608510368E+03  0.61582297042E+03  0.76953389083E+02 0.  0.
         -6    2    1    2    0  502 -0.67699614074E+02  0.14855754912E+02 -0.28715779570E+03  0.34114977255E+03  0.17064476692E+03 0.  0.
        -24    2    5    5    0    0 -0.51428327485E+02 -0.88997147492E+01 -0.29623820407E+03  0.31059456150E+03  0.77381071929E+02 0.  0.
          5    1    3    3  501    0 -0.55351812591E+00  0.21454902506E+02 -0.11652306819E+04  0.11654377939E+04  0.47000000000E+01 0. -1.
        -11    1    4    4    0    0  0.30422820484E+02 -0.24105731488E+02 -0.51476710821E+03  0.51622844748E+03  0.00000000000E+00 0.  1.
         12    1    4    4    0    0  0.37830311715E+02 -0.12204925930E+02 -0.91317995479E+02  0.99594522940E+02  0.00000000000E+00 0. -1.
         -5    1    5    5    0  502 -0.16271286588E+02  0.23755469662E+02  0.90804083664E+01  0.30555211048E+02  0.47000000000E+01 0.  1.
         13    1    6    6    0    0  0.20195041687E+02 -0.67788764834E+01 -0.80333678324E+02  0.83110124222E+02  0.00000000000E+00 0. -1.
        -14    1    6    6    0    0 -0.71623369173E+02 -0.21208382658E+01 -0.21590452575E+03  0.22748443728E+03  0.00000000000E+00 0.  1.
</event>
<event>
12    1  0.8724767E-002  0.1886940E+03  0.7818608E-02  0.1160428E+00
         21   -1    0    0  503  502  0.00000000000E+00  0.00000000000E+00  0.21128544113E+03  0.21128544113E+03  0.00000000000E+00 0.  1.
         21   -1    0    0  501  503 -0.00000000000E+00 -0.00000000000E+00 -0.35158447435E+03  0.35158447435E+03  0.00000000000E+00 0.  1.
          6    2    1    2  501    0 -0.54932429805E+02  0.45097477851E+02 -0.27520059018E+03  0.33367769157E+03  0.17479726159E+03 0.  0.
         24    2    3    3    0    0 -0.19027920847E+01  0.55225206085E+02 -0.26088793435E+03  0.27762721902E+03  0.77206958518E+02 0.  0.
         -6    2    1    2    0  502  0.54932429805E+02 -0.45097477851E+02  0.13490155696E+03  0.22919222391E+03  0.17111192559E+03 0.  0.
        -24    2    5    5    0    0  0.12411024753E+02 -0.91505231137E+02  0.78160450085E+02  0.14431942107E+03  0.78687981800E+02 0.  0.
          5    1    3    3  501    0 -0.53029637720E+02 -0.10127728233E+02 -0.14312655828E+02  0.56050472547E+02  0.47000000000E+01 0. -1.
        -13    1    4    4    0    0 -0.92969246772E+01  0.17698306561E+02 -0.74738817049E+01  0.21342956012E+02  0.00000000000E+00 0.  1.
         14    1    4    4    0    0  0.73941325924E+01  0.37526899523E+02 -0.25341405265E+03  0.25628426301E+03  0.00000000000E+00 0. -1.
         -5    1    5    5    0  502  0.42521405052E+02  0.46407753286E+02  0.56741106877E+02  0.84872802842E+02  0.47000000000E+01 0.  1.
         11    1    6    6    0    0  0.52075264540E+01 -0.34077960728E+02 -0.12575840607E+02  0.36695742343E+02  0.00000000000E+00 0. -1.
        -12    1    6    6    0    0  0.72034982991E+01 -0.57427270409E+02  0.90736290692E+02  0.10762367873E+03  0.00000000000E+00 0.  1.
</event>
<event>
12    1  0.8724767E-002  0.2017098E+03  0.7818608E-02  0.1148904E+00
         21   -1    0    0  501  502  0.00000000000E+00  0.00000000000E+00  0.81145000177E+02  0.81145000177E+02  0.00000000000E+00 0. -1.
         21   -1    0    0  502  503 -0.00000000000E+00 -0.00000000000E+00 -0.57910844950E+03  0.57910844950E+03  0.00000000000E+00 0.  1.
         -6    2    1    2    0  503  0.10376219202E+03 -0.89715132776E+01 -0.37679308434E+03  0.42738724291E+03  0.17274184917E+03 0.  0.
        -24    2    3    3    0    0  0.60028102089E+02 -0.72199591358E+02 -0.20306846368E+03  0.23735357667E+03  0.79270204917E+02 0.  0.
          6    2    1    2  501    0 -0.10376219202E+03  0.89715132776E+01 -0.12117036499E+03  0.23286620677E+03  0.16940286999E+03 0.  0.
         24    2    5    5    0    0 -0.55146761802E+02  0.71811358594E+02 -0.68084996277E+02  0.13719775541E+03  0.77392640549E+02 0.  0.
          5    1    5    5  501    0 -0.48615430214E+02 -0.62839845317E+02 -0.53085368713E+02  0.95668451361E+02  0.47000000000E+01 0. -1.
        -11    1    6    6    0    0 -0.15213154982E+02 -0.14909354974E+02 -0.23841557303E+02  0.31971061992E+02  0.00000000000E+00 0.  1.
         12    1    6    6    0    0 -0.39933606820E+02  0.86720713569E+02 -0.44243438973E+02  0.10522669342E+03  0.00000000000E+00 0. -1.
         -5    1    3    3    0  503  0.43734089927E+02  0.63228078080E+02 -0.17372462066E+03  0.19003366624E+03  0.47000000000E+01 0.  1.
         11    1    4    4    0    0  0.30576629382E+02 -0.44483027270E+02 -0.34639219595E+02  0.64136927847E+02  0.00000000000E+00 0. -1.
        -12    1    4    4    0    0  0.29451472707E+02 -0.27716564088E+02 -0.16842924408E+03  0.17321664883E+03  0.00000000000E+00 0.  1.
</event>
<event>
12    1  0.8724767E-002  0.1908060E+03  0.7818608E-02  0.1158087E+00
         21   -1    0    0  503  502  0.00000000000E+00  0.00000000000E+00  0.63722100532E+03  0.63722100532E+03  0.00000000000E+00 0.  1.
         21   -1    0    0  501  503 -0.00000000000E+00 -0.00000000000E+00 -0.18638885705E+03  0.18638885705E+03  0.00000000000E+00 0.  1.
          6    2    1    2  501    0  0.14398898234E+02  0.80592274944E+02 -0.11784840084E+03  0.22426583835E+03  0.17234986979E+03 0.  0.
         24    2    3    3    0    0 -0.40030748639E+02  0.10455032077E+02 -0.20779471939E+02  0.92636486551E+02  0.80236922013E+02 0.  0.
         -6    2    1    2    0  502 -0.14398898234E+02 -0.80592274944E+02  0.56868054911E+03  0.59934402403E+03  0.17062605062E+03 0.  0.
        -24    2    5    5    0    0 -0.37765241156E+02  0.14198545366E+02  0.25152290720E+03  0.26746702058E+03  0.81529271559E+02 0.  0.
          5    1    3    3  501    0  0.54429646873E+02  0.70137242867E+02 -0.97068928902E+02  0.13162935179E+03  0.47000000000E+01 0. -1.
        -13    1    4    4    0    0  0.93537689838E+01 -0.99692670198E+01 -0.34798117804E+02  0.37387006858E+02  0.00000000000E+00 0.  1.
         14    1    4    4    0    0 -0.49384517623E+02  0.20424299097E+02  0.14018645865E+02  0.55249479693E+02  0.00000000000E+00 0. -1.
         -5    1    5    5    0  502  0.23366342922E+02 -0.94790820309E+02  0.31715764191E+03  0.33187700345E+03  0.47000000000E+01 0.  1.
         11    1    6    6    0    0 -0.42992370800E+02  0.12009525874E+02  0.54876513026E+02  0.70738987416E+02  0.00000000000E+00 0. -1.
        -12    1    6    6    0    0  0.52271296439E+01  0.21890194917E+01  0.19664639417E+03  0.19672803316E+03  0.00000000000E+00 0.  1.
</event>
<event>
12    1  0.8724767E-002  0.1873319E+03  0.7818608E-02  0.1160919E+00
         21   -1    0    0  503  502  0.00000000000E+00  0.00000000000E+00  0.50371051479E+02  0.50371051479E+02  0.00000000000E+00 0.  1.
         21   -1    0    0  501  503 -0.00000000000E+00 -0.00000000000E+00 -0.72305505282E+03  0.72305505282E+03  0.00000000000E+00 0.  1.
          6    2    1    2  501    0 -0.66860694170E+02  0.30955314922E+02 -0.41071815693E+03  0.45137122011E+03  0.17209877966E+03 0.  0.
         24    2    3    3    0    0 -0.83184776163E+02  0.18774507184E+02 -0.41425378415E+03  0.43017125808E+03  0.78542501181E+02 0.  0.
         -6    2    1    2    0  502  0.66860694170E+02 -0.30955314922E+02 -0.26196584441E+03  0.32205488419E+03  0.17223431960E+03 0.  0.
        -24    2    5    5    0    0  0.33225141367E+02  0.96919388457E+01 -0.45431516426E+02  0.99136166165E+02  0.81031555950E+02 0.  0.
          5    1    3    3  501    0  0.16324081994E+02  0.12180807738E+02  0.35356272182E+01  0.21199962027E+02  0.47000000000E+01 0. -1.
        -13    1    4    4    0    0 -0.32415168921E+02  0.60532519232E+00 -0.31956221731E+03  0.32120261570E+03  0.00000000000E+00 0.  1.
         14    1    4    4    0    0 -0.50769607242E+02  0.18169181991E+02 -0.94691566837E+02  0.10896864239E+03  0.00000000000E+00 0. -1.
         -5    1    5    5    0  502  0.33635552803E+02 -0.40647253768E+02 -0.21653432798E+03  0.22291871802E+03  0.47000000000E+01 0.  1.
         13    1    6    6    0    0  0.37352957944E+02  0.21943420147E+02 -0.63529771685E+02  0.76894662008E+02  0.00000000000E+00 0. -1.
        -14    1    6    6    0    0 -0.41278165765E+01 -0.12251481302E+02  0.18098255259E+02  0.22241504157E+02  0.00000000000E+00 0.  1.
</event>
<event>
12    1  0.8724767E-002  0.2346785E+03  0.7818608E-02  0.1123796E+00
         21   -1    0    0  503  502  0.00000000000E+00  0.00000000000E+00  0.37719462233E+03  0.37719462233E+03  0.00000000000E+00 0.  1.
         21   -1    0    0  501  503 -0.00000000000E+00 -0.00000000000E+00 -0.15646269362E+03  0.15646269362E+03  0.00000000000E+00 0. -1.
          6    2    1    2  501    0 -0.99462452289E+02 -0.12059423152E+03  0.36213498995E+02  0.23512585696E+03  0.17186332655E+03 0.  0.
         24    2    3    3    0    0 -0.46407838168E+02 -0.10476607163E+03  0.78408617366E+02  0.16535594411E+03  0.89805677811E+02 0.  0.
         -6    2    1    2    0  502  0.99462452289E+02  0.12059423152E+03  0.18451842971E+03  0.29853145899E+03  0.17503780452E+03 0.  0.
        -24    2    5    5    0    0  0.46595175220E+02 -0.46204800934E+01  0.10718804654E+03  0.14208417985E+03  0.80660880558E+02 0.  0.
          5    1    3    3  501    0 -0.53054614120E+02 -0.15828159887E+02 -0.42195118372E+02  0.69769912851E+02  0.47000000000E+01 0. -1.
        -11    1    4    4    0    0 -0.56694960573E+02 -0.85373113948E+02  0.21989063104E+02  0.10481605810E+03  0.00000000000E+00 0.  1.
         12    1    4    4    0    0  0.10287122404E+02 -0.19392957685E+02  0.56419554262E+02  0.60539886012E+02  0.00000000000E+00 0. -1.
         -5    1    5    5    0  502  0.52867277068E+02  0.12521471161E+03  0.77330383169E+02  0.15644727914E+03  0.47000000000E+01 0.  1.
         11    1    6    6    0    0 -0.12132675333E+02  0.24196707898E+02  0.23377264654E+02  0.35765611787E+02  0.00000000000E+00 0. -1.
        -12    1    6    6    0    0  0.58727850554E+02 -0.28817187991E+02  0.83810781887E+02  0.10631856806E+03  0.00000000000E+00 0.  1.
</event>
<event>
12    1  0.8724767E-002  0.3182370E+03  0.7818608E-02  0.1077331E+00
         21   -1    0    0  503  502  0.00000000000E+00  0.00000000000E+00  0.10632006521E+04  0.10632006521E+04  0.00000000000E+00 0.  1.
         21   -1    0    0  501  503 -0.00000000000E+00 -0.00000000000E+00 -0.13373326705E+03  0.13373326705E+03  0.00000000000E+00 0.  1.
          6    2    1    2  501    0 -0.19206705029E+03 -0.17305618972E+03  0.13847915883E+03  0.34706088538E+03  0.18557096789E+03 0.  0.
         24    2    3    3    0    0 -0.64634958885E+02 -0.46418816042E+02 -0.11347395233E+02  0.11308214995E+03  0.79538826151E+02 0.  0.
         -6    2    1    2    0  502  0.19206705029E+03  0.17305618972E+03  0.79098822617E+03  0.84987303372E+03  0.17257926554E+03 0.  0.
        -24    2    5    5    0    0  0.39501540739E+02  0.46851734916E+02  0.29574598669E+03  0.31649627674E+03  0.94597821134E+02 0.  0.
          5    1    3    3  501    0 -0.12743209141E+03 -0.12663737368E+03  0.14982655406E+03  0.23397873543E+03  0.47000000000E+01 0. -1.
        -13    1    4    4    0    0 -0.78150451496E+02 -0.47472297324E+02  0.53247726212E+01  0.91594024290E+02  0.00000000000E+00 0.  1.
         14    1    4    4    0    0  0.13515492611E+02  0.10534812822E+01 -0.16672167855E+02  0.21488125658E+02  0.00000000000E+00 0. -1.
         -5    1    5    5    0  502  0.15256550955E+03  0.12620445481E+03  0.49524223949E+03  0.53337675698E+03  0.47000000000E+01 0.  1.
         11    1    6    6    0    0  0.39459434670E+02  0.61051271308E+02  0.12087611269E+03  0.14105083953E+03  0.00000000000E+00 0. -1.
        -12    1    6    6    0    0  0.42106069937E-01 -0.14199536392E+02  0.17486987399E+03  0.17544543721E+03  0.00000000000E+00 0.  1.
</event>
<event>
12    1  0.8724767E-002  0.1924209E+03  0.7818608E-02  0.1156557E+00
         21   -1    0    0  501  502  0.00000000000E+00  0.00000000000E+00  0.78236391642E+03  0.78236391642E+03  0.00000000000E+00 0.  1.
         21   -1    0    0  502  503 -0.00000000000E+00 -0.00000000000E+00 -0.48897867910E+02  0.48897867910E+02  0.00000000000E+00 0.  1.
         -6    2    1    2    0  503  0.32086087617E+02  0.79671579632E+02  0.28672869259E+03  0.34531019352E+03  0.17218800474E+03 0.  0.
        -24    2    3    3    0    0 -0.35181964269E+02  0.89662077620E+02  0.19069125934E+03  0.22753889209E+03  0.78318147662E+02 0.  0.
          6    2    1    2  501    0 -0.32086087617E+02 -0.79671579632E+02  0.44673735592E+03  0.48595159081E+03  0.17087306932E+03 0.  0.
         24    2    5    5    0    0  0.17790860646E+02 -0.10351192462E+03  0.25874242004E+03  0.28994072903E+03  0.78017646495E+02 0.  0.
          5    1    5    5  501    0 -0.49876948263E+02  0.23840344988E+02  0.18799493589E+03  0.19601086178E+03  0.47000000000E+01 0. -1.
        -13    1    6    6    0    0 -0.26367638031E+02 -0.53615107230E+02  0.16026118548E+03  0.17103648625E+03  0.00000000000E+00 0.  1.
         14    1    6    6    0    0  0.44158498678E+02 -0.49896817390E+02  0.98481234559E+02  0.11890424278E+03  0.00000000000E+00 0. -1.
         -5    1    3    3    0  503  0.67268051886E+02 -0.99904979879E+01  0.96037433252E+02  0.11777130143E+03  0.47000000000E+01 0.  1.
         11    1    4    4    0    0 -0.16545781327E+02 -0.12198785885E+02  0.29697651610E+02  0.36118191649E+02  0.00000000000E+00 0. -1.
        -12    1    4    4    0    0 -0.18636182942E+02  0.10186086351E+03  0.16099360773E+03  0.19142070044E+03  0.00000000000E+00 0.  1.
</event>
<event>
12    1  0.8724767E-002  0.1817392E+03  0.7818608E-02  0.1166686E+00
         21   -1    0    0  503  502  0.00000000000E+00  0.00000000000E+00  0.12690115048E+03  0.12690115048E+03  0.00000000000E+00 0.  1.
         21   -1    0    0  501  503 -0.00000000000E+00 -0.00000000000E+00 -0.28120823805E+03  0.28120823805E+03  0.00000000000E+00 0.  1.
          6    2    1    2  501    0 -0.26897868550E+02  0.56421624324E+02 -0.17707954155E+02  0.18259986141E+03  0.17065240322E+03 0.  0.
         24    2    3    3    0    0  0.30660975600E+01 -0.28045433051E+02 -0.35326666738E+02  0.91139312106E+02  0.79135665531E+02 0.  0.
         -6    2    1    2    0  502  0.26897868550E+02 -0.56421624324E+02 -0.13659913342E+03  0.22550952712E+03  0.16819134504E+03 0.  0.
        -24    2    5    5    0    0 -0.39280936942E+02 -0.47161514853E+02 -0.11989362805E+03  0.15646933713E+03  0.79630213643E+02 0.  0.
          5    1    3    3  501    0 -0.29963966110E+02  0.84467057374E+02  0.17618712582E+02  0.91460549307E+02  0.47000000000E+01 0. -1.
        -11    1    4    4    0    0 -0.19589245763E+02  0.71267309594E+01  0.15009219184E+02  0.25686679510E+02  0.00000000000E+00 0.  1.
         12    1    4    4    0    0  0.22655343323E+02 -0.35172164010E+02 -0.50335885921E+02  0.65452632596E+02  0.00000000000E+00 0. -1.
         -5    1    5    5    0  502  0.66178805491E+02 -0.92601094710E+01 -0.16705505365E+02  0.69040189985E+02  0.47000000000E+01 0.  1.
         11    1    6    6    0    0 -0.48530176686E+02  0.46924153749E+00 -0.39529682878E+02  0.62593882011E+02  0.00000000000E+00 0. -1.
        -12    1    6    6    0    0  0.92492397446E+01 -0.47630756390E+02 -0.80363945176E+02  0.93875455122E+02  0.00000000000E+00 0.  1.
</event>
<event>
12    1  0.8724767E-002  0.1833127E+03  0.7818608E-02  0.1164996E+00
         21   -1    0    0  501  502  0.00000000000E+00  0.00000000000E+00  0.12690087132E+03  0.12690087132E+03  0.00000000000E+00 0. -1.
         21   -1    0    0  502  503 -0.00000000000E+00 -0.00000000000E+00 -0.26835584337E+03  0.26835584337E+03  0.00000000000E+00 0. -1.
         -6    2    1    2    0  503  0.34086265598E+02  0.57106359240E+02 -0.99358859210E+02  0.20717260253E+03  0.16919011368E+03 0.  0.
        -24    2    3    3    0    0  0.55600177100E+02  0.94500410915E+01 -0.11531583701E+03  0.15230286416E+03  0.81961803277E+02 0.  0.
          6    2    1    2  501    0 -0.34086265598E+02 -0.57106359240E+02 -0.42096112842E+02  0.18808411217E+03  0.17082312714E+03 0.  0.
         24    2    5    5    0    0 -0.40976538541E+02 -0.22935305962E+01  0.34078998408E+02  0.93868085826E+02  0.77236664938E+02 0.  0.
          5    1    5    5  501    0  0.68902729427E+01 -0.54812828644E+02 -0.76175111250E+02  0.94216026339E+02  0.47000000000E+01 0. -1.
        -11    1    6    6    0    0 -0.70337184703E+01  0.16849799163E+02 -0.20083957997E+02  0.27143218235E+02  0.00000000000E+00 0.  1.
         12    1    6    6    0    0 -0.33942820071E+02 -0.19143329759E+02  0.54162956404E+02  0.66724867591E+02  0.00000000000E+00 0. -1.
         -5    1    3    3    0  503 -0.21513911502E+02  0.47656318149E+02  0.15956977802E+02  0.54869738364E+02  0.47000000000E+01 0.  1.
         11    1    4    4    0    0  0.74316177094E+02  0.18511597130E+02 -0.76391045989E+02  0.10817192479E+03  0.00000000000E+00 0. -1.
        -12    1    4    4    0    0 -0.18715999993E+02 -0.90615560381E+01 -0.38924791023E+02  0.44130939371E+02  0.00000000000E+00 0.  1.
</event>
<event>
12    1  0.8724767E-002  0.2103312E+03  0.7818608E-02  0.1141509E+00
         21   -1    0    0  503  502  0.00000000000E+00  0.00000000000E+00  0.14489892907E+03  0.14489892907E+03  0.00000000000E+00 0. -1.
         21   -1    0    0  501  503 -0.00000000000E+00 -0.00000000000E+00 -0.64431350123E+03  0.64431350123E+03  0.00000000000E+00 0.  1.
          6    2    1    2  501    0  0.94669947890E+02 -0.75158161005E+02 -0.53686005488E+03  0.57659166535E+03  0.17212809715E+03 0.  0.
         24    2    3    3    0    0  0.68882980458E+02 -0.11344955064E+03 -0.47311538507E+03  0.49774579585E+03  0.79353917070E+02 0.  0.
         -6    2    1    2    0  502 -0.94669947890E+02  0.75158161005E+02  0.37445482718E+02  0.21262076495E+03  0.17086332934E+03 0.  0.
        -24    2    5    5    0    0 -0.23004737928E+01 -0.79854903152E+01  0.28415038897E+02  0.87926637522E+02  0.82792625971E+02 0.  0.
          5    1    3    3  501    0  0.25786967432E+02  0.38291389632E+02 -0.63744669806E+02  0.78845869505E+02  0.47000000000E+01 0. -1.
        -11    1    4    4    0    0 -0.64821801147E+01 -0.62938274497E+02 -0.17247773447E+03  0.18371666757E+03  0.00000000000E+00 0.  1.
         12    1    4    4    0    0  0.75365160573E+02 -0.50511276140E+02 -0.30063765061E+03  0.31402912828E+03  0.00000000000E+00 0. -1.
         -5    1    5    5    0  502 -0.92369474097E+02  0.83143651320E+02  0.90304438209E+01  0.12469412743E+03  0.47000000000E+01 0.  1.
         13    1    6    6    0    0 -0.26864910136E+02  0.25712725928E+02 -0.48506014723E+00  0.37190092157E+02  0.00000000000E+00 0. -1.
        -14    1    6    6    0    0  0.24564436343E+02 -0.33698216244E+02  0.28900099044E+02  0.50736545366E+02  0.00000000000E+00 0.  1.
</event>
<event>
12    1  0.8724767E-002  0.2029550E+03  0.7818608E-02  0.1148581E+00
         21   -1    0    0  501  502  0.00000000000E+00  0.00000000000E+00  0.40764874771E+03  0.40764874771E+03  0.00000000000E+00 0. -1.
         21   -1    0    0  502  503 -0.00000000000E+00 -0.00000000000E+00 -0.99395651253E+02  0.99395651253E+02  0.00000000000E+00 0. -1.
         -6    2    1    2    0  503 -0.10280188001E+03  0.87190433164E+01  0.18690262861E+03  0.27590452404E+03  0.17477547184E+03 0.  0.
        -24    2    3    3    0    0 -0.14122087992E+03  0.12644689423E+02  0.14417575624E+03  0.21811952707E+03  0.81769519428E+02 0.  0.
          6    2    1    2  501    0  0.10280188001E+03 -0.87190433164E+01  0.12135046785E+03  0.23113987492E+03  0.16749763426E+03 0.  0.
         24    2    5    5    0    0 -0.84069147704E+01 -0.22575477795E+02  0.36677465420E+02  0.90601609126E+02  0.79265923908E+02 0.  0.
          5    1    5    5  501    0  0.11120879478E+03  0.13856434478E+02  0.84673002434E+02  0.14053826580E+03  0.47000000000E+01 0. -1.
        -11    1    6    6    0    0  0.14265118522E+01  0.21223108414E+02 -0.11970273319E+02  0.24407841161E+02  0.00000000000E+00 0.  1.
         12    1    6    6    0    0 -0.98334266226E+01 -0.43798586209E+02  0.48647738739E+02  0.66193767965E+02  0.00000000000E+00 0. -1.
         -5    1    3    3    0  503  0.38418999917E+02 -0.39256461068E+01  0.42726872370E+02  0.57784996967E+02  0.47000000000E+01 0.  1.
         11    1    4    4    0    0 -0.10543376932E+03  0.15833140352E+02  0.14754356795E+03  0.18203316316E+03  0.00000000000E+00 0. -1.
        -12    1    4    4    0    0 -0.35787110602E+02 -0.31884509289E+01 -0.33678117166E+01  0.36086363911E+02  0.00000000000E+00 0.  1.
</event>
<event>
12    1  0.8724767E-002  0.1791621E+03  0.7818608E-02  0.1168848E+00
         21   -1    0    0  501  502  0.00000000000E+00  0.00000000000E+00  0.19319051284E+03  0.19319051284E+03  0.00000000000E+00 0.  1.
         21   -1    0    0  502  503 -0.00000000000E+00 -0.00000000000E+00 -0.33152251483E+03  0.33152251483E+03  0.00000000000E+00 0.  1.
         -6    2    1    2    0  503 -0.48375111260E+02 -0.31797124911E+01 -0.25504501264E+03  0.31168417348E+03  0.17247841477E+03 0.  0.
        -24    2    3    3    0    0 -0.23147080945E+02  0.48639723478E+02 -0.72681897096E+02  0.12037263862E+03  0.79405943774E+02 0.  0.
          6    2    1    2  501    0  0.48375111260E+02  0.31797124911E+01  0.11671301065E+03  0.21302885420E+03  0.17149082746E+03 0.  0.
         24    2    5    5    0    0  0.34007479100E+02  0.66644210790E+02  0.10137248369E+03  0.14600950501E+03  0.73786419051E+02 0.  0.
          5    1    5    5  501    0  0.14367632160E+02 -0.63464498299E+02  0.15340526962E+02  0.67019349189E+02  0.47000000000E+01 0. -1.
        -11    1    6    6    0    0 -0.11778325875E+01 -0.51274357642E+00  0.59277234906E+02  0.59291152575E+02  0.00000000000E+00 0.  1.
         12    1    6    6    0    0  0.35185311687E+02  0.67156954367E+02  0.42095248782E+02  0.86718352431E+02  0.00000000000E+00 0. -1.
         -5    1    3    3    0  503 -0.25228030314E+02 -0.51819435970E+02 -0.18236311555E+03  0.19131153486E+03  0.47000000000E+01 0.  1.
         11    1    4    4    0    0 -0.50896555510E+02  0.43582664144E+02 -0.44102469941E+02  0.80218051781E+02  0.00000000000E+00 0. -1.
        -12    1    4    4    0    0  0.27749474564E+02  0.50570593343E+01 -0.28579427155E+02  0.40154586839E+02  0.00000000000E+00 0.  1.
</event>
<event>
12    1  0.8724767E-002  0.1782561E+03  0.7818608E-02  0.1169816E+00
         21   -1    0    0  503  502  0.00000000000E+00  0.00000000000E+00  0.11646283709E+04  0.11646283709E+04  0.00000000000E+00 0. -1.
         21   -1    0    0  501  503 -0.00000000000E+00 -0.00000000000E+00 -0.51703088317E+02  0.51703088317E+02  0.00000000000E+00 0. -1.
          6    2    1    2  501    0  0.31908091110E+02  0.36278025755E+02  0.13788789061E+03  0.22536261863E+03  0.17158385143E+03 0.  0.
         24    2    3    3    0    0 -0.23335624884E+02 -0.28213579891E+00  0.14321158312E+02  0.85079544458E+02  0.80553102489E+02 0.  0.
         -6    2    1    2    0  502 -0.31908091110E+02 -0.36278025755E+02  0.97503739196E+03  0.99096884057E+03  0.17025600086E+03 0.  0.
        -24    2    5    5    0    0 -0.22707648140E+02  0.46248387478E+02  0.64455756128E+03  0.65018406168E+03  0.68046407980E+02 0.  0.
          5    1    3    3  501    0  0.55243715993E+02  0.36560161554E+02  0.12356673230E+03  0.14028307418E+03  0.47000000000E+01 0. -1.
        -11    1    4    4    0    0 -0.36102613598E+02  0.22710255993E+02  0.32059867465E+02  0.53357188248E+02  0.00000000000E+00 0.  1.
         12    1    4    4    0    0  0.12766988714E+02 -0.22992391791E+02 -0.17738709153E+02  0.31722356210E+02  0.00000000000E+00 0. -1.
         -5    1    5    5    0  502 -0.92004429696E+01 -0.82526413234E+02  0.33047983069E+03  0.34078477889E+03  0.47000000000E+01 0.  1.
         11    1    6    6    0    0 -0.35097825185E+02  0.40419041355E+02  0.61790846484E+03  0.62022288507E+03  0.00000000000E+00 0. -1.
        -12    1    6    6    0    0  0.12390177045E+02  0.58293461239E+01  0.26649096432E+02  0.29961176614E+02  0.00000000000E+00 0.  1.
</event>
<event>
12    1  0.8724767E-002  0.2417745E+03  0.7818608E-02  0.1119246E+00
         21   -1    0    0  501  502  0.00000000000E+00  0.00000000000E+00  0.52591146124E+03  0.52591146124E+03  0.00000000000E+00 0. -1.
         21   -1    0    0  502  503 -0.00000000000E+00 -0.00000000000E+00 -0.16122323072E+03  0.16122323072E+03  0.00000000000E+00 0. -1.
         -6    2    1    2    0  503  0.13099178290E+03  0.10303724366E+03 -0.13386062333E+02  0.23836407900E+03  0.16989033735E+03 0.  0.
        -24    2    3    3    0    0  0.15123845309E+03  0.11880377354E+03 -0.24619308393E+02  0.20996008394E+03  0.80558799660E+02 0.  0.
          6    2    1    2  501    0 -0.13099178290E+03 -0.10303724366E+03  0.37807429285E+03  0.44877061296E+03  0.17515527789E+03 0.  0.
         24    2    5    5    0    0 -0.13945322184E+03 -0.11558814651E+03  0.24695721196E+03  0.31669904141E+03  0.80638685463E+02 0.  0.
          5    1    5    5  501    0  0.84614389365E+01  0.12550902858E+02  0.13111708089E+03  0.13207157155E+03  0.47000000000E+01 0. -1.
        -13    1    6    6    0    0 -0.36740463126E+02  0.44492926133E+01  0.26670763621E+02  0.45617841549E+02  0.00000000000E+00 0.  1.
         14    1    6    6    0    0 -0.10271275871E+03 -0.12003743913E+03  0.22028644834E+03  0.27108119986E+03  0.00000000000E+00 0. -1.
         -5    1    3    3    0  503 -0.20246670187E+02 -0.15766529887E+02  0.11233246060E+02  0.28403995060E+02  0.47000000000E+01 0.  1.
         13    1    4    4    0    0  0.12227675452E+03  0.67446556405E+02  0.12636490271E+02  0.14021527575E+03  0.00000000000E+00 0. -1.
        -14    1    4    4    0    0  0.28961698573E+02  0.51357217138E+02 -0.37255798664E+02  0.69744808197E+02  0.00000000000E+00 0.  1.
</event>
<event>
12    1  0.8724767E-002  0.3960327E+03  0.7818608E-02  0.1045231E+00
         21   -1    0    0  503  502  0.00000000000E+00  0.00000000000E+00  0.15198914413E+04  0.15198914413E+04  0.00000000000E+00 0. -1.
         21   -1    0    0  501  503 -0.00000000000E+00 -0.00000000000E+00 -0.10914504286E+03  0.10914504286E+03  0.00000000000E+00 0.  1.
          6    2    1    2  501    0  0.26710276574E+03 -0.23586317096E+03  0.51256934891E+03  0.64774162404E+03  0.17281941785E+03 0.  0.
         24    2    3    3    0    0  0.22931102849E+03 -0.16760786755E+03  0.29906207316E+03  0.42037749176E+03  0.81259872773E+02 0.  0.
         -6    2    1    2    0  502 -0.26710276574E+03  0.23586317096E+03  0.89817704948E+03  0.98129486009E+03  0.17100370561E+03 0.  0.
        -24    2    5    5    0    0 -0.18186646183E+03  0.11385283956E+03  0.39914719604E+03  0.46052174912E+03  0.81999501797E+02 0.  0.
          5    1    3    3  501    0  0.37791737251E+02 -0.68255303405E+02  0.21350727575E+03  0.22736413227E+03  0.47000000000E+01 0. -1.
        -13    1    4    4    0    0  0.12853310765E+03 -0.98544382319E+02  0.11185814051E+03  0.19683495281E+03  0.00000000000E+00 0.  1.
         14    1    4    4    0    0  0.10077792084E+03 -0.69063485236E+02  0.18720393265E+03  0.22354253895E+03  0.00000000000E+00 0. -1.
         -5    1    5    5    0  502 -0.85236303906E+02  0.12201033140E+03  0.49902985345E+03  0.52077311097E+03  0.47000000000E+01 0.  1.
         11    1    6    6    0    0 -0.10995515007E+03  0.11234621013E+03  0.28856231952E+03  0.32860313177E+03  0.00000000000E+00 0. -1.
        -12    1    6    6    0    0 -0.71911311761E+02  0.15066294266E+01  0.11058487651E+03  0.13191861735E+03  0.00000000000E+00 0.  1.
</event>
<event>
12    1  0.8724767E-002  0.1717792E+03  0.7818608E-02  0.1176312E+00
         21   -1    0    0  501  502  0.00000000000E+00  0.00000000000E+00  0.62886313331E+02  0.62886313331E+02  0.00000000000E+00 0.  1.
         21   -1    0    0  502  503 -0.00000000000E+00 -0.00000000000E+00 -0.57359744987E+03  0.57359744987E+03  0.00000000000E+00 0.  1.
         -6    2    1    2    0  503 -0.15770994874E+01 -0.15664688631E+01 -0.39391612503E+03  0.42974178046E+03  0.17176479046E+03 0.  0.
        -24    2    3    3    0    0 -0.10328670295E+01 -0.49657617556E+02 -0.35573406413E+03  0.36815432600E+03  0.80770895596E+02 0.  0.
          6    2    1    2  501    0  0.15770994874E+01  0.15664688631E+01 -0.11679501150E+03  0.20674198274E+03  0.17057617550E+03 0.  0.
         24    2    5    5    0    0 -0.55212642938E+02 -0.32618959565E+02 -0.55853038376E+02  0.11657695377E+03  0.79738270549E+02 0.  0.
          5    1    5    5  501    0  0.56789742425E+02  0.34185428428E+02 -0.60941973127E+02  0.90165028976E+02  0.47000000000E+01 0. -1.
        -11    1    6    6    0    0 -0.66526206833E+02 -0.15487826476E+02 -0.13664772769E+02  0.69658703544E+02  0.00000000000E+00 0.  1.
         12    1    6    6    0    0  0.11313563895E+02 -0.17131133089E+02 -0.42188265607E+02  0.46918250222E+02  0.00000000000E+00 0. -1.
         -5    1    3    3    0  503 -0.54423245793E+00  0.48091148692E+02 -0.38182060904E+02  0.61587454456E+02  0.47000000000E+01 0.  1.
         13    1    4    4    0    0 -0.55253654395E+01  0.11755064003E+02 -0.85464702231E+01  0.15548419413E+02  0.00000000000E+00 0. -1.
        -14    1    4    4    0    0  0.44924984100E+01 -0.61412681559E+02 -0.34718759391E+03  0.35260590659E+03  0.00000000000E+00 0.  1.
</event>
<event>
12    1  0.8724767E-002  0.2908114E+03  0.7818608E-02  0.1089975E+00
         21   -1    0    0  501  502  0.00000000000E+00  0.00000000000E+00  0.18578252783E+03  0.18578252783E+03  0.00000000000E+00 0. -1.
         21   -1    0    0  502  503 -0.00000000000E+00 -0.00000000000E+00 -0.54700278339E+03  0.54700278339E+03  0.00000000000E+00 0.  1.
         -6    2    1    2    0  503 -0.22877481745E+03 -0.50527129705E+02 -0.29947220409E+02  0.29197570529E+03  0.17164518209E+03 0.  0.
        -24    2    3    3    0    0 -0.23735764241E+03 -0.50840151825E+02  0.55176337823E+01  0.25518428306E+03  0.78518804078E+02 0.  0.
          6    2    1    2  501    0  0.22877481745E+03  0.50527129705E+02 -0.33127303516E+03  0.44080960593E+03  0.17227993766E+03 0.  0.
         24    2    5    5    0    0  0.16780551031E+03 -0.27313911122E+02 -0.17477129729E+03  0.25563031981E+03  0.76792675567E+02 0.  0.
          5    1    5    5  501    0  0.60969307143E+02  0.77841040826E+02 -0.15650173787E+03  0.18517928612E+03  0.47000000000E+01 0. -1.
        -13    1    6    6    0    0  0.13742093839E+03 -0.13520217658E+02 -0.17415589134E+03  0.22225567502E+03  0.00000000000E+00 0.  1.
         14    1    6    6    0    0  0.30384571924E+02 -0.13793693464E+02 -0.61540595059E+00  0.33374644790E+02  0.00000000000E+00 0. -1.
         -5    1    3    3    0  503  0.85828249525E+01  0.31302212076E+00 -0.35464854191E+02  0.36791422231E+02  0.47000000000E+01 0.  1.
         13    1    4    4    0    0 -0.92423567143E+02  0.98347873668E+01  0.26544524430E+02  0.96661525868E+02  0.00000000000E+00 0. -1.
        -14    1    4    4    0    0 -0.14493407526E+03 -0.60674939192E+02 -0.21026890648E+02  0.15852275719E+03  0.00000000000E+00 0.  1.
</event>
<event>
12    1  0.8724767E-002  0.1778478E+03  0.7818608E-02  0.1172680E+00
         21   -1    0    0  503  502  0.00000000000E+00  0.00000000000E+00  0.46847432740E+02  0.46847432740E+02  0.00000000000E+00 0. -1.
         21   -1    0    0  501  503 -0.00000000000E+00 -0.00000000000E+00 -0.64419873790E+03  0.64419873790E+03  0.00000000000E+00 0. -1.
          6    2    1    2  501    0 -0.48248868993E+02 -0.33969032031E+01 -0.33208900798E+03  0.37168129802E+03  0.15976353077E+03 0.  0.
         24    2    3    3    0    0 -0.44211485653E+02 -0.19775106593E+02 -0.93867740524E+02  0.13281730266E+03  0.80520636300E+02 0.  0.
         -6    2    1    2    0  502  0.48248868993E+02  0.33969032031E+01 -0.26526229718E+03  0.31936487262E+03  0.17114421769E+03 0.  0.
        -24    2    5    5    0    0  0.16862992091E+02  0.27262239961E+02 -0.49549562876E+02  0.10002791425E+03  0.80764065140E+02 0.  0.
          5    1    3    3  501    0 -0.40373833401E+01  0.16378203390E+02 -0.23822126746E+03  0.23886399536E+03  0.47000000000E+01 0. -1.
        -11    1    4    4    0    0 -0.24434094797E+02 -0.83272675133E+01 -0.10447997366E+03  0.10762171374E+03  0.00000000000E+00 0.  1.
         12    1    4    4    0    0 -0.19777390856E+02 -0.11447839080E+02  0.10612233137E+02  0.25195588916E+02  0.00000000000E+00 0. -1.
         -5    1    5    5    0  502  0.31385876902E+02 -0.23865336758E+02 -0.21571273430E+03  0.21933695837E+03  0.47000000000E+01 0.  1.
         13    1    6    6    0    0 -0.27762271264E+02 -0.59108216553E+01 -0.50965034136E+01  0.28838444227E+02  0.00000000000E+00 0. -1.
        -14    1    6    6    0    0  0.44625263355E+02  0.33173061616E+02 -0.44453059463E+02  0.71189470023E+02  0.00000000000E+00 0.  1.
</event>
<event>
12    1  0.8724767E-002  0.1804646E+03  0.7818608E-02  0.1168085E+00
         21   -1    0    0  501  502  0.00000000000E+00  0.00000000000E+00  0.38678290548E+03  0.38678290548E+03  0.00000000000E+00 0. -1.
         21   -1    0    0  502  503 -0.00000000000E+00 -0.00000000000E+00 -0.11726373011E+03  0.11726373011E+03  0.00000000000E+00 0. -1.
         -6    2    1    2    0  503  0.45905758793E+02  0.23867413134E+02 -0.26543703534E+01  0.17747979216E+03  0.16974993031E+03 0.  0.
        -24    2    3    3    0    0 -0.39271541347E+02  0.19001269056E+02 -0.10535044254E+02  0.91671594188E+02  0.79933671492E+02 0.  0.
          6    2    1    2  501    0 -0.45905758793E+02 -0.23867413134E+02  0.27217354573E+03  0.32656684344E+03  0.17288861195E+03 0.  0.
         24    2    5    5    0    0  0.10960862913E+02  0.31089662790E+02  0.20932394858E+03  0.22544189736E+03  0.76946903688E+02 0.  0.
          5    1    5    5  501    0 -0.56866621705E+02 -0.54957075924E+02  0.62849597142E+02  0.10112494608E+03  0.47000000000E+01 0. -1.
        -13    1    6    6    0    0 -0.91940254575E+01  0.45965657640E+02  0.72435124904E+02  0.86279888191E+02  0.00000000000E+00 0.  1.
         14    1    6    6    0    0  0.20154888370E+02 -0.14875994850E+02  0.13688882368E+03  0.13916200917E+03  0.00000000000E+00 0. -1.
         -5    1    3    3    0  503  0.85177300140E+02  0.48661440778E+01  0.78806739010E+01  0.85808197967E+02  0.47000000000E+01 0.  1.
         13    1    4    4    0    0 -0.26007755542E+02  0.16753747145E+02  0.33516344342E+02  0.45611804720E+02  0.00000000000E+00 0. -1.
        -14    1    4    4    0    0 -0.13263785804E+02  0.22475219107E+01 -0.44051388596E+02  0.46059789468E+02  0.00000000000E+00 0.  1.
</event>
<event>
12    1  0.8724767E-002  0.2832808E+03  0.7818608E-02  0.1094023E+00
         21   -1    0    0  503  502  0.00000000000E+00  0.00000000000E+00  0.24370447955E+03  0.24370447955E+03  0.00000000000E+00 0.  1.
         21   -1    0    0  501  503 -0.00000000000E+00 -0.00000000000E+00 -0.32854707441E+03  0.32854707441E+03  0.00000000000E+00 0. -1.
          6    2    1    2  501    0 -0.34623045382E+02  0.22246892211E+03 -0.50088048313E+02  0.28767485258E+03  0.17192100409E+03 0.  0.
         24    2    3    3    0    0 -0.35202590369E+02  0.17849630889E+03 -0.98623915424E+02  0.22201095853E+03  0.80386779748E+02 0.  0.
         -6    2    1    2    0  502  0.34623045382E+02 -0.22246892211E+03 -0.34754546545E+02  0.28457670139E+03  0.17054279197E+03 0.  0.
        -24    2    5    5    0    0 -0.43057577283E+02 -0.12090905503E+03  0.42390457935E+01  0.15081842694E+03  0.79090289207E+02 0.  0.
          5    1    3    3  501    0  0.57954498662E+00  0.43972613221E+02  0.48535867111E+02  0.65663894052E+02  0.47000000000E+01 0. -1.
        -11    1    4    4    0    0  0.15951876334E+02  0.14876647821E+02  0.40509350848E+01  0.22185289812E+02  0.00000000000E+00 0.  1.
         12    1    4    4    0    0 -0.51154466703E+02  0.16361966107E+03 -0.10267485051E+03  0.19982566872E+03  0.00000000000E+00 0. -1.
         -5    1    5    5    0  502  0.77680622665E+02 -0.10155986708E+03 -0.38993592338E+02  0.13375827444E+03  0.47000000000E+01 0.  1.
         11    1    6    6    0    0 -0.59500251501E+01 -0.64279546121E+02 -0.34105421841E+02  0.73009880480E+02  0.00000000000E+00 0. -1.
        -12    1    6    6    0    0 -0.37107552133E+02 -0.56629508908E+02  0.38344467634E+02  0.77808546463E+02  0.00000000000E+00 0.  1.
</event>
<event>
12    1  0.8724767E-002  0.1919874E+03  0.7818608E-02  0.1157577E+00
         21   -1    0    0  503  502  0.00000000000E+00  0.00000000000E+00  0.10187751429E+03  0.10187751429E+03  0.00000000000E+00 0. -1.
         21   -1    0    0  501  503 -0.00000000000E+00 -0.00000000000E+00 -0.35560106944E+03  0.35560106944E+03  0.00000000000E+00 0. -1.
          6    2    1    2  501    0  0.35386182492E+02  0.76783486359E+02 -0.13918922045E+03  0.23392256861E+03  0.16792332574E+03 0.  0.
         24    2    3    3    0    0  0.66817026076E+02  0.74186227005E+02 -0.14307240739E+03  0.20180072518E+03  0.10141847798E+03 0.  0.
         -6    2    1    2    0  502 -0.35386182492E+02 -0.76783486359E+02 -0.11453433471E+03  0.22355601512E+03  0.17236963880E+03 0.  0.
        -24    2    5    5    0    0 -0.34565916956E+02 -0.11108696325E+03 -0.50595293235E+02  0.15083949439E+03  0.81593831569E+02 0.  0.
          5    1    3    3  501    0 -0.31430843584E+02  0.25972593538E+01  0.38831869423E+01  0.32121843431E+02  0.47000000000E+01 0. -1.
        -11    1    4    4    0    0  0.22728932469E+02 -0.12423863774E+02  0.32896459494E+01  0.26110889161E+02  0.00000000000E+00 0.  1.
         12    1    4    4    0    0  0.44088093607E+02  0.86610090779E+02 -0.14636205334E+03  0.17568983602E+03  0.00000000000E+00 0. -1.
         -5    1    5    5    0  502 -0.82026553535E+00  0.34303476893E+02 -0.63939041475E+02  0.72716520731E+02  0.47000000000E+01 0.  1.
         13    1    6    6    0    0  0.53595639862E+01 -0.74426220992E+02  0.29105134080E+01  0.74675688049E+02  0.00000000000E+00 0. -1.
        -14    1    6    6    0    0 -0.39925480943E+02 -0.36660742260E+02 -0.53505806643E+02  0.76163806339E+02  0.00000000000E+00 0.  1.
</event>
<event>
12    1  0.8724767E-002  0.1903459E+03  0.7818608E-02  0.1158740E+00
         21   -1    0    0  503  502  0.00000000000E+00  0.00000000000E+00  0.35407314855E+03  0.35407314855E+03  0.00000000000E+00 0.  1.
         21   -1    0    0  501  503 -0.00000000000E+00 -0.00000000000E+00 -0.19577548457E+03  0.19577548457E+03  0.00000000000E+00 0.  1.
          6    2    1    2  501    0 -0.38905042711E+02  0.67831606380E+02 -0.11192051062E+03  0.22081160365E+03  0.17354202499E+03 0.  0.
         24    2    3    3    0    0  0.15860121103E+02 -0.10873703934E+02 -0.92509371152E+02  0.12286962402E+03  0.78544126938E+02 0.  0.
         -6    2    1    2    0  502  0.38905042711E+02 -0.67831606380E+02  0.27021817460E+03  0.32903702947E+03  0.17068326136E+03 0.  0.
        -24    2    5    5    0    0  0.19129903747E+02  0.27221912261E+02  0.15057114137E+03  0.17488213955E+03  0.82493080890E+02 0.  0.
          5    1    3    3  501    0 -0.54765163814E+02  0.78705310314E+02 -0.19411139469E+02  0.97941979634E+02  0.47000000000E+01 0. -1.
        -13    1    4    4    0    0  0.42587460197E+02  0.11180086326E+02 -0.65554128590E+02  0.78968537225E+02  0.00000000000E+00 0.  1.
         14    1    4    4    0    0 -0.26727339095E+02 -0.22053790260E+02 -0.26955242563E+02  0.43901086792E+02  0.00000000000E+00 0. -1.
         -5    1    5    5    0  502  0.19775138965E+02 -0.95053518641E+02  0.11964703323E+03  0.15415488992E+03  0.47000000000E+01 0.  1.
         11    1    6    6    0    0 -0.25906936254E+01  0.70572921300E+01 -0.94861958289E+01  0.12103924032E+02  0.00000000000E+00 0. -1.
        -12    1    6    6    0    0  0.21720597372E+02  0.20164620131E+02  0.16005733720E+03  0.16277821552E+03  0.00000000000E+00 0.  1.
</event>
<event>
12    1  0.8724767E-002  0.3360954E+03  0.7818608E-02  0.1068614E+00
         21   -1    0    0  501  502  0.00000000000E+00  0.00000000000E+00  0.16855754840E+04  0.16855754840E+04  0.00000000000E+00 0.  1.
         21   -1    0    0  502  503 -0.00000000000E+00 -0.00000000000E+00 -0.18121012403E+03  0.18121012403E+03  0.00000000000E+00 0.  1.
         -6    2    1    2    0  503 -0.10017630346E+03  0.26999332586E+03  0.10914854599E+02  0.33627255764E+03  0.17328707737E+03 0.  0.
        -24    2    3    3    0    0  0.14887558399E+02  0.77303321592E+02  0.10065588639E+02  0.11179106329E+03  0.78730444130E+02 0.  0.
          6    2    1    2  501    0  0.10017630346E+03 -0.26999332586E+03  0.14934505054E+04  0.15305130504E+04  0.17071642468E+03 0.  0.
         24    2    5    5    0    0  0.11127412625E+02 -0.17106977807E+03  0.10705344344E+04  0.10871219517E+04  0.80009214967E+02 0.  0.
          5    1    5    5  501    0  0.89048890834E+02 -0.98923547797E+02  0.42291607103E+03  0.44339109870E+03  0.47000000000E+01 0. -1.
        -11    1    6    6    0    0 -0.31158914605E+02 -0.85316389846E+02  0.42974584813E+03  0.43923940889E+03  0.00000000000E+00 0.  1.
         12    1    6    6    0    0  0.42286327230E+02 -0.85753388220E+02  0.64078858624E+03  0.64788254284E+03  0.00000000000E+00 0. -1.
         -5    1    3    3    0  503 -0.11506386186E+03  0.19269000427E+03  0.84926596034E+00  0.22448149435E+03  0.47000000000E+01 0.  1.
         11    1    4    4    0    0  0.10925892530E+02  0.58171870865E+01  0.34093422875E+02  0.36270873666E+02  0.00000000000E+00 0. -1.
        -12    1    4    4    0    0  0.39616658692E+01  0.71486134505E+02 -0.24027834235E+02  0.75520189625E+02  0.00000000000E+00 0.  1.
</event>
<event>
12    1  0.8724767E-002  0.2300478E+03  0.7818608E-02  0.1127022E+00
         21   -1    0    0  501  502  0.00000000000E+00  0.00000000000E+00  0.10338639303E+03  0.10338639303E+03  0.00000000000E+00 0.  1.
         21   -1    0    0  502  503 -0.00000000000E+00 -0.00000000000E+00 -0.51255121078E+03  0.51255121078E+03  0.00000000000E+00 0. -1.
         -6    2    1    2    0  503  0.95701952739E+02 -0.11870169646E+03 -0.23654893070E+03  0.32832983191E+03  0.16910388940E+03 0.  0.
        -24    2    3    3    0    0  0.12215283592E+03 -0.86839840366E+02 -0.13121973602E+03  0.21505513771E+03  0.81040853519E+02 0.  0.
          6    2    1    2  501    0 -0.95701952739E+02  0.11870169646E+03 -0.17261588704E+03  0.28760777189E+03  0.17225861225E+03 0.  0.
         24    2    5    5    0    0 -0.88524864484E+02  0.15248785262E+03 -0.13583013604E+03  0.23692940944E+03  0.81218977893E+02 0.  0.
          5    1    5    5  501    0 -0.71770882551E+01 -0.33786156167E+02 -0.36785751004E+02  0.50678362457E+02  0.47000000000E+01 0. -1.
        -11    1    6    6    0    0 -0.35842271630E+02  0.77461951219E+02 -0.17307176341E+02  0.87089383252E+02  0.00000000000E+00 0.  1.
         12    1    6    6    0    0 -0.52682592854E+02  0.75025901404E+02 -0.11852295970E+03  0.14984002618E+03  0.00000000000E+00 0. -1.
         -5    1    3    3    0  503 -0.26450883177E+02 -0.31861856091E+02 -0.10532919468E+03  0.11327469420E+03  0.47000000000E+01 0.  1.
         11    1    4    4    0    0  0.22691353841E+02 -0.64408616348E+02 -0.56831042467E+02  0.88843315938E+02  0.00000000000E+00 0. -1.
        -12    1    4    4    0    0  0.99461482075E+02 -0.22431224018E+02 -0.74388693551E+02  0.12621182178E+03  0.00000000000E+00 0.  1.
</event>
<event>
12    1  0.8724767E-002  0.2115885E+03  0.7818608E-02  0.1141100E+00
         21   -1    0    0  503  502  0.00000000000E+00  0.00000000000E+00  0.35875652424E+03  0.35875652424E+03  0.00000000000E+00 0. -1.
         21   -1    0    0  501  503 -0.00000000000E+00 -0.00000000000E+00 -0.12491835464E+03  0.12491835464E+03  0.00000000000E+00 0. -1.
          6    2    1    2  501    0 -0.12309330337E+03  0.54134421450E+01  0.81925533411E+02  0.22320005104E+03  0.16710835727E+03 0.  0.
         24    2    3    3    0    0 -0.62375574730E+02  0.43019423077E+02 -0.92419343903E+01  0.10729297809E+03  0.75398850868E+02 0.  0.
         -6    2    1    2    0  502  0.12309330337E+03 -0.54134421450E+01  0.15191263619E+03  0.26047482785E+03  0.17201284900E+03 0.  0.
        -24    2    5    5    0    0  0.72977878324E+02  0.44162539153E+02  0.29881997061E+02  0.11946808817E+03  0.78125474428E+02 0.  0.
          5    1    3    3  501    0 -0.60717728637E+02 -0.37605980932E+02  0.91167467802E+02  0.11590707294E+03  0.47000000000E+01 0. -1.
        -13    1    4    4    0    0 -0.36690256549E+02 -0.13926610303E+02 -0.19767516746E+02  0.43941781012E+02  0.00000000000E+00 0.  1.
         14    1    4    4    0    0 -0.25685318181E+02  0.56946033380E+02  0.10525582356E+02  0.63351197082E+02  0.00000000000E+00 0. -1.
         -5    1    5    5    0  502  0.50115425043E+02 -0.49575981298E+02  0.12203063913E+03  0.14100673968E+03  0.47000000000E+01 0.  1.
         11    1    6    6    0    0  0.28488324457E+02  0.28773071237E+02  0.53262531919E+02  0.66905691575E+02  0.00000000000E+00 0. -1.
        -12    1    6    6    0    0  0.44489553868E+02  0.15389467917E+02 -0.23380534857E+02  0.52562396600E+02  0.00000000000E+00 0.  1.
</event>
<event>
12    1  0.8724767E-002  0.1747929E+03  0.7818608E-02  0.1173060E+00
         21   -1    0    0  503  502  0.00000000000E+00  0.00000000000E+00  0.69501165208E+02  0.69501165208E+02  0.00000000000E+00 0. -1.
         21   -1    0    0  501  503 -0.00000000000E+00 -0.00000000000E+00 -0.44037542906E+03  0.44037542906E+03  0.00000000000E+00 0. -1.
          6    2    1    2  501    0  0.16505615745E+02 -0.80868767422E+01 -0.20227661610E+03  0.26702332557E+03  0.17334299539E+03 0.  0.
         24    2    3    3    0    0  0.21785466515E+02 -0.30646680659E+02 -0.22057443334E+03  0.23712814716E+03  0.78503833960E+02 0.  0.
         -6    2    1    2    0  502 -0.16505615745E+02  0.80868767422E+01 -0.16859764775E+03  0.24285326870E+03  0.17382379113E+03 0.  0.
        -24    2    5    5    0    0  0.35580440185E+02 -0.52696965285E+02 -0.10403282924E+03  0.13990503674E+03  0.68612330315E+02 0.  0.
          5    1    3    3  501    0 -0.52798507707E+01  0.22559803917E+02  0.18297817233E+02  0.29895178414E+02  0.47000000000E+01 0. -1.
        -13    1    4    4    0    0  0.17887180871E+02 -0.67077861786E+01 -0.44082910902E+01  0.19605577402E+02  0.00000000000E+00 0.  1.
         14    1    4    4    0    0  0.38982856445E+01 -0.23938894481E+02 -0.21616614225E+03  0.21752256976E+03  0.00000000000E+00 0. -1.
         -5    1    5    5    0  502 -0.52086055930E+02  0.60783842027E+02 -0.64564818513E+02  0.10294823196E+03  0.47000000000E+01 0.  1.
         13    1    6    6    0    0  0.44010214835E+02 -0.41613904667E+01 -0.52020343349E+02  0.68266626565E+02  0.00000000000E+00 0. -1.
        -14    1    6    6    0    0 -0.84297746501E+01 -0.48535574819E+02 -0.52012485888E+02  0.71638410171E+02  0.00000000000E+00 0.  1.
</event>
<event>
12    1  0.8724767E-002  0.1996910E+03  0.7818608E-02  0.1150266E+00
         21   -1    0    0  501  502  0.00000000000E+00  0.00000000000E+00  0.34771513704E+03  0.34771513704E+03  0.00000000000E+00 0. -1.
         21   -1    0    0  502  503 -0.00000000000E+00 -0.00000000000E+00 -0.21636411804E+03  0.21636411804E+03  0.00000000000E+00 0. -1.
         -6    2    1    2    0  503 -0.55105734972E+02 -0.85568552255E+02 -0.12846370966E+03  0.23639007547E+03  0.17034883011E+03 0.  0.
        -24    2    3    3    0    0  0.27204125637E+02 -0.64018039510E+02 -0.40171661977E+02  0.11368346017E+03  0.80447454008E+02 0.  0.
          6    2    1    2  501    0  0.55105734972E+02  0.85568552255E+02  0.25981472866E+03  0.32768917962E+03  0.17180770078E+03 0.  0.
         24    2    5    5    0    0  0.80420368924E+02  0.36437383203E+02  0.10166073270E+03  0.16009001822E+03  0.86595558353E+02 0.  0.
          5    1    5    5  501    0 -0.25314633952E+02  0.49131169052E+02  0.15815399596E+03  0.16759916140E+03  0.47000000000E+01 0. -1.
        -11    1    6    6    0    0  0.34477399509E+02  0.14956469786E+02 -0.87510492265E+01  0.38587147186E+02  0.00000000000E+00 0.  1.
         12    1    6    6    0    0  0.45942969414E+02  0.21480913417E+02  0.11041178193E+03  0.12150287103E+03  0.00000000000E+00 0. -1.
         -5    1    3    3    0  503 -0.82309860609E+02 -0.21550512745E+02 -0.88292047686E+02  0.12270661530E+03  0.47000000000E+01 0.  1.
         11    1    4    4    0    0 -0.27471111267E+02 -0.31680492043E+02 -0.88385708735E+01  0.42853656383E+02  0.00000000000E+00 0. -1.
        -12    1    4    4    0    0  0.54675236904E+02 -0.32337547467E+02 -0.31333091103E+02  0.70829803789E+02  0.00000000000E+00 0.  1.
</event>
<event>
12    1  0.8724767E-002  0.1788654E+03  0.7818608E-02  0.1168991E+00
         21   -1    0    0  501  502  0.00000000000E+00  0.00000000000E+00  0.26356532124E+03  0.26356532124E+03  0.00000000000E+00 0. -1.
         21   -1    0    0  502  503 -0.00000000000E+00 -0.00000000000E+00 -0.17478423632E+03  0.17478423632E+03  0.00000000000E+00 0. -1.
         -6    2    1    2    0  503  0.24534254911E+02  0.42406868392E+02 -0.77054103306E+02  0.19443535137E+03  0.17166099986E+03 0.  0.
        -24    2    3    3    0    0 -0.75189366045E+01  0.85072959588E+02 -0.40641774379E+02  0.12966074120E+03  0.88691663211E+02 0.  0.
          6    2    1    2  501    0 -0.24534254911E+02 -0.42406868392E+02  0.16583518823E+03  0.24391420619E+03  0.17202487662E+03 0.  0.
         24    2    5    5    0    0 -0.46409151455E+02  0.14838131344E+02  0.42098610218E+02  0.10575367698E+03  0.83890212373E+02 0.  0.
          5    1    5    5  501    0  0.21874896544E+02 -0.57244999736E+02  0.12373657801E+03  0.13816052921E+03  0.47000000000E+01 0. -1.
        -13    1    6    6    0    0 -0.27396893049E+02  0.81552384607E+01 -0.23578287222E+02  0.37054463853E+02  0.00000000000E+00 0.  1.
         14    1    6    6    0    0 -0.19012258406E+02  0.66828928831E+01  0.65676897440E+02  0.68699213128E+02  0.00000000000E+00 0. -1.
         -5    1    3    3    0  503  0.32053191516E+02 -0.42666091196E+02 -0.36412328927E+02  0.64774610166E+02  0.47000000000E+01 0.  1.
         11    1    4    4    0    0 -0.47807522032E+02  0.45845861155E+02 -0.15292115988E+02  0.67979783460E+02  0.00000000000E+00 0. -1.
        -12    1    4    4    0    0  0.40288585427E+02  0.39227098433E+02 -0.25349658391E+02  0.61680957740E+02  0.00000000000E+00 0.  1.
</event>
<event>
12    1  0.8724767E-002  0.2372597E+03  0.7818608E-02  0.1122121E+00
         21   -1    0    0  503  502  0.00000000000E+00  0.00000000000E+00  0.12228149269E+03  0.12228149269E+03  0.00000000000E+00 0. -1.
         21   -1    0    0  501  503 -0.00000000000E+00 -0.00000000000E+00 -0.56445218690E+03  0.56445218690E+03  0.00000000000E+00 0. -1.
          6    2    1    2  501    0 -0.11764930031E+03  0.11025331675E+03 -0.37351221176E+03  0.44249693891E+03  0.17405463767E+03 0.  0.
         24    2    3    3    0    0 -0.10218744907E+03  0.91084446566E+02 -0.38387826629E+03  0.41536652213E+03  0.80175889260E+02 0.  0.
         -6    2    1    2    0  502  0.11764930031E+03 -0.11025331675E+03 -0.68658482453E+02  0.24423674069E+03  0.17011891890E+03 0.  0.
        -24    2    5    5    0    0  0.14368823827E+03 -0.63529997243E+02 -0.72014214764E+02  0.19043668664E+03  0.79985712003E+02 0.  0.
          5    1    3    3  501    0 -0.15461851246E+02  0.19168870186E+02  0.10366054535E+02  0.27130416783E+02  0.47000000000E+01 0. -1.
        -13    1    4    4    0    0 -0.64378911123E+01 -0.12148520544E+02 -0.14123335273E+02  0.19710443745E+02  0.00000000000E+00 0.  1.
         14    1    4    4    0    0 -0.95749557954E+02  0.10323296711E+03 -0.36975493102E+03  0.39565607838E+03  0.00000000000E+00 0. -1.
         -5    1    5    5    0  502 -0.26038937956E+02 -0.46723319509E+02  0.33557323112E+01  0.53800054044E+02  0.47000000000E+01 0.  1.
         13    1    6    6    0    0  0.70465072249E+02 -0.59295403274E+02 -0.68896856182E+01  0.92351172296E+02  0.00000000000E+00 0. -1.
        -14    1    6    6    0    0  0.73223166019E+02 -0.42345939688E+01 -0.65124529146E+02  0.98085514346E+02  0.00000000000E+00 0.  1.
</event>
<event>
12    1  0.8724767E-002  0.2292728E+03  0.7818608E-02  0.1127377E+00
         21   -1    0    0  501  502  0.00000000000E+00  0.00000000000E+00  0.52190297806E+03  0.52190297806E+03  0.00000000000E+00 0. -1.
         21   -1    0    0  502  503 -0.00000000000E+00 -0.00000000000E+00 -0.11692574890E+03  0.11692574890E+03  0.00000000000E+00 0.  1.
         -6    2    1    2    0  503  0.15001482014E+03  0.14281126924E+02  0.32294590600E+03  0.39532273482E+03  0.17110701216E+03 0.  0.
        -24    2    3    3    0    0  0.17250250840E+03  0.27518720575E+02  0.23346911709E+03  0.30200009146E+03  0.78624622239E+02 0.  0.
          6    2    1    2  501    0 -0.15001482014E+03 -0.14281126924E+02  0.82031323156E+02  0.24350599214E+03  0.17279361500E+03 0.  0.
         24    2    5    5    0    0 -0.54949077544E+02 -0.43398512252E+02  0.71887252461E+02  0.14345445685E+03  0.10251132687E+03 0.  0.
          5    1    5    5  501    0 -0.95065742597E+02  0.29117385328E+02  0.10144070695E+02  0.10005153529E+03  0.47000000000E+01 0. -1.
        -13    1    6    6    0    0  0.20316395600E+01 -0.56513523950E+02  0.84444831120E+01  0.57177051722E+02  0.00000000000E+00 0.  1.
         14    1    6    6    0    0 -0.56980717104E+02  0.13115011698E+02  0.63442769349E+02  0.86277405132E+02  0.00000000000E+00 0. -1.
         -5    1    3    3    0  503 -0.22487688256E+02 -0.13237593651E+02  0.89476788909E+02  0.93322643352E+02  0.47000000000E+01 0.  1.
         13    1    4    4    0    0  0.91396305183E+02 -0.24117196183E+02  0.13028498268E+03  0.16096304068E+03  0.00000000000E+00 0. -1.
        -14    1    4    4    0    0  0.81106203214E+02  0.51635916758E+02  0.10318413441E+03  0.14103705079E+03  0.00000000000E+00 0.  1.
</event>
<event>
12    1  0.8724767E-002  0.1728761E+03  0.7818608E-02  0.1175594E+00
         21   -1    0    0  503  502  0.00000000000E+00  0.00000000000E+00  0.87600801426E+02  0.87600801426E+02  0.00000000000E+00 0. -1.
         21   -1    0    0  501  503 -0.00000000000E+00 -0.00000000000E+00 -0.42190912267E+03  0.42190912267E+03  0.00000000000E+00 0. -1.
          6    2    1    2  501    0  0.21173503306E+02 -0.10790171721E+01 -0.50938741424E+02  0.17756949648E+03  0.16878000231E+03 0.  0.
         24    2    3    3    0    0 -0.50705825430E+02  0.11788995267E+02 -0.38740483278E+02  0.10338653923E+03  0.80485342195E+02 0.  0.
         -6    2    1    2    0  502 -0.21173503306E+02  0.10790171721E+01 -0.28336957982E+03  0.33194042762E+03  0.17157111412E+03 0.  0.
        -24    2    5    5    0    0  0.32515398170E+02  0.20569306760E+01 -0.68500099206E+02  0.11041291656E+03  0.80232577362E+02 0.  0.
          5    1    3    3  501    0  0.71879328736E+02 -0.12868012439E+02 -0.12198258145E+02  0.74182957244E+02  0.47000000000E+01 0. -1.
        -13    1    4    4    0    0  0.46512881597E-01  0.12577921435E+02  0.21317769495E+02  0.24751839675E+02  0.00000000000E+00 0.  1.
         14    1    4    4    0    0 -0.50752338312E+02 -0.78892616869E+00 -0.60058252773E+02  0.78634699559E+02  0.00000000000E+00 0. -1.
         -5    1    5    5    0  502 -0.53688901476E+02 -0.97791350391E+00 -0.21486948062E+03  0.22152751106E+03  0.47000000000E+01 0.  1.
         11    1    6    6    0    0 -0.11313115302E+02  0.25882765299E+02 -0.49575134636E+02  0.57057848641E+02  0.00000000000E+00 0. -1.
        -12    1    6    6    0    0  0.43828513472E+02 -0.23825834623E+02 -0.18924964570E+02  0.53355067919E+02  0.00000000000E+00 0.  1.
</event>
<event>
12    1  0.8724767E-002  0.1984375E+03  0.7818608E-02  0.1151385E+00
         21   -1    0    0  503  502  0.00000000000E+00  0.00000000000E+00  0.23567470970E+03  0.23567470970E+03  0.00000000000E+00 0.  1.
         21   -1    0    0  501  503 -0.00000000000E+00 -0.00000000000E+00 -0.19935071508E+03  0.19935071508E+03  0.00000000000E+00 0.  1.
          6    2    1    2  501    0 -0.88314673281E+02 -0.43576964282E+02 -0.71099626001E+02  0.20937688535E+03  0.17054351341E+03 0.  0.
         24    2    3    3    0    0 -0.56785439417E+01 -0.74844363659E+02 -0.23981857465E+02  0.10913440808E+03  0.75506720941E+02 0.  0.
         -6    2    1    2    0  502  0.88314673281E+02  0.43576964282E+02  0.10742362063E+03  0.22564853943E+03  0.17227592910E+03 0.  0.
        -24    2    5    5    0    0  0.11638114482E+03  0.31745472570E+01  0.10586467383E+03  0.17620561839E+03  0.79287087006E+02 0.  0.
          5    1    3    3  501    0 -0.82636129339E+02  0.31267399377E+02 -0.47117768536E+02  0.10024247726E+03  0.47000000000E+01 0. -1.
        -13    1    4    4    0    0  0.25399197011E+02 -0.12762929916E+02 -0.27592158201E+02  0.39614880828E+02  0.00000000000E+00 0.  1.
         14    1    4    4    0    0 -0.31077740953E+02 -0.62081433742E+02  0.36103007357E+01  0.69519527254E+02  0.00000000000E+00 0. -1.
         -5    1    5    5    0  502 -0.28066471542E+02  0.40402417025E+02  0.15589467973E+01  0.49442921044E+02  0.47000000000E+01 0.  1.
         13    1    6    6    0    0  0.99894165421E+01 -0.28006758465E+02  0.26844500072E+02  0.40059882011E+02  0.00000000000E+00 0. -1.
        -14    1    6    6    0    0  0.10639172828E+03  0.31181305722E+02  0.79020173760E+02  0.13614573638E+03  0.00000000000E+00 0.  1.
</event>
<event>
12    1  0.8724767E-002  0.1794314E+03  0.7818608E-02  0.1168834E+00
         21   -1    0    0  501  502  0.00000000000E+00  0.00000000000E+00  0.48738203326E+02  0.48738203326E+02  0.00000000000E+00 0. -1.
         21   -1    0    0  502  503 -0.00000000000E+00 -0.00000000000E+00 -0.13603246102E+04  0.13603246102E+04  0.00000000000E+00 0. -1.
         -6    2    1    2    0  503 -0.16813572247E+02  0.48356006229E+02 -0.11619499993E+04  0.11754248804E+04  0.16992601068E+03 0.  0.
        -24    2    3    3    0    0 -0.38018644965E+01  0.86005341029E+02 -0.10525887753E+04  0.10589399275E+04  0.77454936884E+02 0.  0.
          6    2    1    2  501    0  0.16813572247E+02 -0.48356006229E+02 -0.14963640759E+03  0.23363793312E+03  0.17197275878E+03 0.  0.
         24    2    5    5    0    0 -0.14572757660E+02 -0.91464860155E+02 -0.12272832958E+03  0.17372458190E+03  0.80869039598E+02 0.  0.
          5    1    5    5  501    0  0.31386329907E+02  0.43108853926E+02 -0.26908078015E+02  0.59913351219E+02  0.47000000000E+01 0. -1.
        -13    1    6    6    0    0 -0.47490050638E+02 -0.64003031185E+02 -0.86276219115E+02  0.11745330517E+03  0.00000000000E+00 0.  1.
         14    1    6    6    0    0  0.32917292978E+02 -0.27461828970E+02 -0.36452110464E+02  0.56271276728E+02  0.00000000000E+00 0. -1.
         -5    1    3    3    0  503 -0.13011707751E+02 -0.37649334801E+02 -0.10936122395E+03  0.11648495290E+03  0.47000000000E+01 0.  1.
         11    1    4    4    0    0  0.22627733769E+02  0.72179793239E+01 -0.45267964514E+03  0.45330229945E+03  0.00000000000E+00 0. -1.
        -12    1    4    4    0    0 -0.26429598265E+02  0.78787361706E+02 -0.59990913017E+03  0.60563762804E+03  0.00000000000E+00 0.  1.
</event>
<event>
12    1  0.8724767E-002  0.2039388E+03  0.7818608E-02  0.1146639E+00
         21   -1    0    0  503  502  0.00000000000E+00  0.00000000000E+00  0.47756114591E+02  0.47756114591E+02  0.00000000000E+00 0.  1.
         21   -1    0    0  501  503 -0.00000000000E+00 -0.00000000000E+00 -0.10420699896E+04  0.10420699896E+04  0.00000000000E+00 0. -1.
          6    2    1    2  501    0 -0.64345430204E+02  0.87747547349E+02 -0.71951029563E+03  0.74761559650E+03  0.17144692519E+03 0.  0.
         24    2    3    3    0    0 -0.73324854398E+02  0.48599403245E+01 -0.51283609380E+03  0.52470911127E+03  0.83178356853E+02 0.  0.
         -6    2    1    2    0  502  0.64345430204E+02 -0.87747547349E+02 -0.27480357933E+03  0.34221050764E+03  0.17248494970E+03 0.  0.
        -24    2    5    5    0    0  0.68016521810E+02 -0.39708498445E+02 -0.70602856387E+02  0.13235042953E+03  0.79554137416E+02 0.  0.
          5    1    3    3  501    0  0.89794241943E+01  0.82887607024E+02 -0.20667420183E+03  0.22290648523E+03  0.47000000000E+01 0. -1.
        -11    1    4    4    0    0  0.57143689866E+01  0.17881099745E+01 -0.18372825147E+00  0.59904178707E+01  0.00000000000E+00 0.  1.
         12    1    4    4    0    0 -0.79039223385E+02  0.30718303500E+01 -0.51265236555E+03  0.51871869340E+03  0.00000000000E+00 0. -1.
         -5    1    5    5    0  502 -0.36710916058E+01 -0.48039048904E+02 -0.20420072294E+03  0.20986007811E+03  0.47000000000E+01 0.  1.
         13    1    6    6    0    0 -0.44697343760E+01  0.13701242289E+02 -0.30603788151E+02  0.33827421049E+02  0.00000000000E+00 0. -1.
        -14    1    6    6    0    0  0.72486256186E+02 -0.53409740734E+02 -0.39999068236E+02  0.98523008484E+02  0.00000000000E+00 0.  1.
</event>
<event>
12    1  0.8724767E-002  0.2048867E+03  0.7818608E-02  0.1146121E+00
         21   -1    0    0  503  502  0.00000000000E+00  0.00000000000E+00  0.14608275242E+03  0.14608275242E+03  0.00000000000E+00 0. -1.
         21   -1    0    0  501  503 -0.00000000000E+00 -0.00000000000E+00 -0.98824252926E+03  0.98824252926E+03  0.00000000000E+00 0.  1.
          6    2    1    2  501    0  0.10902224433E+03  0.30172683506E+02 -0.89909819114E+03  0.92167409975E+03  0.16825382091E+03 0.  0.
         24    2    3    3    0    0  0.73698311199E+02  0.30452273486E+01 -0.26734017094E+03  0.28833061852E+03  0.78886399937E+02 0.  0.
         -6    2    1    2    0  502 -0.10902224433E+03 -0.30172683506E+02  0.56938414299E+02  0.21265118193E+03  0.17082828093E+03 0.  0.
        -24    2    5    5    0    0 -0.16467974733E+02  0.38784857703E+02  0.45820990626E+02  0.96603250375E+02  0.73872629723E+02 0.  0.
          5    1    3    3  501    0  0.35323933128E+02  0.27127456158E+02 -0.63175802020E+03  0.63334348123E+03  0.47000000000E+01 0. -1.
        -11    1    4    4    0    0  0.80665792208E+01  0.21517506241E+02 -0.15664987488E+03  0.15832642254E+03  0.00000000000E+00 0.  1.
         12    1    4    4    0    0  0.65631731979E+02 -0.18472278893E+02 -0.11069029605E+03  0.13000419597E+03  0.00000000000E+00 0. -1.
         -5    1    5    5    0  502 -0.92554269594E+02 -0.68957541209E+02  0.11117423673E+02  0.11604793156E+03  0.47000000000E+01 0.  1.
         11    1    6    6    0    0  0.28887995702E+01  0.35666318055E+02 -0.10234395847E+02  0.37217929347E+02  0.00000000000E+00 0. -1.
        -12    1    6    6    0    0 -0.19356774304E+02  0.31185396482E+01  0.56055386473E+02  0.59385321028E+02  0.00000000000E+00 0.  1.
</event>
<event>
12    1  0.8724767E-002  0.1741299E+03  0.7818608E-02  0.1173730E+00
         21   -1    0    0  501  502  0.00000000000E+00  0.00000000000E+00  0.47888004207E+03  0.47888004207E+03  0.00000000000E+00 0.  1.
         21   -1    0    0  502  503 -0.00000000000E+00 -0.00000000000E+00 -0.63159921989E+02  0.63159921989E+02  0.00000000000E+00 0.  1.
         -6    2    1    2    0  503 -0.16110603473E+02 -0.17997529303E+02  0.20304639500E+03  0.26717392401E+03  0.17196105530E+03 0.  0.
        -24    2    3    3    0    0 -0.38402782943E+02 -0.65531830689E+02  0.68490600789E+02  0.12266163100E+03  0.67717935231E+02 0.  0.
          6    2    1    2  501    0  0.16110603473E+02  0.17997529303E+02  0.21267372508E+03  0.27486604006E+03  0.17244640915E+03 0.  0.
         24    2    5    5    0    0  0.66018936704E+02 -0.26532647590E+02  0.12529657484E+03  0.16472687915E+03  0.79832522552E+02 0.  0.
          5    1    5    5  501    0 -0.49908333231E+02  0.44530176893E+02  0.87377150240E+02  0.11013916090E+03  0.47000000000E+01 0. -1.
        -11    1    6    6    0    0  0.20582676014E+02  0.28646248612E+02  0.36912481335E+02  0.51056688002E+02  0.00000000000E+00 0.  1.
         12    1    6    6    0    0  0.45436260690E+02 -0.55178896202E+02  0.88384093507E+02  0.11367019115E+03  0.00000000000E+00 0. -1.
         -5    1    3    3    0  503  0.22292179470E+02  0.47534301386E+02  0.13455579421E+03  0.14451229301E+03  0.47000000000E+01 0.  1.
         11    1    4    4    0    0  0.17847091120E+02 -0.20278339310E+02  0.31651876849E+02  0.41612149845E+02  0.00000000000E+00 0. -1.
        -12    1    4    4    0    0 -0.56249874062E+02 -0.45253491379E+02  0.36838723940E+02  0.81049481155E+02  0.00000000000E+00 0.  1.
</event>
<event>
12    1  0.8724767E-002  0.1977050E+03  0.7818608E-02  0.1152490E+00
         21   -1    0    0  501  502  0.00000000000E+00  0.00000000000E+00  0.81395659533E+02  0.81395659533E+02  0.00000000000E+00 0.  1.
         21   -1    0    0  502  503 -0.00000000000E+00 -0.00000000000E+00 -0.19008963526E+04  0.19008963526E+04  0.00000000000E+00 0.  1.
         -6    2    1    2    0  503  0.88437386697E+02  0.23868555816E+00 -0.17714206209E+04  0.17824192180E+04  0.17682201220E+03 0.  0.
        -24    2    3    3    0    0  0.45755684523E+02 -0.54372959518E+01 -0.41898160008E+03  0.42928680036E+03  0.81353727055E+02 0.  0.
          6    2    1    2  501    0 -0.88437386697E+02 -0.23868555816E+00 -0.48080072093E+02  0.19987279412E+03  0.17267371589E+03 0.  0.
         24    2    5    5    0    0 -0.10445373071E+03  0.50003356307E+02 -0.35501750176E+02  0.14545689361E+03  0.80538289836E+02 0.  0.
          5    1    5    5  501    0  0.16016344017E+02 -0.50242041865E+02 -0.12578321916E+02  0.54415900513E+02  0.47000000000E+01 0. -1.
        -11    1    6    6    0    0 -0.16054727106E+02  0.49369010803E+02 -0.59835854974E+01  0.52257600265E+02  0.00000000000E+00 0.  1.
         12    1    6    6    0    0 -0.88399003608E+02  0.63434550427E+00 -0.29518164679E+02  0.93199293340E+02  0.00000000000E+00 0. -1.
         -5    1    3    3    0  503  0.42681702174E+02  0.56759815100E+01 -0.13524390209E+04  0.13531324176E+04  0.47000000000E+01 0.  1.
         13    1    4    4    0    0  0.26736482520E+01  0.29940590725E+02 -0.23863886619E+03  0.24052462623E+03  0.00000000000E+00 0. -1.
        -14    1    4    4    0    0  0.43082036271E+02 -0.35377886677E+02 -0.18034273389E+03  0.18876217413E+03  0.00000000000E+00 0.  1.
</event>
<event>
12    1  0.8724767E-002  0.1992351E+03  0.7818608E-02  0.1150738E+00
         21   -1    0    0  501  502  0.00000000000E+00  0.00000000000E+00  0.21493211662E+03  0.21493211662E+03  0.00000000000E+00 0.  1.
         21   -1    0    0  502  503 -0.00000000000E+00 -0.00000000000E+00 -0.21967981227E+03  0.21967981227E+03  0.00000000000E+00 0. -1.
         -6    2    1    2    0  503 -0.66205808986E+02  0.72079251262E+02 -0.90986464798E+02  0.21902774021E+03  0.17353958222E+03 0.  0.
        -24    2    3    3    0    0 -0.43594197543E+02  0.40039250379E+02  0.19666053133E+02  0.10153767104E+03  0.80122090360E+02 0.  0.
          6    2    1    2  501    0  0.66205808986E+02 -0.72079251262E+02  0.86238769140E+02  0.21558418868E+03  0.17164145624E+03 0.  0.
         24    2    5    5    0    0  0.87823676585E+02 -0.22851613719E+01  0.78014608665E+02  0.14190736737E+03  0.79581415027E+02 0.  0.
          5    1    5    5  501    0 -0.21617867599E+02 -0.69794089890E+02  0.82241604750E+01  0.73676821312E+02  0.47000000000E+01 0. -1.
        -11    1    6    6    0    0  0.86349925080E+02 -0.27959251774E+02  0.71047531341E+02  0.11526396241E+03  0.00000000000E+00 0.  1.
         12    1    6    6    0    0  0.14737515053E+01  0.25674090402E+02  0.69670773244E+01  0.26643404961E+02  0.00000000000E+00 0. -1.
         -5    1    3    3    0  503 -0.22611611443E+02  0.32040000883E+02 -0.11065251793E+03  0.11749006917E+03  0.47000000000E+01 0.  1.
         13    1    4    4    0    0 -0.48914438229E+02  0.40571184846E+02 -0.15950958098E+02  0.65521571801E+02  0.00000000000E+00 0. -1.
        -14    1    4    4    0    0  0.53202406857E+01 -0.53193446685E+00  0.35617011231E+02  0.36016099237E+02  0.00000000000E+00 0.  1.
</event>
<event>
12    1  0.8724767E-002  0.1902070E+03  0.7818608E-02  0.1158973E+00
         21   -1    0    0  503  502  0.00000000000E+00  0.00000000000E+00  0.19206851560E+04  0.19206851560E+04  0.00000000000E+00 0.  1.
         21   -1    0    0  501  503 -0.00000000000E+00 -0.00000000000E+00 -0.18759691765E+02  0.18759691765E+02  0.00000000000E+00 0.  1.
          6    2    1    2  501    0 -0.51945159004E+02  0.51671876009E+02  0.85203870058E+03  0.87301125142E+03  0.17552895913E+03 0.  0.
         24    2    3    3    0    0  0.11839880026E+02  0.24229697408E+02  0.70513765558E+03  0.71045784052E+03  0.82486173662E+02 0.  0.
         -6    2    1    2    0  502  0.51945159004E+02 -0.51671876009E+02  0.10498867636E+04  0.10664335963E+04  0.17219209220E+03 0.  0.
        -24    2    5    5    0    0  0.96540848761E+00 -0.85630448036E+02  0.84179242583E+03  0.84946018090E+03  0.75064006764E+02 0.  0.
          5    1    3    3  501    0 -0.63785039030E+02  0.27442178601E+02  0.14690104501E+03  0.16255341090E+03  0.47000000000E+01 0. -1.
        -13    1    4    4    0    0 -0.18426420320E+02  0.37698655909E+02  0.56078310138E+03  0.56235078769E+03  0.00000000000E+00 0.  1.
         14    1    4    4    0    0  0.30266300346E+02 -0.13468958501E+02  0.14435455420E+03  0.14810705283E+03  0.00000000000E+00 0. -1.
         -5    1    5    5    0  502  0.50979750516E+02  0.33958572027E+02  0.20809433782E+03  0.21697341544E+03  0.47000000000E+01 0.  1.
         13    1    6    6    0    0  0.20145933961E+02 -0.15086764499E+02  0.46265503742E+03  0.46333913365E+03  0.00000000000E+00 0. -1.
        -14    1    6    6    0    0 -0.19180525473E+02 -0.70543683538E+02  0.37913738841E+03  0.38612104725E+03  0.00000000000E+00 0.  1.
</event>
<event>
12    1  0.8724767E-002  0.2632786E+03  0.7818608E-02  0.1106341E+00
         21   -1    0    0  503  502  0.00000000000E+00  0.00000000000E+00  0.16872503144E+04  0.16872503144E+04  0.00000000000E+00 0.  1.
         21   -1    0    0  501  503 -0.00000000000E+00 -0.00000000000E+00 -0.42452166246E+02  0.42452166246E+02  0.00000000000E+00 0. -1.
          6    2    1    2  501    0 -0.16844449985E+03 -0.81327597784E+02  0.10461089613E+04  0.10787305456E+04  0.18527790853E+03 0.  0.
         24    2    3    3    0    0 -0.12676217968E+03 -0.12563594999E+03  0.86589118263E+03  0.88846445918E+03  0.88025637963E+02 0.  0.
         -6    2    1    2    0  502  0.16844449985E+03  0.81327597784E+02  0.59868918693E+03  0.65097193513E+03  0.17420674525E+03 0.  0.
        -24    2    5    5    0    0  0.14586873552E+03  0.90365541697E+02  0.59705180411E+03  0.62615015865E+03  0.78419036297E+02 0.  0.
          5    1    3    3  501    0 -0.41682320172E+02  0.44308352207E+02  0.18021777863E+03  0.19026608637E+03  0.47000000000E+01 0. -1.
        -11    1    4    4    0    0 -0.85056380915E+01 -0.41836459255E+02  0.35019671763E+03  0.35278942195E+03  0.00000000000E+00 0.  1.
         12    1    4    4    0    0 -0.11825654158E+03 -0.83799490735E+02  0.51569446501E+03  0.53567503723E+03  0.00000000000E+00 0. -1.
         -5    1    5    5    0  502  0.22575764325E+02 -0.90379439132E+01  0.16373828144E+01  0.24821776478E+02  0.47000000000E+01 0.  1.
         13    1    6    6    0    0  0.10395814821E+03  0.43280987090E+02  0.26128832824E+03  0.28452087955E+03  0.00000000000E+00 0. -1.
        -14    1    6    6    0    0  0.41910587313E+02  0.47084554606E+02  0.33576347587E+03  0.34162927910E+03  0.00000000000E+00 0.  1.
</event>
<event>
12    1  0.8724767E-002  0.1749504E+03  0.7818608E-02  0.1173513E+00
         21   -1    0    0  501  502  0.00000000000E+00  0.00000000000E+00  0.15032660806E+04  0.15032660806E+04  0.00000000000E+00 0.  1.
         21   -1    0    0  502  503 -0.00000000000E+00 -0.00000000000E+00 -0.46071088034E+02  0.46071088034E+02  0.00000000000E+00 0.  1.
         -6    2    1    2    0  503  0.14778797055E+02  0.27370010867E+02  0.14878546478E+03  0.22966224807E+03  0.17216301381E+03 0.  0.
        -24    2    3    3    0    0  0.79707476367E+01  0.59339028722E+02  0.16507692606E+03  0.19284011682E+03  0.79701104068E+02 0.  0.
          6    2    1    2  501    0 -0.14778797055E+02 -0.27370010867E+02  0.13084095278E+04  0.13196749206E+04  0.16923023730E+03 0.  0.
         24    2    5    5    0    0  0.21605913172E+02  0.25468186703E+02  0.10375875513E+04  0.10413183952E+04  0.81490058041E+02 0.  0.
          5    1    5    5  501    0 -0.36384710227E+02 -0.52838197570E+02  0.27082197649E+03  0.27835652536E+03  0.47000000000E+01 0. -1.
        -11    1    6    6    0    0 -0.24447951039E+01  0.41166280475E+02  0.26432030935E+03  0.26751797249E+03  0.00000000000E+00 0.  1.
         12    1    6    6    0    0  0.24050708276E+02 -0.15698093772E+02  0.77326724194E+03  0.77380042270E+03  0.00000000000E+00 0. -1.
         -5    1    3    3    0  503  0.68080494186E+01 -0.31969017855E+02 -0.16291461279E+02  0.36822131255E+02  0.47000000000E+01 0.  1.
         13    1    4    4    0    0 -0.27532177534E+01  0.73698731912E+02  0.93672720268E+02  0.11922106280E+03  0.00000000000E+00 0. -1.
        -14    1    4    4    0    0  0.10723965390E+02 -0.14359703190E+02  0.71404205792E+02  0.73619054016E+02  0.00000000000E+00 0.  1.
</event>
<event>
12    1  0.8724767E-002  0.1996246E+03  0.7818608E-02  0.1150058E+00
         21   -1    0    0  501  502  0.00000000000E+00  0.00000000000E+00  0.91442348706E+03  0.91442348706E+03  0.00000000000E+00 0.  1.
         21   -1    0    0  502  503 -0.00000000000E+00 -0.00000000000E+00 -0.49389531159E+02  0.49389531159E+02  0.00000000000E+00 0.  1.
         -6    2    1    2    0  503  0.99144001637E+02 -0.18889773231E+02  0.26720075212E+03  0.33353170348E+03  0.17222310733E+03 0.  0.
        -24    2    3    3    0    0  0.26386360365E+02  0.47266283256E+02  0.14524381976E+03  0.17679663553E+03  0.85034943467E+02 0.  0.
          6    2    1    2  501    0 -0.99144001637E+02  0.18889773231E+02  0.59783320378E+03  0.63028131475E+03  0.17223135480E+03 0.  0.
         24    2    5    5    0    0 -0.34238546715E+02  0.59370181152E+02  0.21512386815E+03  0.23997386275E+03  0.81314695243E+02 0.  0.
          5    1    5    5  501    0 -0.64905454922E+02 -0.40480407922E+02  0.38270933563E+03  0.39030745200E+03  0.47000000000E+01 0. -1.
        -13    1    6    6    0    0 -0.34500367198E+02 -0.85070189932E+01  0.10241054105E+03  0.10840001673E+03  0.00000000000E+00 0.  1.
         14    1    6    6    0    0  0.26182048271E+00  0.67877200145E+02  0.11271332710E+03  0.13157384602E+03  0.00000000000E+00 0. -1.
         -5    1    3    3    0  503  0.72757641272E+02 -0.66156056487E+02  0.12195693236E+03  0.15673506795E+03  0.47000000000E+01 0.  1.
         13    1    4    4    0    0 -0.29683143802E+02  0.10595422661E+02  0.65175178597E+02  0.72395828004E+02  0.00000000000E+00 0. -1.
        -14    1    4    4    0    0  0.56069504167E+02  0.36670860596E+02  0.80068641159E+02  0.10440080752E+03  0.00000000000E+00 0.  1.
</event>
<event>
12    1  0.8724767E-002  0.1906411E+03  0.7818608E-02  0.1158715E+00
         21   -1    0    0  503  502  0.00000000000E+00  0.00000000000E+00  0.38316692626E+03  0.38316692626E+03  0.00000000000E+00 0.  1.
         21   -1    0    0  501  503 -0.00000000000E+00 -0.00000000000E+00 -0.37900558459E+03  0.37900558459E+03  0.00000000000E+00 0. -1.
          6    2    1    2  501    0 -0.77234903512E+01  0.83141291288E+02 -0.32893338793E+03  0.38018576030E+03  0.17138235622E+03 0.  0.
         24    2    3    3    0    0 -0.60767917144E+02  0.23732736111E+02 -0.15987157835E+03  0.19324439757E+03  0.86766889483E+02 0.  0.
         -6    2    1    2    0  502  0.77234903512E+01 -0.83141291288E+02  0.33309472960E+03  0.38198675055E+03  0.16730108214E+03 0.  0.
        -24    2    5    5    0    0 -0.23153716131E+02 -0.81475096921E+02  0.12603350180E+03  0.17257657854E+03  0.81999670083E+02 0.  0.
          5    1    3    3  501    0  0.53044426793E+02  0.59408555177E+02 -0.16906180959E+03  0.18694136274E+03  0.47000000000E+01 0. -1.
        -13    1    4    4    0    0 -0.40835086265E+01  0.43252616798E+02 -0.39265790827E+02  0.58559937089E+02  0.00000000000E+00 0.  1.
         14    1    4    4    0    0 -0.56684408518E+02 -0.19519880687E+02 -0.12060578752E+03  0.13468446048E+03  0.00000000000E+00 0. -1.
         -5    1    5    5    0  502  0.30877206482E+02 -0.16661943672E+01  0.20706122780E+03  0.20941017201E+03  0.47000000000E+01 0.  1.
         13    1    6    6    0    0 -0.10534879169E+01  0.12947071901E+02 -0.68727586282E+00  0.13008030432E+02  0.00000000000E+00 0. -1.
        -14    1    6    6    0    0 -0.22100228214E+02 -0.94422168822E+02  0.12672077766E+03  0.15956854810E+03  0.00000000000E+00 0.  1.
</event>
<event>
12    1  0.8724767E-002  0.1782918E+03  0.7818608E-02  0.1170062E+00
         21   -1    0    0  501  502  0.00000000000E+00  0.00000000000E+00  0.12803159480E+03  0.12803159480E+03  0.00000000000E+00 0.  1.
         21   -1    0    0  502  503 -0.00000000000E+00 -0.00000000000E+00 -0.14551841445E+04  0.14551841445E+04  0.00000000000E+00 0.  1.
         -6    2    1    2    0  503  0.26604573219E+00 -0.42520351713E+02 -0.13862540153E+04  0.13976724083E+04  0.17314709031E+03 0.  0.
        -24    2    3    3    0    0 -0.36399930914E+02  0.11570959450E+02 -0.41441215785E+03  0.42362469402E+03  0.79130289640E+02 0.  0.
          6    2    1    2  501    0 -0.26604573219E+00  0.42520351713E+02  0.59101465550E+02  0.18554333106E+03  0.17066134120E+03 0.  0.
         24    2    5    5    0    0 -0.45222500955E+02  0.39169140437E+02 -0.13698095678E+02  0.99786817615E+02  0.78679571614E+02 0.  0.
          5    1    5    5  501    0  0.44956455223E+02  0.33512112759E+01  0.72799561228E+02  0.85756513445E+02  0.47000000000E+01 0. -1.
        -11    1    6    6    0    0 -0.14297646199E+02  0.44770436356E+02  0.22282842558E+02  0.52012880432E+02  0.00000000000E+00 0.  1.
         12    1    6    6    0    0 -0.30924854756E+02 -0.56012959196E+01 -0.35980938236E+02  0.47773937184E+02  0.00000000000E+00 0. -1.
         -5    1    3    3    0  503  0.36665976646E+02 -0.54091311162E+02 -0.97184185741E+03  0.97404771423E+03  0.47000000000E+01 0.  1.
         11    1    4    4    0    0 -0.11087768510E+02  0.36127833248E+02 -0.94526718808E+02  0.10180107816E+03  0.00000000000E+00 0. -1.
        -12    1    4    4    0    0 -0.25312162404E+02 -0.24556873798E+02 -0.31988543904E+03  0.32182361586E+03  0.00000000000E+00 0.  1.
</event>
<event>
12    1  0.8724767E-002  0.1923380E+03  0.7818608E-02  0.1156471E+00
         21   -1    0    0  503  502  0.00000000000E+00  0.00000000000E+00  0.22010183460E+04  0.22010183460E+04  0.00000000000E+00 0. -1.
         21   -1    0    0  501  503 -0.00000000000E+00 -0.00000000000E+00 -0.55304220879E+02  0.55304220879E+02  0.00000000000E+00 0.  1.
          6    2    1    2  501    0 -0.15721044606E+02  0.82014490525E+02  0.13151022198E+03  0.23299966685E+03  0.17326389805E+03 0.  0.
         24    2    3    3    0    0 -0.24787224487E+02  0.10275366846E+03  0.39727138697E+02  0.13835013703E+03  0.79936174458E+02 0.  0.
         -6    2    1    2    0  502  0.15721044606E+02 -0.82014490525E+02  0.20142039031E+04  0.20233229000E+04  0.17275608948E+03 0.  0.
        -24    2    5    5    0    0  0.37141931538E+02 -0.11100596446E+03  0.11999823814E+04  0.12082903017E+04  0.79409635195E+02 0.  0.
          5    1    3    3  501    0  0.90661798814E+01 -0.20739177932E+02  0.91783083278E+02  0.94649529819E+02  0.47000000000E+01 0. -1.
        -11    1    4    4    0    0  0.28053663376E+02  0.36996575619E+02  0.35593057307E+01  0.46566332190E+02  0.00000000000E+00 0.  1.
         12    1    4    4    0    0 -0.52840887863E+02  0.65757092838E+02  0.36167832966E+02  0.91783804836E+02  0.00000000000E+00 0. -1.
         -5    1    5    5    0  502 -0.21420886932E+02  0.28991473931E+02  0.81422152172E+03  0.81503259836E+03  0.47000000000E+01 0.  1.
         11    1    6    6    0    0 -0.18552288710E+02 -0.42081957688E+02  0.60497644007E+03  0.60672198874E+03  0.00000000000E+00 0. -1.
        -12    1    6    6    0    0  0.55694220248E+02 -0.68924006768E+02  0.59500594134E+03  0.60156831292E+03  0.00000000000E+00 0.  1.
</event>
<event>
12    1  0.8724767E-002  0.2157517E+03  0.7818608E-02  0.1137140E+00
         21   -1    0    0  503  502  0.00000000000E+00  0.00000000000E+00  0.23062205797E+03  0.23062205797E+03  0.00000000000E+00 0. -1.
         21   -1    0    0  501  503 -0.00000000000E+00 -0.00000000000E+00 -0.24484939745E+03  0.24484939745E+03  0.00000000000E+00 0.  1.
          6    2    1    2  501    0  0.74258727506E+02 -0.10571197169E+03 -0.10702987113E+03  0.24060740533E+03  0.17247362297E+03 0.  0.
         24    2    3    3    0    0  0.47886075708E+02 -0.16466226828E+02 -0.11723991526E+03  0.14687024760E+03  0.72535915434E+02 0.  0.
         -6    2    1    2    0  502 -0.74258727506E+02  0.10571197169E+03  0.92802531647E+02  0.23486405008E+03  0.17279882110E+03 0.  0.
        -24    2    5    5    0    0 -0.18547965626E+02  0.20141203801E+02  0.10188015223E+03  0.13224563799E+03  0.79747402647E+02 0.  0.
          5    1    3    3  501    0  0.26372651798E+02 -0.89245744858E+02  0.10210044132E+02  0.93737157730E+02  0.47000000000E+01 0. -1.
        -13    1    4    4    0    0  0.46268482156E+02 -0.31637718440E+02 -0.11897229383E+03  0.13151473061E+03  0.00000000000E+00 0.  1.
         14    1    4    4    0    0  0.16175935522E+01  0.15171491611E+02  0.17323785659E+01  0.15355516993E+02  0.00000000000E+00 0. -1.
         -5    1    5    5    0  502 -0.55710761880E+02  0.85570767885E+02 -0.90776205828E+01  0.10261841210E+03  0.47000000000E+01 0.  1.
         13    1    6    6    0    0  0.23089094082E+02  0.32762844709E+02  0.57548304455E+02  0.70130717981E+02  0.00000000000E+00 0. -1.
        -14    1    6    6    0    0 -0.41637059708E+02 -0.12621640907E+02  0.44331847775E+02  0.62114920006E+02  0.00000000000E+00 0.  1.
</event>
<event>
12    1  0.8724767E-002  0.2542330E+03  0.7818608E-02  0.1110832E+00
         21   -1    0    0  503  502  0.00000000000E+00  0.00000000000E+00  0.11533883416E+03  0.11533883416E+03  0.00000000000E+00 0. -1.
         21   -1    0    0  501  503 -0.00000000000E+00 -0.00000000000E+00 -0.57907642303E+03  0.57907642303E+03  0.00000000000E+00 0.  1.
          6    2    1    2  501    0  0.11719981570E+03  0.14451297835E+03 -0.29773748884E+03  0.39078645802E+03  0.17160025001E+03 0.  0.
         24    2    3    3    0    0  0.82734567601E+02  0.17167685733E+02 -0.18635499242E+03  0.21806463721E+03  0.75394062697E+02 0.  0.
         -6    2    1    2    0  502 -0.11719981570E+03 -0.14451297835E+03 -0.16600010003E+03  0.30362879917E+03  0.17324727059E+03 0.  0.
        -24    2    5    5    0    0 -0.53743291792E+01 -0.19902557479E+02 -0.29322103760E+02  0.87444477149E+02  0.79760614382E+02 0.  0.
          5    1    3    3  501    0  0.34465248095E+02  0.12734529262E+03 -0.11138249642E+03  0.17272182082E+03  0.47000000000E+01 0. -1.
        -13    1    4    4    0    0  0.49791658170E+02 -0.14245251729E+02 -0.41927333252E+02  0.66633607840E+02  0.00000000000E+00 0.  1.
         14    1    4    4    0    0  0.32942909431E+02  0.31412937462E+02 -0.14442765917E+03  0.15143102937E+03  0.00000000000E+00 0. -1.
         -5    1    5    5    0  502 -0.11182548652E+03 -0.12461042087E+03 -0.13667799627E+03  0.21618432202E+03  0.47000000000E+01 0.  1.
         11    1    6    6    0    0  0.16321761734E+02 -0.44268544391E+02 -0.64959082012E+01  0.47626681093E+02  0.00000000000E+00 0. -1.
        -12    1    6    6    0    0 -0.21696090913E+02  0.24365986911E+02 -0.22826195559E+02  0.39817796056E+02  0.00000000000E+00 0.  1.
</event>
<event>
12    1  0.8724767E-002  0.1734513E+03  0.7818608E-02  0.1174999E+00
         21   -1    0    0  503  502  0.00000000000E+00  0.00000000000E+00  0.57623432141E+02  0.57623432141E+02  0.00000000000E+00 0.  1.
         21   -1    0    0  501  503 -0.00000000000E+00 -0.00000000000E+00 -0.97627875269E+03  0.97627875269E+03  0.00000000000E+00 0.  1.
          6    2    1    2  501    0 -0.78064879996E+01 -0.10271503406E+02 -0.81316772863E+03  0.83089239311E+03  0.17021741688E+03 0.  0.
         24    2    3    3    0    0  0.57614320410E+02 -0.10520884036E+02 -0.58481044354E+03  0.59330223334E+03  0.81081356072E+02 0.  0.
         -6    2    1    2    0  502  0.78064879996E+01  0.10271503406E+02 -0.10548759191E+03  0.20300979171E+03  0.17297080230E+03 0.  0.
        -24    2    5    5    0    0 -0.24495461227E+02  0.53960371952E+02 -0.19875498620E+02  0.10150287729E+03  0.79975304250E+02 0.  0.
          5    1    3    3  501    0 -0.65420808410E+02  0.24938062982E+00 -0.22835728509E+03  0.23759015977E+03  0.47000000000E+01 0. -1.
        -11    1    4    4    0    0 -0.38952884820E+01  0.19424978594E+02 -0.44923085370E+02  0.49097725659E+02  0.00000000000E+00 0.  1.
         12    1    4    4    0    0  0.61509608892E+02 -0.29945862630E+02 -0.53988735817E+03  0.54420450768E+03  0.00000000000E+00 0. -1.
         -5    1    5    5    0  502  0.32301949227E+02 -0.43688868546E+02 -0.85612093292E+02  0.10150691443E+03  0.47000000000E+01 0.  1.
         11    1    6    6    0    0  0.30148847042E+01  0.48226958691E+01 -0.40973158258E+02  0.41366020148E+02  0.00000000000E+00 0. -1.
        -12    1    6    6    0    0 -0.27510345931E+02  0.49137676083E+02  0.21097659639E+02  0.60136857137E+02  0.00000000000E+00 0.  1.
</event>
<event>
12    1  0.8724767E-002  0.1926078E+03  0.7818608E-02  0.1156165E+00
         21   -1    0    0  503  502  0.00000000000E+00  0.00000000000E+00  0.59261217100E+03  0.59261217100E+03  0.00000000000E+00 0.  1.
         21   -1    0    0  501  503 -0.00000000000E+00 -0.00000000000E+00 -0.62868454519E+02  0.62868454519E+02  0.00000000000E+00 0. -1.
          6    2    1    2  501    0 -0.68954269372E+02  0.51319903249E+02  0.24138920101E+03  0.30871546891E+03  0.17218615115E+03 0.  0.
         24    2    3    3    0    0 -0.12988165783E+02  0.14104985122E+02  0.22394506623E+03  0.23911990354E+03  0.81604488377E+02 0.  0.
         -6    2    1    2    0  502  0.68954269372E+02 -0.51319903249E+02  0.28835451546E+03  0.34676515660E+03  0.17236392752E+03 0.  0.
        -24    2    5    5    0    0  0.72618043152E+02  0.28865072407E+02  0.14981366686E+03  0.18658179201E+03  0.79133164575E+02 0.  0.
          5    1    3    3  501    0 -0.55966103589E+02  0.37214918127E+02  0.17444134786E+02  0.69595565380E+02  0.47000000000E+01 0. -1.
        -13    1    4    4    0    0  0.73141976345E+01  0.45371014780E+02  0.13757394719E+03  0.14504694900E+03  0.00000000000E+00 0.  1.
         14    1    4    4    0    0 -0.20302363418E+02 -0.31266029658E+02  0.86371119041E+02  0.94072954537E+02  0.00000000000E+00 0. -1.
         -5    1    5    5    0  502 -0.36637737799E+01 -0.80184975657E+02  0.13854084860E+03  0.16018336459E+03  0.47000000000E+01 0.  1.
         13    1    6    6    0    0  0.14213289085E+02 -0.86918021944E+01 -0.45915804751E+01  0.17281424226E+02  0.00000000000E+00 0. -1.
        -14    1    6    6    0    0  0.58404754066E+02  0.37556874602E+02  0.15440524734E+03  0.16930036779E+03  0.00000000000E+00 0.  1.
</event>
<event>
12    1  0.8724767E-002  0.2654228E+03  0.7818608E-02  0.1103984E+00
         21   -1    0    0  501  502  0.00000000000E+00  0.00000000000E+00  0.96378467804E+03  0.96378467804E+03  0.00000000000E+00 0.  1.
         21   -1    0    0  502  503 -0.00000000000E+00 -0.00000000000E+00 -0.72992079633E+02  0.72992079633E+02  0.00000000000E+00 0.  1.
         -6    2    1    2    0  503 -0.19273140982E+03  0.58970276147E+02  0.44439725274E+03  0.51762745702E+03  0.17270314478E+03 0.  0.
        -24    2    3    3    0    0 -0.88675989735E+02 -0.15449934457E+02  0.30560001202E+03  0.32880833132E+03  0.81372106851E+02 0.  0.
          6    2    1    2  501    0  0.19273140982E+03 -0.58970276147E+02  0.44639534566E+03  0.51914930065E+03  0.17211711692E+03 0.  0.
         24    2    5    5    0    0  0.15675969378E+03  0.90437847201E+01  0.38501560102E+03  0.42061281054E+03  0.63425008697E+02 0.  0.
          5    1    5    5  501    0  0.35971716044E+02 -0.68014060867E+02  0.61379744644E+02  0.98536490111E+02  0.47000000000E+01 0. -1.
        -11    1    6    6    0    0  0.12956906024E+03 -0.15171474265E+02  0.32767932782E+03  0.35269258127E+03  0.00000000000E+00 0.  1.
         12    1    6    6    0    0  0.27190633534E+02  0.24215258985E+02  0.57336273201E+02  0.67920229272E+02  0.00000000000E+00 0. -1.
         -5    1    3    3    0  503 -0.10405542009E+03  0.74420210604E+02  0.13879724073E+03  0.18881912570E+03  0.47000000000E+01 0.  1.
         13    1    4    4    0    0 -0.17500816317E+02  0.21264050321E+02  0.16254510235E+03  0.16486160470E+03  0.00000000000E+00 0. -1.
        -14    1    4    4    0    0 -0.71175173419E+02 -0.36713984779E+02  0.14305490967E+03  0.16394672662E+03  0.00000000000E+00 0.  1.
</event>
<event>
12    1  0.8724767E-002  0.2037948E+03  0.7818608E-02  0.1146648E+00
         21   -1    0    0  503  502  0.00000000000E+00  0.00000000000E+00  0.58939802285E+02  0.58939802285E+02  0.00000000000E+00 0. -1.
         21   -1    0    0  501  503 -0.00000000000E+00 -0.00000000000E+00 -0.11998766530E+04  0.11998766530E+04  0.00000000000E+00 0. -1.
          6    2    1    2  501    0  0.63161972890E+02 -0.86336821920E+02 -0.97502948564E+03  0.99602840042E+03  0.17305084498E+03 0.  0.
         24    2    3    3    0    0  0.76275224412E+02 -0.26806944724E+02 -0.34544994677E+03  0.36348729551E+03  0.79062166232E+02 0.  0.
         -6    2    1    2    0  502 -0.63161972890E+02  0.86336821920E+02 -0.16590736504E+03  0.26278805482E+03  0.17346131080E+03 0.  0.
        -24    2    5    5    0    0 -0.43910673921E+02  0.30883763958E+02 -0.32112733655E+01  0.89762731834E+02  0.71868502067E+02 0.  0.
          5    1    3    3  501    0 -0.13113251522E+02 -0.59529877196E+02 -0.62957953887E+03  0.63254110491E+03  0.47000000000E+01 0. -1.
        -13    1    4    4    0    0 -0.45338632620E+01 -0.22628231999E+02 -0.30143063957E+02  0.37963101878E+02  0.00000000000E+00 0.  1.
         14    1    4    4    0    0  0.80809087674E+02 -0.41787127255E+01 -0.31530688281E+03  0.32552419363E+03  0.00000000000E+00 0. -1.
         -5    1    5    5    0  502 -0.19251298969E+02  0.55453057962E+02 -0.16269609167E+03  0.17302532299E+03  0.47000000000E+01 0.  1.
         13    1    6    6    0    0 -0.53247356402E+02  0.13576546893E+02 -0.25035874538E+02  0.60385417141E+02  0.00000000000E+00 0. -1.
        -14    1    6    6    0    0  0.93366824810E+01  0.17307217065E+02  0.21824601172E+02  0.29377314694E+02  0.00000000000E+00 0.  1.
</event>
<event>
12    1  0.8724767E-002  0.1879063E+03  0.7818608E-02  0.1160506E+00
         21   -1    0    0  501  502  0.00000000000E+00  0.00000000000E+00  0.36029515365E+03  0.36029515365E+03  0.00000000000E+00 0. -1.
         21   -1    0    0  502  503 -0.00000000000E+00 -0.00000000000E+00 -0.10802275964E+03  0.10802275964E+03  0.00000000000E+00 0. -1.
         -6    2    1    2    0  503 -0.13970869498E+02 -0.70027744839E+02  0.53473853326E+02  0.19476783454E+03  0.17313574484E+03 0.  0.
        -24    2    3    3    0    0  0.59856565328E+02 -0.18335413447E+02  0.40485288178E+02  0.10359009558E+03  0.71922552403E+02 0.  0.
          6    2    1    2  501    0  0.13970869498E+02  0.70027744839E+02  0.19879854069E+03  0.27355007875E+03  0.17380942310E+03 0.  0.
         24    2    5    5    0    0  0.57210278777E+00  0.43955542209E+01  0.18976917842E+03  0.20579514699E+03  0.79496246740E+02 0.  0.
          5    1    5    5  501    0  0.13398766710E+02  0.65632190618E+02  0.90293622688E+01  0.67754931759E+02  0.47000000000E+01 0. -1.
        -13    1    6    6    0    0 -0.34191297610E+02  0.40245343010E+01  0.43627197017E+02  0.55574940650E+02  0.00000000000E+00 0.  1.
         14    1    6    6    0    0  0.34763400398E+02  0.37101991985E+00  0.14614198140E+03  0.15022020634E+03  0.00000000000E+00 0. -1.
         -5    1    3    3    0  503 -0.73827434826E+02 -0.51692331392E+02  0.12988565148E+02  0.91177738962E+02  0.47000000000E+01 0.  1.
         13    1    4    4    0    0  0.74167113140E+01  0.92300040084E+01 -0.17213172430E+02  0.20892436091E+02  0.00000000000E+00 0. -1.
        -14    1    4    4    0    0  0.52439854014E+02 -0.27565417456E+02  0.57698460607E+02  0.82697659489E+02  0.00000000000E+00 0.  1.
</event>
<event>
12    1  0.8724767E-002  0.1782799E+03  0.7818608E-02  0.1169751E+00
         21   -1    0    0  501  502  0.00000000000E+00  0.00000000000E+00  0.16927690242E+04  0.16927690242E+04  0.00000000000E+00 0. -1.
         21   -1    0    0  502  503 -0.00000000000E+00 -0.00000000000E+00 -0.18988507546E+02  0.18988507546E+02  0.00000000000E+00 0. -1.
         -6    2    1    2    0  503  0.42928716703E+02 -0.15123703372E+02  0.94698242026E+03  0.96341322330E+03  0.17122421976E+03 0.  0.
        -24    2    3    3    0    0 -0.23981511147E+02 -0.25362200337E+02  0.75779786564E+03  0.76242891765E+03  0.76301344815E+02 0.  0.
          6    2    1    2  501    0 -0.42928716703E+02  0.15123703372E+02  0.72679809640E+03  0.74834430845E+03  0.17237206832E+03 0.  0.
         24    2    5    5    0    0  0.39465603702E+02 -0.21550680226E+01  0.45928118964E+03  0.46785408513E+03  0.79912800109E+02 0.  0.
          5    1    5    5  501    0 -0.82394320405E+02  0.17278771394E+02  0.26751690676E+03  0.28049022332E+03  0.47000000000E+01 0. -1.
        -11    1    6    6    0    0  0.27268529684E+01 -0.15144752985E+02  0.13793684457E+02  0.20665551069E+02  0.00000000000E+00 0.  1.
         12    1    6    6    0    0  0.36738750734E+02  0.12989684962E+02  0.44548750518E+03  0.44718853406E+03  0.00000000000E+00 0. -1.
         -5    1    3    3    0  503  0.66910227850E+02  0.10238496965E+02  0.18918455462E+03  0.20098430565E+03  0.47000000000E+01 0.  1.
         13    1    4    4    0    0 -0.17217481679E+01 -0.15112545965E+02  0.25292903366E+02  0.29514139374E+02  0.00000000000E+00 0. -1.
        -14    1    4    4    0    0 -0.22259762979E+02 -0.10249654372E+02  0.73250496227E+03  0.73291477828E+03  0.00000000000E+00 0.  1.
</event>
<event>
12    1  0.8724767E-002  0.1895799E+03  0.7818608E-02  0.1159118E+00
         21   -1    0    0  501  502  0.00000000000E+00  0.00000000000E+00  0.38580275255E+03  0.38580275255E+03  0.00000000000E+00 0.  1.
         21   -1    0    0  502  503 -0.00000000000E+00 -0.00000000000E+00 -0.25683236321E+03  0.25683236321E+03  0.00000000000E+00 0.  1.
         -6    2    1    2    0  503  0.61546526009E+02  0.43491830570E+02 -0.19241587402E+03  0.27011921564E+03  0.17395691391E+03 0.  0.
        -24    2    3    3    0    0  0.11200628029E+02  0.70633106036E+02 -0.47182119210E+02  0.11395810713E+03  0.75138592419E+02 0.  0.
          6    2    1    2  501    0 -0.61546526009E+02 -0.43491830570E+02  0.32138626335E+03  0.37251590011E+03  0.17262517597E+03 0.  0.
         24    2    5    5    0    0 -0.54996903493E+02 -0.66429828093E+02  0.32720380661E+03  0.34751623822E+03  0.79168322638E+02 0.  0.
          5    1    5    5  501    0 -0.65496225165E+01  0.22937997522E+02 -0.58175432596E+01  0.24999661898E+02  0.47000000000E+01 0. -1.
        -11    1    6    6    0    0  0.81083476365E+01  0.57955434680E+01  0.10532313970E+03  0.10579365473E+03  0.00000000000E+00 0.  1.
         12    1    6    6    0    0 -0.63105251129E+02 -0.72225371561E+02  0.22188066691E+03  0.24172258348E+03  0.00000000000E+00 0. -1.
         -5    1    3    3    0  503  0.50345897980E+02 -0.27141275465E+02 -0.14523375481E+03  0.15616110852E+03  0.47000000000E+01 0.  1.
         13    1    4    4    0    0  0.13567176905E+02  0.59518116034E+02  0.43387115266E+01  0.61198846746E+02  0.00000000000E+00 0. -1.
        -14    1    4    4    0    0 -0.23665488756E+01  0.11114990002E+02 -0.51520830736E+02  0.52759260382E+02  0.00000000000E+00 0.  1.
</event>
<event>
12    1  0.8724767E-002  0.2516633E+03  0.7818608E-02  0.1112662E+00
         21   -1    0    0  503  502  0.00000000000E+00  0.00000000000E+00  0.14390873457E+03  0.14390873457E+03  0.00000000000E+00 0.  1.
         21   -1    0    0  501  503 -0.00000000000E+00 -0.00000000000E+00 -0.53354140716E+03  0.53354140716E+03  0.00000000000E+00 0. -1.
          6    2    1    2  501    0 -0.14914441524E+03  0.99995063423E+02 -0.33910847762E+03  0.42076526201E+03  0.17264349629E+03 0.  0.
         24    2    3    3    0    0 -0.61522479744E+02 -0.66537908833E+01 -0.84603584896E+02  0.13120281256E+03  0.78912122014E+02 0.  0.
         -6    2    1    2    0  502  0.14914441524E+03 -0.99995063423E+02 -0.50524194970E+02  0.25668487972E+03  0.17632743375E+03 0.  0.
        -24    2    5    5    0    0  0.12251734332E+03 -0.54799295213E+02 -0.99200074529E+02  0.18496954193E+03  0.79747191081E+02 0.  0.
          5    1    3    3  501    0 -0.87621935498E+02  0.10664885431E+03 -0.25450489273E+03  0.28956244944E+03  0.47000000000E+01 0. -1.
        -13    1    4    4    0    0 -0.69864089078E+02 -0.15876756667E+02 -0.34388756729E+02  0.79471057211E+02  0.00000000000E+00 0.  1.
         14    1    4    4    0    0  0.83416093339E+01  0.92229657837E+01 -0.50214828167E+02  0.51731755353E+02  0.00000000000E+00 0. -1.
         -5    1    5    5    0  502  0.26627071918E+02 -0.45195768210E+02  0.48675879559E+02  0.71715337786E+02  0.47000000000E+01 0.  1.
         13    1    6    6    0    0  0.82241721850E+02 -0.55788988074E+01 -0.87666130194E+02  0.12033360008E+03  0.00000000000E+00 0. -1.
        -14    1    6    6    0    0  0.40275621474E+02 -0.49220396406E+02 -0.11533944335E+02  0.64635941854E+02  0.00000000000E+00 0.  1.
</event>
<event>
12    1  0.8724767E-002  0.2027708E+03  0.7818608E-02  0.1147587E+00
         21   -1    0    0  503  502  0.00000000000E+00  0.00000000000E+00  0.81539384905E+02  0.81539384905E+02  0.00000000000E+00 0.  1.
         21   -1    0    0  501  503 -0.00000000000E+00 -0.00000000000E+00 -0.58930241788E+03  0.58930241788E+03  0.00000000000E+00 0.  1.
          6    2    1    2  501    0 -0.61132022243E+02  0.88705639242E+02 -0.12540816147E+03  0.23841814441E+03  0.17178530217E+03 0.  0.
         24    2    3    3    0    0 -0.55432162712E+02  0.11903647560E+03 -0.13646034898E+03  0.20530185111E+03  0.79278093042E+02 0.  0.
         -6    2    1    2    0  502  0.61132022243E+02 -0.88705639242E+02 -0.38235487151E+03  0.43242365838E+03  0.17084834791E+03 0.  0.
        -24    2    5    5    0    0  0.18248100668E+01 -0.15123931342E+02 -0.89326864482E+02  0.12449653055E+03  0.85369984005E+02 0.  0.
          5    1    3    3  501    0 -0.56998595308E+01 -0.30330836361E+02  0.11052187516E+02  0.33116293300E+02  0.47000000000E+01 0. -1.
        -13    1    4    4    0    0 -0.30552876079E+02  0.48350859665E+02 -0.96475391883E+01  0.58003093706E+02  0.00000000000E+00 0.  1.
         14    1    4    4    0    0 -0.24879286634E+02  0.70685615938E+02 -0.12681280979E+03  0.14729875740E+03  0.00000000000E+00 0. -1.
         -5    1    5    5    0  502  0.59307212176E+02 -0.73581707900E+02 -0.29302800702E+03  0.30792712783E+03  0.47000000000E+01 0.  1.
         11    1    6    6    0    0 -0.13457332373E+02 -0.41735203150E+02 -0.19047116565E+02  0.47809200224E+02  0.00000000000E+00 0. -1.
        -12    1    6    6    0    0  0.15282142440E+02  0.26611271808E+02 -0.70279747916E+02  0.76687330323E+02  0.00000000000E+00 0.  1.
</event>
<event>
12    1  0.8724767E-002  0.1975862E+03  0.7818608E-02  0.1153064E+00
         21   -1    0    0  503  502  0.00000000000E+00  0.00000000000E+00  0.27513151418E+03  0.27513151418E+03  0.00000000000E+00 0. -1.
         21   -1    0    0  501  503 -0.00000000000E+00 -0.00000000000E+00 -0.34155435346E+03  0.34155435346E+03  0.00000000000E+00 0. -1.
          6    2    1    2  501    0  0.85089860376E+02  0.21156991965E+02 -0.27159550634E+03  0.33586369447E+03  0.17706608810E+03 0.  0.
         24    2    3    3    0    0  0.12323152510E+03  0.46215826302E+02 -0.16916099724E+03  0.22362443922E+03  0.63800748029E+02 0.  0.
         -6    2    1    2    0  502 -0.85089860376E+02 -0.21156991965E+02  0.20517266706E+03  0.28082217317E+03  0.17052086966E+03 0.  0.
        -24    2    5    5    0    0 -0.64905879511E+02  0.23697500924E+02  0.20642568230E+03  0.23139567559E+03  0.78473254207E+02 0.  0.
          5    1    3    3  501    0 -0.38141664727E+02 -0.25058834337E+02 -0.10243450909E+03  0.11223925525E+03  0.47000000000E+01 0. -1.
        -11    1    4    4    0    0  0.38710055387E+02  0.28210393693E+02 -0.21430712234E+02  0.52474471195E+02  0.00000000000E+00 0.  1.
         12    1    4    4    0    0  0.84521469716E+02  0.18005432608E+02 -0.14773028501E+03  0.17114996803E+03  0.00000000000E+00 0. -1.
         -5    1    5    5    0  502 -0.20183980865E+02 -0.44854492889E+02 -0.12530152379E+01  0.49426497580E+02  0.47000000000E+01 0.  1.
         13    1    6    6    0    0 -0.25535328570E+01  0.40000975196E+02  0.81729394833E+02  0.91029075171E+02  0.00000000000E+00 0. -1.
        -14    1    6    6    0    0 -0.62352346654E+02 -0.16303474272E+02  0.12469628746E+03  0.14036660042E+03  0.00000000000E+00 0.  1.
</event>
<event>
12    1  0.8724767E-002  0.1744141E+03  0.7818608E-02  0.1174126E+00
         21   -1    0    0  503  502  0.00000000000E+00  0.00000000000E+00  0.21619699681E+03  0.21619699681E+03  0.00000000000E+00 0.  1.
         21   -1    0    0  501  503 -0.00000000000E+00 -0.00000000000E+00 -0.16346767068E+03  0.16346767068E+03  0.00000000000E+00 0.  1.
          6    2    1    2  501    0  0.10579167864E+02  0.15503138924E+02 -0.48108394743E+02  0.18092730782E+03  0.17340128881E+03 0.  0.
         24    2    3    3    0    0  0.68407492778E+01  0.75962024420E+02 -0.48480579796E+02  0.12016974755E+03  0.79204650141E+02 0.  0.
         -6    2    1    2    0  502 -0.10579167864E+02 -0.15503138924E+02  0.10083772087E+03  0.19873735966E+03  0.17022345921E+03 0.  0.
        -24    2    5    5    0    0 -0.51728919434E+02  0.11723207590E+02  0.20254046983E+02  0.10413083506E+03  0.87290833939E+02 0.  0.
          5    1    3    3  501    0  0.37384185864E+01 -0.60458885496E+02  0.37218505277E+00  0.60757560276E+02  0.47000000000E+01 0. -1.
        -11    1    4    4    0    0  0.34368901241E+01  0.31888180567E+02  0.20627205269E+02  0.38133317071E+02  0.00000000000E+00 0.  1.
         12    1    4    4    0    0  0.34038591536E+01  0.44073843853E+02 -0.69107785064E+02  0.82036430478E+02  0.00000000000E+00 0. -1.
         -5    1    5    5    0  502  0.41149751570E+02 -0.27226346514E+02  0.80583673890E+02  0.94606524598E+02  0.47000000000E+01 0.  1.
         11    1    6    6    0    0  0.53357999587E+01  0.38197995431E+02  0.19640366799E+01  0.38618843279E+02  0.00000000000E+00 0. -1.
        -12    1    6    6    0    0 -0.57064719393E+02 -0.26474787841E+02  0.18290010303E+02  0.65511991784E+02  0.00000000000E+00 0.  1.
</event>
<event>
12    1  0.8724767E-002  0.2473624E+03  0.7818608E-02  0.1115340E+00
         21   -1    0    0  503  502  0.00000000000E+00  0.00000000000E+00  0.13060326863E+03  0.13060326863E+03  0.00000000000E+00 0. -1.
         21   -1    0    0  501  503 -0.00000000000E+00 -0.00000000000E+00 -0.54153256492E+03  0.54153256492E+03  0.00000000000E+00 0.  1.
          6    2    1    2  501    0  0.16499963112E+03  0.63155720702E+02 -0.33316234508E+03  0.41495219965E+03  0.17313190487E+03 0.  0.
         24    2    3    3    0    0  0.15156129063E+03  0.30534376623E+02 -0.33691177587E+03  0.37916268560E+03  0.79697079364E+02 0.  0.
         -6    2    1    2    0  502 -0.16499963112E+03 -0.63155720702E+02 -0.77766951210E+02  0.25718363390E+03  0.16994763759E+03 0.  0.
        -24    2    5    5    0    0 -0.11746334541E+03  0.15763269823E+02 -0.24504337797E+02  0.15066179806E+03  0.89735147142E+02 0.  0.
          5    1    3    3  501    0  0.13438340485E+02  0.32621344079E+02  0.37494307851E+01  0.35789514048E+02  0.47000000000E+01 0. -1.
        -11    1    4    4    0    0  0.52714207735E+02  0.11256047912E+01 -0.20527670275E+03  0.21194003721E+03  0.00000000000E+00 0.  1.
         12    1    4    4    0    0  0.98847082898E+02  0.29408771832E+02 -0.13163507312E+03  0.16722264839E+03  0.00000000000E+00 0. -1.
         -5    1    5    5    0  502 -0.47536285707E+02 -0.78918990526E+02 -0.53262613413E+02  0.10652183585E+03  0.47000000000E+01 0.  1.
         11    1    6    6    0    0 -0.18869777189E+02 -0.15328926720E+02  0.26007924748E+02  0.35601357211E+02  0.00000000000E+00 0. -1.
        -12    1    6    6    0    0 -0.98593568222E+02  0.31092196543E+02 -0.50512262545E+02  0.11506044085E+03  0.00000000000E+00 0.  1.
</event>
<event>
12    1  0.8724767E-002  0.1806669E+03  0.7818608E-02  0.1168412E+00
         21   -1    0    0  503  502  0.00000000000E+00  0.00000000000E+00  0.16765814270E+03  0.16765814270E+03  0.00000000000E+00 0.  1.
         21   -1    0    0  501  503 -0.00000000000E+00 -0.00000000000E+00 -0.23448072272E+03  0.23448072272E+03  0.00000000000E+00 0.  1.
          6    2    1    2  501    0 -0.34204622240E+02  0.25618054961E+02 -0.12137044375E+03  0.21341686969E+03  0.17026372111E+03 0.  0.
         24    2    3    3    0    0 -0.45668790545E+02 -0.34586027556E+02 -0.11649418222E+03  0.15175791548E+03  0.78598592159E+02 0.  0.
         -6    2    1    2    0  502  0.34204622240E+02 -0.25618054961E+02  0.54547863733E+02  0.18872199574E+03  0.17553997070E+03 0.  0.
        -24    2    5    5    0    0  0.54316853159E+02  0.30759639178E+02 -0.89171801222E+01  0.10135582368E+03  0.79353707868E+02 0.  0.
          5    1    3    3  501    0  0.11464168304E+02  0.60204082517E+02 -0.48762615323E+01  0.61658954201E+02  0.47000000000E+01 0. -1.
        -11    1    4    4    0    0 -0.38568056348E+02  0.49979068412E+01 -0.10174234141E+03  0.10892188981E+03  0.00000000000E+00 0.  1.
         12    1    4    4    0    0 -0.71007341971E+01 -0.39583934397E+02 -0.14751840804E+02  0.42836025675E+02  0.00000000000E+00 0. -1.
         -5    1    5    5    0  502 -0.20112230918E+02 -0.56377694140E+02  0.63465043856E+02  0.87366172061E+02  0.47000000000E+01 0.  1.
         11    1    6    6    0    0  0.18899011550E+02  0.30940885069E+02  0.31205986591E+02  0.47836435962E+02  0.00000000000E+00 0. -1.
        -12    1    6    6    0    0  0.35417841609E+02 -0.18124589082E+00 -0.40123166713E+02  0.53519387715E+02  0.00000000000E+00 0.  1.
</event>
<event>
12    1  0.8724767E-002  0.2041618E+03  0.7818608E-02  0.1147648E+00
         21   -1    0    0  503  502  0.00000000000E+00  0.00000000000E+00  0.65297122757E+03  0.65297122757E+03  0.00000000000E+00 0. -1.
         21   -1    0    0  501  503 -0.00000000000E+00 -0.00000000000E+00 -0.17361524820E+03  0.17361524820E+03  0.00000000000E+00 0. -1.
          6    2    1    2  501    0 -0.71744544274E+02  0.76118727779E+02 -0.90592886895E+02  0.22335866356E+03  0.17533020584E+03 0.  0.
         24    2    3    3    0    0 -0.11529240204E+03  0.46236148008E+02 -0.44578671026E+02  0.15315337493E+03  0.77708294240E+02 0.  0.
         -6    2    1    2    0  502  0.71744544274E+02 -0.76118727779E+02  0.56994886627E+03  0.60322781222E+03  0.16763276208E+03 0.  0.
        -24    2    5    5    0    0  0.81421101279E+02 -0.12835351236E+02  0.47591534645E+03  0.48937345634E+03  0.78719888292E+02 0.  0.
          5    1    3    3  501    0  0.43547857761E+02  0.29882579771E+02 -0.46014215869E+02  0.70205288629E+02  0.47000000000E+01 0. -1.
        -13    1    4    4    0    0 -0.23885051168E+02  0.41144291862E+02  0.69803822766E+01  0.48084032265E+02  0.00000000000E+00 0.  1.
         14    1    4    4    0    0 -0.91407350867E+02  0.50918561463E+01 -0.51559053302E+02  0.10506934267E+03  0.00000000000E+00 0. -1.
         -5    1    5    5    0  502 -0.96765570045E+01 -0.63283376543E+02  0.94033519818E+02  0.11385435587E+03  0.47000000000E+01 0.  1.
         11    1    6    6    0    0  0.35573327327E+02 -0.64889026575E+01  0.39095309759E+03  0.39262181802E+03  0.00000000000E+00 0. -1.
        -12    1    6    6    0    0  0.45847773952E+02 -0.63464485787E+01  0.84962248861E+02  0.96751638319E+02  0.00000000000E+00 0.  1.
</event>
<event>
12    1  0.8724767E-002  0.1856607E+03  0.7818608E-02  0.1162694E+00
         21   -1    0    0  503  502  0.00000000000E+00  0.00000000000E+00  0.13910855889E+03  0.13910855889E+03  0.00000000000E+00 0. -1.
         21   -1    0    0  501  503 -0.00000000000E+00 -0.00000000000E+00 -0.26062208971E+03  0.26062208971E+03  0.00000000000E+00 0. -1.
          6    2    1    2  501    0  0.30128732072E+02  0.63225982856E+02 -0.10776834031E+03  0.21467165095E+03  0.17194370342E+03 0.  0.
         24    2    3    3    0    0  0.44387697428E+01  0.42849092979E+02  0.88370650556E+01  0.93452418294E+02  0.82459161530E+02 0.  0.
         -6    2    1    2    0  502 -0.30128732072E+02 -0.63225982856E+02 -0.13745190513E+02  0.18505899764E+03  0.17074143300E+03 0.  0.
        -24    2    5    5    0    0 -0.64686806950E+02 -0.90725113160E+02  0.67815270165E+01  0.13613151213E+03  0.77912581356E+02 0.  0.
          5    1    3    3  501    0  0.25689962330E+02  0.20376889876E+02 -0.11660540536E+03  0.12121923265E+03  0.47000000000E+01 0. -1.
        -13    1    4    4    0    0 -0.18888307690E+02 -0.22893931421E+01 -0.25728814287E+02  0.31999708951E+02  0.00000000000E+00 0.  1.
         14    1    4    4    0    0  0.23327077433E+02  0.45138486121E+02  0.34565879343E+02  0.61452709343E+02  0.00000000000E+00 0. -1.
         -5    1    5    5    0  502  0.34558074877E+02  0.27499130305E+02 -0.20526717530E+02  0.48927485520E+02  0.47000000000E+01 0.  1.
         13    1    6    6    0    0 -0.61153950962E+02 -0.37298034065E+02  0.30141375886E+02  0.77713908689E+02  0.00000000000E+00 0. -1.
        -14    1    6    6    0    0 -0.35328559880E+01 -0.53427079095E+02 -0.23359848870E+02  0.58417603436E+02  0.00000000000E+00 0.  1.
</event>
<event>
12    1  0.8724767E-002  0.3902745E+03  0.7818608E-02  0.1047245E+00
         21   -1    0    0  503  502  0.00000000000E+00  0.00000000000E+00  0.15647996354E+04  0.15647996354E+04  0.00000000000E+00 0. -1.
         21   -1    0    0  501  503 -0.00000000000E+00 -0.00000000000E+00 -0.20268407835E+03  0.20268407835E+03  0.00000000000E+00 0. -1.
          6    2    1    2  501    0 -0.12545125803E+03  0.32621416478E+03  0.43765083559E+02  0.39272073461E+03  0.17366776733E+03 0.  0.
         24    2    3    3    0    0 -0.70846461004E+02  0.30650852318E+03  0.64976726753E+02  0.33073670460E+03  0.78727993314E+02 0.  0.
         -6    2    1    2    0  502  0.12545125803E+03 -0.32621416478E+03  0.13183504735E+04  0.13747629792E+04  0.17254442451E+03 0.  0.
        -24    2    5    5    0    0  0.80228253401E+02 -0.79582652813E+02  0.43195311765E+03  0.45357104188E+03  0.79832467774E+02 0.  0.
          5    1    3    3  501    0 -0.54604797022E+02  0.19705641594E+02 -0.21211643194E+02  0.61984030003E+02  0.47000000000E+01 0. -1.
        -13    1    4    4    0    0  0.69759722875E+01  0.14540873413E+02 -0.10559423144E+02  0.19276996812E+02  0.00000000000E+00 0.  1.
         14    1    4    4    0    0 -0.77822433291E+02  0.29196764977E+03  0.75536149896E+02  0.31145970779E+03  0.00000000000E+00 0. -1.
         -5    1    5    5    0  502  0.45223004625E+02 -0.24663151197E+03  0.88639735588E+03  0.92119193731E+03  0.47000000000E+01 0.  1.
         11    1    6    6    0    0  0.14173590587E+02 -0.65922219758E+02  0.16541219724E+03  0.17862761467E+03  0.00000000000E+00 0. -1.
        -12    1    6    6    0    0  0.66054662814E+02 -0.13660433055E+02  0.26654092041E+03  0.27494342721E+03  0.00000000000E+00 0.  1.
</event>
<event>
12    1  0.8724767E-002  0.1818389E+03  0.7818608E-02  0.1166788E+00
         21   -1    0    0  501  502  0.00000000000E+00  0.00000000000E+00  0.14144411491E+03  0.14144411491E+03  0.00000000000E+00 0.  1.
         21   -1    0    0  502  503 -0.00000000000E+00 -0.00000000000E+00 -0.23830057848E+03  0.23830057848E+03  0.00000000000E+00 0.  1.
         -6    2    1    2    0  503 -0.49330446896E+02  0.28202437872E+02 -0.84758046049E+02  0.20062229335E+03  0.17273247444E+03 0.  0.
        -24    2    3    3    0    0 -0.45663751735E+02 -0.38239000140E+02 -0.91478155827E+02  0.13357634482E+03  0.76986931024E+02 0.  0.
          6    2    1    2  501    0  0.49330446896E+02 -0.28202437872E+02 -0.12098417521E+02  0.17912240005E+03  0.16943905099E+03 0.  0.
         24    2    5    5    0    0  0.79655015392E+02 -0.23985330765E+00 -0.50846376100E+02  0.12233349370E+03  0.77686232448E+02 0.  0.
          5    1    5    5  501    0 -0.30324568496E+02 -0.27962584564E+02  0.38747958580E+02  0.56788906347E+02  0.47000000000E+01 0. -1.
        -11    1    6    6    0    0  0.86341806820E+01  0.25752743756E+02 -0.36271225237E+02  0.45313956650E+02  0.00000000000E+00 0.  1.
         12    1    6    6    0    0  0.71020834710E+02 -0.25992597064E+02 -0.14575150863E+02  0.77019537052E+02  0.00000000000E+00 0. -1.
         -5    1    3    3    0  503 -0.36666951610E+01  0.66441438012E+02  0.67201097775E+01  0.67045948527E+02  0.47000000000E+01 0.  1.
         11    1    4    4    0    0  0.55306636450E+01 -0.31132402612E+01 -0.66261331104E+02  0.66564588972E+02  0.00000000000E+00 0. -1.
        -12    1    4    4    0    0 -0.51194415380E+02 -0.35125759879E+02 -0.25216824722E+02  0.67011755851E+02  0.00000000000E+00 0.  1.
</event>
<event>
12    1  0.8724767E-002  0.1880741E+03  0.7818608E-02  0.1160598E+00
         21   -1    0    0  501  502  0.00000000000E+00  0.00000000000E+00  0.35699857655E+03  0.35699857655E+03  0.00000000000E+00 0.  1.
         21   -1    0    0  502  503 -0.00000000000E+00 -0.00000000000E+00 -0.10554584358E+03  0.10554584358E+03  0.00000000000E+00 0. -1.
         -6    2    1    2    0  503 -0.24160660829E+02 -0.67324175838E+02  0.65213030669E+02  0.19905934616E+03  0.17394137443E+03 0.  0.
        -24    2    3    3    0    0 -0.57382652604E+02 -0.51081173151E+02  0.99032097612E+02  0.14872689974E+03  0.80064219708E+02 0.  0.
          6    2    1    2  501    0  0.24160660829E+02  0.67324175838E+02  0.18623970229E+03  0.26348507397E+03  0.17211297252E+03 0.  0.
         24    2    5    5    0    0 -0.35199176760E+02  0.13519011339E+02  0.47844232775E+02  0.10350388124E+03  0.83679370868E+02 0.  0.
          5    1    5    5  501    0  0.59359837589E+02  0.53805164499E+02  0.13839546952E+03  0.15998119273E+03  0.47000000000E+01 0. -1.
        -13    1    6    6    0    0  0.13081302268E+02  0.14568946281E+02  0.51477531938E+02  0.55075502351E+02  0.00000000000E+00 0.  1.
         14    1    6    6    0    0 -0.48280479029E+02 -0.10499349417E+01 -0.36332991628E+01  0.48428378885E+02  0.00000000000E+00 0. -1.
         -5    1    3    3    0  503  0.33221991775E+02 -0.16243002688E+02 -0.33819066943E+02  0.50332446421E+02  0.47000000000E+01 0.  1.
         13    1    4    4    0    0 -0.42885938170E+01  0.12628709596E+02  0.51370521790E+02  0.53073598445E+02  0.00000000000E+00 0. -1.
        -14    1    4    4    0    0 -0.53094058787E+02 -0.63709882746E+02  0.47661575822E+02  0.95653301291E+02  0.00000000000E+00 0.  1.
</event>
<event>
12    1  0.8724767E-002  0.1975689E+03  0.7818608E-02  0.1152417E+00
         21   -1    0    0  501  502  0.00000000000E+00  0.00000000000E+00  0.20927925910E+04  0.20927925910E+04  0.00000000000E+00 0. -1.
         21   -1    0    0  502  503 -0.00000000000E+00 -0.00000000000E+00 -0.33224153869E+02  0.33224153869E+02  0.00000000000E+00 0.  1.
         -6    2    1    2    0  503  0.23285734724E+02  0.90799402765E+02  0.31527687864E+03  0.37057192156E+03  0.17069646117E+03 0.  0.
        -24    2    3    3    0    0  0.32019579565E+01  0.85101042388E+02  0.32616763276E+03  0.34656092563E+03  0.80415860141E+02 0.  0.
          6    2    1    2  501    0 -0.23285734724E+02 -0.90799402765E+02  0.17442915585E+04  0.17554448233E+04  0.17391586960E+03 0.  0.
         24    2    5    5    0    0 -0.42896393786E+02 -0.26969000899E+02  0.14697849630E+04  0.14728941923E+04  0.81129750842E+02 0.  0.
          5    1    5    5  501    0  0.19610659062E+02 -0.63830401866E+02  0.27450659548E+03  0.28255063106E+03  0.47000000000E+01 0. -1.
        -13    1    6    6    0    0  0.95850510537E+01  0.17216795800E+02  0.63122663677E+03  0.63153413069E+03  0.00000000000E+00 0.  1.
         14    1    6    6    0    0 -0.52481444840E+02 -0.44185796698E+02  0.83855832627E+03  0.84136006159E+03  0.00000000000E+00 0. -1.
         -5    1    3    3    0  503  0.20083776768E+02  0.56983603768E+01 -0.10890754117E+02  0.24010995928E+02  0.47000000000E+01 0.  1.
         13    1    4    4    0    0 -0.29653002490E+02  0.38987402033E+02  0.22829100423E+03  0.23348683193E+03  0.00000000000E+00 0. -1.
        -14    1    4    4    0    0  0.32854960447E+02  0.46113640355E+02  0.97876628534E+02  0.11307409370E+03  0.00000000000E+00 0.  1.
</event>
<event>
12    1  0.8724767E-002  0.2415667E+03  0.7818608E-02  0.1118780E+00
         21   -1    0    0  501  502  0.00000000000E+00  0.00000000000E+00  0.19555541630E+03  0.19555541630E+03  0.00000000000E+00 0.  1.
         21   -1    0    0  502  503 -0.00000000000E+00 -0.00000000000E+00 -0.52128907887E+03  0.52128907887E+03  0.00000000000E+00 0.  1.
         -6    2    1    2    0  503 -0.58711413732E+02 -0.15833078673E+03  0.71574000390E+02  0.25194704171E+03  0.17273912748E+03 0.  0.
        -24    2    3    3    0    0 -0.68158078747E+02 -0.12729225369E+03  0.11244551453E+03  0.19955237899E+03  0.79550717632E+02 0.  0.
          6    2    1    2  501    0  0.58711413732E+02  0.15833078673E+03 -0.39730766296E+03  0.46489745347E+03  0.17251259394E+03 0.  0.
         24    2    5    5    0    0 -0.12485727319E+02  0.62174538540E+02 -0.86654739112E+02  0.13196745174E+03  0.76712436266E+02 0.  0.
          5    1    5    5  501    0  0.71197141051E+02  0.96156248191E+02 -0.31065292384E+03  0.33293000173E+03  0.47000000000E+01 0. -1.
        -11    1    6    6    0    0  0.27288832841E+02  0.51386271794E+02 -0.54106747010E+02  0.79452938264E+02  0.00000000000E+00 0.  1.
         12    1    6    6    0    0 -0.39774560161E+02  0.10788266746E+02 -0.32547992101E+02  0.52514513472E+02  0.00000000000E+00 0. -1.
         -5    1    3    3    0  503  0.94466650146E+01 -0.31038533040E+02 -0.40871514137E+02  0.52394662715E+02  0.47000000000E+01 0.  1.
         11    1    4    4    0    0  0.11628120685E+02 -0.26735085668E+02  0.47398880259E+02  0.55647388494E+02  0.00000000000E+00 0. -1.
        -12    1    4    4    0    0 -0.79786199432E+02 -0.10055716802E+03  0.65046634268E+02  0.14390499050E+03  0.00000000000E+00 0.  1.
</event>
<event>
12    1  0.8724767E-002  0.3056700E+03  0.7818608E-02  0.1082465E+00
         21   -1    0    0  503  502  0.00000000000E+00  0.00000000000E+00  0.18071200991E+03  0.18071200991E+03  0.00000000000E+00 0.  1.
         21   -1    0    0  501  503 -0.00000000000E+00 -0.00000000000E+00 -0.52277989738E+03  0.52277989738E+03  0.00000000000E+00 0. -1.
          6    2    1    2  501    0 -0.11949185292E+02 -0.25188933776E+03 -0.13299642934E+03  0.33316096808E+03  0.17238665530E+03 0.  0.
         24    2    3    3    0    0 -0.73778426379E+02 -0.18387222850E+03 -0.98934595658E+02  0.23502086048E+03  0.78705133434E+02 0.  0.
         -6    2    1    2    0  502  0.11949185292E+02  0.25188933776E+03 -0.20907145813E+03  0.37033093922E+03  0.17275158010E+03 0.  0.
        -24    2    5    5    0    0 -0.61695408233E+01  0.72181214265E+02 -0.14147091197E+03  0.17741846754E+03  0.78835923055E+02 0.  0.
          5    1    3    3  501    0  0.61829241087E+02 -0.68017109264E+02 -0.34061833684E+02  0.98140107601E+02  0.47000000000E+01 0. -1.
        -11    1    4    4    0    0 -0.49003548947E+02 -0.92802572199E+02 -0.10136037015E+02  0.10543436092E+03  0.00000000000E+00 0.  1.
         12    1    4    4    0    0 -0.24774877433E+02 -0.91069656302E+02 -0.88798558643E+02  0.12958649956E+03  0.00000000000E+00 0. -1.
         -5    1    5    5    0  502  0.18118726116E+02  0.17970812350E+03 -0.67600546163E+02  0.19291247168E+03  0.47000000000E+01 0.  1.
         13    1    6    6    0    0 -0.29612330990E+02  0.72585846088E+02 -0.12876290585E+03  0.15074973009E+03  0.00000000000E+00 0. -1.
        -14    1    6    6    0    0  0.23442790167E+02 -0.40463182246E+00 -0.12708006119E+02  0.26668737451E+02  0.00000000000E+00 0.  1.
</event>
<event>
12    1  0.8724767E-002  0.1866824E+03  0.7818608E-02  0.1161727E+00
         21   -1    0    0  503  502  0.00000000000E+00  0.00000000000E+00  0.57271351746E+02  0.57271351746E+02  0.00000000000E+00 0. -1.
         21   -1    0    0  501  503 -0.00000000000E+00 -0.00000000000E+00 -0.10553792145E+04  0.10553792145E+04  0.00000000000E+00 0. -1.
          6    2    1    2  501    0  0.48655418459E+02 -0.53952296283E+02 -0.86321374128E+03  0.88316944737E+03  0.17196543141E+03 0.  0.
         24    2    3    3    0    0  0.65070849801E+01 -0.89981248654E+02 -0.42330715947E+03  0.43975715824E+03  0.77835979484E+02 0.  0.
         -6    2    1    2    0  502 -0.48655418459E+02  0.53952296283E+02 -0.13489412146E+03  0.22948111886E+03  0.17084191492E+03 0.  0.
        -24    2    5    5    0    0 -0.97711184311E+02  0.27723875297E+02 -0.83752829531E+02  0.15377167447E+03  0.79467619909E+02 0.  0.
          5    1    3    3  501    0  0.42148333479E+02  0.36028952370E+02 -0.43990658181E+03  0.44341228913E+03  0.47000000000E+01 0. -1.
        -13    1    4    4    0    0 -0.44135431551E+01  0.27950431046E+01  0.97351904336E+00  0.53140726817E+01  0.00000000000E+00 0.  1.
         14    1    4    4    0    0  0.10920628135E+02 -0.92776291758E+02 -0.42428067851E+03  0.43444308556E+03  0.00000000000E+00 0. -1.
         -5    1    5    5    0  502  0.49055765852E+02  0.26228420987E+02 -0.51141291925E+02  0.75709444395E+02  0.47000000000E+01 0.  1.
         11    1    6    6    0    0 -0.49346827068E+02  0.37272587292E+02 -0.65712070665E+01  0.62189515735E+02  0.00000000000E+00 0. -1.
        -12    1    6    6    0    0 -0.48364357243E+02 -0.95487119949E+01 -0.77181622464E+02  0.91582158735E+02  0.00000000000E+00 0.  1.
</event>
<event>
12    1  0.8724767E-002  0.5119592E+03  0.7818608E-02  0.1010708E+00
         21   -1    0    0  501  502  0.00000000000E+00  0.00000000000E+00  0.66977165105E+03  0.66977165105E+03  0.00000000000E+00 0.  1.
         21   -1    0    0  502  503 -0.00000000000E+00 -0.00000000000E+00 -0.65100757964E+03  0.65100757964E+03  0.00000000000E+00 0. -1.
         -6    2    1    2    0  503  0.36528309052E+03  0.31496595445E+03 -0.40774446230E+03  0.65443719949E+03  0.17145615433E+03 0.  0.
        -24    2    3    3    0    0  0.37053936917E+03  0.32414384792E+03 -0.38927683067E+03  0.63264257603E+03  0.79570848045E+02 0.  0.
          6    2    1    2  501    0 -0.36528309052E+03 -0.31496595445E+03  0.42650853370E+03  0.66634203121E+03  0.17165921051E+03 0.  0.
         24    2    5    5    0    0 -0.34892823389E+03 -0.33166933259E+03  0.40077652615E+03  0.63126054907E+03  0.78183107604E+02 0.  0.
          5    1    5    5  501    0 -0.16354856630E+02  0.16703378135E+02  0.25732007547E+02  0.35081482137E+02  0.47000000000E+01 0. -1.
        -11    1    6    6    0    0 -0.24838846477E+03 -0.19089639882E+03  0.28120769628E+03  0.42097034689E+03  0.00000000000E+00 0.  1.
         12    1    6    6    0    0 -0.10053976911E+03 -0.14077293377E+03  0.11956882987E+03  0.21029020218E+03  0.00000000000E+00 0. -1.
         -5    1    3    3    0  503 -0.52562786573E+01 -0.91778934654E+01 -0.18467631623E+02  0.21794623455E+02  0.47000000000E+01 0.  1.
         11    1    4    4    0    0  0.19400891014E+03  0.13145781530E+03 -0.21889261185E+03  0.32067832783E+03  0.00000000000E+00 0. -1.
        -12    1    4    4    0    0  0.17653045903E+03  0.19268603261E+03 -0.17038421882E+03  0.31196424820E+03  0.00000000000E+00 0.  1.
</event>
<event>
12    1  0.8724767E-002  0.2505606E+03  0.7818608E-02  0.1113209E+00
         21   -1    0    0  503  502  0.00000000000E+00  0.00000000000E+00  0.87649454651E+02  0.87649454651E+02  0.00000000000E+00 0. -1.
         21   -1    0    0  501  503 -0.00000000000E+00 -0.00000000000E+00 -0.10895463261E+04  0.10895463261E+04  0.00000000000E+00 0.  1.
          6    2    1    2  501    0 -0.11080443883E+03 -0.14432027239E+03 -0.84868129189E+03  0.88489578847E+03  0.17226333492E+03 0.  0.
         24    2    3    3    0    0 -0.13926397169E+03 -0.13489619221E+03 -0.62733039069E+03  0.66147450533E+03  0.80085364674E+02 0.  0.
         -6    2    1    2    0  502  0.11080443883E+03  0.14432027239E+03 -0.15321557954E+03  0.29229999226E+03  0.16987732920E+03 0.  0.
        -24    2    5    5    0    0  0.31772617847E+02  0.32044715501E+02 -0.11941911606E+03  0.15082165348E+03  0.80311162611E+02 0.  0.
          5    1    3    3  501    0  0.28459532857E+02 -0.94240801791E+01 -0.22135090120E+03  0.22342128314E+03  0.47000000000E+01 0. -1.
        -13    1    4    4    0    0 -0.96597879372E+02 -0.92365285309E+02 -0.53336868944E+03  0.54985875923E+03  0.00000000000E+00 0.  1.
         14    1    4    4    0    0 -0.42666092315E+02 -0.42530906899E+02 -0.93961701255E+02  0.11161574610E+03  0.00000000000E+00 0. -1.
         -5    1    5    5    0  502  0.79031820984E+02  0.11227555689E+03 -0.33796463476E+02  0.14147833879E+03  0.47000000000E+01 0.  1.
         13    1    6    6    0    0 -0.72795594175E+00  0.50846871555E+02 -0.46990092054E+02  0.69238739287E+02  0.00000000000E+00 0. -1.
        -14    1    6    6    0    0  0.32500573788E+02 -0.18802156054E+02 -0.72429024009E+02  0.81582914190E+02  0.00000000000E+00 0.  1.
</event>
<event>
12    1  0.8724767E-002  0.2061361E+03  0.7818608E-02  0.1145045E+00
         21   -1    0    0  501  502  0.00000000000E+00  0.00000000000E+00  0.13483461858E+03  0.13483461858E+03  0.00000000000E+00 0.  1.
         21   -1    0    0  502  503 -0.00000000000E+00 -0.00000000000E+00 -0.36923106843E+03  0.36923106843E+03  0.00000000000E+00 0. -1.
         -6    2    1    2    0  503 -0.77826784984E+02  0.77187917139E+02 -0.21572446323E+03  0.29708560957E+03  0.17235960189E+03 0.  0.
        -24    2    3    3    0    0 -0.24590678630E+02  0.30857132032E+02 -0.21062282668E+03  0.22617199054E+03  0.72352816891E+02 0.  0.
          6    2    1    2  501    0  0.77826784984E+02 -0.77187917139E+02 -0.18671986615E+02  0.20698007744E+03  0.17457699265E+03 0.  0.
         24    2    5    5    0    0  0.74525808213E+02 -0.90663209831E+02  0.38510747391E+02  0.14795097421E+03  0.81440158380E+02 0.  0.
          5    1    5    5  501    0  0.33009767708E+01  0.13475292692E+02 -0.57182734005E+02  0.59029103238E+02  0.47000000000E+01 0. -1.
        -13    1    6    6    0    0  0.21822954438E+02 -0.73504797899E+02  0.49744108161E+02  0.91398429698E+02  0.00000000000E+00 0.  1.
         14    1    6    6    0    0  0.52702853775E+02 -0.17158411932E+02 -0.11233360770E+02  0.56552544507E+02  0.00000000000E+00 0. -1.
         -5    1    3    3    0  503 -0.53236106354E+02  0.46330785107E+02 -0.51016365494E+01  0.70913619029E+02  0.47000000000E+01 0.  1.
         11    1    4    4    0    0 -0.10033847744E+02 -0.18987856615E+02 -0.22879079315E+02  0.31379437052E+02  0.00000000000E+00 0. -1.
        -12    1    4    4    0    0 -0.14556830886E+02  0.49844988647E+02 -0.18774374737E+03  0.19479255349E+03  0.00000000000E+00 0.  1.
</event>
<event>
12    1  0.8724767E-002  0.1789944E+03  0.7818608E-02  0.1168973E+00
         21   -1    0    0  503  502  0.00000000000E+00  0.00000000000E+00  0.18767770633E+03  0.18767770633E+03  0.00000000000E+00 0. -1.
         21   -1    0    0  501  503 -0.00000000000E+00 -0.00000000000E+00 -0.21435365952E+03  0.21435365952E+03  0.00000000000E+00 0.  1.
          6    2    1    2  501    0 -0.46985937603E+02  0.17147226019E+02 -0.10484176715E+03  0.20743861890E+03  0.17186412883E+03 0.  0.
         24    2    3    3    0    0  0.48184251490E+01  0.37289603128E+02 -0.12095603678E+03  0.14937686693E+03  0.79179251183E+02 0.  0.
         -6    2    1    2    0  502  0.46985937603E+02 -0.17147226019E+02  0.78165813963E+02  0.19459274695E+03  0.17104016196E+03 0.  0.
        -24    2    5    5    0    0  0.45920540178E+02  0.14478390454E+02  0.11358149947E+03  0.14686774859E+03  0.79693530176E+02 0.  0.
          5    1    3    3  501    0 -0.51804362752E+02 -0.20142377109E+02  0.16114269629E+02  0.58061751967E+02  0.47000000000E+01 0. -1.
        -11    1    4    4    0    0  0.37147059297E+02  0.57122939331E+00 -0.66490382385E+02  0.76165617355E+02  0.00000000000E+00 0.  1.
         12    1    4    4    0    0 -0.32328634148E+02  0.36718373735E+02 -0.54465654394E+02  0.73211249574E+02  0.00000000000E+00 0. -1.
         -5    1    5    5    0  502  0.10653974254E+01 -0.31625616473E+02 -0.35415685510E+02  0.47724998367E+02  0.47000000000E+01 0.  1.
         11    1    6    6    0    0 -0.90154409027E+01 -0.24015609698E+02  0.25710471962E+02  0.36318811274E+02  0.00000000000E+00 0. -1.
        -12    1    6    6    0    0  0.54935981081E+02  0.38494000152E+02  0.87871027511E+02  0.11054893731E+03  0.00000000000E+00 0.  1.
</event>
<event>
12    1  0.8724767E-002  0.2591016E+03  0.7818608E-02  0.1107963E+00
         21   -1    0    0  501  502  0.00000000000E+00  0.00000000000E+00  0.17335590533E+04  0.17335590533E+04  0.00000000000E+00 0.  1.
         21   -1    0    0  502  503 -0.00000000000E+00 -0.00000000000E+00 -0.40621841360E+02  0.40621841360E+02  0.00000000000E+00 0.  1.
         -6    2    1    2    0  503  0.18368244575E+03  0.53688818735E+02  0.64426030086E+03  0.69440980616E+03  0.17467659685E+03 0.  0.
        -24    2    3    3    0    0  0.55529620818E+02  0.20991640652E+02  0.28473028179E+03  0.31129601548E+03  0.11094903389E+03 0.  0.
          6    2    1    2  501    0 -0.18368244575E+03 -0.53688818735E+02  0.10486769111E+04  0.10797710885E+04  0.17193199120E+03 0.  0.
         24    2    5    5    0    0 -0.18449598097E+03 -0.35913697408E+02  0.66854785133E+03  0.69919677402E+03  0.81187059462E+02 0.  0.
          5    1    5    5  501    0  0.81353522260E+00 -0.17775121327E+02  0.38012905972E+03  0.38057431446E+03  0.47000000000E+01 0. -1.
        -11    1    6    6    0    0 -0.50597023257E+02  0.25793201514E+02  0.20894111075E+03  0.21652190598E+03  0.00000000000E+00 0.  1.
         12    1    6    6    0    0 -0.13389895772E+03 -0.61706898923E+02  0.45960674058E+03  0.48267486804E+03  0.00000000000E+00 0. -1.
         -5    1    3    3    0  503  0.12815282493E+03  0.32697178084E+02  0.35953001907E+03  0.38311379068E+03  0.47000000000E+01 0.  1.
         11    1    4    4    0    0  0.63566830904E+02  0.76150216847E+01  0.65785405864E+02  0.91795697999E+02  0.00000000000E+00 0. -1.
        -12    1    4    4    0    0 -0.80372100859E+01  0.13376618967E+02  0.21894487593E+03  0.21950031748E+03  0.00000000000E+00 0.  1.
</event>
<event>
12    1  0.8724767E-002  0.1893546E+03  0.7818608E-02  0.1159210E+00
         21   -1    0    0  503  502  0.00000000000E+00  0.00000000000E+00  0.66028430077E+02  0.66028430077E+02  0.00000000000E+00 0. -1.
         21   -1    0    0  501  503 -0.00000000000E+00 -0.00000000000E+00 -0.67045826338E+03  0.67045826338E+03  0.00000000000E+00 0.  1.
          6    2    1    2  501    0  0.66410004030E+02 -0.46613222310E+02 -0.46453253431E+03  0.50164295308E+03  0.17109089928E+03 0.  0.
         24    2    3    3    0    0 -0.19185368292E+01  0.70976607753E+00 -0.35643880062E+03  0.36520762046E+03  0.79522342148E+02 0.  0.
         -6    2    1    2    0  502 -0.66410004030E+02  0.46613222310E+02 -0.13989729899E+03  0.23484374037E+03  0.17028578037E+03 0.  0.
        -24    2    5    5    0    0 -0.85433226393E+01 -0.64138948836E+01 -0.44981763126E+01  0.78269667181E+02  0.77406594042E+02 0.  0.
          5    1    3    3  501    0  0.68328540859E+02 -0.47322988387E+02 -0.10809373369E+03  0.13643533262E+03  0.47000000000E+01 0. -1.
        -11    1    4    4    0    0 -0.22973035412E+02  0.27593926935E+02 -0.26818570887E+03  0.27057856456E+03  0.00000000000E+00 0.  1.
         12    1    4    4    0    0  0.21054498582E+02 -0.26884160858E+02 -0.88253091753E+02  0.94629055895E+02  0.00000000000E+00 0. -1.
         -5    1    5    5    0  502 -0.57866681391E+02  0.53027117193E+02 -0.13539912268E+03  0.15657407319E+03  0.47000000000E+01 0.  1.
         11    1    6    6    0    0 -0.42382208955E+02  0.43998620452E+01 -0.29186987201E+01  0.42709825850E+02  0.00000000000E+00 0. -1.
        -12    1    6    6    0    0  0.33838886316E+02 -0.10813756929E+02 -0.15794775925E+01  0.35559841331E+02  0.00000000000E+00 0.  1.
</event>
<event>
12    1  0.8724767E-002  0.2197487E+03  0.7818608E-02  0.1134544E+00
         21   -1    0    0  503  502  0.00000000000E+00  0.00000000000E+00  0.14219828400E+04  0.14219828400E+04  0.00000000000E+00 0.  1.
         21   -1    0    0  501  503 -0.00000000000E+00 -0.00000000000E+00 -0.35958101729E+02  0.35958101729E+02  0.00000000000E+00 0. -1.
          6    2    1    2  501    0 -0.68030513245E+02 -0.11259956839E+03  0.50145400360E+03  0.54648339790E+03  0.17286171615E+03 0.  0.
         24    2    3    3    0    0 -0.13324961825E+02 -0.41640009571E+02  0.40414427910E+03  0.41412317416E+03  0.79081983047E+02 0.  0.
         -6    2    1    2    0  502  0.68030513245E+02  0.11259956839E+03  0.88457073465E+03  0.91145754382E+03  0.17601890821E+03 0.  0.
        -24    2    5    5    0    0 -0.27327747713E+01  0.94226535330E+02  0.34195305501E+03  0.36391663436E+03  0.81346892455E+02 0.  0.
          5    1    3    3  501    0 -0.54705551420E+02 -0.70959558819E+02  0.97309724502E+02  0.13236022373E+03  0.47000000000E+01 0. -1.
        -11    1    4    4    0    0 -0.37067744012E+02 -0.52426153556E+02  0.27947501252E+03  0.28675564833E+03  0.00000000000E+00 0.  1.
         12    1    4    4    0    0  0.23742782187E+02  0.10786143985E+02  0.12466926658E+03  0.12736752584E+03  0.00000000000E+00 0. -1.
         -5    1    5    5    0  502  0.70763288016E+02  0.18373033060E+02  0.54261767964E+03  0.54754090946E+03  0.47000000000E+01 0.  1.
         13    1    6    6    0    0  0.17685313277E+02  0.30435488953E+02  0.34629947801E+02  0.49379374016E+02  0.00000000000E+00 0. -1.
        -14    1    6    6    0    0 -0.20418088048E+02  0.63791046377E+02  0.30732310721E+03  0.31453726034E+03  0.00000000000E+00 0.  1.
</event>
<event>
12    1  0.8724767E-002  0.2280427E+03  0.7818608E-02  0.1129001E+00
         21   -1    0    0  503  502  0.00000000000E+00  0.00000000000E+00  0.35260516157E+03  0.35260516157E+03  0.00000000000E+00 0.  1.
         21   -1    0    0  501  503 -0.00000000000E+00 -0.00000000000E+00 -0.75306516992E+03  0.75306516992E+03  0.00000000000E+00 0.  1.
          6    2    1    2  501    0 -0.86347579858E+01  0.14111410796E+03 -0.69693932153E+03  0.73163362267E+03  0.17197554889E+03 0.  0.
         24    2    3    3    0    0  0.18046150812E+02  0.64224134527E+01 -0.33308473840E+03  0.34270436030E+03  0.78319376018E+02 0.  0.
         -6    2    1    2    0  502  0.86347579858E+01 -0.14111410796E+03  0.29647931319E+03  0.37403670882E+03  0.17892938799E+03 0.  0.
        -24    2    5    5    0    0 -0.22523070976E+02 -0.89788497926E+02  0.70925804027E+02  0.14058092276E+03  0.78506452478E+02 0.  0.
          5    1    3    3  501    0 -0.26680908798E+02  0.13469169451E+03 -0.36385458313E+03  0.38892926237E+03  0.47000000000E+01 0. -1.
        -11    1    4    4    0    0 -0.16688123598E+02  0.11816865077E+02 -0.26761571208E+03  0.26839579192E+03  0.00000000000E+00 0.  1.
         12    1    4    4    0    0  0.34734274410E+02 -0.53944516242E+01 -0.65469026325E+02  0.74308568383E+02  0.00000000000E+00 0. -1.
         -5    1    5    5    0  502  0.31157828962E+02 -0.51325610037E+02  0.22555350916E+03  0.23345578606E+03  0.47000000000E+01 0.  1.
         11    1    6    6    0    0  0.10244567893E+02 -0.66833224153E+01 -0.13112903460E+02  0.17932267201E+02  0.00000000000E+00 0. -1.
        -12    1    6    6    0    0 -0.32767638869E+02 -0.83105175511E+02  0.84038707487E+02  0.12264865556E+03  0.00000000000E+00 0.  1.
</event>
<event>
12    1  0.8724767E-002  0.1979778E+03  0.7818608E-02  0.1151847E+00
         21   -1    0    0  501  502  0.00000000000E+00  0.00000000000E+00  0.71729028720E+02  0.71729028720E+02  0.00000000000E+00 0.  1.
         21   -1    0    0  502  503 -0.00000000000E+00 -0.00000000000E+00 -0.75135673744E+03  0.75135673744E+03  0.00000000000E+00 0.  1.
         -6    2    1    2    0  503  0.32988736247E+02  0.90926367403E+02 -0.55848076470E+03  0.59253351396E+03  0.17274067159E+03 0.  0.
        -24    2    3    3    0    0 -0.29519214949E+02  0.15270097226E+01 -0.28084440454E+03  0.29419892395E+03  0.82496736186E+02 0.  0.
          6    2    1    2  501    0 -0.32988736247E+02 -0.90926367403E+02 -0.12114694402E+03  0.23055225220E+03  0.17065139302E+03 0.  0.
         24    2    5    5    0    0  0.32573865567E+02 -0.65888335223E+02 -0.25270207010E+02  0.11164137586E+03  0.80142897406E+02 0.  0.
          5    1    5    5  501    0 -0.65562601814E+02 -0.25038032180E+02 -0.95876737013E+02  0.11891087634E+03  0.47000000000E+01 0. -1.
        -11    1    6    6    0    0 -0.23779527348E+02 -0.51659303026E+01 -0.13893592395E+02  0.28021146772E+02  0.00000000000E+00 0.  1.
         12    1    6    6    0    0  0.56353392915E+02 -0.60722404920E+02 -0.11376614616E+02  0.83620229086E+02  0.00000000000E+00 0. -1.
         -5    1    3    3    0  503  0.62507951195E+02  0.89399357681E+02 -0.27763636016E+03  0.29833459001E+03  0.47000000000E+01 0.  1.
         13    1    4    4    0    0 -0.49526661806E+02  0.18837761044E+02 -0.23813415215E+03  0.24395824620E+03  0.00000000000E+00 0. -1.
        -14    1    4    4    0    0  0.20007446857E+02 -0.17310751322E+02 -0.42710252393E+02  0.50240677747E+02  0.00000000000E+00 0.  1.
</event>
<event>
12    1  0.8724767E-002  0.1784859E+03  0.7818608E-02  0.1169380E+00
         21   -1    0    0  501  502  0.00000000000E+00  0.00000000000E+00  0.98061363799E+02  0.98061363799E+02  0.00000000000E+00 0.  1.
         21   -1    0    0  502  503 -0.00000000000E+00 -0.00000000000E+00 -0.61707754835E+03  0.61707754835E+03  0.00000000000E+00 0.  1.
         -6    2    1    2    0  503  0.16217576127E+02 -0.45554846003E+02 -0.50572683208E+03  0.53615893332E+03  0.17137245790E+03 0.  0.
        -24    2    3    3    0    0 -0.17151679033E+02 -0.56649018765E+00 -0.44758477980E+03  0.45528837260E+03  0.81614129336E+02 0.  0.
          6    2    1    2  501    0 -0.16217576127E+02  0.45554846003E+02 -0.13289352471E+02  0.17897997883E+03  0.17181086160E+03 0.  0.
         24    2    5    5    0    0  0.46535925941E+02  0.39543929133E+02 -0.42738378463E+02  0.10924140790E+03  0.79861138682E+02 0.  0.
          5    1    5    5  501    0 -0.62753502068E+02  0.60109168703E+01  0.29449025991E+02  0.69738570930E+02  0.47000000000E+01 0. -1.
        -13    1    6    6    0    0  0.14779718509E+02  0.51054273032E+02  0.19946727447E+01  0.53187945941E+02  0.00000000000E+00 0.  1.
         14    1    6    6    0    0  0.31756207432E+02 -0.11510343899E+02 -0.44733051207E+02  0.56053461958E+02  0.00000000000E+00 0. -1.
         -5    1    3    3    0  503  0.33369255160E+02 -0.44988355815E+02 -0.58142052282E+02  0.80870560728E+02  0.47000000000E+01 0.  1.
         11    1    4    4    0    0 -0.14668513394E+02  0.16820273021E+02 -0.30289585762E+02  0.37623740847E+02  0.00000000000E+00 0. -1.
        -12    1    4    4    0    0 -0.24831656393E+01 -0.17386763209E+02 -0.41729519404E+03  0.41766463175E+03  0.00000000000E+00 0.  1.
</event>
<event>
12    1  0.8724767E-002  0.2324674E+03  0.7818608E-02  0.1125261E+00
         21   -1    0    0  503  502  0.00000000000E+00  0.00000000000E+00  0.67500172911E+02  0.67500172911E+02  0.00000000000E+00 0.  1.
         21   -1    0    0  501  503 -0.00000000000E+00 -0.00000000000E+00 -0.90911286563E+03  0.90911286563E+03  0.00000000000E+00 0.  1.
          6    2    1    2  501    0  0.95492509905E+02 -0.12305642127E+03 -0.59315100415E+03  0.63635679355E+03  0.16988276165E+03 0.  0.
         24    2    3    3    0    0  0.72157028910E+02 -0.12709470138E+03 -0.30818574728E+03  0.35037053513E+03  0.80133370833E+02 0.  0.
         -6    2    1    2    0  502 -0.95492509905E+02  0.12305642127E+03 -0.24846168857E+03  0.34025624500E+03  0.17256708640E+03 0.  0.
        -24    2    5    5    0    0 -0.27279079941E+02 -0.78262604294E+01 -0.91297203721E+02  0.12460348315E+03  0.79909011069E+02 0.  0.
          5    1    3    3  501    0  0.23335480995E+02  0.40382801177E+01 -0.28496525687E+03  0.28598625842E+03  0.47000000000E+01 0. -1.
        -11    1    4    4    0    0  0.13879074682E+02 -0.42309374051E+02 -0.18296528720E+03  0.18830562436E+03  0.00000000000E+00 0.  1.
         12    1    4    4    0    0  0.58277954228E+02 -0.84785327333E+02 -0.12522046008E+03  0.16206491077E+03  0.00000000000E+00 0. -1.
         -5    1    5    5    0  502 -0.68213429964E+02  0.13088268170E+03 -0.15716448485E+03  0.21565276185E+03  0.47000000000E+01 0.  1.
         13    1    6    6    0    0  0.15828404210E+02  0.14611238884E+02 -0.66787248647E+02  0.70175232549E+02  0.00000000000E+00 0. -1.
        -14    1    6    6    0    0 -0.43107484150E+02 -0.22437499314E+02 -0.24509955075E+02  0.54428250597E+02  0.00000000000E+00 0.  1.
</event>
<event>
12    1  0.8724767E-002  0.2402293E+03  0.7818608E-02  0.1119919E+00
         21   -1    0    0  501  502  0.00000000000E+00  0.00000000000E+00  0.11098464015E+03  0.11098464015E+03  0.00000000000E+00 0.  1.
         21   -1    0    0  502  503 -0.00000000000E+00 -0.00000000000E+00 -0.52899641430E+03  0.52899641430E+03  0.00000000000E+00 0. -1.
         -6    2    1    2    0  503 -0.12447330927E+03 -0.11148877622E+03 -0.25913913145E+03  0.35335988168E+03  0.17258842540E+03 0.  0.
        -24    2    3    3    0    0 -0.12249817840E+01 -0.42958385787E+02 -0.14888937753E+03  0.17429658873E+03  0.79776754824E+02 0.  0.
          6    2    1    2  501    0  0.12447330927E+03  0.11148877622E+03 -0.15887264270E+03  0.28662117278E+03  0.17025812211E+03 0.  0.
         24    2    5    5    0    0  0.12555519837E+03  0.27970221890E+02 -0.74782589155E+02  0.16800521051E+03  0.78018420677E+02 0.  0.
          5    1    5    5  501    0 -0.10818890987E+01  0.83518554331E+02 -0.84090053543E+02  0.11861596228E+03  0.47000000000E+01 0. -1.
        -13    1    6    6    0    0  0.34421925393E+02  0.13973047910E+02  0.14292059520E+02  0.39804245765E+02  0.00000000000E+00 0.  1.
         14    1    6    6    0    0  0.91133272981E+02  0.13997173980E+02 -0.89074648675E+02  0.12820096474E+03  0.00000000000E+00 0. -1.
         -5    1    3    3    0  503 -0.12324832749E+03 -0.68530390434E+02 -0.11024975392E+03  0.17906329295E+03  0.47000000000E+01 0.  1.
         13    1    4    4    0    0  0.22359383980E+02 -0.57911947469E+02 -0.11167936714E+03  0.12777330220E+03  0.00000000000E+00 0. -1.
        -14    1    4    4    0    0 -0.23584365764E+02  0.14953561682E+02 -0.37210010394E+02  0.46523286524E+02  0.00000000000E+00 0.  1.
</event>
<event>
12    1  0.8724767E-002  0.1814813E+03  0.7818608E-02  0.1166387E+00
         21   -1    0    0  503  502  0.00000000000E+00  0.00000000000E+00  0.53269791778E+03  0.53269791778E+03  0.00000000000E+00 0.  1.
         21   -1    0    0  501  503 -0.00000000000E+00 -0.00000000000E+00 -0.19012914879E+03  0.19012914879E+03  0.00000000000E+00 0. -1.
          6    2    1    2  501    0  0.14168968220E+02  0.57190900047E+02 -0.12561621849E+03  0.22071452493E+03  0.17165054168E+03 0.  0.
         24    2    3    3    0    0 -0.14720494733E+02  0.99180742891E+02 -0.72855987203E+02  0.14720615821E+03  0.79423834077E+02 0.  0.
         -6    2    1    2    0  502 -0.14168968220E+02 -0.57190900047E+02  0.46818498748E+03  0.50211254163E+03  0.17160496280E+03 0.  0.
        -24    2    5    5    0    0 -0.17255510692E+02 -0.87335027014E+02  0.44723648527E+03  0.46497597098E+03  0.90868147560E+02 0.  0.
          5    1    3    3  501    0  0.28889462953E+02 -0.41989842844E+02 -0.52760231287E+02  0.73508366716E+02  0.47000000000E+01 0. -1.
        -11    1    4    4    0    0  0.28632497376E+02  0.70003595410E+02 -0.41713608245E+02  0.86373308314E+02  0.00000000000E+00 0.  1.
         12    1    4    4    0    0 -0.43352992109E+02  0.29177147481E+02 -0.31142378958E+02  0.60832849901E+02  0.00000000000E+00 0. -1.
         -5    1    5    5    0  502  0.30865424716E+01  0.30144126968E+02  0.20948502213E+02  0.37136570655E+02  0.47000000000E+01 0.  1.
         11    1    6    6    0    0 -0.45488647996E+02 -0.18689650348E+02  0.23624727093E+03  0.24131161006E+03  0.00000000000E+00 0. -1.
        -12    1    6    6    0    0  0.28233137305E+02 -0.68645376667E+02  0.21098921433E+03  0.22366436092E+03  0.00000000000E+00 0.  1.
</event>
<event>
12    1  0.8724767E-002  0.2285700E+03  0.7818608E-02  0.1127738E+00
         21   -1    0    0  501  502  0.00000000000E+00  0.00000000000E+00  0.24815637722E+03  0.24815637722E+03  0.00000000000E+00 0. -1.
         21   -1    0    0  502  503 -0.00000000000E+00 -0.00000000000E+00 -0.53903691315E+03  0.53903691315E+03  0.00000000000E+00 0.  1.
         -6    2    1    2    0  503  0.13351821459E+03  0.69540499716E+02 -0.45285831005E+03  0.50704862455E+03  0.17133202837E+03 0.  0.
        -24    2    3    3    0    0  0.13987728232E+03  0.46652802258E+02 -0.45292186097E+03  0.48283337158E+03  0.79042485419E+02 0.  0.
          6    2    1    2  501    0 -0.13351821459E+03 -0.69540499716E+02  0.16197777412E+03  0.28014466582E+03  0.17199197583E+03 0.  0.
         24    2    5    5    0    0 -0.62458170482E+02 -0.76203460101E+02  0.29951071918E+02  0.12998786443E+03  0.79320790451E+02 0.  0.
          5    1    5    5  501    0 -0.71060044104E+02  0.66629603847E+01  0.13202670220E+03  0.15015680139E+03  0.47000000000E+01 0. -1.
        -13    1    6    6    0    0  0.48139588972E+01  0.47961712239E+00 -0.17012748487E+02  0.17687222618E+02  0.00000000000E+00 0.  1.
         14    1    6    6    0    0 -0.67272129379E+02 -0.76683077223E+02  0.46963820405E+02  0.11230064181E+03  0.00000000000E+00 0. -1.
         -5    1    3    3    0  503 -0.63590677361E+01  0.22887697458E+02  0.63550918178E-01  0.24215252964E+02  0.47000000000E+01 0.  1.
         11    1    4    4    0    0  0.96020699424E+02  0.67484256989E+02 -0.29056518056E+03  0.31337234053E+03  0.00000000000E+00 0. -1.
        -12    1    4    4    0    0  0.43856582899E+02 -0.20831454730E+02 -0.16235668041E+03  0.16946103105E+03  0.00000000000E+00 0.  1.
</event>
<event>
12    1  0.8724767E-002  0.1796868E+03  0.7818608E-02  0.1168710E+00
         21   -1    0    0  503  502  0.00000000000E+00  0.00000000000E+00  0.48752164127E+03  0.48752164127E+03  0.00000000000E+00 0.  1.
         21   -1    0    0  501  503 -0.00000000000E+00 -0.00000000000E+00 -0.11128735426E+03  0.11128735426E+03  0.00000000000E+00 0.  1.
          6    2    1    2  501    0 -0.28584987144E+02  0.40857706079E+02 -0.35399636686E+01  0.17972164267E+03  0.17262932504E+03 0.  0.
         24    2    3    3    0    0 -0.69334306230E+02  0.33232578579E+02  0.43664210104E+02  0.11672185222E+03  0.76195651068E+02 0.  0.
         -6    2    1    2    0  502  0.28584987144E+02 -0.40857706079E+02  0.37977425068E+03  0.41908735286E+03  0.17005667941E+03 0.  0.
        -24    2    5    5    0    0  0.31774395795E+02 -0.54109800874E+01  0.37274360101E+03  0.38250644601E+03  0.79589560962E+02 0.  0.
          5    1    3    3  501    0  0.40749319085E+02  0.76251274999E+01 -0.47204173772E+02  0.62999790451E+02  0.47000000000E+01 0. -1.
        -11    1    4    4    0    0 -0.59803537017E+02  0.45375361099E+02  0.51689614130E+01  0.75246957391E+02  0.00000000000E+00 0.  1.
         12    1    4    4    0    0 -0.95307692127E+01 -0.12142782519E+02  0.38495248691E+02  0.41474894826E+02  0.00000000000E+00 0. -1.
         -5    1    5    5    0  502 -0.31894086503E+01 -0.35446725992E+02  0.70306496739E+01  0.36580906849E+02  0.47000000000E+01 0.  1.
         11    1    6    6    0    0  0.29410173234E+02  0.31411247913E+02  0.12904364675E+03  0.13602899526E+03  0.00000000000E+00 0. -1.
        -12    1    6    6    0    0  0.23642225609E+01 -0.36822228000E+02  0.24369995426E+03  0.24647745075E+03  0.00000000000E+00 0.  1.
</event>
<event>
12    1  0.8724767E-002  0.1770812E+03  0.7818608E-02  0.1171161E+00
         21   -1    0    0  501  502  0.00000000000E+00  0.00000000000E+00  0.91469447342E+03  0.91469447342E+03  0.00000000000E+00 0. -1.
         21   -1    0    0  502  503 -0.00000000000E+00 -0.00000000000E+00 -0.59104706348E+02  0.59104706348E+02  0.00000000000E+00 0.  1.
         -6    2    1    2    0  503 -0.21451524132E+02  0.24152949456E+02  0.10838293596E+03  0.20589567513E+03  0.17205416407E+03 0.  0.
        -24    2    3    3    0    0 -0.40379660134E+02 -0.33293939272E+02  0.11029839686E+03  0.14519824234E+03  0.78598917821E+02 0.  0.
          6    2    1    2  501    0  0.21451524132E+02 -0.24152949456E+02  0.74720683111E+03  0.76790350464E+03  0.17410976747E+03 0.  0.
         24    2    5    5    0    0 -0.24278000687E+02 -0.12826526697E+02  0.17939167352E+03  0.19811791297E+03  0.79469452027E+02 0.  0.
          5    1    5    5  501    0  0.45729524819E+02 -0.11326422759E+02  0.56781515758E+03  0.56978559167E+03  0.47000000000E+01 0. -1.
        -13    1    6    6    0    0 -0.33724132963E+02 -0.38428235177E+02  0.14768679930E+03  0.15628639445E+03  0.00000000000E+00 0.  1.
         14    1    6    6    0    0  0.94461322758E+01  0.25601708480E+02  0.31704874224E+02  0.41831518520E+02  0.00000000000E+00 0. -1.
         -5    1    3    3    0  503  0.18928136002E+02  0.57446888728E+02 -0.19154608988E+01  0.60697432791E+02  0.47000000000E+01 0.  1.
         13    1    4    4    0    0 -0.44174263262E+01 -0.86488825184E+01  0.99910210027E+02  0.10038110824E+03  0.00000000000E+00 0. -1.
        -14    1    4    4    0    0 -0.35962233808E+02 -0.24645056753E+02  0.10388186836E+02  0.44817134096E+02  0.00000000000E+00 0.  1.
</event>
<event>
12    1  0.8724767E-002  0.1817932E+03  0.7818608E-02  0.1166404E+00
         21   -1    0    0  503  502  0.00000000000E+00  0.00000000000E+00  0.31185788983E+03  0.31185788983E+03  0.00000000000E+00 0.  1.
         21   -1    0    0  501  503 -0.00000000000E+00 -0.00000000000E+00 -0.17255022909E+03  0.17255022909E+03  0.00000000000E+00 0. -1.
          6    2    1    2  501    0 -0.50461294931E+02 -0.14593006418E+02 -0.81841595443E+02  0.19812895266E+03  0.17262021033E+03 0.  0.
         24    2    3    3    0    0 -0.86266645528E+02  0.18974132493E+02 -0.21428043371E+02  0.12015034521E+03  0.78581120996E+02 0.  0.
         -6    2    1    2    0  502  0.50461294931E+02  0.14593006418E+02  0.22114925618E+03  0.28627916626E+03  0.17403870089E+03 0.  0.
        -24    2    5    5    0    0 -0.11434324871E+01 -0.98818579502E+01  0.21565002329E+03  0.22870835387E+03  0.75522314777E+02 0.  0.
          5    1    3    3  501    0  0.35805350597E+02 -0.33567138911E+02 -0.60413552072E+02  0.77978607451E+02  0.47000000000E+01 0. -1.
        -13    1    4    4    0    0  0.15088310118E+02  0.46861894857E+01 -0.42594518662E+01  0.16363386090E+02  0.00000000000E+00 0.  1.
         14    1    4    4    0    0 -0.10135495565E+03  0.14287943007E+02 -0.17168591505E+02  0.10378695912E+03  0.00000000000E+00 0. -1.
         -5    1    5    5    0  502  0.51604727418E+02  0.24474864369E+02  0.54992328897E+01  0.57570812398E+02  0.47000000000E+01 0.  1.
         11    1    6    6    0    0 -0.25886898626E+02 -0.12110148807E+02  0.30115229797E+02  0.41517638304E+02  0.00000000000E+00 0. -1.
        -12    1    6    6    0    0  0.24743466139E+02  0.22282908564E+01  0.18553479349E+03  0.18719071556E+03  0.00000000000E+00 0.  1.
</event>
<event>
12    1  0.8724767E-002  0.1773264E+03  0.7818608E-02  0.1171115E+00
         21   -1    0    0  503  502  0.00000000000E+00  0.00000000000E+00  0.12133121975E+03  0.12133121975E+03  0.00000000000E+00 0. -1.
         21   -1    0    0  501  503 -0.00000000000E+00 -0.00000000000E+00 -0.26682825143E+03  0.26682825143E+03  0.00000000000E+00 0. -1.
          6    2    1    2  501    0  0.24852530330E+02 -0.28756967960E+02 -0.11403897248E+03  0.21083060772E+03  0.17320521480E+03 0.  0.
         24    2    3    3    0    0  0.39029821911E+02  0.27044905056E+02 -0.97494541559E+01  0.91611321267E+02  0.77735631728E+02 0.  0.
         -6    2    1    2    0  502 -0.24852530330E+02  0.28756967960E+02 -0.31458059197E+02  0.17732886347E+03  0.17032705264E+03 0.  0.
        -24    2    5    5    0    0 -0.80468061736E+02  0.24832032722E+02 -0.33471907058E+02  0.12134102520E+03  0.80694095363E+02 0.  0.
          5    1    3    3  501    0 -0.14177291580E+02 -0.55801873015E+02 -0.10428951833E+03  0.11921928645E+03  0.47000000000E+01 0. -1.
        -11    1    4    4    0    0  0.32923491944E+02 -0.22911573560E+02  0.11031377690E+01  0.40126218831E+02  0.00000000000E+00 0.  1.
         12    1    4    4    0    0  0.61063299672E+01  0.49956478616E+02 -0.10852591925E+02  0.51485102436E+02  0.00000000000E+00 0. -1.
         -5    1    5    5    0  502  0.55615531406E+02  0.39249352376E+01  0.20138478610E+01  0.55987838263E+02  0.47000000000E+01 0.  1.
         11    1    6    6    0    0  0.14121441392E+02  0.11854412596E+02  0.38407892759E+01  0.18833318010E+02  0.00000000000E+00 0. -1.
        -12    1    6    6    0    0 -0.94589503129E+02  0.12977620126E+02 -0.37312696334E+02  0.10250770719E+03  0.00000000000E+00 0.  1.
</event>
<event>
12    1  0.8724767E-002  0.2300286E+03  0.7818608E-02  0.1127332E+00
         21   -1    0    0  501  502  0.00000000000E+00  0.00000000000E+00  0.66975649737E+03  0.66975649737E+03  0.00000000000E+00 0.  1.
         21   -1    0    0  502  503 -0.00000000000E+00 -0.00000000000E+00 -0.86206733114E+02  0.86206733114E+02  0.00000000000E+00 0.  1.
         -6    2    1    2    0  503 -0.51985879477E+02 -0.14138383240E+03  0.17488279816E+03  0.28895873856E+03  0.17384257180E+03 0.  0.
        -24    2    3    3    0    0 -0.71755865908E+02 -0.34858356864E+02  0.12671040601E+03  0.17029451200E+03  0.81121418191E+02 0.  0.
          6    2    1    2  501    0  0.51985879477E+02  0.14138383240E+03  0.40866696610E+03  0.46700449192E+03  0.16850099872E+03 0.  0.
         24    2    5    5    0    0  0.59512105432E+02  0.56000762816E+02  0.12166160709E+03  0.16743633817E+03  0.80966688021E+02 0.  0.
          5    1    5    5  501    0 -0.75262259551E+01  0.85383069580E+02  0.28700535900E+03  0.29956815376E+03  0.47000000000E+01 0. -1.
        -13    1    6    6    0    0  0.21935247125E+01  0.57636542101E+02  0.59601647292E+02  0.82940574485E+02  0.00000000000E+00 0.  1.
         14    1    6    6    0    0  0.57318580720E+02 -0.16357792843E+01  0.62059959802E+02  0.84495763682E+02  0.00000000000E+00 0. -1.
         -5    1    3    3    0  503  0.19769986431E+02 -0.10652547553E+03  0.48172392149E+02  0.11866422656E+03  0.47000000000E+01 0.  1.
         11    1    4    4    0    0 -0.66113165494E+02 -0.51727278359E+02  0.12731287906E+03  0.15249665948E+03  0.00000000000E+00 0. -1.
        -12    1    4    4    0    0 -0.56427004146E+01  0.16868921495E+02 -0.60247305169E+00  0.17797852515E+02  0.00000000000E+00 0.  1.
</event>
<event>
12    1  0.8724767E-002  0.1815910E+03  0.7818608E-02  0.1168014E+00
         21   -1    0    0  501  502  0.00000000000E+00  0.00000000000E+00  0.20143609469E+03  0.20143609469E+03  0.00000000000E+00 0. -1.
         21   -1    0    0  502  503 -0.00000000000E+00 -0.00000000000E+00 -0.35538336240E+03  0.35538336240E+03  0.00000000000E+00 0. -1.
         -6    2    1    2    0  503  0.34783852721E+02 -0.19907683846E+01 -0.28547114621E+03  0.33833279874E+03  0.17821736115E+03 0.  0.
        -24    2    3    3    0    0  0.27247609149E+02  0.48632156026E+02 -0.26521522907E+03  0.28308908759E+03  0.81809504190E+02 0.  0.
          6    2    1    2  501    0 -0.34783852721E+02  0.19907683846E+01  0.13152387850E+03  0.21848665835E+03  0.17095031352E+03 0.  0.
         24    2    5    5    0    0 -0.65891753921E+02 -0.41379563231E+02  0.12023683759E+03  0.16373106983E+03  0.79353478982E+02 0.  0.
          5    1    5    5  501    0  0.31107901201E+02  0.43370331616E+02  0.11287040909E+02  0.54755588519E+02  0.47000000000E+01 0. -1.
        -13    1    6    6    0    0 -0.66232310733E+02 -0.20666039757E+02  0.38371866166E+02  0.79285586945E+02  0.00000000000E+00 0.  1.
         14    1    6    6    0    0  0.34055681142E+00 -0.20713523474E+02  0.81864971422E+02  0.84445482885E+02  0.00000000000E+00 0. -1.
         -5    1    3    3    0  503  0.75362435722E+01 -0.50622924411E+02 -0.20255917145E+02  0.55243711158E+02  0.47000000000E+01 0.  1.
         13    1    4    4    0    0 -0.65639605012E+01  0.61987228510E+02 -0.15651347122E+03  0.16846948907E+03  0.00000000000E+00 0. -1.
        -14    1    4    4    0    0  0.33811569650E+02 -0.13355072484E+02 -0.10870175785E+03  0.11461959852E+03  0.00000000000E+00 0.  1.
</event>
<event>
12    1  0.8724767E-002  0.2505223E+03  0.7818608E-02  0.1113128E+00
         21   -1    0    0  501  502  0.00000000000E+00  0.00000000000E+00  0.22473061047E+03  0.22473061047E+03  0.00000000000E+00 0.  1.
         21   -1    0    0  502  503 -0.00000000000E+00 -0.00000000000E+00 -0.38132519431E+03  0.38132519431E+03  0.00000000000E+00 0. -1.
         -6    2    1    2    0  503  0.12059505038E+03 -0.13522703262E+03  0.79402962190E+02  0.26188102091E+03  0.17160222080E+03 0.  0.
        -24    2    3    3    0    0  0.39476652339E+02 -0.35603171721E+01  0.27122349054E+01  0.89196695889E+02  0.79859954928E+02 0.  0.
          6    2    1    2  501    0 -0.12059505038E+03  0.13522703262E+03 -0.23599754603E+03  0.34417478387E+03  0.17300844949E+03 0.  0.
         24    2    5    5    0    0 -0.76556267651E+02  0.26078194504E+02 -0.55552778204E+02  0.12868629814E+03  0.83265345846E+02 0.  0.
          5    1    5    5  501    0 -0.44038782726E+02  0.10914883811E+03 -0.18044476782E+03  0.21548848573E+03  0.47000000000E+01 0. -1.
        -11    1    6    6    0    0 -0.82726913873E+02  0.22917402858E+02 -0.14507808078E+02  0.87059899655E+02  0.00000000000E+00 0.  1.
         12    1    6    6    0    0  0.61706462221E+01  0.31607916455E+01 -0.41044970125E+02  0.41626398490E+02  0.00000000000E+00 0. -1.
         -5    1    3    3    0  503  0.81118398038E+02 -0.13166671545E+03  0.76690727285E+02  0.17268432502E+03  0.47000000000E+01 0.  1.
         13    1    4    4    0    0  0.23624485336E+02 -0.85879691179E+01 -0.37805036760E+02  0.45399232652E+02  0.00000000000E+00 0. -1.
        -14    1    4    4    0    0  0.15852167002E+02  0.50276519458E+01  0.40517271665E+02  0.43797463237E+02  0.00000000000E+00 0.  1.
</event>
<event>
12    1  0.8724767E-002  0.2079094E+03  0.7818608E-02  0.1143386E+00
         21   -1    0    0  503  502  0.00000000000E+00  0.00000000000E+00  0.35381936026E+03  0.35381936026E+03  0.00000000000E+00 0.  1.
         21   -1    0    0  501  503 -0.00000000000E+00 -0.00000000000E+00 -0.16984228717E+03  0.16984228717E+03  0.00000000000E+00 0. -1.
          6    2    1    2  501    0  0.97078541082E+02 -0.63044902509E+02 -0.47257810215E+02  0.21321259425E+03  0.17270612858E+03 0.  0.
         24    2    3    3    0    0  0.75122854403E+02 -0.85175564334E+02  0.18348736292E+02  0.14042435815E+03  0.80523314784E+02 0.  0.
         -6    2    1    2    0  502 -0.97078541082E+02  0.63044902509E+02  0.23123488330E+03  0.31044905318E+03  0.17178515796E+03 0.  0.
        -24    2    5    5    0    0 -0.39209828701E+02  0.19067491516E+02  0.29457364987E+02  0.95928523981E+02  0.80209509797E+02 0.  0.
          5    1    3    3  501    0  0.21955686680E+02  0.22130661825E+02 -0.65606546507E+02  0.72788236103E+02  0.47000000000E+01 0. -1.
        -13    1    4    4    0    0  0.36241768813E+02 -0.81870991356E+02 -0.12866717537E+02  0.90453731004E+02  0.00000000000E+00 0.  1.
         14    1    4    4    0    0  0.38881085589E+02 -0.33045729784E+01  0.31215453830E+02  0.49970627142E+02  0.00000000000E+00 0. -1.
         -5    1    5    5    0  502 -0.57868712381E+02  0.43977410993E+02  0.20177751832E+03  0.21452052920E+03  0.47000000000E+01 0.  1.
         13    1    6    6    0    0  0.11080221080E+02  0.34452876902E+01 -0.20362156024E+02  0.23436268995E+02  0.00000000000E+00 0. -1.
        -14    1    6    6    0    0 -0.50290049781E+02  0.15622203826E+02  0.49819521011E+02  0.72492254987E+02  0.00000000000E+00 0.  1.
</event>
<event>
12    1  0.8724767E-002  0.1992741E+03  0.7818608E-02  0.1152492E+00
         21   -1    0    0  501  502  0.00000000000E+00  0.00000000000E+00  0.83291490379E+03  0.83291490379E+03  0.00000000000E+00 0. -1.
         21   -1    0    0  502  503 -0.00000000000E+00 -0.00000000000E+00 -0.48139753880E+02  0.48139753880E+02  0.00000000000E+00 0.  1.
         -6    2    1    2    0  503  0.77949098990E+02  0.31955193454E+01  0.29580201359E+03  0.35666370217E+03  0.18336818652E+03 0.  0.
        -24    2    3    3    0    0  0.12246182570E+03 -0.84745637542E+01  0.18146843709E+03  0.23332745286E+03  0.80263251967E+02 0.  0.
          6    2    1    2  501    0 -0.77949098990E+02 -0.31955193454E+01  0.48897313631E+03  0.52439095549E+03  0.17264087809E+03 0.  0.
         24    2    5    5    0    0 -0.41752036624E+02  0.62585171672E+02  0.22691623918E+03  0.25174973710E+03  0.78910165678E+02 0.  0.
          5    1    5    5  501    0 -0.36197062366E+02 -0.65780691018E+02  0.26205689713E+03  0.27264121840E+03  0.47000000000E+01 0. -1.
        -11    1    6    6    0    0 -0.43201963644E+02 -0.25504322634E+01  0.77917622339E+02  0.89129513846E+02  0.00000000000E+00 0.  1.
         12    1    6    6    0    0  0.14499270202E+01  0.65135603936E+02  0.14899861684E+03  0.16262022325E+03  0.00000000000E+00 0. -1.
         -5    1    3    3    0  503 -0.44512726706E+02  0.11670083100E+02  0.11433357650E+03  0.12333624931E+03  0.47000000000E+01 0.  1.
         13    1    4    4    0    0  0.61298498927E+02  0.97772789528E+01  0.14963900077E+03  0.16200287561E+03  0.00000000000E+00 0. -1.
        -14    1    4    4    0    0  0.61163326769E+02 -0.18251842707E+02  0.31829436315E+02  0.71324577249E+02  0.00000000000E+00 0.  1.
</event>
<event>
12    1  0.8724767E-002  0.3506102E+03  0.7818608E-02  0.1062367E+00
         21   -1    0    0  501  502  0.00000000000E+00  0.00000000000E+00  0.45753809959E+03  0.45753809959E+03  0.00000000000E+00 0. -1.
         21   -1    0    0  502  503 -0.00000000000E+00 -0.00000000000E+00 -0.34622285627E+03  0.34622285627E+03  0.00000000000E+00 0.  1.
         -6    2    1    2    0  503 -0.26661300549E+03 -0.14945749258E+03 -0.13455906029E+03  0.37554450167E+03  0.17177745847E+03 0.  0.
        -24    2    3    3    0    0 -0.22608821713E+03 -0.14089239549E+03 -0.16547650927E+03  0.32364461717E+03  0.79980085450E+02 0.  0.
          6    2    1    2  501    0  0.26661300549E+03  0.14945749258E+03  0.24587430361E+03  0.42821645419E+03  0.17174143843E+03 0.  0.
         24    2    5    5    0    0  0.82898425469E+02  0.34581987261E+02  0.32495965276E+02  0.12407860073E+03  0.79192478251E+02 0.  0.
          5    1    5    5  501    0  0.18371458003E+03  0.11487550532E+03  0.21337833834E+03  0.30413785346E+03  0.47000000000E+01 0. -1.
        -11    1    6    6    0    0  0.44095764361E+02  0.59106313143E+02  0.17533324953E+02  0.75798483968E+02  0.00000000000E+00 0.  1.
         12    1    6    6    0    0  0.38802661107E+02 -0.24524325882E+02  0.14962640323E+02  0.48280116761E+02  0.00000000000E+00 0. -1.
         -5    1    3    3    0  503 -0.40524788360E+02 -0.85650970854E+01  0.30917448976E+02  0.51899884498E+02  0.47000000000E+01 0.  1.
         11    1    4    4    0    0 -0.69311326688E+02 -0.11862287553E+02 -0.17690304615E+02  0.72510142399E+02  0.00000000000E+00 0. -1.
        -12    1    4    4    0    0 -0.15677689045E+03 -0.12903010794E+03 -0.14778620465E+03  0.25113447477E+03  0.00000000000E+00 0.  1.
</event>
<event>
12    1  0.8724767E-002  0.1886034E+03  0.7818608E-02  0.1159983E+00
         21   -1    0    0  501  502  0.00000000000E+00  0.00000000000E+00  0.24194769213E+03  0.24194769213E+03  0.00000000000E+00 0. -1.
         21   -1    0    0  502  503 -0.00000000000E+00 -0.00000000000E+00 -0.14722727122E+03  0.14722727122E+03  0.00000000000E+00 0. -1.
         -6    2    1    2    0  503  0.37430782044E+02 -0.67407964630E+02  0.30841346653E+02  0.19110839827E+03  0.17212302021E+03 0.  0.
        -24    2    3    3    0    0  0.11538280003E+02 -0.10899408104E+03  0.70004993293E+01  0.13642473762E+03  0.80931208053E+02 0.  0.
          6    2    1    2  501    0 -0.37430782044E+02  0.67407964630E+02  0.63879074258E+02  0.19806656508E+03  0.17089450235E+03 0.  0.
         24    2    5    5    0    0 -0.88628257131E+02  0.38037655266E+02  0.71128364465E+02  0.13841391437E+03  0.69262805894E+02 0.  0.
          5    1    5    5  501    0  0.51197475087E+02  0.29370309364E+02 -0.72492902066E+01  0.59652650703E+02  0.47000000000E+01 0. -1.
        -11    1    6    6    0    0 -0.90885687519E+02  0.48795087865E+02  0.50083350494E+02  0.11467131634E+03  0.00000000000E+00 0.  1.
         12    1    6    6    0    0  0.22574303879E+01 -0.10757432599E+02  0.21045013970E+02  0.23742598027E+02  0.00000000000E+00 0. -1.
         -5    1    3    3    0  503  0.25892502041E+02  0.41586116414E+02  0.23840847324E+02  0.54683660645E+02  0.47000000000E+01 0.  1.
         13    1    4    4    0    0  0.21636913102E+02 -0.84613650811E+01 -0.21277352999E+02  0.31503594370E+02  0.00000000000E+00 0. -1.
        -14    1    4    4    0    0 -0.10098633099E+02 -0.10053271596E+03  0.28277852328E+02  0.10492114325E+03  0.00000000000E+00 0.  1.
</event>
<event>
12    1  0.8724767E-002  0.2460688E+03  0.7818608E-02  0.1115838E+00
         21   -1    0    0  501  502  0.00000000000E+00  0.00000000000E+00  0.13405489439E+03  0.13405489439E+03  0.00000000000E+00 0.  1.
         21   -1    0    0  502  503 -0.00000000000E+00 -0.00000000000E+00 -0.55376201998E+03  0.55376201998E+03  0.00000000000E+00 0.  1.
         -6    2    1    2    0  503 -0.14512043126E+03 -0.10037315048E+03 -0.35765303791E+03  0.43404421722E+03  0.17130084083E+03 0.  0.
        -24    2    3    3    0    0 -0.44230901812E+02 -0.42579598403E+01 -0.21249696215E+03  0.23277523463E+03  0.83993142786E+02 0.  0.
          6    2    1    2  501    0  0.14512043126E+03  0.10037315048E+03 -0.62054087684E+02  0.25377269715E+03  0.17150849283E+03 0.  0.
         24    2    5    5    0    0  0.17155128561E+02  0.56652041784E+02 -0.65868150737E+02  0.11840914549E+03  0.78602545626E+02 0.  0.
          5    1    5    5  501    0  0.12796530270E+03  0.43721108696E+02  0.38140630527E+01  0.13536355166E+03  0.47000000000E+01 0. -1.
        -11    1    6    6    0    0  0.17256146095E+02  0.75336105311E+02 -0.62561155848E+02  0.99434408343E+02  0.00000000000E+00 0.  1.
         12    1    6    6    0    0 -0.10101753318E+00 -0.18684063527E+02 -0.33069948887E+01  0.18974737143E+02  0.00000000000E+00 0. -1.
         -5    1    3    3    0  503 -0.10088952945E+03 -0.96115190639E+02 -0.14515607575E+03  0.20126898259E+03  0.47000000000E+01 0.  1.
         11    1    4    4    0    0 -0.13082096046E+02 -0.38983084127E+02 -0.56010539092E+02  0.69483829589E+02  0.00000000000E+00 0. -1.
        -12    1    4    4    0    0 -0.31148805767E+02  0.34725124287E+02 -0.15648642306E+03  0.16329140504E+03  0.00000000000E+00 0.  1.
</event>
<event>
12    1  0.8724767E-002  0.1898854E+03  0.7818608E-02  0.1158799E+00
         21   -1    0    0  501  502  0.00000000000E+00  0.00000000000E+00  0.62952513528E+03  0.62952513528E+03  0.00000000000E+00 0.  1.
         21   -1    0    0  502  503 -0.00000000000E+00 -0.00000000000E+00 -0.90846199634E+02  0.90846199634E+02  0.00000000000E+00 0.  1.
         -6    2    1    2    0  503  0.34661082988E+02 -0.71192682642E+02  0.48913298335E+02  0.19508395823E+03  0.17145101712E+03 0.  0.
        -24    2    3    3    0    0 -0.38206346175E+02 -0.68846409284E+01  0.58726152791E+01  0.88689518247E+02  0.79524963803E+02 0.  0.
          6    2    1    2  501    0 -0.34661082988E+02  0.71192682642E+02  0.48976563731E+03  0.52528737668E+03  0.17258812206E+03 0.  0.
         24    2    5    5    0    0  0.80457005397E+01  0.87866200144E+02  0.44633996031E+03  0.46196475064E+03  0.80042915014E+02 0.  0.
          5    1    5    5  501    0 -0.42706783528E+02 -0.16673517501E+02  0.43425677000E+02  0.63322626036E+02  0.47000000000E+01 0. -1.
        -11    1    6    6    0    0  0.35823215869E+02  0.22556865202E+02  0.24140314332E+03  0.24508690820E+03  0.00000000000E+00 0.  1.
         12    1    6    6    0    0 -0.27777515329E+02  0.65309334942E+02  0.20493681699E+03  0.21687784245E+03  0.00000000000E+00 0. -1.
         -5    1    3    3    0  503  0.72867429163E+02 -0.64308041714E+02  0.43040683056E+02  0.10639443999E+03  0.47000000000E+01 0.  1.
         13    1    4    4    0    0  0.11166315545E+02  0.52356566290E+01  0.29985281575E+02  0.32422458487E+02  0.00000000000E+00 0. -1.
        -14    1    4    4    0    0 -0.49372661719E+02 -0.12120297557E+02 -0.24112666296E+02  0.56267059760E+02  0.00000000000E+00 0.  1.
</event>
<event>
12    1  0.8724767E-002  0.1875612E+03  0.7818608E-02  0.1160864E+00
         21   -1    0    0  501  502  0.00000000000E+00  0.00000000000E+00  0.10122904439E+04  0.10122904439E+04  0.00000000000E+00 0.  1.
         21   -1    0    0  502  503 -0.00000000000E+00 -0.00000000000E+00 -0.35600565862E+02  0.35600565862E+02  0.00000000000E+00 0.  1.
         -6    2    1    2    0  503 -0.71580511375E+02 -0.11633636955E+01  0.57501505870E+03  0.60458313628E+03  0.17249152998E+03 0.  0.
        -24    2    3    3    0    0  0.18095518663E+02  0.34056800626E+02  0.24202919989E+03  0.25790760713E+03  0.80317412520E+02 0.  0.
          6    2    1    2  501    0  0.71580511375E+02  0.11633636955E+01  0.40167481937E+03  0.44330787352E+03  0.17336114669E+03 0.  0.
         24    2    5    5    0    0  0.10437034232E+03 -0.56660882110E+01  0.38252964158E+03  0.40444346487E+03  0.79500419388E+02 0.  0.
          5    1    5    5  501    0 -0.32789830942E+02  0.68294519065E+01  0.19145177793E+02  0.38864408644E+02  0.47000000000E+01 0. -1.
        -11    1    6    6    0    0  0.44595406103E+02  0.31351802746E+02  0.23177545833E+03  0.23809987162E+03  0.00000000000E+00 0.  1.
         12    1    6    6    0    0  0.59774936214E+02 -0.37017890957E+02  0.15075418325E+03  0.16634359325E+03  0.00000000000E+00 0. -1.
         -5    1    3    3    0  503 -0.89676030038E+02 -0.35220164322E+02  0.33298585881E+03  0.34667552914E+03  0.47000000000E+01 0.  1.
         13    1    4    4    0    0  0.36677858401E+02  0.41793002707E+00  0.18835902324E+03  0.19189726835E+03  0.00000000000E+00 0. -1.
        -14    1    4    4    0    0 -0.18582339739E+02  0.33638870599E+02  0.53670176645E+02  0.66010338785E+02  0.00000000000E+00 0.  1.
</event>
<event>
12    1  0.8724767E-002  0.1835716E+03  0.7818608E-02  0.1164683E+00
         21   -1    0    0  501  502  0.00000000000E+00  0.00000000000E+00  0.32208472338E+03  0.32208472338E+03  0.00000000000E+00 0. -1.
         21   -1    0    0  502  503 -0.00000000000E+00 -0.00000000000E+00 -0.25885407380E+03  0.25885407380E+03  0.00000000000E+00 0. -1.
         -6    2    1    2    0  503  0.20751100894E+02 -0.57296114172E+02 -0.19306147515E+03  0.26640430037E+03  0.17316196229E+03 0.  0.
        -24    2    3    3    0    0  0.16272837588E+02 -0.10269879951E+03 -0.17173174543E+03  0.21582262337E+03  0.79219717898E+02 0.  0.
          6    2    1    2  501    0 -0.20751100894E+02  0.57296114172E+02  0.25629212473E+03  0.31453449681E+03  0.17185122519E+03 0.  0.
         24    2    5    5    0    0  0.31094584274E+01  0.63517611262E+01  0.24305196069E+03  0.25655134976E+03  0.81818860081E+02 0.  0.
          5    1    5    5  501    0 -0.23860559322E+02  0.50944353046E+02  0.13240164033E+02  0.57983147052E+02  0.47000000000E+01 0. -1.
        -11    1    6    6    0    0 -0.38991914196E+02  0.69975504276E+01  0.10517427426E+03  0.11238755736E+03  0.00000000000E+00 0.  1.
         12    1    6    6    0    0  0.42101372624E+02 -0.64578930141E+00  0.13787768644E+03  0.14416379240E+03  0.00000000000E+00 0. -1.
         -5    1    3    3    0  503  0.44782633058E+01  0.45402685342E+02 -0.21329729714E+02  0.50581677001E+02  0.47000000000E+01 0.  1.
         11    1    4    4    0    0  0.45906153053E+00 -0.21269936389E+02 -0.11099015422E+03  0.11301077499E+03  0.00000000000E+00 0. -1.
        -12    1    4    4    0    0  0.15813776058E+02 -0.81428863126E+02 -0.60741591217E+02  0.10281184838E+03  0.00000000000E+00 0.  1.
</event>
<event>
12    1  0.8724767E-002  0.1828182E+03  0.7818608E-02  0.1165515E+00
         21   -1    0    0  501  502  0.00000000000E+00  0.00000000000E+00  0.49344216116E+02  0.49344216116E+02  0.00000000000E+00 0.  1.
         21   -1    0    0  502  503 -0.00000000000E+00 -0.00000000000E+00 -0.10547260512E+04  0.10547260512E+04  0.00000000000E+00 0.  1.
         -6    2    1    2    0  503 -0.36091560193E+02 -0.48723476296E+02 -0.83416655103E+03  0.85359639603E+03  0.17063526773E+03 0.  0.
        -24    2    3    3    0    0  0.21337183833E+02  0.11360532468E+02 -0.58809662938E+03  0.59382602610E+03  0.78659816160E+02 0.  0.
          6    2    1    2  501    0  0.36091560193E+02  0.48723476296E+02 -0.17121528407E+03  0.25047387130E+03  0.17247002304E+03 0.  0.
         24    2    5    5    0    0 -0.65821352180E+01  0.12634717937E+02 -0.60512329224E+01  0.76047105723E+02  0.74455250101E+02 0.  0.
          5    1    5    5  501    0  0.42673695411E+02  0.36088758359E+02 -0.16516405115E+03  0.17442676558E+03  0.47000000000E+01 0. -1.
        -11    1    6    6    0    0  0.98480246410E+01  0.41461668763E+02 -0.40247587510E+01  0.42804815722E+02  0.00000000000E+00 0.  1.
         12    1    6    6    0    0 -0.16430159859E+02 -0.28826950827E+02 -0.20264741714E+01  0.33242290001E+02  0.00000000000E+00 0. -1.
         -5    1    3    3    0  503 -0.57428744026E+02 -0.60084008764E+02 -0.24606992165E+03  0.25977036993E+03  0.47000000000E+01 0.  1.
         11    1    4    4    0    0  0.19587232845E+02 -0.20451021955E+02 -0.82464431185E+02  0.87191091289E+02  0.00000000000E+00 0. -1.
        -12    1    4    4    0    0  0.17499509881E+01  0.31811554423E+02 -0.50563219819E+03  0.50663493481E+03  0.00000000000E+00 0.  1.
</event>
<event>
12    1  0.8724767E-002  0.1877057E+03  0.7818608E-02  0.1160878E+00
         21   -1    0    0  503  502  0.00000000000E+00  0.00000000000E+00  0.19818725910E+03  0.19818725910E+03  0.00000000000E+00 0. -1.
         21   -1    0    0  501  503 -0.00000000000E+00 -0.00000000000E+00 -0.20762414142E+03  0.20762414142E+03  0.00000000000E+00 0. -1.
          6    2    1    2  501    0 -0.50558635189E+02  0.56154335029E+02 -0.83396941417E+02  0.20539833029E+03  0.17182531627E+03 0.  0.
         24    2    3    3    0    0  0.11394692418E+02 -0.26391798153E+02 -0.42885779466E+02  0.94423904641E+02  0.79058950551E+02 0.  0.
         -6    2    1    2    0  502  0.50558635189E+02 -0.56154335029E+02  0.73960059092E+02  0.20041307023E+03  0.17025223477E+03 0.  0.
        -24    2    5    5    0    0  0.76730178495E+02 -0.75139910051E+02  0.16980483404E+02  0.13473077594E+03  0.79564557403E+02 0.  0.
          5    1    3    3  501    0 -0.61953327607E+02  0.82546133182E+02 -0.40511161950E+02  0.11097442565E+03  0.47000000000E+01 0. -1.
        -11    1    4    4    0    0  0.11654603721E+02  0.20067082065E+02  0.88979924589E+01  0.24853407016E+02  0.00000000000E+00 0.  1.
         12    1    4    4    0    0 -0.25991130239E+00 -0.46458880218E+02 -0.51783771925E+02  0.69570497625E+02  0.00000000000E+00 0. -1.
         -5    1    5    5    0  502 -0.26171543306E+02  0.18985575023E+02  0.56979575688E+02  0.65682294293E+02  0.47000000000E+01 0.  1.
         13    1    6    6    0    0  0.14582624349E+02  0.36952095535E+01  0.29944995507E+02  0.33511345279E+02  0.00000000000E+00 0. -1.
        -14    1    6    6    0    0  0.62147554146E+02 -0.78835119605E+02 -0.12964512103E+02  0.10121943066E+03  0.00000000000E+00 0.  1.
</event>
<event>
12    1  0.8724767E-002  0.2114584E+03  0.7818608E-02  0.1140642E+00
         21   -1    0    0  503  502  0.00000000000E+00  0.00000000000E+00  0.92425100240E+02  0.92425100240E+02  0.00000000000E+00 0. -1.
         21   -1    0    0  501  503 -0.00000000000E+00 -0.00000000000E+00 -0.49288902518E+03  0.49288902518E+03  0.00000000000E+00 0. -1.
          6    2    1    2  501    0 -0.70057717564E+02  0.10087199250E+03 -0.15458042026E+03  0.26100971899E+03  0.17072704654E+03 0.  0.
         24    2    3    3    0    0  0.81170882152E+01  0.54106571910E+02 -0.32720324114E+02  0.10879185587E+03  0.88156905845E+02 0.  0.
         -6    2    1    2    0  502  0.70057717564E+02 -0.10087199250E+03 -0.24588350468E+03  0.32430440643E+03  0.17213775732E+03 0.  0.
        -24    2    5    5    0    0  0.38540620684E+02 -0.38923785526E+02 -0.23485122568E+03  0.25377278996E+03  0.79025883091E+02 0.  0.
          5    1    3    3  501    0 -0.78174805779E+02  0.46765420585E+02 -0.12186009614E+03  0.15221786312E+03  0.47000000000E+01 0. -1.
        -13    1    4    4    0    0  0.11344844403E+02 -0.50608283355E+01 -0.46352797921E+02  0.47988533559E+02  0.00000000000E+00 0.  1.
         14    1    4    4    0    0 -0.32277561876E+01  0.59167400245E+02  0.13632473807E+02  0.60803322310E+02  0.00000000000E+00 0. -1.
         -5    1    5    5    0  502  0.31517096880E+02 -0.61948206969E+02 -0.11032279007E+02  0.70531616475E+02  0.47000000000E+01 0.  1.
         11    1    6    6    0    0  0.38145783014E+02 -0.59879117991E+02 -0.14420232153E+03  0.16073244560E+03  0.00000000000E+00 0. -1.
        -12    1    6    6    0    0  0.39483767022E+00  0.20955332465E+02 -0.90648904149E+02  0.93040344362E+02  0.00000000000E+00 0.  1.
</event>
<event>
12    1  0.8724767E-002  0.1792076E+03  0.7818608E-02  0.1169291E+00
         21   -1    0    0  501  502  0.00000000000E+00  0.00000000000E+00  0.23889147861E+03  0.23889147861E+03  0.00000000000E+00 0. -1.
         21   -1    0    0  502  503 -0.00000000000E+00 -0.00000000000E+00 -0.21348660018E+03  0.21348660018E+03  0.00000000000E+00 0. -1.
         -6    2    1    2    0  503 -0.36331770975E+02 -0.17598051401E+02 -0.12675915170E+03  0.21950685525E+03  0.17460151193E+03 0.  0.
        -24    2    3    3    0    0 -0.22463905177E+02 -0.74524595560E+02 -0.42077156079E+02  0.11642397833E+03  0.75667121579E+02 0.  0.
          6    2    1    2  501    0  0.36331770975E+02  0.17598051401E+02  0.15216403012E+03  0.23287122354E+03  0.17159669488E+03 0.  0.
         24    2    5    5    0    0  0.47740605041E+02  0.24786908630E+02  0.18270997635E+02  0.98218799453E+02  0.80122075625E+02 0.  0.
          5    1    5    5  501    0 -0.11408834065E+02 -0.71888572285E+01  0.13389303249E+03  0.13465242408E+03  0.47000000000E+01 0. -1.
        -13    1    6    6    0    0  0.82456572627E+01 -0.17708565574E+02 -0.20597255219E+02  0.28387164017E+02  0.00000000000E+00 0.  1.
         14    1    6    6    0    0  0.39494947778E+02  0.42495474204E+02  0.38868252854E+02  0.69831635436E+02  0.00000000000E+00 0. -1.
         -5    1    3    3    0  503 -0.13867865798E+02  0.56926544159E+02 -0.84681995619E+02  0.10308287692E+03  0.47000000000E+01 0.  1.
         13    1    4    4    0    0 -0.71681716107E+00 -0.20869976295E+02 -0.53484453285E+02  0.57416517489E+02  0.00000000000E+00 0. -1.
        -14    1    4    4    0    0 -0.21747088016E+02 -0.53654619266E+02  0.11407297206E+02  0.59007460844E+02  0.00000000000E+00 0.  1.
</event>
<event>
12    1  0.8724767E-002  0.1745323E+03  0.7818608E-02  0.1173551E+00
         21   -1    0    0  503  502  0.00000000000E+00  0.00000000000E+00  0.28044596484E+03  0.28044596484E+03  0.00000000000E+00 0. -1.
         21   -1    0    0  501  503 -0.00000000000E+00 -0.00000000000E+00 -0.23999658049E+03  0.23999658049E+03  0.00000000000E+00 0. -1.
          6    2    1    2  501    0 -0.35524983633E+02 -0.26582977777E+01 -0.17296859623E+03  0.24474568452E+03  0.16944976779E+03 0.  0.
         24    2    3    3    0    0  0.11587967443E+02 -0.30238262809E+02 -0.16797920157E+03  0.18972506394E+03  0.82036298058E+02 0.  0.
         -6    2    1    2    0  502  0.35524983633E+02  0.26582977777E+01  0.21341798058E+03  0.27569686081E+03  0.17085793402E+03 0.  0.
        -24    2    5    5    0    0  0.77088196080E+01  0.44281135806E+02  0.20679609398E+03  0.22498060101E+03  0.76363613442E+02 0.  0.
          5    1    3    3  501    0 -0.47112951076E+02  0.27579965031E+02 -0.49893946538E+01  0.55020620582E+02  0.47000000000E+01 0. -1.
        -11    1    4    4    0    0 -0.74312357168E+01  0.26887409758E+02 -0.57286554571E+02  0.63717386971E+02  0.00000000000E+00 0.  1.
         12    1    4    4    0    0  0.19019203160E+02 -0.57125672567E+02 -0.11069264700E+03  0.12600767697E+03  0.00000000000E+00 0. -1.
         -5    1    5    5    0  502  0.27816164025E+02 -0.41622838028E+02  0.66218866023E+01  0.50716259806E+02  0.47000000000E+01 0.  1.
         11    1    6    6    0    0  0.35071886505E+02  0.33917070672E+02  0.71522807741E+02  0.86578963572E+02  0.00000000000E+00 0. -1.
        -12    1    6    6    0    0 -0.27363066897E+02  0.10364065134E+02  0.13527328624E+03  0.13840163744E+03  0.00000000000E+00 0.  1.
</event>
<event>
12    1  0.8724767E-002  0.2074236E+03  0.7818608E-02  0.1143762E+00
         21   -1    0    0  503  502  0.00000000000E+00  0.00000000000E+00  0.11926608860E+03  0.11926608860E+03  0.00000000000E+00 0.  1.
         21   -1    0    0  501  503 -0.00000000000E+00 -0.00000000000E+00 -0.39407718680E+03  0.39407718680E+03  0.00000000000E+00 0. -1.
          6    2    1    2  501    0 -0.11036576842E+03  0.36141419736E+02 -0.61208269204E+02  0.21560058232E+03  0.17102734816E+03 0.  0.
         24    2    3    3    0    0 -0.73085463851E+02  0.85046557914E+02 -0.68314423760E+02  0.15351901435E+03  0.79541342921E+02 0.  0.
         -6    2    1    2    0  502  0.11036576842E+03 -0.36141419736E+02 -0.21360282900E+03  0.29774269308E+03  0.17186546385E+03 0.  0.
        -24    2    5    5    0    0  0.10140759170E+03 -0.33343752642E+02 -0.23697429750E+03  0.27212255624E+03  0.80613661656E+02 0.  0.
          5    1    3    3  501    0 -0.37280304569E+02 -0.48905138178E+02  0.71061545557E+01  0.62081567969E+02  0.47000000000E+01 0. -1.
        -11    1    4    4    0    0 -0.49858623780E+02  0.37490671651E+02 -0.77831131430E+02  0.99745264779E+02  0.00000000000E+00 0.  1.
         12    1    4    4    0    0 -0.23226840071E+02  0.47555886263E+02  0.95167076703E+01  0.53773749570E+02  0.00000000000E+00 0. -1.
         -5    1    5    5    0  502  0.89581767169E+01 -0.27976670940E+01  0.23371468505E+02  0.25620136833E+02  0.47000000000E+01 0.  1.
         11    1    6    6    0    0  0.47430843698E+02  0.20020613637E+02 -0.13871606033E+03  0.14796166834E+03  0.00000000000E+00 0. -1.
        -12    1    6    6    0    0  0.53976748004E+02 -0.53364366279E+02 -0.98258237176E+02  0.12416088791E+03  0.00000000000E+00 0.  1.
</event>
<event>
12    1  0.8724767E-002  0.1818185E+03  0.7818608E-02  0.1166083E+00
         21   -1    0    0  503  502  0.00000000000E+00  0.00000000000E+00  0.31918754281E+03  0.31918754281E+03  0.00000000000E+00 0.  1.
         21   -1    0    0  501  503 -0.00000000000E+00 -0.00000000000E+00 -0.56425320557E+03  0.56425320557E+03  0.00000000000E+00 0.  1.
          6    2    1    2  501    0 -0.48821061518E+02 -0.34821139768E+02 -0.52168285075E+03  0.55241954409E+03  0.17151777778E+03 0.  0.
         24    2    3    3    0    0 -0.78139471694E+02 -0.55563303906E+02 -0.48543144239E+03  0.50117443547E+03  0.79618287680E+02 0.  0.
         -6    2    1    2    0  502  0.48821061518E+02  0.34821139768E+02  0.27661718800E+03  0.33102120430E+03  0.17164486935E+03 0.  0.
        -24    2    5    5    0    0 -0.21919080999E+02 -0.31477476640E+01  0.98315707779E+02  0.13542132693E+03  0.90457741321E+02 0.  0.
          5    1    3    3  501    0  0.29318410176E+02  0.20742164138E+02 -0.36251408364E+02  0.51245108613E+02  0.47000000000E+01 0. -1.
        -11    1    4    4    0    0 -0.56801891352E+02 -0.36000197442E+02 -0.14868584750E+03  0.16318685708E+03  0.00000000000E+00 0.  1.
         12    1    4    4    0    0 -0.21337580342E+02 -0.19563106464E+02 -0.33674559489E+03  0.33798757840E+03  0.00000000000E+00 0. -1.
         -5    1    5    5    0  502  0.70740142518E+02  0.37968887432E+02  0.17830148022E+03  0.19559987737E+03  0.47000000000E+01 0.  1.
         13    1    6    6    0    0 -0.60972446447E+01 -0.68130252465E+00 -0.17479103591E+02  0.18524568220E+02  0.00000000000E+00 0. -1.
        -14    1    6    6    0    0 -0.15821836355E+02 -0.24664451393E+01  0.11579481137E+03  0.11689675871E+03  0.00000000000E+00 0.  1.
</event>
<event>
12    1  0.8724767E-002  0.2164551E+03  0.7818608E-02  0.1136608E+00
         21   -1    0    0  501  502  0.00000000000E+00  0.00000000000E+00  0.13196329294E+03  0.13196329294E+03  0.00000000000E+00 0. -1.
         21   -1    0    0  502  503 -0.00000000000E+00 -0.00000000000E+00 -0.43052647504E+03  0.43052647504E+03  0.00000000000E+00 0.  1.
         -6    2    1    2    0  503  0.12191985522E+03  0.46800229494E+02 -0.26748976345E+03  0.34409821887E+03  0.17262125624E+03 0.  0.
        -24    2    3    3    0    0  0.78337505444E+02  0.46735997999E+02 -0.65199374948E+02  0.13711291356E+03  0.78917515815E+02 0.  0.
          6    2    1    2  501    0 -0.12191985522E+03 -0.46800229494E+02 -0.31073418654E+02  0.21839154911E+03  0.17226316728E+03 0.  0.
         24    2    5    5    0    0 -0.97837382277E+02 -0.97816082128E+02 -0.53178292709E+02  0.15761903740E+03  0.53625468222E+02 0.  0.
          5    1    5    5  501    0 -0.24082472940E+02  0.51015852634E+02  0.22104874056E+02  0.60772511713E+02  0.47000000000E+01 0. -1.
        -13    1    6    6    0    0 -0.68560962589E+02 -0.55865270197E+02 -0.58727696777E+02  0.10616249985E+03  0.00000000000E+00 0.  1.
         14    1    6    6    0    0 -0.29276419688E+02 -0.41950811931E+02  0.55494040675E+01  0.51456537553E+02  0.00000000000E+00 0. -1.
         -5    1    3    3    0  503  0.43582349773E+02  0.64231495541E-01 -0.20229038850E+03  0.20698530532E+03  0.47000000000E+01 0.  1.
         11    1    4    4    0    0  0.40862447924E+02 -0.17874547624E+02 -0.34374321752E+02  0.56310150941E+02  0.00000000000E+00 0. -1.
        -12    1    4    4    0    0  0.37475057520E+02  0.64610545623E+02 -0.30825053196E+02  0.80802762616E+02  0.00000000000E+00 0.  1.
</event>
<event>
12    1  0.8724767E-002  0.2247102E+03  0.7818608E-02  0.1130638E+00
         21   -1    0    0  503  502  0.00000000000E+00  0.00000000000E+00  0.31214832158E+03  0.31214832158E+03  0.00000000000E+00 0. -1.
         21   -1    0    0  501  503 -0.00000000000E+00 -0.00000000000E+00 -0.22154955234E+03  0.22154955234E+03  0.00000000000E+00 0.  1.
          6    2    1    2  501    0  0.65058839817E+02  0.12733405206E+03 -0.94407846516E+02  0.24262722575E+03  0.17178042886E+03 0.  0.
         24    2    3    3    0    0  0.73543052550E+02  0.12891411538E+03 -0.12566545008E+03  0.20986129457E+03  0.78883001278E+02 0.  0.
         -6    2    1    2    0  502 -0.65058839817E+02 -0.12733405206E+03  0.18500661576E+03  0.29107064817E+03  0.17334376510E+03 0.  0.
        -24    2    5    5    0    0 -0.42168505863E+02 -0.15236466246E+03  0.18720854903E+03  0.25675684110E+03  0.76706332007E+02 0.  0.
          5    1    3    3  501    0 -0.84842127330E+01 -0.15800633220E+01  0.31257603565E+02  0.32765931185E+02  0.47000000000E+01 0. -1.
        -11    1    4    4    0    0  0.39837743785E+02  0.64686426875E+02 -0.14834008064E+02  0.77404311553E+02  0.00000000000E+00 0.  1.
         12    1    4    4    0    0  0.33705308765E+02  0.64227688507E+02 -0.11083144202E+03  0.13245698301E+03  0.00000000000E+00 0. -1.
         -5    1    5    5    0  502 -0.22890333954E+02  0.25030610398E+02 -0.22019332689E+01  0.34313807068E+02  0.47000000000E+01 0.  1.
         13    1    6    6    0    0  0.20769647365E+02 -0.59949853139E+02  0.76850387182E+02  0.99656134548E+02  0.00000000000E+00 0. -1.
        -14    1    6    6    0    0 -0.62938153228E+02 -0.92414809318E+02  0.11035816185E+03  0.15710070655E+03  0.00000000000E+00 0.  1.
</event>
<event>
12    1  0.8724767E-002  0.1807488E+03  0.7818608E-02  0.1167238E+00
         21   -1    0    0  501  502  0.00000000000E+00  0.00000000000E+00  0.13869119162E+03  0.13869119162E+03  0.00000000000E+00 0.  1.
         21   -1    0    0  502  503 -0.00000000000E+00 -0.00000000000E+00 -0.34246266560E+03  0.34246266560E+03  0.00000000000E+00 0.  1.
         -6    2    1    2    0  503 -0.46105518059E+02  0.28510767375E+02 -0.23695886871E+03  0.29802623959E+03  0.17242839491E+03 0.  0.
        -24    2    3    3    0    0 -0.89865147764E+02  0.34502548849E+02 -0.21325432198E+03  0.24767942070E+03  0.81249731888E+02 0.  0.
          6    2    1    2  501    0  0.46105518059E+02 -0.28510767375E+02  0.33187394738E+02  0.18312761763E+03  0.17174323427E+03 0.  0.
         24    2    5    5    0    0  0.21868463858E+02  0.47636062768E+02  0.67024882337E+01  0.98810864784E+02  0.83493948663E+02 0.  0.
          5    1    5    5  501    0  0.24237054202E+02 -0.76146830144E+02  0.26484906505E+02  0.84316752842E+02  0.47000000000E+01 0. -1.
        -11    1    6    6    0    0  0.33422557738E+02  0.19321084336E+02  0.38620460439E+02  0.54606882626E+02  0.00000000000E+00 0.  1.
         12    1    6    6    0    0 -0.11554093880E+02  0.28314978432E+02 -0.31917972205E+02  0.44203982158E+02  0.00000000000E+00 0. -1.
         -5    1    3    3    0  503  0.43759629704E+02 -0.59917814737E+01 -0.23704546728E+02  0.50346818893E+02  0.47000000000E+01 0.  1.
         13    1    4    4    0    0 -0.76950121473E+02  0.15122004026E+02 -0.78619640536E+02  0.11104523438E+03  0.00000000000E+00 0. -1.
        -14    1    4    4    0    0 -0.12915026291E+02  0.19380544824E+02 -0.13463468145E+03  0.13663418632E+03  0.00000000000E+00 0.  1.
</event>
<event>
12    1  0.8724767E-002  0.2101729E+03  0.7818608E-02  0.1141617E+00
         21   -1    0    0  501  502  0.00000000000E+00  0.00000000000E+00  0.12893815121E+03  0.12893815121E+03  0.00000000000E+00 0.  1.
         21   -1    0    0  502  503 -0.00000000000E+00 -0.00000000000E+00 -0.47657237439E+03  0.47657237439E+03  0.00000000000E+00 0.  1.
         -6    2    1    2    0  503  0.11787931863E+03  0.14647232266E+02 -0.33554928915E+03  0.39593681682E+03  0.17338558847E+03 0.  0.
        -24    2    3    3    0    0 -0.86774557315E+01 -0.12876768300E+02 -0.13062429987E+03  0.15346923347E+03  0.79050543989E+02 0.  0.
          6    2    1    2  501    0 -0.11787931863E+03 -0.14647232266E+02 -0.12084934040E+02  0.20957370879E+03  0.17223535818E+03 0.  0.
         24    2    5    5    0    0 -0.16011991650E+02  0.29390572668E+02 -0.39830330667E+02  0.95082758906E+02  0.79586972313E+02 0.  0.
          5    1    5    5  501    0 -0.10186732698E+03 -0.44037804934E+02  0.27745396626E+02  0.11449094988E+03  0.47000000000E+01 0. -1.
        -11    1    6    6    0    0 -0.42634404549E+02  0.38414931766E+02 -0.32825114654E+02  0.66112688539E+02  0.00000000000E+00 0.  1.
         12    1    6    6    0    0  0.26622412899E+02 -0.90243590983E+01 -0.70052160123E+01  0.28970070367E+02  0.00000000000E+00 0. -1.
         -5    1    3    3    0  503  0.12655677437E+03  0.27524000566E+02 -0.20492498928E+03  0.24246758335E+03  0.47000000000E+01 0.  1.
         11    1    4    4    0    0 -0.10298569367E+02  0.24146099539E+02 -0.11401484575E+02  0.28619722298E+02  0.00000000000E+00 0. -1.
        -12    1    4    4    0    0  0.16211136355E+01 -0.37022867838E+02 -0.11922281529E+03  0.12484951117E+03  0.00000000000E+00 0.  1.
</event>
<event>
12    1  0.8724767E-002  0.1744311E+03  0.7818608E-02  0.1173336E+00
         21   -1    0    0  501  502  0.00000000000E+00  0.00000000000E+00  0.13774618088E+03  0.13774618088E+03  0.00000000000E+00 0. -1.
         21   -1    0    0  502  503 -0.00000000000E+00 -0.00000000000E+00 -0.22314314818E+03  0.22314314818E+03  0.00000000000E+00 0. -1.
         -6    2    1    2    0  503  0.29060192784E+02 -0.68941453401E+01 -0.23911957801E+02  0.17593906025E+03  0.17172870218E+03 0.  0.
        -24    2    3    3    0    0  0.39396964404E+02 -0.32127715137E+02  0.43196507758E+02  0.10334968058E+03  0.78936096361E+02 0.  0.
          6    2    1    2  501    0 -0.29060192784E+02  0.68941453401E+01 -0.61485009502E+02  0.18495026881E+03  0.17185508865E+03 0.  0.
         24    2    5    5    0    0 -0.80473168407E+02  0.22657263404E+02 -0.17733407007E+02  0.11546600675E+03  0.77644333805E+02 0.  0.
          5    1    5    5  501    0  0.51412975623E+02 -0.15763118063E+02 -0.43751602495E+02  0.69484262063E+02  0.47000000000E+01 0. -1.
        -13    1    6    6    0    0 -0.24741646342E+02  0.35042361656E+02  0.19692907049E+02  0.47200919082E+02  0.00000000000E+00 0.  1.
         14    1    6    6    0    0 -0.55731522065E+02 -0.12385098252E+02 -0.37426314056E+02  0.68265087667E+02  0.00000000000E+00 0. -1.
         -5    1    3    3    0  503 -0.10336771620E+02  0.25233569796E+02 -0.67108465559E+02  0.72589379677E+02  0.47000000000E+01 0.  1.
         11    1    4    4    0    0 -0.22767123555E+02 -0.93260398148E+00  0.19128817573E+02  0.29751022283E+02  0.00000000000E+00 0. -1.
        -12    1    4    4    0    0  0.62164087959E+02 -0.31195111155E+02  0.24067690186E+02  0.73598658294E+02  0.00000000000E+00 0.  1.
</event>
<event>
12    1  0.8724767E-002  0.2637012E+03  0.7818608E-02  0.1105483E+00
         21   -1    0    0  503  502  0.00000000000E+00  0.00000000000E+00  0.17503573963E+04  0.17503573963E+04  0.00000000000E+00 0. -1.
         21   -1    0    0  501  503 -0.00000000000E+00 -0.00000000000E+00 -0.11170981059E+03  0.11170981059E+03  0.00000000000E+00 0. -1.
          6    2    1    2  501    0  0.95694632219E+02  0.16933995996E+03  0.71129786108E+02  0.27312593370E+03  0.17805854237E+03 0.  0.
         24    2    3    3    0    0  0.38713058270E+02  0.65531755049E+01  0.50928559393E+01  0.88384484345E+02  0.79020471408E+02 0.  0.
         -6    2    1    2    0  502 -0.95694632219E+02 -0.16933995996E+03  0.15675177996E+04  0.15889412732E+04  0.17259441737E+03 0.  0.
        -24    2    5    5    0    0 -0.52866758551E+02 -0.16055071079E+03  0.87274527032E+03  0.89277862329E+03  0.82449611619E+02 0.  0.
          5    1    3    3  501    0  0.56981573950E+02  0.16278678445E+03  0.66036930169E+02  0.18474144935E+03  0.47000000000E+01 0. -1.
        -13    1    4    4    0    0  0.88905411610E+00  0.19019500744E+02  0.34140627047E+02  0.39091101813E+02  0.00000000000E+00 0.  1.
         14    1    4    4    0    0  0.37824004154E+02 -0.12466325239E+02 -0.29047771108E+02  0.49293382533E+02  0.00000000000E+00 0. -1.
         -5    1    5    5    0  502 -0.42827873669E+02 -0.87892491712E+01  0.69477252927E+03  0.69616264988E+03  0.47000000000E+01 0.  1.
         11    1    6    6    0    0 -0.51389566482E+02 -0.90310697488E+02  0.67441057385E+03  0.68236832557E+03  0.00000000000E+00 0. -1.
        -12    1    6    6    0    0 -0.14771920689E+01 -0.70240013297E+02  0.19833469647E+03  0.21041029772E+03  0.00000000000E+00 0.  1.
</event>
<event>
12    1  0.8724767E-002  0.2881566E+03  0.7818608E-02  0.1091338E+00
         21   -1    0    0  503  502  0.00000000000E+00  0.00000000000E+00  0.36858217380E+03  0.36858217380E+03  0.00000000000E+00 0.  1.
         21   -1    0    0  501  503 -0.00000000000E+00 -0.00000000000E+00 -0.66886576921E+03  0.66886576921E+03  0.00000000000E+00 0. -1.
          6    2    1    2  501    0 -0.90053745466E+02  0.21162255319E+03 -0.57262056389E+03  0.64096133270E+03  0.17333014088E+03 0.  0.
         24    2    3    3    0    0 -0.90821899319E+02  0.14326910477E+03 -0.25377645817E+03  0.31483798529E+03  0.77109094702E+02 0.  0.
         -6    2    1    2    0  502  0.90053745466E+02 -0.21162255319E+03  0.27233696847E+03  0.39648661031E+03  0.17360998148E+03 0.  0.
        -24    2    5    5    0    0 -0.94918004193E+01 -0.98999667719E+02  0.17235768216E+03  0.21590095825E+03  0.83755744233E+02 0.  0.
          5    1    3    3  501    0  0.76815385312E+00  0.68353448415E+02 -0.31884410572E+03  0.32612334740E+03  0.47000000000E+01 0. -1.
        -13    1    4    4    0    0 -0.64754438763E+02  0.32933641866E+02 -0.10810415857E+03  0.13024696237E+03  0.00000000000E+00 0.  1.
         14    1    4    4    0    0 -0.26067460556E+02  0.11033546291E+03 -0.14567229960E+03  0.18459102292E+03  0.00000000000E+00 0. -1.
         -5    1    5    5    0  502  0.99545545885E+02 -0.11262288547E+03  0.99979286316E+02  0.18058565206E+03  0.47000000000E+01 0.  1.
         13    1    6    6    0    0  0.23269795703E+02 -0.25973110386E+01  0.12965279765E+02  0.26764302645E+02  0.00000000000E+00 0. -1.
        -14    1    6    6    0    0 -0.32761596122E+02 -0.96402356680E+02  0.15939240239E+03  0.18913665561E+03  0.00000000000E+00 0.  1.
</event>
<event>
12    1  0.8724767E-002  0.2482519E+03  0.7818608E-02  0.1114571E+00
         21   -1    0    0  501  502  0.00000000000E+00  0.00000000000E+00  0.88694064544E+02  0.88694064544E+02  0.00000000000E+00 0.  1.
         21   -1    0    0  502  503 -0.00000000000E+00 -0.00000000000E+00 -0.71631275207E+03  0.71631275207E+03  0.00000000000E+00 0.  1.
         -6    2    1    2    0  503  0.37311112161E+02  0.17491890198E+03 -0.23922708429E+03  0.34405450643E+03  0.17074883361E+03 0.  0.
        -24    2    3    3    0    0  0.45635533272E+02  0.55146231221E+02 -0.18441522004E+03  0.21198929864E+03  0.76202235126E+02 0.  0.
          6    2    1    2  501    0 -0.37311112161E+02 -0.17491890198E+03 -0.38839160325E+03  0.46095231019E+03  0.17216344977E+03 0.  0.
         24    2    5    5    0    0  0.22949175754E+01 -0.16542593385E+03 -0.20984926722E+03  0.27776331001E+03  0.75794031399E+02 0.  0.
          5    1    5    5  501    0 -0.39606029737E+02 -0.94929681310E+01 -0.17854233602E+03  0.18318900018E+03  0.47000000000E+01 0. -1.
        -11    1    6    6    0    0  0.20555991156E+02 -0.13911823541E+03 -0.19954859510E+03  0.24412307143E+03  0.00000000000E+00 0.  1.
         12    1    6    6    0    0 -0.18261073581E+02 -0.26307698438E+02 -0.10300672118E+02  0.33640238577E+02  0.00000000000E+00 0. -1.
         -5    1    3    3    0  503 -0.83244211111E+01  0.11977267076E+03 -0.54811864243E+02  0.13206520779E+03  0.47000000000E+01 0.  1.
         13    1    4    4    0    0 -0.85340723055E+01  0.78450826545E+01  0.23756010494E+01  0.11832970562E+02  0.00000000000E+00 0. -1.
        -14    1    4    4    0    0  0.54169605578E+02  0.47301148567E+02 -0.18679082109E+03  0.20015632807E+03  0.00000000000E+00 0.  1.
</event>
<event>
12    1  0.8724767E-002  0.1842006E+03  0.7818608E-02  0.1163816E+00
         21   -1    0    0  501  502  0.00000000000E+00  0.00000000000E+00  0.13183803052E+04  0.13183803052E+04  0.00000000000E+00 0. -1.
         21   -1    0    0  502  503 -0.00000000000E+00 -0.00000000000E+00 -0.96985268778E+02  0.96985268778E+02  0.00000000000E+00 0. -1.
         -6    2    1    2    0  503  0.16786230336E+02 -0.63438650131E+02  0.41227693369E+01  0.18424670083E+03  0.17211510591E+03 0.  0.
        -24    2    3    3    0    0 -0.50008835710E+02 -0.30257439213E+01  0.71747916878E+01  0.94009763135E+02  0.79223223575E+02 0.  0.
          6    2    1    2  501    0 -0.16786230336E+02  0.63438650131E+02  0.12172722671E+04  0.12311188732E+04  0.17203391449E+03 0.  0.
         24    2    5    5    0    0  0.28945761260E+02 -0.20579108225E+02  0.51041498080E+03  0.51780287588E+03  0.79592768870E+02 0.  0.
          5    1    5    5  501    0 -0.45731991595E+02  0.84017758356E+02  0.70685728631E+03  0.71331599728E+03  0.47000000000E+01 0. -1.
        -11    1    6    6    0    0  0.20987663803E+02 -0.36369855066E+02  0.12272718893E+03  0.12971203218E+03  0.00000000000E+00 0.  1.
         12    1    6    6    0    0  0.79580974564E+01  0.15790746840E+02  0.38768779187E+03  0.38809084370E+03  0.00000000000E+00 0. -1.
         -5    1    3    3    0  503  0.66795066046E+02 -0.60412906210E+02 -0.30520223509E+01  0.90236937699E+02  0.47000000000E+01 0.  1.
         13    1    4    4    0    0  0.11476231502E+02 -0.47066486010E+01 -0.22519054992E+02  0.25709225354E+02  0.00000000000E+00 0. -1.
        -14    1    4    4    0    0 -0.61485067212E+02  0.16809046797E+01  0.29693846680E+02  0.68300537782E+02  0.00000000000E+00 0.  1.
</event>
<event>
12    1  0.8724767E-002  0.6261146E+03  0.7818608E-02  0.9852693E-01
         21   -1    0    0  501  502  0.00000000000E+00  0.00000000000E+00  0.17613105373E+04  0.17613105373E+04  0.00000000000E+00 0.  1.
         21   -1    0    0  502  503 -0.00000000000E+00 -0.00000000000E+00 -0.25829606020E+03  0.25829606020E+03  0.00000000000E+00 0. -1.
         -6    2    1    2    0  503 -0.37045538459E+03 -0.47436276226E+03  0.37587974155E+03  0.73027741587E+03  0.17251754067E+03 0.  0.
        -24    2    3    3    0    0 -0.70559143477E+02 -0.10420902464E+03  0.84782737628E+02  0.17196648046E+03  0.80908863908E+02 0.  0.
          6    2    1    2  501    0  0.37045538459E+03  0.47436276226E+03  0.11271347355E+04  0.12893291816E+04  0.17227827581E+03 0.  0.
         24    2    5    5    0    0  0.32913639962E+03  0.31960584266E+03  0.81199670566E+03  0.93578847596E+03  0.76699136300E+02 0.  0.
          5    1    5    5  501    0  0.41318984965E+02  0.15475691960E+03  0.31513802987E+03  0.35354070565E+03  0.47000000000E+01 0. -1.
        -11    1    6    6    0    0  0.14573567923E+03  0.12626195003E+03  0.41542970728E+03  0.45799870078E+03  0.00000000000E+00 0.  1.
         12    1    6    6    0    0  0.18340072040E+03  0.19334389263E+03  0.39656699838E+03  0.47778977518E+03  0.00000000000E+00 0. -1.
         -5    1    3    3    0  503 -0.29989624111E+03 -0.37015373762E+03  0.29109700392E+03  0.55831093541E+03  0.47000000000E+01 0.  1.
         11    1    4    4    0    0 -0.67385037746E+02 -0.47788732057E+02  0.18118759849E+02  0.84574202225E+02  0.00000000000E+00 0. -1.
        -12    1    4    4    0    0 -0.31741057308E+01 -0.56420292581E+02  0.66663977780E+02  0.87392278238E+02  0.00000000000E+00 0.  1.
</event>
<event>
12    1  0.8724767E-002  0.2244597E+03  0.7818608E-02  0.1130630E+00
         21   -1    0    0  503  502  0.00000000000E+00  0.00000000000E+00  0.64919822107E+02  0.64919822107E+02  0.00000000000E+00 0. -1.
         21   -1    0    0  501  503 -0.00000000000E+00 -0.00000000000E+00 -0.11888553434E+04  0.11888553434E+04  0.00000000000E+00 0. -1.
          6    2    1    2  501    0 -0.13039358261E+03  0.61375812427E+02 -0.93147815522E+03  0.95810306354E+03  0.17187335445E+03 0.  0.
         24    2    3    3    0    0 -0.12599697243E+03 -0.20357112162E+01 -0.50875237104E+03  0.53059922716E+03  0.82626773120E+02 0.  0.
         -6    2    1    2    0  502  0.13039358261E+03 -0.61375812427E+02 -0.19245736607E+03  0.29567210196E+03  0.17208334431E+03 0.  0.
        -24    2    5    5    0    0  0.93437347455E+02 -0.10604439744E+03 -0.16330552317E+03  0.23061085583E+03  0.80849989514E+02 0.  0.
          5    1    3    3  501    0 -0.43966101848E+01  0.63411523643E+02 -0.42272578418E+03  0.42750383638E+03  0.47000000000E+01 0. -1.
        -11    1    4    4    0    0 -0.81882981718E+02  0.25852304415E+02 -0.20283057240E+03  0.22025758883E+03  0.00000000000E+00 0.  1.
         12    1    4    4    0    0 -0.44113990710E+02 -0.27888015631E+02 -0.30592179864E+03  0.31034163832E+03  0.00000000000E+00 0. -1.
         -5    1    5    5    0  502  0.36956235158E+02  0.44668585008E+02 -0.29151842899E+02  0.65061246131E+02  0.47000000000E+01 0.  1.
         13    1    6    6    0    0  0.81027813863E+02 -0.33966542928E+02 -0.71785468173E+02  0.11345653837E+03  0.00000000000E+00 0. -1.
        -14    1    6    6    0    0  0.12409533592E+02 -0.72077854507E+02 -0.91520054995E+02  0.11715431746E+03  0.00000000000E+00 0.  1.
</event>
<event>
12    1  0.8724767E-002  0.1902372E+03  0.7818608E-02  0.1158977E+00
         21   -1    0    0  501  502  0.00000000000E+00  0.00000000000E+00  0.16182799893E+03  0.16182799893E+03  0.00000000000E+00 0. -1.
         21   -1    0    0  502  503 -0.00000000000E+00 -0.00000000000E+00 -0.24354179248E+03  0.24354179248E+03  0.00000000000E+00 0. -1.
         -6    2    1    2    0  503 -0.73106796459E+02 -0.35402011139E+02  0.22635098848E+02  0.18839309536E+03  0.16846870510E+03 0.  0.
        -24    2    3    3    0    0 -0.26807034586E+00 -0.68834164431E+02  0.26229846479E+01  0.10565396550E+03  0.80110338426E+02 0.  0.
          6    2    1    2  501    0  0.73106796459E+02  0.35402011139E+02 -0.10434889240E+03  0.21697669606E+03  0.17202409484E+03 0.  0.
         24    2    5    5    0    0 -0.26060328419E+02  0.26368763620E+02 -0.37319669645E+02  0.96848743770E+02  0.81317089319E+02 0.  0.
          5    1    5    5  501    0  0.99167124878E+02  0.90332475187E+01 -0.67029222753E+02  0.12012795228E+03  0.47000000000E+01 0. -1.
        -13    1    6    6    0    0 -0.63203504564E+01 -0.23078084725E+02 -0.36447549115E+02  0.43600099323E+02  0.00000000000E+00 0.  1.
         14    1    6    6    0    0 -0.19739977962E+02  0.49446848345E+02 -0.87212052974E+00  0.53248644447E+02  0.00000000000E+00 0. -1.
         -5    1    3    3    0  503 -0.72838726113E+02  0.33432153292E+02  0.20012114201E+02  0.82739129862E+02  0.47000000000E+01 0.  1.
         11    1    4    4    0    0 -0.32469438464E+02 -0.54714669657E+02  0.19647751759E+02  0.66588239645E+02  0.00000000000E+00 0. -1.
        -12    1    4    4    0    0  0.32201368118E+02 -0.14119494774E+02 -0.17024767111E+02  0.39065725855E+02  0.00000000000E+00 0.  1.
</event>
<event>
12    1  0.8724767E-002  0.2934973E+03  0.7818608E-02  0.1089148E+00
         21   -1    0    0  503  502  0.00000000000E+00  0.00000000000E+00  0.86731059610E+03  0.86731059610E+03  0.00000000000E+00 0. -1.
         21   -1    0    0  501  503 -0.00000000000E+00 -0.00000000000E+00 -0.13506698760E+03  0.13506698760E+03  0.00000000000E+00 0. -1.
          6    2    1    2  501    0 -0.21203006486E+03 -0.10376897680E+03  0.10476806337E+03  0.31163604651E+03  0.17440163254E+03 0.  0.
         24    2    3    3    0    0 -0.11873457165E+03 -0.31678529773E+02 -0.10077710298E+02  0.14697663034E+03  0.79994636484E+02 0.  0.
         -6    2    1    2    0  502  0.21203006486E+03  0.10376897680E+03  0.62747554514E+03  0.69074153719E+03  0.16635372704E+03 0.  0.
        -24    2    5    5    0    0  0.19830642177E+03  0.34835881604E+02  0.50526485361E+03  0.54968249594E+03  0.79494015436E+02 0.  0.
          5    1    3    3  501    0 -0.93295493211E+02 -0.72090447028E+02  0.11484577367E+03  0.16465941618E+03  0.47000000000E+01 0. -1.
        -13    1    4    4    0    0 -0.89626125335E+02 -0.18205512054E+02  0.29441719975E+02  0.96078602648E+02  0.00000000000E+00 0.  1.
         14    1    4    4    0    0 -0.29108446317E+02 -0.13473017720E+02 -0.39519430273E+02  0.50898027689E+02  0.00000000000E+00 0. -1.
         -5    1    5    5    0  502  0.13723643089E+02  0.68933095197E+02  0.12221069153E+03  0.14105904125E+03  0.47000000000E+01 0.  1.
         11    1    6    6    0    0  0.40157435109E+02  0.41708783868E+02  0.12342775158E+03  0.13633287243E+03  0.00000000000E+00 0. -1.
        -12    1    6    6    0    0  0.15814898667E+03 -0.68729022637E+01  0.38183710203E+03  0.41334962351E+03  0.00000000000E+00 0.  1.
</event>
<event>
12    1  0.8724767E-002  0.1915551E+03  0.7818608E-02  0.1157224E+00
         21   -1    0    0  503  502  0.00000000000E+00  0.00000000000E+00  0.15348767139E+03  0.15348767139E+03  0.00000000000E+00 0.  1.
         21   -1    0    0  501  503 -0.00000000000E+00 -0.00000000000E+00 -0.24256908796E+03  0.24256908796E+03  0.00000000000E+00 0.  1.
          6    2    1    2  501    0 -0.97332415244E+02 -0.46341167356E+01 -0.71254319908E+02  0.20437841784E+03  0.16491902704E+03 0.  0.
         24    2    3    3    0    0 -0.34654881520E+02 -0.61543917671E+02 -0.50806644354E+02  0.11715802968E+03  0.78460653780E+02 0.  0.
         -6    2    1    2    0  502  0.97332415244E+02  0.46341167356E+01 -0.17827096660E+02  0.19167834151E+03  0.16409663962E+03 0.  0.
        -24    2    5    5    0    0  0.11457623339E+03  0.25823046484E+01  0.28540996160E+02  0.14194254727E+03  0.78731929411E+02 0.  0.
          5    1    3    3  501    0 -0.62677533724E+02  0.56909800935E+02 -0.20447675555E+02  0.87220388166E+02  0.47000000000E+01 0. -1.
        -11    1    4    4    0    0 -0.20113557149E+02  0.13833418727E+02  0.11874231586E+01  0.24440307457E+02  0.00000000000E+00 0.  1.
         12    1    4    4    0    0 -0.14541324371E+02 -0.75377336397E+02 -0.51994067513E+02  0.92717722218E+02  0.00000000000E+00 0. -1.
         -5    1    5    5    0  502 -0.17243818145E+02  0.20518120872E+01 -0.46368092820E+02  0.49735794242E+02  0.47000000000E+01 0.  1.
         13    1    6    6    0    0  0.63268548264E+02  0.36669684668E+02  0.32904975834E+02  0.80189228751E+02  0.00000000000E+00 0. -1.
        -14    1    6    6    0    0  0.51307685125E+02 -0.34087380019E+02 -0.43639796740E+01  0.61753318519E+02  0.00000000000E+00 0.  1.
</event>
<event>
12    1  0.8724767E-002  0.1772248E+03  0.7818608E-02  0.1171072E+00
         21   -1    0    0  503  502  0.00000000000E+00  0.00000000000E+00  0.17486279672E+03  0.17486279672E+03  0.00000000000E+00 0. -1.
         21   -1    0    0  501  503 -0.00000000000E+00 -0.00000000000E+00 -0.19300448699E+03  0.19300448699E+03  0.00000000000E+00 0. -1.
          6    2    1    2  501    0  0.20470768182E+02 -0.26445809516E+02 -0.61487984413E+02  0.18758834705E+03  0.17404074963E+03 0.  0.
         24    2    3    3    0    0  0.58486391967E+02 -0.54227424397E+01  0.13898942634E+02  0.10045376281E+03  0.80297656727E+02 0.  0.
         -6    2    1    2    0  502 -0.20470768182E+02  0.26445809516E+02  0.43346294136E+02  0.18027893666E+03  0.17176484098E+03 0.  0.
        -24    2    5    5    0    0  0.27537421834E+01  0.91710555796E+01 -0.36909995990E+02  0.94833298322E+02  0.86829230736E+02 0.  0.
          5    1    3    3  501    0 -0.38015623785E+02 -0.21023067076E+02 -0.75386927047E+02  0.87134584240E+02  0.47000000000E+01 0. -1.
        -11    1    4    4    0    0  0.23185885727E+02  0.86624031356E+01 -0.32259946667E+02  0.40661120053E+02  0.00000000000E+00 0.  1.
         12    1    4    4    0    0  0.35300506241E+02 -0.14085145575E+02  0.46158889301E+02  0.59792642760E+02  0.00000000000E+00 0. -1.
         -5    1    5    5    0  502 -0.23224510366E+02  0.17274753936E+02  0.80256290126E+02  0.85445638333E+02  0.47000000000E+01 0.  1.
         11    1    6    6    0    0  0.77108441319E+01  0.47641329180E+02 -0.16507338040E+02  0.51006328748E+02  0.00000000000E+00 0. -1.
        -12    1    6    6    0    0 -0.49571019486E+01 -0.38470273600E+02 -0.20402657951E+02  0.43826969574E+02  0.00000000000E+00 0.  1.
</event>
<event>
12    1  0.8724767E-002  0.1929266E+03  0.7818608E-02  0.1155865E+00
         21   -1    0    0  501  502  0.00000000000E+00  0.00000000000E+00  0.84421406288E+03  0.84421406288E+03  0.00000000000E+00 0.  1.
         21   -1    0    0  502  503 -0.00000000000E+00 -0.00000000000E+00 -0.44203145663E+02  0.44203145663E+02  0.00000000000E+00 0.  1.
         -6    2    1    2    0  503 -0.44471170227E+02 -0.75844309908E+02  0.42417304033E+03  0.46595446929E+03  0.17164135570E+03 0.  0.
        -24    2    3    3    0    0 -0.47325514338E+02 -0.84571699436E+02  0.14435192075E+03  0.18594328457E+03  0.65919279421E+02 0.  0.
          6    2    1    2  501    0  0.44471170227E+02  0.75844309908E+02  0.37583787690E+03  0.42246273926E+03  0.17172830874E+03 0.  0.
         24    2    5    5    0    0  0.47857070460E+02  0.10637742610E+03  0.36244892791E+03  0.38862356876E+03  0.77798437496E+02 0.  0.
          5    1    5    5  501    0 -0.33859002331E+01 -0.30533116194E+02  0.13388948989E+02  0.33839170497E+02  0.47000000000E+01 0. -1.
        -11    1    6    6    0    0  0.34355924389E+02  0.43121694867E+02  0.69990706399E+02  0.89098311381E+02  0.00000000000E+00 0.  1.
         12    1    6    6    0    0  0.13501146071E+02  0.63255731236E+02  0.29245822151E+03  0.29952525738E+03  0.00000000000E+00 0. -1.
         -5    1    3    3    0  503  0.28543441111E+01  0.87273895280E+01  0.27982111957E+03  0.28001118472E+03  0.47000000000E+01 0.  1.
         13    1    4    4    0    0 -0.53563015665E+02 -0.29797371365E+02  0.86674675616E+02  0.10615733314E+03  0.00000000000E+00 0. -1.
        -14    1    4    4    0    0  0.62375013266E+01 -0.54774328071E+02  0.57677245135E+02  0.79785951425E+02  0.00000000000E+00 0.  1.
</event>
<event>
12    1  0.8724767E-002  0.3850506E+03  0.7818608E-02  0.1049167E+00
         21   -1    0    0  501  502  0.00000000000E+00  0.00000000000E+00  0.54467961549E+03  0.54467961549E+03  0.00000000000E+00 0. -1.
         21   -1    0    0  502  503 -0.00000000000E+00 -0.00000000000E+00 -0.32190038413E+03  0.32190038413E+03  0.00000000000E+00 0. -1.
         -6    2    1    2    0  503  0.32997234926E+03 -0.10028259980E+03 -0.59860925780E+02  0.38967588397E+03  0.17124722776E+03 0.  0.
        -24    2    3    3    0    0  0.23996433965E+03 -0.62398757385E+02  0.22811032809E+02  0.26163928746E+03  0.80363451256E+02 0.  0.
          6    2    1    2  501    0 -0.32997234926E+03  0.10028259980E+03  0.28264015713E+03  0.47690411565E+03  0.16915592216E+03 0.  0.
         24    2    5    5    0    0 -0.32107058267E+03  0.59521309590E+02  0.22382621748E+03  0.40464144392E+03  0.83710316891E+02 0.  0.
          5    1    5    5  501    0 -0.89017665875E+01  0.40761290209E+02  0.58813939657E+02  0.72262671732E+02  0.47000000000E+01 0. -1.
        -11    1    6    6    0    0 -0.16496247023E+02 -0.87384937153E+01  0.35470813068E+02  0.40083238616E+02  0.00000000000E+00 0.  1.
         12    1    6    6    0    0 -0.30457433565E+03  0.68259803305E+02  0.18835540441E+03  0.36455820530E+03  0.00000000000E+00 0. -1.
         -5    1    3    3    0  503  0.90008009609E+02 -0.37883842414E+02 -0.82671958589E+02  0.12803659651E+03  0.47000000000E+01 0.  1.
         13    1    4    4    0    0  0.18073862890E+03 -0.28945575804E+02 -0.15281835413E+02  0.18367861288E+03  0.00000000000E+00 0. -1.
        -14    1    4    4    0    0  0.59225710747E+02 -0.33453181581E+02  0.38092868222E+02  0.77960674579E+02  0.00000000000E+00 0.  1.
</event>
<event>
12    1  0.8724767E-002  0.2117197E+03  0.7818608E-02  0.1143885E+00
         21   -1    0    0  503  502  0.00000000000E+00  0.00000000000E+00  0.13534469135E+03  0.13534469135E+03  0.00000000000E+00 0. -1.
         21   -1    0    0  501  503 -0.00000000000E+00 -0.00000000000E+00 -0.44606985499E+03  0.44606985499E+03  0.00000000000E+00 0. -1.
          6    2    1    2  501    0  0.89375478800E+02 -0.19658933331E+02 -0.32409869002E+03  0.38712423459E+03  0.19092082721E+03 0.  0.
         24    2    3    3    0    0  0.46505706051E+02  0.66037970738E+02 -0.17175943025E+03  0.20709335710E+03  0.82840584261E+02 0.  0.
         -6    2    1    2    0  502 -0.89375478800E+02  0.19658933331E+02  0.13373526383E+02  0.19429031175E+03  0.17086668534E+03 0.  0.
        -24    2    5    5    0    0 -0.12649572099E+03  0.33029011719E+02  0.29903299282E+01  0.15322241497E+03  0.79850380916E+02 0.  0.
          5    1    3    3  501    0  0.42869772749E+02 -0.85696904069E+02 -0.15233925977E+03  0.18003087749E+03  0.47000000000E+01 0. -1.
        -11    1    4    4    0    0  0.78498434274E+01  0.53855220926E+02 -0.15307796931E+03  0.16246497946E+03  0.00000000000E+00 0.  1.
         12    1    4    4    0    0  0.38655862624E+02  0.12182749812E+02 -0.18681460946E+02  0.44628377645E+02  0.00000000000E+00 0. -1.
         -5    1    5    5    0  502  0.37120242194E+02 -0.13370078388E+02  0.10383196455E+02  0.41067896772E+02  0.47000000000E+01 0.  1.
         11    1    6    6    0    0 -0.58121016848E+02  0.38859998724E+02  0.34204645810E+02  0.77833860853E+02  0.00000000000E+00 0. -1.
        -12    1    6    6    0    0 -0.68374704146E+02 -0.58309870049E+01 -0.31214315882E+02  0.75388554121E+02  0.00000000000E+00 0.  1.
</event>
<event>
12    1  0.8724767E-002  0.1926706E+03  0.7818608E-02  0.1157275E+00
         21   -1    0    0  503  502  0.00000000000E+00  0.00000000000E+00  0.50219784891E+02  0.50219784891E+02  0.00000000000E+00 0.  1.
         21   -1    0    0  501  503 -0.00000000000E+00 -0.00000000000E+00 -0.89742900475E+03  0.89742900475E+03  0.00000000000E+00 0.  1.
          6    2    1    2  501    0 -0.89365447622E+01 -0.85122069973E+02 -0.63018925386E+03  0.65744260324E+03  0.16663328674E+03 0.  0.
         24    2    3    3    0    0 -0.56273498042E+02 -0.97076386667E+02 -0.48243308398E+03  0.50175808708E+03  0.80180833168E+02 0.  0.
         -6    2    1    2    0  502  0.89365447622E+01  0.85122069973E+02 -0.21701996600E+03  0.29020618640E+03  0.17261615322E+03 0.  0.
        -24    2    5    5    0    0 -0.29891234473E+02  0.24663303309E+02 -0.18605466366E+03  0.21182379772E+03  0.93547950172E+02 0.  0.
          5    1    3    3  501    0  0.47336953280E+02  0.11954316694E+02 -0.14775616988E+03  0.15568451616E+03  0.47000000000E+01 0. -1.
        -13    1    4    4    0    0 -0.54965473627E+02 -0.16591010324E+02 -0.20139553342E+03  0.20941973592E+03  0.00000000000E+00 0.  1.
         14    1    4    4    0    0 -0.13080244145E+01 -0.80485376343E+02 -0.28103755056E+03  0.29233835116E+03  0.00000000000E+00 0. -1.
         -5    1    5    5    0  502  0.38827779235E+02  0.60458766664E+02 -0.30965302345E+02  0.78382388686E+02  0.47000000000E+01 0.  1.
         13    1    6    6    0    0 -0.49579131694E+01 -0.66889869715E+01 -0.16744896905E+03  0.16765584000E+03  0.00000000000E+00 0. -1.
        -14    1    6    6    0    0 -0.24933321303E+02  0.31352290281E+02 -0.18605694608E+02  0.44167957717E+02  0.00000000000E+00 0.  1.
</event>
<event>
12    1  0.8724767E-002  0.1767165E+03  0.7818608E-02  0.1171273E+00
         21   -1    0    0  503  502  0.00000000000E+00  0.00000000000E+00  0.22047523784E+03  0.22047523784E+03  0.00000000000E+00 0. -1.
         21   -1    0    0  501  503 -0.00000000000E+00 -0.00000000000E+00 -0.21190203948E+03  0.21190203948E+03  0.00000000000E+00 0. -1.
          6    2    1    2  501    0  0.95131973691E+01 -0.40963696960E+02 -0.12091153075E+03  0.21412218399E+03  0.17163969825E+03 0.  0.
         24    2    3    3    0    0 -0.49361829614E+02  0.37373246685E+01 -0.35173809983E+02  0.10081950574E+03  0.80478680468E+02 0.  0.
         -6    2    1    2    0  502 -0.95131973691E+01  0.40963696960E+02  0.12948472910E+03  0.21825509333E+03  0.17058858491E+03 0.  0.
        -24    2    5    5    0    0  0.21712160238E+02 -0.30657903820E+01  0.13994423262E+03  0.16307257865E+03  0.80792701962E+02 0.  0.
          5    1    3    3  501    0  0.58875026983E+02 -0.44701021628E+02 -0.85737720766E+02  0.11330267825E+03  0.47000000000E+01 0. -1.
        -11    1    4    4    0    0 -0.42171014847E+02  0.38231406039E+02 -0.32347831228E+02  0.65470734578E+02  0.00000000000E+00 0.  1.
         12    1    4    4    0    0 -0.71908147669E+01 -0.34494081370E+02 -0.28259787544E+01  0.35348771160E+02  0.00000000000E+00 0. -1.
         -5    1    5    5    0  502 -0.31225357607E+02  0.44029487342E+02 -0.10459503515E+02  0.55182514686E+02  0.47000000000E+01 0.  1.
         13    1    6    6    0    0 -0.28213786030E+02  0.53616632759E+01  0.77688382448E+02  0.82826625686E+02  0.00000000000E+00 0. -1.
        -14    1    6    6    0    0  0.49925946268E+02 -0.84274536579E+01  0.62255850171E+02  0.80245952960E+02  0.00000000000E+00 0.  1.
</event>
<event>
12    1  0.8724767E-002  0.1811189E+03  0.7818608E-02  0.1167297E+00
         21   -1    0    0  501  502  0.00000000000E+00  0.00000000000E+00  0.96254468002E+03  0.96254468002E+03  0.00000000000E+00 0.  1.
         21   -1    0    0  502  503 -0.00000000000E+00 -0.00000000000E+00 -0.34748143297E+02  0.34748143297E+02  0.00000000000E+00 0.  1.
         -6    2    1    2    0  503  0.11982475491E+02 -0.47918468641E+02  0.37175474517E+03  0.41249668236E+03  0.17179104472E+03 0.  0.
        -24    2    3    3    0    0  0.57720225857E+02 -0.73426133175E+02  0.19741361025E+03  0.23039916980E+03  0.73407236862E+02 0.  0.
          6    2    1    2  501    0 -0.11982475491E+02  0.47918468641E+02  0.55604179156E+03  0.58479614096E+03  0.17425353129E+03 0.  0.
         24    2    5    5    0    0 -0.27672777578E+02  0.43619952524E+02  0.55942811841E+03  0.56752709263E+03  0.80366027179E+02 0.  0.
          5    1    5    5  501    0  0.15690302087E+02  0.42985161172E+01 -0.33863268578E+01  0.17269048323E+02  0.47000000000E+01 0. -1.
        -11    1    6    6    0    0 -0.18793887333E+01  0.62084652373E+02  0.41766257366E+03  0.42225591955E+03  0.00000000000E+00 0.  1.
         12    1    6    6    0    0 -0.25793388845E+02 -0.18464699849E+02  0.14176554476E+03  0.14527117308E+03  0.00000000000E+00 0. -1.
         -5    1    3    3    0  503 -0.45737750365E+02  0.25507664534E+02  0.17434113492E+03  0.18209751257E+03  0.47000000000E+01 0.  1.
         11    1    4    4    0    0  0.28541785499E+02  0.95642900253E+01  0.39851245100E+02  0.49942275671E+02  0.00000000000E+00 0. -1.
        -12    1    4    4    0    0  0.29178440357E+02 -0.82990423200E+02  0.15756236515E+03  0.18045689412E+03  0.00000000000E+00 0.  1.
</event>
<event>
12    1  0.8724767E-002  0.1833483E+03  0.7818608E-02  0.1164735E+00
         21   -1    0    0  503  502  0.00000000000E+00  0.00000000000E+00  0.12451020390E+03  0.12451020390E+03  0.00000000000E+00 0. -1.
         21   -1    0    0  501  503 -0.00000000000E+00 -0.00000000000E+00 -0.10035137932E+04  0.10035137932E+04  0.00000000000E+00 0.  1.
          6    2    1    2  501    0 -0.35541849135E+02 -0.55384800993E+02 -0.92216533532E+03  0.94021566316E+03  0.17113120223E+03 0.  0.
         24    2    3    3    0    0 -0.31796796222E+02  0.17052471253E+02 -0.72537972629E+03  0.73043518325E+03  0.77833068774E+02 0.  0.
         -6    2    1    2    0  502  0.35541849135E+02  0.55384800993E+02  0.43161746021E+02  0.18780833393E+03  0.17052370730E+03 0.  0.
        -24    2    5    5    0    0  0.87455599106E+02  0.24679337296E+02  0.20246148911E+02  0.12311615876E+03  0.80561346180E+02 0.  0.
          5    1    3    3  501    0 -0.37450529123E+01 -0.72437272246E+02 -0.19678560903E+03  0.20978047991E+03  0.47000000000E+01 0. -1.
        -13    1    4    4    0    0  0.53616445105E+01 -0.20317995826E+02 -0.42120940360E+03  0.42173324492E+03  0.00000000000E+00 0.  1.
         14    1    4    4    0    0 -0.37158440733E+02  0.37370467079E+02 -0.30417032268E+03  0.30870193833E+03  0.00000000000E+00 0. -1.
         -5    1    5    5    0  502 -0.51913749971E+02  0.30705463697E+02  0.22915597110E+02  0.64692175167E+02  0.47000000000E+01 0.  1.
         13    1    6    6    0    0  0.41626308339E+02  0.52991137082E+02  0.14627008625E+02  0.68954764422E+02  0.00000000000E+00 0. -1.
        -14    1    6    6    0    0  0.45829290767E+02 -0.28311799786E+02  0.56191402865E+01  0.54161394340E+02  0.00000000000E+00 0.  1.
</event>
<event>
12    1  0.8724767E-002  0.2247585E+03  0.7818608E-02  0.1130508E+00
         21   -1    0    0  503  502  0.00000000000E+00  0.00000000000E+00  0.48303135334E+03  0.48303135334E+03  0.00000000000E+00 0. -1.
         21   -1    0    0  501  503 -0.00000000000E+00 -0.00000000000E+00 -0.17558172757E+03  0.17558172757E+03  0.00000000000E+00 0.  1.
          6    2    1    2  501    0 -0.12498509499E+03  0.70936244336E+02 -0.56010250104E+02  0.23163235922E+03  0.17280965538E+03 0.  0.
         24    2    3    3    0    0 -0.90462690724E+02  0.70034740548E+02  0.25947351514E+02  0.14257200009E+03  0.81025593874E+02 0.  0.
         -6    2    1    2    0  502  0.12498509499E+03 -0.70936244336E+02  0.36345987587E+03  0.42698072170E+03  0.17191925605E+03 0.  0.
        -24    2    5    5    0    0  0.14642070936E+03 -0.76943399205E+02  0.24691655127E+03  0.30823726722E+03  0.81750344332E+02 0.  0.
          5    1    3    3  501    0 -0.34522404265E+02  0.90150378738E+00 -0.81957601618E+02  0.89060359129E+02  0.47000000000E+01 0. -1.
        -11    1    4    4    0    0 -0.10396567592E+03  0.66252226535E+02  0.31894853028E+02  0.12734009950E+03  0.00000000000E+00 0.  1.
         12    1    4    4    0    0  0.13502985195E+02  0.37825140131E+01 -0.59475015141E+01  0.15231900594E+02  0.00000000000E+00 0. -1.
         -5    1    5    5    0  502 -0.21435614372E+02  0.60071548694E+01  0.11654332460E+03  0.11874345448E+03  0.47000000000E+01 0.  1.
         13    1    6    6    0    0  0.12163702408E+03 -0.21305646718E+02  0.16032521331E+03  0.20237013177E+03  0.00000000000E+00 0. -1.
        -14    1    6    6    0    0  0.24783685280E+02 -0.55637752487E+02  0.86591337961E+02  0.10586713545E+03  0.00000000000E+00 0.  1.
</event>
<event>
12    1  0.8724767E-002  0.1732449E+03  0.7818608E-02  0.1174684E+00
         21   -1    0    0  503  502  0.00000000000E+00  0.00000000000E+00  0.10549246966E+03  0.10549246966E+03  0.00000000000E+00 0. -1.
         21   -1    0    0  501  503 -0.00000000000E+00 -0.00000000000E+00 -0.35612247756E+03  0.35612247756E+03  0.00000000000E+00 0. -1.
          6    2    1    2  501    0  0.11133087412E+02 -0.11253521497E+02 -0.22943799235E+03  0.28707870405E+03  0.17181909848E+03 0.  0.
         24    2    3    3    0    0 -0.36305714259E+02 -0.55197813593E+02 -0.11181506597E+03  0.15277016552E+03  0.80443837435E+02 0.  0.
         -6    2    1    2    0  502 -0.11133087412E+02  0.11253521497E+02 -0.21192015549E+02  0.17453624318E+03  0.17252017644E+03 0.  0.
        -24    2    5    5    0    0  0.40735653553E+02 -0.20509580435E+02 -0.52453528017E+02  0.10598966708E+03  0.80015002126E+02 0.  0.
          5    1    3    3  501    0  0.47438801670E+02  0.43944292096E+02 -0.11762292638E+03  0.13430853853E+03  0.47000000000E+01 0. -1.
        -11    1    4    4    0    0 -0.21250373913E+02  0.26921454069E+01  0.45804464925E+01  0.21904486490E+02  0.00000000000E+00 0.  1.
         12    1    4    4    0    0 -0.15055340345E+02 -0.57889959000E+02 -0.11639551246E+03  0.13086567903E+03  0.00000000000E+00 0. -1.
         -5    1    5    5    0  502 -0.51868740965E+02  0.31763101932E+02  0.31261512468E+02  0.68546576103E+02  0.47000000000E+01 0.  1.
         13    1    6    6    0    0  0.13007585940E+02 -0.47329149523E+02 -0.12925447486E+02  0.50757392361E+02  0.00000000000E+00 0. -1.
        -14    1    6    6    0    0  0.27728067613E+02  0.26819569088E+02 -0.39528080531E+02  0.55232274714E+02  0.00000000000E+00 0.  1.
</event>
<event>
12    1  0.8724767E-002  0.2990137E+03  0.7818608E-02  0.1085746E+00
         21   -1    0    0  501  502  0.00000000000E+00  0.00000000000E+00  0.40553183999E+03  0.40553183999E+03  0.00000000000E+00 0.  1.
         21   -1    0    0  502  503 -0.00000000000E+00 -0.00000000000E+00 -0.24817755725E+03  0.24817755725E+03  0.00000000000E+00 0. -1.
         -6    2    1    2    0  503  0.21543497365E+03  0.11611897052E+03 -0.30644030175E+02  0.30057984949E+03  0.17179448812E+03 0.  0.
        -24    2    3    3    0    0  0.98504482248E+02 -0.12501485433E+02 -0.34318077806E+02  0.12665012191E+03  0.70732614510E+02 0.  0.
          6    2    1    2  501    0 -0.21543497365E+03 -0.11611897052E+03  0.18799831292E+03  0.35312954775E+03  0.17164285201E+03 0.  0.
         24    2    5    5    0    0 -0.21135689283E+03 -0.13784578573E+03  0.13758528116E+03  0.29788238480E+03  0.78300758589E+02 0.  0.
          5    1    5    5  501    0 -0.40780808209E+01  0.21726815210E+02  0.50413031758E+02  0.55247162945E+02  0.47000000000E+01 0. -1.
        -13    1    6    6    0    0 -0.38895495883E+02 -0.67199596916E+02  0.35350954287E+02  0.85313160735E+02  0.00000000000E+00 0.  1.
         14    1    6    6    0    0 -0.17246139694E+03 -0.70646188811E+02  0.10223432687E+03  0.21256922407E+03  0.00000000000E+00 0. -1.
         -5    1    3    3    0  503  0.11693049140E+03  0.12862045595E+03  0.36740476310E+01  0.17392972757E+03  0.47000000000E+01 0.  1.
         13    1    4    4    0    0  0.87504301720E+02  0.18037656325E+02 -0.22801066456E+02  0.92207637953E+02  0.00000000000E+00 0. -1.
        -14    1    4    4    0    0  0.11000180528E+02 -0.30539141758E+02 -0.11517011350E+02  0.34442483961E+02  0.00000000000E+00 0.  1.
</event>
<event>
12    1  0.8724767E-002  0.2688303E+03  0.7818608E-02  0.1104286E+00
         21   -1    0    0  501  502  0.00000000000E+00  0.00000000000E+00  0.15145038368E+03  0.15145038368E+03  0.00000000000E+00 0. -1.
         21   -1    0    0  502  503 -0.00000000000E+00 -0.00000000000E+00 -0.47496390402E+03  0.47496390402E+03  0.00000000000E+00 0. -1.
         -6    2    1    2    0  503 -0.56148426627E+02  0.17680307233E+03 -0.22936227176E+03  0.34157369422E+03  0.17220210418E+03 0.  0.
        -24    2    3    3    0    0 -0.83305813033E+02  0.18854075278E+03 -0.18501023551E+03  0.28805276469E+03  0.79108369075E+02 0.  0.
          6    2    1    2  501    0  0.56148426627E+02 -0.17680307233E+03 -0.94151248584E+02  0.28484059348E+03  0.19457063984E+03 0.  0.
         24    2    5    5    0    0  0.19577382209E+02 -0.84330046203E+01 -0.74965158772E+02  0.11141592098E+03  0.79619990938E+02 0.  0.
          5    1    5    5  501    0  0.36571044418E+02 -0.16837006771E+03 -0.19186089812E+02  0.17342467250E+03  0.47000000000E+01 0. -1.
        -11    1    6    6    0    0 -0.28896673339E+02 -0.10288139791E+02 -0.14588930618E+02  0.33966166210E+02  0.00000000000E+00 0.  1.
         12    1    6    6    0    0  0.48474055548E+02  0.18551351703E+01 -0.60376228154E+02  0.77449754770E+02  0.00000000000E+00 0. -1.
         -5    1    3    3    0  503  0.27157386406E+02 -0.11737680453E+02 -0.44352036248E+02  0.53520929534E+02  0.47000000000E+01 0.  1.
         11    1    4    4    0    0 -0.87022102967E+02  0.15813799655E+03 -0.18348563135E+03  0.25738579850E+03  0.00000000000E+00 0. -1.
        -12    1    4    4    0    0  0.37162899345E+01  0.30402756230E+02 -0.15246041567E+01  0.30666966186E+02  0.00000000000E+00 0.  1.
</event>
<event>
12    1  0.8724767E-002  0.1768155E+03  0.7818608E-02  0.1171668E+00
         21   -1    0    0  503  502  0.00000000000E+00  0.00000000000E+00  0.27042990076E+03  0.27042990076E+03  0.00000000000E+00 0. -1.
         21   -1    0    0  501  503 -0.00000000000E+00 -0.00000000000E+00 -0.27872035737E+03  0.27872035737E+03  0.00000000000E+00 0. -1.
          6    2    1    2  501    0  0.61148690574E+01 -0.29117957651E+02 -0.21545416712E+03  0.27871887731E+03  0.17429419773E+03 0.  0.
         24    2    3    3    0    0  0.55671372634E+02  0.67656121467E+01 -0.66304274125E+02  0.11743881590E+03  0.79060378668E+02 0.  0.
         -6    2    1    2    0  502 -0.61148690574E+01  0.29117957651E+02  0.20716371051E+03  0.27043138082E+03  0.17126319423E+03 0.  0.
        -24    2    5    5    0    0 -0.58406329751E+02 -0.22563748997E+01  0.73295079588E+02  0.12325242190E+03  0.80016249779E+02 0.  0.
          5    1    3    3  501    0 -0.49556503577E+02 -0.35883569798E+02 -0.14914989299E+03  0.16128006141E+03  0.47000000000E+01 0. -1.
        -11    1    4    4    0    0  0.40968118522E+02  0.35524514566E+02 -0.14063492230E+02  0.56019279575E+02  0.00000000000E+00 0.  1.
         12    1    4    4    0    0  0.14703254112E+02 -0.28758902420E+02 -0.52240781895E+02  0.61419536329E+02  0.00000000000E+00 0. -1.
         -5    1    5    5    0  502  0.52291460694E+02  0.31374332551E+02  0.13386863092E+03  0.14717895892E+03  0.47000000000E+01 0.  1.
         11    1    6    6    0    0 -0.10099648953E+01  0.27870803956E+02  0.44053635219E+02  0.52139471787E+02  0.00000000000E+00 0. -1.
        -12    1    6    6    0    0 -0.57396364856E+02 -0.30127178855E+02  0.29241444369E+02  0.71112950109E+02  0.00000000000E+00 0.  1.
</event>
<event>
12    1  0.8724767E-002  0.1850238E+03  0.7818608E-02  0.1164676E+00
         21   -1    0    0  503  502  0.00000000000E+00  0.00000000000E+00  0.18181417005E+03  0.18181417005E+03  0.00000000000E+00 0.  1.
         21   -1    0    0  501  503 -0.00000000000E+00 -0.00000000000E+00 -0.20961641908E+03  0.20961641908E+03  0.00000000000E+00 0.  1.
          6    2    1    2  501    0  0.35467099095E+02  0.56344769940E+02 -0.85574621468E+02  0.19759705943E+03  0.16519362530E+03 0.  0.
         24    2    3    3    0    0  0.92140337838E+01 -0.12362172917E+02 -0.94555314095E+02  0.12335010478E+03  0.77696970261E+02 0.  0.
         -6    2    1    2    0  502 -0.35467099095E+02 -0.56344769940E+02  0.57772372442E+02  0.19383352970E+03  0.17263007270E+03 0.  0.
        -24    2    5    5    0    0  0.47326358836E+02 -0.41667135486E+02  0.35214474977E+02  0.10664902209E+03  0.78473054258E+02 0.  0.
          5    1    3    3  501    0  0.26253065312E+02  0.68706942857E+02  0.89806926272E+01  0.74246954652E+02  0.47000000000E+01 0. -1.
        -13    1    4    4    0    0 -0.28408459195E+02  0.14621107026E+02 -0.29387477310E+02  0.43410150278E+02  0.00000000000E+00 0.  1.
         14    1    4    4    0    0  0.37622492979E+02 -0.26983279944E+02 -0.65167836785E+02  0.79939954502E+02  0.00000000000E+00 0. -1.
         -5    1    5    5    0  502 -0.82793457931E+02 -0.14677634453E+02  0.22557897465E+02  0.87184507611E+02  0.47000000000E+01 0.  1.
         11    1    6    6    0    0 -0.99048518424E+01 -0.35292117454E+02 -0.41576844554E+01  0.36890730332E+02  0.00000000000E+00 0. -1.
        -12    1    6    6    0    0  0.57231210678E+02 -0.63750180323E+01  0.39372159433E+02  0.69758291758E+02  0.00000000000E+00 0.  1.
</event>
<event>
12    1  0.8724767E-002  0.3771778E+03  0.7818608E-02  0.1052135E+00
         21   -1    0    0  503  502  0.00000000000E+00  0.00000000000E+00  0.11578457964E+03  0.11578457964E+03  0.00000000000E+00 0. -1.
         21   -1    0    0  501  503 -0.00000000000E+00 -0.00000000000E+00 -0.13692432753E+04  0.13692432753E+04  0.00000000000E+00 0. -1.
          6    2    1    2  501    0  0.23234054087E+02 -0.33315268788E+03 -0.86788071436E+03  0.94564534538E+03  0.17174879961E+03 0.  0.
         24    2    3    3    0    0  0.61748252865E+02 -0.30071808473E+03 -0.66943865954E+03  0.74086085839E+03  0.80513845986E+02 0.  0.
         -6    2    1    2    0  502 -0.23234054087E+02  0.33315268788E+03 -0.38557798128E+03  0.53938250953E+03  0.17530709407E+03 0.  0.
        -24    2    5    5    0    0 -0.32518833624E+02  0.11240077412E+03 -0.22587175841E+03  0.26671827978E+03  0.80182173588E+02 0.  0.
          5    1    3    3  501    0 -0.38514198778E+02 -0.32434603152E+02 -0.19844205482E+03  0.20478448698E+03  0.47000000000E+01 0. -1.
        -13    1    4    4    0    0  0.20643500167E+02 -0.10839101928E+03 -0.15628934362E+03  0.19131420775E+03  0.00000000000E+00 0.  1.
         14    1    4    4    0    0  0.41104752698E+02 -0.19232706545E+03 -0.51314931592E+03  0.54954665064E+03  0.00000000000E+00 0. -1.
         -5    1    5    5    0  502  0.92847795371E+01  0.22075191377E+03 -0.15970622287E+03  0.27266422975E+03  0.47000000000E+01 0.  1.
         13    1    6    6    0    0 -0.49373100146E+02  0.30189670694E+02 -0.88570139660E+02  0.10580070356E+03  0.00000000000E+00 0. -1.
        -14    1    6    6    0    0  0.16854266522E+02  0.82211103422E+02 -0.13730161875E+03  0.16091757622E+03  0.00000000000E+00 0.  1.
</event>
<event>
12    1  0.8724767E-002  0.2077732E+03  0.7818608E-02  0.1144835E+00
         21   -1    0    0  503  502  0.00000000000E+00  0.00000000000E+00  0.51688978568E+03  0.51688978568E+03  0.00000000000E+00 0.  1.
         21   -1    0    0  501  503 -0.00000000000E+00 -0.00000000000E+00 -0.16045393905E+03  0.16045393905E+03  0.00000000000E+00 0. -1.
          6    2    1    2  501    0 -0.11250006182E+03 -0.46691225825E+01 -0.62268994994E+02  0.20992157824E+03  0.16586614077E+03 0.  0.
         24    2    3    3    0    0 -0.26541021556E+02  0.50318164613E+02 -0.34493672150E+02  0.10406263003E+03  0.80017960700E+02 0.  0.
         -6    2    1    2    0  502  0.11250006182E+03  0.46691225825E+01  0.41870484162E+03  0.46742214650E+03  0.17461859588E+03 0.  0.
        -24    2    5    5    0    0  0.43585868618E+02 -0.78146299653E+01  0.76436389102E+02  0.11803011212E+03  0.78280198021E+02 0.  0.
          5    1    3    3  501    0 -0.85959040267E+02 -0.54987287195E+02 -0.27775322844E+02  0.10585894821E+03  0.47000000000E+01 0. -1.
        -13    1    4    4    0    0  0.12440695146E+02 -0.13851852709E+02 -0.20490041931E+02  0.27685493269E+02  0.00000000000E+00 0.  1.
         14    1    4    4    0    0 -0.38981716702E+02  0.64170017322E+02 -0.14003630219E+02  0.76377136758E+02  0.00000000000E+00 0. -1.
         -5    1    5    5    0  502  0.68914193205E+02  0.12483752548E+02  0.34226845252E+03  0.34939203439E+03  0.47000000000E+01 0.  1.
         13    1    6    6    0    0  0.33867547951E+02 -0.37283172322E+02  0.70166194465E+02  0.86373263156E+02  0.00000000000E+00 0. -1.
        -14    1    6    6    0    0  0.97183206674E+01  0.29468542357E+02  0.62701946368E+01  0.31656848959E+02  0.00000000000E+00 0.  1.
</event>
<event>
12    1  0.8724767E-002  0.1915058E+03  0.7818608E-02  0.1157216E+00
         21   -1    0    0  503  502  0.00000000000E+00  0.00000000000E+00  0.45584005171E+02  0.45584005171E+02  0.00000000000E+00 0.  1.
         21   -1    0    0  501  503 -0.00000000000E+00 -0.00000000000E+00 -0.14883186109E+04  0.14883186109E+04  0.00000000000E+00 0.  1.
          6    2    1    2  501    0 -0.59764227464E+02  0.60184481980E+02 -0.12424459279E+04  0.12571182762E+04  0.17169898645E+03 0.  0.
         24    2    3    3    0    0 -0.44548572898E+02  0.95248402189E+02 -0.64785771112E+03  0.66128421195E+03  0.80748756284E+02 0.  0.
         -6    2    1    2    0  502  0.59764227464E+02 -0.60184481980E+02 -0.20028867789E+03  0.27678433989E+03  0.17117266593E+03 0.  0.
        -24    2    5    5    0    0  0.10179710759E+03 -0.27617656306E+02 -0.17196612064E+03  0.21635571758E+03  0.78179689345E+02 0.  0.
          5    1    3    3  501    0 -0.15215654566E+02 -0.35063920209E+02 -0.59458821676E+03  0.59583406428E+03  0.47000000000E+01 0. -1.
        -11    1    4    4    0    0 -0.56410961870E+02  0.10357881368E+03 -0.58591329343E+03  0.59766642425E+03  0.00000000000E+00 0.  1.
         12    1    4    4    0    0  0.11862388972E+02 -0.83304114871E+01 -0.61944417697E+02  0.63617787697E+02  0.00000000000E+00 0. -1.
         -5    1    5    5    0  502 -0.42032880124E+02 -0.32566825674E+02 -0.28322557252E+02  0.60428622318E+02  0.47000000000E+01 0.  1.
         13    1    6    6    0    0  0.69019472623E+02  0.87671120987E+01 -0.14408543778E+03  0.16000363507E+03  0.00000000000E+00 0. -1.
        -14    1    6    6    0    0  0.32777634965E+02 -0.36384768405E+02 -0.27880682862E+02  0.56352082505E+02  0.00000000000E+00 0.  1.
</event>
<event>
12    1  0.8724767E-002  0.2185756E+03  0.7818608E-02  0.1135466E+00
         21   -1    0    0  503  502  0.00000000000E+00  0.00000000000E+00  0.13264533405E+03  0.13264533405E+03  0.00000000000E+00 0. -1.
         21   -1    0    0  501  503 -0.00000000000E+00 -0.00000000000E+00 -0.45056287088E+03  0.45056287088E+03  0.00000000000E+00 0. -1.
          6    2    1    2  501    0  0.10512385794E+03  0.79551627409E+02 -0.24360545126E+02  0.21721506080E+03  0.17090775157E+03 0.  0.
         24    2    3    3    0    0  0.46121842090E+02  0.35514217801E+02  0.52806266050E+02  0.11045674465E+03  0.77612542290E+02 0.  0.
         -6    2    1    2    0  502 -0.10512385794E+03 -0.79551627409E+02 -0.29355699170E+03  0.36599314414E+03  0.17434387642E+03 0.  0.
        -24    2    5    5    0    0 -0.11474196533E+03 -0.96569662641E+01 -0.14746324587E+03  0.20368712386E+03  0.80523660737E+02 0.  0.
          5    1    3    3  501    0  0.59002015850E+02  0.44037409609E+02 -0.77166811176E+02  0.10675831615E+03  0.47000000000E+01 0. -1.
        -11    1    4    4    0    0  0.10336555526E+02 -0.19531490999E+02  0.36724836215E+02  0.42860670968E+02  0.00000000000E+00 0.  1.
         12    1    4    4    0    0  0.35785286564E+02  0.55045708800E+02  0.16081429836E+02  0.67596073682E+02  0.00000000000E+00 0. -1.
         -5    1    5    5    0  502  0.96181073883E+01 -0.69894661145E+02 -0.14609374584E+03  0.16230602028E+03  0.47000000000E+01 0.  1.
         13    1    6    6    0    0 -0.21481702336E+02 -0.28389036300E+02 -0.78500045057E+02  0.86195463867E+02  0.00000000000E+00 0. -1.
        -14    1    6    6    0    0 -0.93260262992E+02  0.18732070036E+02 -0.68963200812E+02  0.11749165999E+03  0.00000000000E+00 0.  1.
</event>
<event>
12    1  0.8724767E-002  0.1803705E+03  0.7818608E-02  0.1168322E+00
         21   -1    0    0  503  502  0.00000000000E+00  0.00000000000E+00  0.39849959560E+03  0.39849959560E+03  0.00000000000E+00 0.  1.
         21   -1    0    0  501  503 -0.00000000000E+00 -0.00000000000E+00 -0.25987571469E+03  0.25987571469E+03  0.00000000000E+00 0.  1.
          6    2    1    2  501    0 -0.36982992020E+02  0.25451300052E+02 -0.20475435561E+03  0.27050658943E+03  0.17097940931E+03 0.  0.
         24    2    3    3    0    0 -0.28938691101E+02 -0.48462186999E+02 -0.84467451588E+02  0.12901827321E+03  0.79529447589E+02 0.  0.
         -6    2    1    2    0  502  0.36982992020E+02 -0.25451300052E+02  0.34337823653E+03  0.38786872087E+03  0.17469407814E+03 0.  0.
        -24    2    5    5    0    0 -0.20942112900E+02  0.25031653120E+02  0.95409166096E+02  0.12822551139E+03  0.79206799231E+02 0.  0.
          5    1    3    3  501    0 -0.80443009187E+01  0.73913487051E+02 -0.12028690402E+03  0.14148831621E+03  0.47000000000E+01 0. -1.
        -13    1    4    4    0    0 -0.26059591338E+02 -0.32509033960E+02 -0.98897267115E+02  0.10731546502E+03  0.00000000000E+00 0.  1.
         14    1    4    4    0    0 -0.28790997631E+01 -0.15953153039E+02  0.14429815527E+02  0.21702808193E+02  0.00000000000E+00 0. -1.
         -5    1    5    5    0  502  0.57925104920E+02 -0.50482953172E+02  0.24796907043E+03  0.25964320948E+03  0.47000000000E+01 0.  1.
         13    1    6    6    0    0 -0.62505386915E+01  0.50209270865E+02  0.81495301893E+02  0.95924576337E+02  0.00000000000E+00 0. -1.
        -14    1    6    6    0    0 -0.14691574208E+02 -0.25177617744E+02  0.13913864202E+02  0.32300935049E+02  0.00000000000E+00 0.  1.
</event>
<event>
12    1  0.8724767E-002  0.2064367E+03  0.7818608E-02  0.1144560E+00
         21   -1    0    0  501  502  0.00000000000E+00  0.00000000000E+00  0.90366548843E+03  0.90366548843E+03  0.00000000000E+00 0. -1.
         21   -1    0    0  502  503 -0.00000000000E+00 -0.00000000000E+00 -0.51205856352E+02  0.51205856352E+02  0.00000000000E+00 0.  1.
         -6    2    1    2    0  503  0.11037527009E+03  0.22461381007E+02  0.28876325168E+03  0.35456332866E+03  0.17217353056E+03 0.  0.
        -24    2    3    3    0    0 -0.10668712972E+02 -0.44396801713E+01  0.13914089678E+03  0.16018161138E+03  0.78513866733E+02 0.  0.
          6    2    1    2  501    0 -0.11037527009E+03 -0.22461381007E+02  0.56369638040E+03  0.60030801612E+03  0.17299968514E+03 0.  0.
         24    2    5    5    0    0 -0.35897429476E+02 -0.64811303378E+02  0.20537863869E+03  0.23185970401E+03  0.78034650179E+02 0.  0.
          5    1    5    5  501    0 -0.74477840618E+02  0.42349922371E+02  0.35831774171E+03  0.36844831210E+03  0.47000000000E+01 0. -1.
        -13    1    6    6    0    0  0.54619538712E+01 -0.19531194281E+02  0.14283054794E+03  0.14426318281E+03  0.00000000000E+00 0.  1.
         14    1    6    6    0    0 -0.41359383347E+02 -0.45280109096E+02  0.62548090743E+02  0.87596521199E+02  0.00000000000E+00 0. -1.
         -5    1    3    3    0  503  0.12104398307E+03  0.26901061178E+02  0.14962235490E+03  0.19438171728E+03  0.47000000000E+01 0.  1.
         13    1    4    4    0    0  0.60504088691E+01  0.32200790061E+02  0.94692666709E+02  0.10020079569E+03  0.00000000000E+00 0. -1.
        -14    1    4    4    0    0 -0.16719121842E+02 -0.36640470233E+02  0.44448230072E+02  0.59980815687E+02  0.00000000000E+00 0.  1.
</event>
<event>
12    1  0.8724767E-002  0.1769358E+03  0.7818608E-02  0.1171157E+00
         21   -1    0    0  503  502  0.00000000000E+00  0.00000000000E+00  0.24145262818E+03  0.24145262818E+03  0.00000000000E+00 0. -1.
         21   -1    0    0  501  503 -0.00000000000E+00 -0.00000000000E+00 -0.12870831059E+03  0.12870831059E+03  0.00000000000E+00 0. -1.
          6    2    1    2  501    0 -0.36942033105E+02  0.73317887056E+01  0.61613715465E+02  0.18735667544E+03  0.17288089820E+03 0.  0.
         24    2    3    3    0    0 -0.63574883202E+02  0.47984348758E+02  0.71724160126E+01  0.11422744442E+03  0.81561032410E+02 0.  0.
         -6    2    1    2    0  502  0.36942033105E+02 -0.73317887056E+01  0.51130602131E+02  0.18280426333E+03  0.17141934337E+03 0.  0.
        -24    2    5    5    0    0 -0.27881595052E+02 -0.45191409881E+02  0.15820809307E+02  0.99711994423E+02  0.82900765709E+02 0.  0.
          5    1    3    3  501    0  0.26632850097E+02 -0.40652560052E+02  0.54441299453E+02  0.73129231017E+02  0.47000000000E+01 0. -1.
        -11    1    4    4    0    0 -0.37669012015E+02  0.13526041136E+02  0.42582035083E+02  0.58439181777E+02  0.00000000000E+00 0.  1.
         12    1    4    4    0    0 -0.25905871187E+02  0.34458307622E+02 -0.35409619070E+02  0.55788262644E+02  0.00000000000E+00 0. -1.
         -5    1    5    5    0  502  0.64823628157E+02  0.37859621175E+02  0.35309792824E+02  0.83092268908E+02  0.47000000000E+01 0.  1.
         11    1    6    6    0    0 -0.13112212507E+02  0.18459002633E+02  0.24999572010E+02  0.33728971163E+02  0.00000000000E+00 0. -1.
        -12    1    6    6    0    0 -0.14769382545E+02 -0.63650412513E+02 -0.91787627026E+01  0.65983023260E+02  0.00000000000E+00 0.  1.
</event>
<event>
12    1  0.8724767E-002  0.2227132E+03  0.7818608E-02  0.1131944E+00
         21   -1    0    0  503  502  0.00000000000E+00  0.00000000000E+00  0.39846265750E+03  0.39846265750E+03  0.00000000000E+00 0.  1.
         21   -1    0    0  501  503 -0.00000000000E+00 -0.00000000000E+00 -0.13539162917E+03  0.13539162917E+03  0.00000000000E+00 0.  1.
          6    2    1    2  501    0  0.12513002843E+03 -0.66957523477E+02  0.55148245110E+02  0.22943955499E+03  0.17164016572E+03 0.  0.
         24    2    3    3    0    0  0.97992911335E+02 -0.11261087058E+03  0.34736523521E+02  0.17234857843E+03  0.78826312707E+02 0.  0.
         -6    2    1    2    0  502 -0.12513002843E+03  0.66957523477E+02  0.20792278322E+03  0.30441473169E+03  0.17115960715E+03 0.  0.
        -24    2    5    5    0    0 -0.39827279714E+02  0.49341829399E+02  0.18849711415E+03  0.21504852870E+03  0.81816131155E+02 0.  0.
          5    1    3    3  501    0  0.27137117097E+02  0.45653347103E+02  0.20411721589E+02  0.57090976558E+02  0.47000000000E+01 0. -1.
        -11    1    4    4    0    0  0.81992040625E+02 -0.93021994451E+02  0.58981326620E+02  0.13731199171E+03  0.00000000000E+00 0.  1.
         12    1    4    4    0    0  0.16000870710E+02 -0.19588876129E+02 -0.24244803099E+02  0.35036586717E+02  0.00000000000E+00 0. -1.
         -5    1    5    5    0  502 -0.85302748719E+02  0.17615694078E+02  0.19425669070E+02  0.89366202983E+02  0.47000000000E+01 0.  1.
         11    1    6    6    0    0  0.16224710628E+02 -0.89235329514E+01  0.15716705531E+02  0.24287558709E+02  0.00000000000E+00 0. -1.
        -12    1    6    6    0    0 -0.56051990342E+02  0.58265362351E+02  0.17278040862E+03  0.19076097000E+03  0.00000000000E+00 0.  1.
</event>
<event>
12    1  0.8724767E-002  0.2000838E+03  0.7818608E-02  0.1150964E+00
         21   -1    0    0  503  502  0.00000000000E+00  0.00000000000E+00  0.67427040653E+03  0.67427040653E+03  0.00000000000E+00 0.  1.
         21   -1    0    0  501  503 -0.00000000000E+00 -0.00000000000E+00 -0.10377423573E+03  0.10377423573E+03  0.00000000000E+00 0. -1.
          6    2    1    2  501    0 -0.70672006537E+02 -0.59943964811E+02  0.28177109396E+02  0.20205808064E+03  0.17732937442E+03 0.  0.
         24    2    3    3    0    0 -0.55338097382E+02 -0.77123092776E+02  0.78507303855E+02  0.14651107638E+03  0.79321007831E+02 0.  0.
         -6    2    1    2    0  502  0.70672006537E+02  0.59943964811E+02  0.54231906141E+03  0.57598656162E+03  0.17047798501E+03 0.  0.
        -24    2    5    5    0    0  0.99245525958E+02  0.37071235577E+02  0.50988789836E+03  0.52685939916E+03  0.79819838758E+02 0.  0.
          5    1    3    3  501    0 -0.15333909155E+02  0.17179127965E+02 -0.50330194459E+02  0.55547004256E+02  0.47000000000E+01 0. -1.
        -13    1    4    4    0    0 -0.19220994820E+02 -0.40461261685E+02  0.83550046180E+02  0.94800688582E+02  0.00000000000E+00 0.  1.
         14    1    4    4    0    0 -0.36117102562E+02 -0.36661831092E+02 -0.50427423251E+01  0.51710387802E+02  0.00000000000E+00 0. -1.
         -5    1    5    5    0  502 -0.28573519421E+02  0.22872729234E+02  0.32431163049E+02  0.49127162461E+02  0.47000000000E+01 0.  1.
         11    1    6    6    0    0  0.98538768414E+02  0.14585155799E+02  0.30766337198E+03  0.32338733140E+03  0.00000000000E+00 0. -1.
        -12    1    6    6    0    0  0.70675754404E+00  0.22486079778E+02  0.20222452638E+03  0.20347206776E+03  0.00000000000E+00 0.  1.
</event>
<event>
12    1  0.8724767E-002  0.1910715E+03  0.7818608E-02  0.1157599E+00
         21   -1    0    0  503  502  0.00000000000E+00  0.00000000000E+00  0.79371667563E+03  0.79371667563E+03  0.00000000000E+00 0. -1.
         21   -1    0    0  501  503 -0.00000000000E+00 -0.00000000000E+00 -0.47071757053E+02  0.47071757053E+02  0.00000000000E+00 0. -1.
          6    2    1    2  501    0  0.83422732571E+02  0.59209345085E+01  0.30711664731E+03  0.36170284625E+03  0.17179611215E+03 0.  0.
         24    2    3    3    0    0  0.99311703028E+02 -0.12383125178E+02  0.31214800524E+03  0.33650557366E+03  0.76049114286E+02 0.  0.
         -6    2    1    2    0  502 -0.83422732571E+02 -0.59209345085E+01  0.43952827126E+03  0.47908558644E+03  0.17129941074E+03 0.  0.
        -24    2    5    5    0    0 -0.94626644457E+02  0.50337916014E+02  0.30562777875E+03  0.33333917036E+03  0.78857819682E+02 0.  0.
          5    1    3    3  501    0 -0.15888970457E+02  0.18304059687E+02 -0.50313579215E+01  0.25197272585E+02  0.47000000000E+01 0. -1.
        -13    1    4    4    0    0  0.14842064309E+02 -0.33731328752E+02  0.11991873634E+03  0.12545354813E+03  0.00000000000E+00 0.  1.
         14    1    4    4    0    0  0.84469638719E+02  0.21348203574E+02  0.19222926890E+03  0.21105202553E+03  0.00000000000E+00 0. -1.
         -5    1    5    5    0  502  0.11203911886E+02 -0.56258850523E+02  0.13390049252E+03  0.14574641608E+03  0.47000000000E+01 0.  1.
         11    1    6    6    0    0 -0.58582264472E+02  0.69819886244E+02  0.19157478447E+03  0.21214993818E+03  0.00000000000E+00 0. -1.
        -12    1    6    6    0    0 -0.36044379985E+02 -0.19481970230E+02  0.11405299428E+03  0.12118923218E+03  0.00000000000E+00 0.  1.
</event>
<event>
12    1  0.8724767E-002  0.2891254E+03  0.7818608E-02  0.1090931E+00
         21   -1    0    0  501  502  0.00000000000E+00  0.00000000000E+00  0.17282314092E+03  0.17282314092E+03  0.00000000000E+00 0.  1.
         21   -1    0    0  502  503 -0.00000000000E+00 -0.00000000000E+00 -0.51674392977E+03  0.51674392977E+03  0.00000000000E+00 0.  1.
         -6    2    1    2    0  503  0.39475713855E+00 -0.23109619918E+03 -0.82959740568E+02  0.30079200261E+03  0.17374665800E+03 0.  0.
        -24    2    3    3    0    0  0.54984591344E+01 -0.63653153899E+02 -0.87837579601E+02  0.13313430221E+03  0.76989252374E+02 0.  0.
          6    2    1    2  501    0 -0.39475713855E+00  0.23109619918E+03 -0.26096104828E+03  0.38877506808E+03  0.17216206242E+03 0.  0.
         24    2    5    5    0    0  0.32765469291E+02  0.70500591365E+02 -0.53068336499E+02  0.12395056114E+03  0.80644800870E+02 0.  0.
          5    1    5    5  501    0 -0.33160226430E+02  0.16059560782E+03 -0.20789271178E+03  0.26482450694E+03  0.47000000000E+01 0. -1.
        -11    1    6    6    0    0  0.30813195330E+02  0.84204794538E+02 -0.60569603073E+02  0.10820617933E+03  0.00000000000E+00 0.  1.
         12    1    6    6    0    0  0.19522739613E+01 -0.13704203173E+02  0.75012665742E+01  0.15744381806E+02  0.00000000000E+00 0. -1.
         -5    1    3    3    0  503 -0.51037019959E+01 -0.16744304528E+03  0.48778390324E+01  0.16765770040E+03  0.47000000000E+01 0.  1.
         11    1    4    4    0    0  0.19989448593E+02  0.26189164570E+01 -0.53352417968E+02  0.57034351767E+02  0.00000000000E+00 0. -1.
        -12    1    4    4    0    0 -0.14490989459E+02 -0.66272070356E+02 -0.34485161633E+02  0.76099950444E+02  0.00000000000E+00 0.  1.
</event>
<event>
12    1  0.8724767E-002  0.1761944E+03  0.7818608E-02  0.1172686E+00
         21   -1    0    0  503  502  0.00000000000E+00  0.00000000000E+00  0.23411602015E+03  0.23411602015E+03  0.00000000000E+00 0. -1.
         21   -1    0    0  501  503 -0.00000000000E+00 -0.00000000000E+00 -0.13002524566E+03  0.13002524566E+03  0.00000000000E+00 0. -1.
          6    2    1    2  501    0  0.32321732287E+01 -0.35492744805E+01  0.36860915381E+02  0.17555619686E+03  0.17157565935E+03 0.  0.
         24    2    3    3    0    0  0.33451030950E+02 -0.55230488380E+02  0.49580414906E+02  0.11417213622E+03  0.80047990790E+02 0.  0.
         -6    2    1    2    0  502 -0.32321732287E+01  0.35492744805E+01  0.67229859107E+02  0.18858506895E+03  0.17612901517E+03 0.  0.
        -24    2    5    5    0    0 -0.31195283753E+02 -0.41629948677E+01  0.10731870913E+03  0.13887973177E+03  0.82339530670E+02 0.  0.
          5    1    3    3  501    0 -0.30218857721E+02  0.51681213900E+02 -0.12719499525E+02  0.61384060637E+02  0.47000000000E+01 0. -1.
        -13    1    4    4    0    0 -0.92229073474E+01 -0.90213812571E+00 -0.16274811636E+02  0.18728197108E+02  0.00000000000E+00 0.  1.
         14    1    4    4    0    0  0.42673938297E+02 -0.54328350255E+02  0.65855226542E+02  0.95443939117E+02  0.00000000000E+00 0. -1.
         -5    1    5    5    0  502  0.27963110524E+02  0.77122693482E+01 -0.40088850024E+02  0.49705337187E+02  0.47000000000E+01 0.  1.
         11    1    6    6    0    0 -0.14514640381E+02  0.39138441638E+02  0.51372941303E+02  0.66194195345E+02  0.00000000000E+00 0. -1.
        -12    1    6    6    0    0 -0.16680643372E+02 -0.43301436506E+02  0.55945767829E+02  0.72685536421E+02  0.00000000000E+00 0.  1.
</event>
<event>
12    1  0.8724767E-002  0.1927531E+03  0.7818608E-02  0.1156215E+00
         21   -1    0    0  503  502  0.00000000000E+00  0.00000000000E+00  0.18621155820E+03  0.18621155820E+03  0.00000000000E+00 0.  1.
         21   -1    0    0  501  503 -0.00000000000E+00 -0.00000000000E+00 -0.78174548733E+03  0.78174548733E+03  0.00000000000E+00 0. -1.
          6    2    1    2  501    0 -0.27530482507E+02 -0.80767200306E+02 -0.71560816097E+03  0.74086325638E+03  0.17176162696E+03 0.  0.
         24    2    3    3    0    0  0.48261381020E+02 -0.39129671625E+02 -0.46284362795E+03  0.47367401722E+03  0.79262592405E+02 0.  0.
         -6    2    1    2    0  502  0.27530482507E+02  0.80767200306E+02  0.12007423185E+03  0.22709378915E+03  0.17283662749E+03 0.  0.
        -24    2    5    5    0    0  0.72021926273E+02  0.51145039581E+02  0.10262640282E+03  0.17067147342E+03  0.10389225353E+03 0.  0.
          5    1    3    3  501    0 -0.75791863527E+02 -0.41637528681E+02 -0.25276453302E+03  0.26718923917E+03  0.47000000000E+01 0. -1.
        -13    1    4    4    0    0  0.57889757911E+02 -0.38133966243E+02 -0.22056172938E+03  0.23119883200E+03  0.00000000000E+00 0.  1.
         14    1    4    4    0    0 -0.96283768911E+01 -0.99570538181E+00 -0.24228189857E+03  0.24247518521E+03  0.00000000000E+00 0. -1.
         -5    1    5    5    0  502 -0.44491443767E+02  0.29622160724E+02  0.17447829027E+02  0.56422315729E+02  0.47000000000E+01 0.  1.
         11    1    6    6    0    0  0.17734670912E+01 -0.26191214789E+02  0.42988788449E+02  0.50370237740E+02  0.00000000000E+00 0. -1.
        -12    1    6    6    0    0  0.70248459182E+02  0.77336254370E+02  0.59637614373E+02  0.12030123568E+03  0.00000000000E+00 0.  1.
</event>
<event>
12    1  0.8724767E-002  0.2272946E+03  0.7818608E-02  0.1128690E+00
         21   -1    0    0  503  502  0.00000000000E+00  0.00000000000E+00  0.46496959425E+03  0.46496959425E+03  0.00000000000E+00 0. -1.
         21   -1    0    0  501  503 -0.00000000000E+00 -0.00000000000E+00 -0.11110909157E+03  0.11110909157E+03  0.00000000000E+00 0.  1.
          6    2    1    2  501    0 -0.10806834229E+03 -0.10063688169E+03  0.16089446871E+03  0.27847774051E+03  0.17278967948E+03 0.  0.
         24    2    3    3    0    0 -0.56627968618E+02 -0.50166194280E+02  0.99696046173E+01  0.11116424155E+03  0.80837625554E+02 0.  0.
         -6    2    1    2    0  502  0.10806834229E+03  0.10063688169E+03  0.19296603397E+03  0.29760094530E+03  0.17182515479E+03 0.  0.
        -24    2    5    5    0    0  0.77592167150E+02 -0.10297605158E+02  0.10165538799E+03  0.15064863435E+03  0.78959534260E+02 0.  0.
          5    1    3    3  501    0 -0.51440373672E+02 -0.50470687413E+02  0.15092486410E+03  0.16731349896E+03  0.47000000000E+01 0. -1.
        -11    1    4    4    0    0 -0.17740447404E+02 -0.66277151800E+02  0.70093827764E+01  0.68967497937E+02  0.00000000000E+00 0.  1.
         12    1    4    4    0    0 -0.38887521213E+02  0.16110957520E+02  0.29602218410E+01  0.42196743615E+02  0.00000000000E+00 0. -1.
         -5    1    5    5    0  502  0.30476175140E+02  0.11093448685E+03  0.91310645982E+02  0.14695231095E+03  0.47000000000E+01 0.  1.
         11    1    6    6    0    0  0.84300369235E+02  0.13956586832E+02  0.84636830636E+02  0.12026941286E+03  0.00000000000E+00 0. -1.
        -12    1    6    6    0    0 -0.67082020847E+01 -0.24254191990E+02  0.17018557351E+02  0.30379221494E+02  0.00000000000E+00 0.  1.
</event>
<event>
12    1  0.8724767E-002  0.2218268E+03  0.7818608E-02  0.1134375E+00
         21   -1    0    0  503  502  0.00000000000E+00  0.00000000000E+00  0.48643182765E+03  0.48643182765E+03  0.00000000000E+00 0.  1.
         21   -1    0    0  501  503 -0.00000000000E+00 -0.00000000000E+00 -0.23618707128E+03  0.23618707128E+03  0.00000000000E+00 0. -1.
          6    2    1    2  501    0  0.10585507177E+03 -0.90545919878E+02 -0.15130694782E+03  0.26851616006E+03  0.17263625323E+03 0.  0.
         24    2    3    3    0    0  0.23262658197E+02 -0.10793051481E+03 -0.10549384727E+03  0.17236699937E+03  0.79945502473E+02 0.  0.
         -6    2    1    2    0  502 -0.10585507177E+03  0.90545919878E+02  0.40155170419E+03  0.45410273887E+03  0.15988016288E+03 0.  0.
        -24    2    5    5    0    0 -0.93866036844E+02  0.11569709794E+03  0.31714124640E+03  0.36508850349E+03  0.10253971848E+03 0.  0.
          5    1    3    3  501    0  0.82592413573E+02  0.17384594929E+02 -0.45813100543E+02  0.96149160693E+02  0.47000000000E+01 0. -1.
        -13    1    4    4    0    0 -0.10794599713E+02 -0.82537033551E+02 -0.35508586631E+02  0.90497209984E+02  0.00000000000E+00 0.  1.
         14    1    4    4    0    0  0.34057257910E+02 -0.25393481256E+02 -0.69985260641E+02  0.81869789384E+02  0.00000000000E+00 0. -1.
         -5    1    5    5    0  502 -0.11989034926E+02 -0.25151178059E+02  0.84410457787E+02  0.89014235379E+02  0.47000000000E+01 0.  1.
         13    1    6    6    0    0 -0.11301166717E+03  0.10441020650E+03  0.24235582666E+03  0.28707050502E+03  0.00000000000E+00 0. -1.
        -14    1    6    6    0    0  0.19145630322E+02  0.11286891439E+02  0.74785419742E+02  0.78017998467E+02  0.00000000000E+00 0.  1.
</event>
<event>
12    1  0.8724767E-002  0.2449103E+03  0.7818608E-02  0.1117899E+00
         21   -1    0    0  501  502  0.00000000000E+00  0.00000000000E+00  0.81320802580E+02  0.81320802580E+02  0.00000000000E+00 0. -1.
         21   -1    0    0  502  503 -0.00000000000E+00 -0.00000000000E+00 -0.86560767484E+03  0.86560767484E+03  0.00000000000E+00 0.  1.
         -6    2    1    2    0  503  0.39595502872E+02 -0.16910187546E+03 -0.59604327937E+03  0.64439790169E+03  0.17267836198E+03 0.  0.
        -24    2    3    3    0    0  0.71814613652E+02 -0.16125936019E+03 -0.39035044110E+03  0.43599634253E+03  0.80977922022E+02 0.  0.
          6    2    1    2  501    0 -0.39595502872E+02  0.16910187546E+03 -0.18824359289E+03  0.30253057573E+03  0.16101506406E+03 0.  0.
         24    2    5    5    0    0 -0.56508078169E+02  0.15255029315E+03 -0.20446561567E+03  0.27345766560E+03  0.80673118502E+02 0.  0.
          5    1    5    5  501    0  0.16912575298E+02  0.16551582312E+02  0.16222022774E+02  0.29072910124E+02  0.47000000000E+01 0. -1.
        -13    1    6    6    0    0 -0.14953629641E+02  0.44979944856E+02 -0.11685798953E+02  0.48819712984E+02  0.00000000000E+00 0.  1.
         14    1    6    6    0    0 -0.41554448529E+02  0.10757034829E+03 -0.19277981671E+03  0.22463795262E+03  0.00000000000E+00 0. -1.
         -5    1    3    3    0  503 -0.32219110781E+02 -0.78425152706E+01 -0.20569283827E+03  0.20840155916E+03  0.47000000000E+01 0.  1.
         13    1    4    4    0    0  0.10245531190E+02 -0.29231036777E+02 -0.17227597367E+02  0.35443116842E+02  0.00000000000E+00 0. -1.
        -14    1    4    4    0    0  0.61569082462E+02 -0.13202832341E+03 -0.37312284373E+03  0.40055322569E+03  0.00000000000E+00 0.  1.
</event>
<event>
12    1  0.8724767E-002  0.1879412E+03  0.7818608E-02  0.1160666E+00
         21   -1    0    0  503  502  0.00000000000E+00  0.00000000000E+00  0.79595075365E+03  0.79595075365E+03  0.00000000000E+00 0. -1.
         21   -1    0    0  501  503 -0.00000000000E+00 -0.00000000000E+00 -0.44769181025E+02  0.44769181025E+02  0.00000000000E+00 0. -1.
          6    2    1    2  501    0 -0.33910243620E+02  0.67571182765E+02  0.32028090122E+03  0.37061645996E+03  0.17047268212E+03 0.  0.
         24    2    3    3    0    0  0.12839716471E+02  0.47750799695E+02  0.30254919266E+03  0.31662655496E+03  0.79191944903E+02 0.  0.
         -6    2    1    2    0  502  0.33910243620E+02 -0.67571182765E+02  0.43090067140E+03  0.47010347471E+03  0.17206428727E+03 0.  0.
        -24    2    5    5    0    0  0.83758582295E+02 -0.75014230229E+02  0.32011472927E+03  0.34830088525E+03  0.78723769763E+02 0.  0.
          5    1    3    3  501    0 -0.46749960091E+02  0.19820383070E+02  0.17731708558E+02  0.53989905000E+02  0.47000000000E+01 0. -1.
        -13    1    4    4    0    0 -0.20608374184E+02 -0.10962937864E+02  0.11318915627E+03  0.11557108717E+03  0.00000000000E+00 0.  1.
         14    1    4    4    0    0  0.33448090655E+02  0.58713737559E+02  0.18936003639E+03  0.20105546779E+03  0.00000000000E+00 0. -1.
         -5    1    5    5    0  502 -0.49848338676E+02  0.74430474641E+01  0.11078594213E+03  0.12180258946E+03  0.47000000000E+01 0.  1.
         11    1    6    6    0    0  0.21324572399E+02 -0.98604631928E+01  0.10373039796E+02  0.25682018553E+02  0.00000000000E+00 0. -1.
        -12    1    6    6    0    0  0.62434009897E+02 -0.65153767036E+02  0.30974168947E+03  0.32261886670E+03  0.00000000000E+00 0.  1.
</event>
<event>
12    1  0.8724767E-002  0.1781741E+03  0.7818608E-02  0.1169606E+00
         21   -1    0    0  503  502  0.00000000000E+00  0.00000000000E+00  0.37756892647E+02  0.37756892647E+02  0.00000000000E+00 0.  1.
         21   -1    0    0  501  503 -0.00000000000E+00 -0.00000000000E+00 -0.94001421091E+03  0.94001421091E+03  0.00000000000E+00 0.  1.
          6    2    1    2  501    0  0.19821083890E+02  0.39219079709E+02 -0.29182333123E+03  0.34186570491E+03  0.17256967278E+03 0.  0.
         24    2    3    3    0    0  0.34356900921E+02  0.53779737504E+02 -0.80682023818E+02  0.12967229213E+03  0.78947182166E+02 0.  0.
         -6    2    1    2    0  502 -0.19821083890E+02 -0.39219079709E+02 -0.61043398703E+03  0.63590539865E+03  0.17267024041E+03 0.  0.
        -24    2    5    5    0    0 -0.94703415997E+01 -0.14120152055E+02 -0.12079511303E+03  0.14549188847E+03  0.79292901401E+02 0.  0.
          5    1    3    3  501    0 -0.14535817031E+02 -0.14560657795E+02 -0.21114130741E+03  0.21219341278E+03  0.47000000000E+01 0. -1.
        -11    1    4    4    0    0  0.23263932066E+02  0.29973170125E+02 -0.93163323246E+02  0.10059327145E+03  0.00000000000E+00 0.  1.
         12    1    4    4    0    0  0.11092968855E+02  0.23806567379E+02  0.12481299427E+02  0.29079020682E+02  0.00000000000E+00 0. -1.
         -5    1    5    5    0  502 -0.10350742290E+02 -0.25098927654E+02 -0.48963887400E+03  0.49041351018E+03  0.47000000000E+01 0.  1.
         11    1    6    6    0    0  0.30180488902E+02  0.10622642745E+02 -0.32597707138E+02  0.45676174970E+02  0.00000000000E+00 0. -1.
        -12    1    6    6    0    0 -0.39650830501E+02 -0.24742794801E+02 -0.88197405895E+02  0.99815713496E+02  0.00000000000E+00 0.  1.
</event>
<event>
12    1  0.8724767E-002  0.4258196E+03  0.7818608E-02  0.1035430E+00
         21   -1    0    0  501  502  0.00000000000E+00  0.00000000000E+00  0.25963875178E+03  0.25963875178E+03  0.00000000000E+00 0.  1.
         21   -1    0    0  502  503 -0.00000000000E+00 -0.00000000000E+00 -0.70958399318E+03  0.70958399318E+03  0.00000000000E+00 0. -1.
         -6    2    1    2    0  503 -0.20465666335E+02  0.38943575090E+03 -0.29729492248E+03  0.51686838080E+03  0.16336953377E+03 0.  0.
        -24    2    3    3    0    0  0.50429252396E+02  0.18568980253E+03 -0.16543751763E+03  0.26399100698E+03  0.72786449730E+02 0.  0.
          6    2    1    2  501    0  0.20465666335E+02 -0.38943575090E+03 -0.15265031892E+03  0.45235436416E+03  0.17100673475E+03 0.  0.
         24    2    5    5    0    0 -0.50036185326E+02 -0.27913087682E+03 -0.10868257211E+03  0.31417719856E+03  0.80484435630E+02 0.  0.
          5    1    5    5  501    0  0.70501851661E+02 -0.11030487408E+03 -0.43967746815E+02  0.13817716560E+03  0.47000000000E+01 0. -1.
        -13    1    6    6    0    0 -0.28882441237E+01 -0.15074011373E+01 -0.18066649560E+02  0.18358051058E+02  0.00000000000E+00 0.  1.
         14    1    6    6    0    0 -0.47147941203E+02 -0.27762347568E+03 -0.90615922547E+02  0.29581914750E+03  0.00000000000E+00 0. -1.
         -5    1    3    3    0  503 -0.70894918731E+02  0.20374594837E+03 -0.13185740485E+03  0.25287737383E+03  0.47000000000E+01 0.  1.
         13    1    4    4    0    0  0.18283297511E+02  0.12015651105E+01 -0.17525565092E+02  0.25354844870E+02  0.00000000000E+00 0. -1.
        -14    1    4    4    0    0  0.32145954885E+02  0.18448823742E+03 -0.14791195254E+03  0.23863616211E+03  0.00000000000E+00 0.  1.
</event>
<event>
12    1  0.8724767E-002  0.2167107E+03  0.7818608E-02  0.1136552E+00
         21   -1    0    0  501  502  0.00000000000E+00  0.00000000000E+00  0.18375108128E+03  0.18375108128E+03  0.00000000000E+00 0.  1.
         21   -1    0    0  502  503 -0.00000000000E+00 -0.00000000000E+00 -0.28399228678E+03  0.28399228678E+03  0.00000000000E+00 0. -1.
         -6    2    1    2    0  503  0.12296660971E+03 -0.49092644302E+02 -0.12572883740E+03  0.25054194151E+03  0.17155946221E+03 0.  0.
        -24    2    3    3    0    0  0.48541899328E+02  0.73703112931E+01 -0.12560344316E+03  0.15700473718E+03  0.80396673337E+02 0.  0.
          6    2    1    2  501    0 -0.12296660971E+03  0.49092644302E+02  0.25487631898E+02  0.21720142655E+03  0.17028201752E+03 0.  0.
         24    2    5    5    0    0 -0.14960125799E+03  0.14419209999E+02  0.10471993357E+02  0.17073411615E+03  0.80324502869E+02 0.  0.
          5    1    5    5  501    0  0.26634648285E+02  0.34673434304E+02  0.15015638541E+02  0.46467310407E+02  0.47000000000E+01 0. -1.
        -13    1    6    6    0    0 -0.43262922970E+02  0.31708335599E+01  0.40834876886E+02  0.59575346073E+02  0.00000000000E+00 0.  1.
         14    1    6    6    0    0 -0.10633833502E+03  0.11248376439E+02 -0.30362883529E+02  0.11115877007E+03  0.00000000000E+00 0. -1.
         -5    1    3    3    0  503  0.74424710381E+02 -0.56462955595E+02 -0.12539423457E+00  0.93537204329E+02  0.47000000000E+01 0.  1.
         11    1    4    4    0    0  0.62263411603E+02  0.27772251983E+02 -0.79295898618E+02  0.10457470986E+03  0.00000000000E+00 0. -1.
        -12    1    4    4    0    0 -0.13721512275E+02 -0.20401940690E+02 -0.46307544546E+02  0.52430027321E+02  0.00000000000E+00 0.  1.
</event>
<event>
12    1  0.8724767E-002  0.2032293E+03  0.7818608E-02  0.1147104E+00
         21   -1    0    0  501  502  0.00000000000E+00  0.00000000000E+00  0.47066519500E+03  0.47066519500E+03  0.00000000000E+00 0. -1.
         21   -1    0    0  502  503 -0.00000000000E+00 -0.00000000000E+00 -0.26391442409E+03  0.26391442409E+03  0.00000000000E+00 0.  1.
         -6    2    1    2    0  503  0.51468878334E+02  0.94865616756E+02 -0.19678542421E+03  0.28288982720E+03  0.17220226617E+03 0.  0.
        -24    2    3    3    0    0 -0.36326285061E+02  0.70219114745E+02 -0.10602998927E+03  0.15414946932E+03  0.79179398862E+02 0.  0.
          6    2    1    2  501    0 -0.51468878334E+02 -0.94865616756E+02  0.40353619512E+03  0.45168979190E+03  0.17185364893E+03 0.  0.
         24    2    5    5    0    0  0.42524714069E+02 -0.46749192414E+02  0.20043808126E+03  0.22273363986E+03  0.73763213083E+02 0.  0.
          5    1    5    5  501    0 -0.93993592403E+02 -0.48116424341E+02  0.20309811386E+03  0.22895615204E+03  0.47000000000E+01 0. -1.
        -11    1    6    6    0    0  0.29159110057E+02  0.15565584748E+02  0.59748850752E+02  0.68282254606E+02  0.00000000000E+00 0.  1.
         12    1    6    6    0    0  0.13365604012E+02 -0.62314777162E+02  0.14068923051E+03  0.15445138525E+03  0.00000000000E+00 0. -1.
         -5    1    3    3    0  503  0.87795163395E+02  0.24646502011E+02 -0.90755434938E+02  0.12874035788E+03  0.47000000000E+01 0.  1.
         11    1    4    4    0    0  0.14156830204E+02  0.21452162483E+02  0.14911676661E+01  0.25745576273E+02  0.00000000000E+00 0. -1.
        -12    1    4    4    0    0 -0.50483115265E+02  0.48766952262E+02 -0.10752115694E+03  0.12840389305E+03  0.00000000000E+00 0.  1.
</event>
<event>
12    1  0.8724767E-002  0.1788259E+03  0.7818608E-02  0.1169689E+00
         21   -1    0    0  503  502  0.00000000000E+00  0.00000000000E+00  0.38369146455E+03  0.38369146455E+03  0.00000000000E+00 0.  1.
         21   -1    0    0  501  503 -0.00000000000E+00 -0.00000000000E+00 -0.29775459755E+03  0.29775459755E+03  0.00000000000E+00 0.  1.
          6    2    1    2  501    0  0.19821747562E+02  0.37630913816E+02 -0.24700320758E+03  0.30494147134E+03  0.17369435523E+03 0.  0.
         24    2    3    3    0    0 -0.39959828565E+02 -0.40073094298E+01 -0.69833018247E+02  0.11331959246E+03  0.79698388748E+02 0.  0.
         -6    2    1    2    0  502 -0.19821747562E+02 -0.37630913816E+02  0.33294007457E+03  0.37650459076E+03  0.17058026338E+03 0.  0.
        -24    2    5    5    0    0  0.24814105965E+02  0.25425631985E+02  0.11054084861E+03  0.14102212199E+03  0.80035973550E+02 0.  0.
          5    1    3    3  501    0  0.59781576128E+02  0.41638223246E+02 -0.17717018933E+03  0.19162187888E+03  0.47000000000E+01 0. -1.
        -11    1    4    4    0    0 -0.10627255159E+02  0.37184046396E+02 -0.29723176698E+02  0.48775599346E+02  0.00000000000E+00 0.  1.
         12    1    4    4    0    0 -0.29332573406E+02 -0.41191355826E+02 -0.40109841549E+02  0.64543993109E+02  0.00000000000E+00 0. -1.
         -5    1    5    5    0  502 -0.44635853528E+02 -0.63056545801E+02  0.22239922597E+03  0.23548246877E+03  0.47000000000E+01 0.  1.
         11    1    6    6    0    0 -0.22867502208E+02  0.28992875149E+02  0.66250958076E+02  0.75846548456E+02  0.00000000000E+00 0. -1.
        -12    1    6    6    0    0  0.47681608173E+02 -0.35672431644E+01  0.44289890531E+02  0.65175573530E+02  0.00000000000E+00 0.  1.
</event>
<event>
12    1  0.8724767E-002  0.1990937E+03  0.7818608E-02  0.1150699E+00
         21   -1    0    0  503  502  0.00000000000E+00  0.00000000000E+00  0.93791152968E+03  0.93791152968E+03  0.00000000000E+00 0.  1.
         21   -1    0    0  501  503 -0.00000000000E+00 -0.00000000000E+00 -0.76969092885E+02  0.76969092885E+02  0.00000000000E+00 0. -1.
          6    2    1    2  501    0  0.69758379325E+02  0.72212572642E+02  0.89317446318E+02  0.21821071608E+03  0.17192272468E+03 0.  0.
         24    2    3    3    0    0 -0.32664897066E+01  0.17474067685E+01  0.82936015141E+02  0.11642278083E+03  0.81622042994E+02 0.  0.
         -6    2    1    2    0  502 -0.69758379325E+02 -0.72212572642E+02  0.77162499048E+03  0.79666990649E+03  0.17087108253E+03 0.  0.
        -24    2    5    5    0    0 -0.11610846281E+02 -0.10101889902E+03  0.43764776974E+03  0.45641439366E+03  0.80242748403E+02 0.  0.
          5    1    3    3  501    0  0.73024869031E+02  0.70465165874E+02  0.63814311772E+01  0.10178793525E+03  0.47000000000E+01 0. -1.
        -13    1    4    4    0    0 -0.17620644737E+02 -0.36028989375E+02  0.31427641196E+02  0.50953624282E+02  0.00000000000E+00 0.  1.
         14    1    4    4    0    0  0.14354155030E+02  0.37776396143E+02  0.51508373945E+02  0.65469156545E+02  0.00000000000E+00 0. -1.
         -5    1    5    5    0  502 -0.58147533044E+02  0.28806326382E+02  0.33397722073E+03  0.34025551282E+03  0.47000000000E+01 0.  1.
         11    1    6    6    0    0  0.29851295687E+02 -0.63652205204E+02  0.19094875021E+03  0.20348004395E+03  0.00000000000E+00 0. -1.
        -12    1    6    6    0    0 -0.41462141968E+02 -0.37366693820E+02  0.24669901954E+03  0.25293434971E+03  0.00000000000E+00 0.  1.
</event>
<event>
12    1  0.8724767E-002  0.1875392E+03  0.7818608E-02  0.1161834E+00
         21   -1    0    0  503  502  0.00000000000E+00  0.00000000000E+00  0.42260128987E+02  0.42260128987E+02  0.00000000000E+00 0.  1.
         21   -1    0    0  501  503 -0.00000000000E+00 -0.00000000000E+00 -0.83463681275E+03  0.83463681275E+03  0.00000000000E+00 0. -1.
          6    2    1    2  501    0 -0.38129913307E+02  0.64712378953E+02 -0.47542038552E+03  0.51107287732E+03  0.17184109138E+03 0.  0.
         24    2    3    3    0    0 -0.21125151120E+02 -0.98323156616E+01 -0.37521043515E+03  0.38493724562E+03  0.82769958175E+02 0.  0.
         -6    2    1    2    0  502  0.38129913307E+02 -0.64712378953E+02 -0.31695629824E+03  0.36582406441E+03  0.16650636274E+03 0.  0.
        -24    2    5    5    0    0 -0.12563998851E+02  0.13115078640E+02 -0.95468161331E+02  0.12560318548E+03  0.79574688310E+02 0.  0.
          5    1    3    3  501    0 -0.17004762187E+02  0.74544694615E+02 -0.10020995037E+03  0.12613563171E+03  0.47000000000E+01 0. -1.
        -11    1    4    4    0    0 -0.17961798233E+02 -0.45459939807E+01 -0.37780038612E+03  0.37825444348E+03  0.00000000000E+00 0.  1.
         12    1    4    4    0    0 -0.31633528875E+01 -0.52863216810E+01  0.25899509709E+01  0.66828021396E+01  0.00000000000E+00 0. -1.
         -5    1    5    5    0  502  0.50693912158E+02 -0.77827457593E+02 -0.22148813691E+03  0.24022087893E+03  0.47000000000E+01 0.  1.
         13    1    6    6    0    0  0.30867253560E+02  0.12119550375E+02 -0.20584935762E+02  0.39030890638E+02  0.00000000000E+00 0. -1.
        -14    1    6    6    0    0 -0.43431252411E+02  0.99552826460E+00 -0.74883225569E+02  0.86572294841E+02  0.00000000000E+00 0.  1.
</event>
<event>
12    1  0.8724767E-002  0.2690049E+03  0.7818608E-02  0.1101888E+00
         21   -1    0    0  501  502  0.00000000000E+00  0.00000000000E+00  0.17774302408E+04  0.17774302408E+04  0.00000000000E+00 0.  1.
         21   -1    0    0  502  503 -0.00000000000E+00 -0.00000000000E+00 -0.52026124203E+02  0.52026124203E+02  0.00000000000E+00 0.  1.
         -6    2    1    2    0  503 -0.20047782438E+03  0.53706202595E+02  0.43505896182E+03  0.51136902582E+03  0.17072277543E+03 0.  0.
        -24    2    3    3    0    0 -0.11483002636E+03 -0.24957711629E+02  0.30752886678E+03  0.33871453892E+03  0.79653704569E+02 0.  0.
          6    2    1    2  501    0  0.20047782438E+03 -0.53706202595E+02  0.12903451548E+04  0.13180873392E+04  0.17113708242E+03 0.  0.
         24    2    5    5    0    0  0.22331018261E+03 -0.38665090077E+02  0.11201563798E+04  0.11456522477E+04  0.80039556351E+02 0.  0.
          5    1    5    5  501    0 -0.22832358231E+02 -0.15041112518E+02  0.17018877501E+03  0.17243509152E+03  0.47000000000E+01 0. -1.
        -13    1    6    6    0    0  0.19509516354E+03 -0.60199246381E+02  0.92121156376E+03  0.94356601110E+03  0.00000000000E+00 0.  1.
         14    1    6    6    0    0  0.28215019072E+02  0.21534156305E+02  0.19894481605E+03  0.20208623660E+03  0.00000000000E+00 0. -1.
         -5    1    3    3    0  503 -0.85647798022E+02  0.78663914225E+02  0.12753009503E+03  0.17265448690E+03  0.47000000000E+01 0.  1.
         13    1    4    4    0    0 -0.15140264730E+02 -0.34515024867E+02  0.12448442050E+03  0.13006492803E+03  0.00000000000E+00 0. -1.
        -14    1    4    4    0    0 -0.99689761626E+02  0.95573132371E+01  0.18304444628E+03  0.20864961089E+03  0.00000000000E+00 0.  1.
</event>
<event>
12    1  0.8724767E-002  0.1969080E+03  0.7818608E-02  0.1152598E+00
         21   -1    0    0  503  502  0.00000000000E+00  0.00000000000E+00  0.34003300597E+03  0.34003300597E+03  0.00000000000E+00 0.  1.
         21   -1    0    0  501  503 -0.00000000000E+00 -0.00000000000E+00 -0.12044318627E+03  0.12044318627E+03  0.00000000000E+00 0. -1.
          6    2    1    2  501    0 -0.69027363129E+02  0.66570063274E+02  0.53950747794E+02  0.20316495208E+03  0.17078923965E+03 0.  0.
         24    2    3    3    0    0 -0.96881793712E+02  0.29570076435E+02  0.79059929499E+02  0.15027422193E+03  0.77919175769E+02 0.  0.
         -6    2    1    2    0  502  0.69027363129E+02 -0.66570063274E+02  0.16563907190E+03  0.25731124017E+03  0.17197796949E+03 0.  0.
        -24    2    5    5    0    0  0.75660356751E+02 -0.10364090871E+03  0.15890033936E+03  0.21876588114E+03  0.78378985453E+02 0.  0.
          5    1    3    3  501    0  0.27854430583E+02  0.36999986839E+02 -0.25109181706E+02  0.52890730144E+02  0.47000000000E+01 0. -1.
        -13    1    4    4    0    0 -0.84763743140E+02  0.27740631235E+01  0.24473378498E+02  0.88269665415E+02  0.00000000000E+00 0.  1.
         14    1    4    4    0    0 -0.12118050572E+02  0.26796013311E+02  0.54586551001E+02  0.62004556520E+02  0.00000000000E+00 0. -1.
         -5    1    5    5    0  502 -0.66329936217E+01  0.37070845439E+02  0.67387325409E+01  0.38545359023E+02  0.47000000000E+01 0.  1.
         11    1    6    6    0    0 -0.14371539937E+02 -0.18830940836E+01  0.15396704481E+02  0.21145820210E+02  0.00000000000E+00 0. -1.
        -12    1    6    6    0    0  0.90031896687E+02 -0.10175781463E+03  0.14350363488E+03  0.19762006093E+03  0.00000000000E+00 0.  1.
</event>
<event>
12    1  0.8724767E-002  0.1877492E+03  0.7818608E-02  0.1160772E+00
         21   -1    0    0  503  502  0.00000000000E+00  0.00000000000E+00  0.36894474994E+02  0.36894474994E+02  0.00000000000E+00 0.  1.
         21   -1    0    0  501  503 -0.00000000000E+00 -0.00000000000E+00 -0.11781345032E+04  0.11781345032E+04  0.00000000000E+00 0.  1.
          6    2    1    2  501    0 -0.76458848958E+02 -0.18797763971E+02 -0.83962490567E+03  0.86036024345E+03  0.17044193958E+03 0.  0.
         24    2    3    3    0    0 -0.65030052209E+02  0.44733407065E+02 -0.63894579966E+03  0.64950242244E+03  0.85858467619E+02 0.  0.
         -6    2    1    2    0  502  0.76458848958E+02  0.18797763971E+02 -0.30161512252E+03  0.35466873474E+03  0.16917126751E+03 0.  0.
        -24    2    5    5    0    0  0.22707313184E+02  0.33571703245E+02 -0.60262271283E+02  0.10691727524E+03  0.78467069997E+02 0.  0.
          5    1    3    3  501    0 -0.11428796749E+02 -0.63531171035E+02 -0.20067910601E+03  0.21085782101E+03  0.47000000000E+01 0. -1.
        -11    1    4    4    0    0 -0.10518161016E+02  0.16489786507E+02 -0.21710897793E+02  0.29221701750E+02  0.00000000000E+00 0.  1.
         12    1    4    4    0    0 -0.54511891193E+02  0.28243620558E+02 -0.61723490186E+03  0.62028072069E+03  0.00000000000E+00 0. -1.
         -5    1    5    5    0  502  0.53751535774E+02 -0.14773939274E+02 -0.24135285124E+03  0.24775145950E+03  0.47000000000E+01 0.  1.
         11    1    6    6    0    0  0.12938875683E+02  0.38968782326E+02 -0.76729082921E+02  0.87024896816E+02  0.00000000000E+00 0. -1.
        -12    1    6    6    0    0  0.97684375014E+01 -0.53970790819E+01  0.16466811639E+02  0.19892378424E+02  0.00000000000E+00 0.  1.
</event>
<event>
12    1  0.8724767E-002  0.1781019E+03  0.7818608E-02  0.1169920E+00
         21   -1    0    0  503  502  0.00000000000E+00  0.00000000000E+00  0.41428496400E+03  0.41428496400E+03  0.00000000000E+00 0.  1.
         21   -1    0    0  501  503 -0.00000000000E+00 -0.00000000000E+00 -0.96446610762E+02  0.96446610762E+02  0.00000000000E+00 0.  1.
          6    2    1    2  501    0  0.43341383759E+02  0.40279205120E+01  0.41244188491E+02  0.18175647802E+03  0.17157981970E+03 0.  0.
         24    2    3    3    0    0 -0.13644397486E+01  0.14913685054E+02 -0.38089288601E+02  0.89925104771E+02  0.80071535918E+02 0.  0.
         -6    2    1    2    0  502 -0.43341383759E+02 -0.40279205120E+01  0.27659416475E+03  0.32897509675E+03  0.17270084718E+03 0.  0.
        -24    2    5    5    0    0 -0.21652732601E+02 -0.69831596505E+02  0.15361485964E+03  0.18774294443E+03  0.79401482232E+02 0.  0.
          5    1    3    3  501    0  0.44705823508E+02 -0.10885764542E+02  0.79333477092E+02  0.91831373249E+02  0.47000000000E+01 0. -1.
        -13    1    4    4    0    0 -0.23968506009E+02  0.16358252210E+02  0.14665115307E+02  0.32513801725E+02  0.00000000000E+00 0.  1.
         14    1    4    4    0    0  0.22604066260E+02 -0.14445671556E+01 -0.52754403908E+02  0.57411303046E+02  0.00000000000E+00 0. -1.
         -5    1    5    5    0  502 -0.21688651158E+02  0.65803675993E+02  0.12297930511E+03  0.14123215232E+03  0.47000000000E+01 0.  1.
         11    1    6    6    0    0  0.16867477384E+02  0.59712016631E+00  0.31013344762E+01  0.17160612498E+02  0.00000000000E+00 0. -1.
        -12    1    6    6    0    0 -0.38520209985E+02 -0.70428716671E+02  0.15051352516E+03  0.17058233193E+03  0.00000000000E+00 0.  1.
</event>
<event>
12    1  0.8724767E-002  0.2190254E+03  0.7818608E-02  0.1134716E+00
         21   -1    0    0  503  502  0.00000000000E+00  0.00000000000E+00  0.72877389784E+02  0.72877389784E+02  0.00000000000E+00 0. -1.
         21   -1    0    0  501  503 -0.00000000000E+00 -0.00000000000E+00 -0.78410548103E+03  0.78410548103E+03  0.00000000000E+00 0. -1.
          6    2    1    2  501    0  0.13019735058E+03  0.21688256543E+02 -0.52878926112E+03  0.57235495137E+03  0.17478666172E+03 0.  0.
         24    2    3    3    0    0  0.26836748898E+02  0.64703008032E+02 -0.23874435152E+03  0.26141794423E+03  0.80210883565E+02 0.  0.
         -6    2    1    2    0  502 -0.13019735058E+03 -0.21688256543E+02 -0.18243883013E+03  0.28462791944E+03  0.17409019277E+03 0.  0.
        -24    2    5    5    0    0 -0.13380906096E+03 -0.55558470634E+02 -0.18798149095E+03  0.24979909599E+03  0.77916230427E+02 0.  0.
          5    1    3    3  501    0  0.10336060169E+03 -0.43014751489E+02 -0.29004490960E+03  0.31093700714E+03  0.47000000000E+01 0. -1.
        -13    1    4    4    0    0  0.49163628093E+02  0.45275980991E+02 -0.10521563226E+03  0.12464873065E+03  0.00000000000E+00 0.  1.
         14    1    4    4    0    0 -0.22326879195E+02  0.19427027041E+02 -0.13352871926E+03  0.13676921358E+03  0.00000000000E+00 0. -1.
         -5    1    5    5    0  502  0.36117103756E+01  0.33870214091E+02  0.55426608186E+01  0.34828823456E+02  0.47000000000E+01 0.  1.
         13    1    6    6    0    0 -0.46153375681E+02  0.12441628169E+02 -0.89450855159E+02  0.10142181071E+03  0.00000000000E+00 0. -1.
        -14    1    6    6    0    0 -0.87655685279E+02 -0.68000098803E+02 -0.98530635786E+02  0.14837728528E+03  0.00000000000E+00 0.  1.
</event>
<event>
12    1  0.8724767E-002  0.1930631E+03  0.7818608E-02  0.1155890E+00
         21   -1    0    0  503  502  0.00000000000E+00  0.00000000000E+00  0.27800971622E+03  0.27800971622E+03  0.00000000000E+00 0. -1.
         21   -1    0    0  501  503 -0.00000000000E+00 -0.00000000000E+00 -0.13356700423E+03  0.13356700423E+03  0.00000000000E+00 0. -1.
          6    2    1    2  501    0  0.84868758196E+02 -0.16899061661E+02  0.70918866991E+02  0.20498748936E+03  0.17176175563E+03 0.  0.
         24    2    3    3    0    0  0.29287214164E+02 -0.57158733085E+02 -0.31452915035E+01  0.10390465821E+03  0.81617543808E+02 0.  0.
         -6    2    1    2    0  502 -0.84868758196E+02  0.16899061661E+02  0.73523844994E+02  0.20658923109E+03  0.17258351665E+03 0.  0.
        -24    2    5    5    0    0 -0.50272840489E+02  0.44285498540E+02  0.10826874512E+03  0.15023151173E+03  0.79742222677E+02 0.  0.
          5    1    3    3  501    0  0.55581544032E+02  0.40259671425E+02  0.74064158495E+02  0.10108283115E+03  0.47000000000E+01 0. -1.
        -13    1    4    4    0    0  0.52809157531E+02 -0.13910488794E+02 -0.25507537391E+01  0.54670057274E+02  0.00000000000E+00 0.  1.
         14    1    4    4    0    0 -0.23521943367E+02 -0.43248244291E+02 -0.59453776438E+00  0.49234600935E+02  0.00000000000E+00 0. -1.
         -5    1    5    5    0  502 -0.34595917707E+02 -0.27386436879E+02 -0.34744900121E+02  0.56357719359E+02  0.47000000000E+01 0.  1.
         13    1    6    6    0    0 -0.73096760798E+01 -0.22629823650E+02  0.17312196124E+02  0.29415173253E+02  0.00000000000E+00 0. -1.
        -14    1    6    6    0    0 -0.42963164409E+02  0.66915322190E+02  0.90956548991E+02  0.12081633848E+03  0.00000000000E+00 0.  1.
</event>
<event>
12    1  0.8724767E-002  0.2121370E+03  0.7818608E-02  0.1140158E+00
         21   -1    0    0  503  502  0.00000000000E+00  0.00000000000E+00  0.84178857604E+03  0.84178857604E+03  0.00000000000E+00 0. -1.
         21   -1    0    0  501  503 -0.00000000000E+00 -0.00000000000E+00 -0.78726942460E+02  0.78726942460E+02  0.00000000000E+00 0.  1.
          6    2    1    2  501    0  0.51780595830E+02  0.11055831823E+03  0.11813674162E+03  0.24159708752E+03  0.17178035726E+03 0.  0.
         24    2    3    3    0    0  0.45216862398E+02  0.19750799398E+02  0.17318207284E+01  0.93741469833E+02  0.79685665220E+02 0.  0.
         -6    2    1    2    0  502 -0.51780595830E+02 -0.11055831823E+03  0.64492489196E+03  0.67891843098E+03  0.17348702493E+03 0.  0.
        -24    2    5    5    0    0  0.16138337515E+02 -0.69634455239E+02  0.52030395482E+03  0.53113408795E+03  0.79232636550E+02 0.  0.
          5    1    3    3  501    0  0.65637334325E+01  0.90807518835E+02  0.11640492089E+03  0.14785561768E+03  0.47000000000E+01 0. -1.
        -13    1    4    4    0    0  0.42002189043E+02  0.43063903413E+02 -0.18256511169E+02  0.62864806224E+02  0.00000000000E+00 0.  1.
         14    1    4    4    0    0  0.32146733552E+01 -0.23313104015E+02  0.19988331898E+02  0.30876663609E+02  0.00000000000E+00 0. -1.
         -5    1    5    5    0  502 -0.67918933346E+02 -0.40923862995E+02  0.12462093714E+03  0.14778434303E+03  0.47000000000E+01 0.  1.
         13    1    6    6    0    0 -0.19385461796E+02 -0.26384614740E+02  0.35714437478E+03  0.35864195022E+03  0.00000000000E+00 0. -1.
        -14    1    6    6    0    0  0.35523799311E+02 -0.43249840499E+02  0.16315958004E+03  0.17249213773E+03  0.00000000000E+00 0.  1.
</event>
<event>
12    1  0.8724767E-002  0.1961509E+03  0.7818608E-02  0.1153043E+00
         21   -1    0    0  503  502  0.00000000000E+00  0.00000000000E+00  0.45039887944E+02  0.45039887944E+02  0.00000000000E+00 0. -1.
         21   -1    0    0  501  503 -0.00000000000E+00 -0.00000000000E+00 -0.10699517438E+04  0.10699517438E+04  0.00000000000E+00 0. -1.
          6    2    1    2  501    0  0.74452534391E+01 -0.96102287261E+02 -0.76302573103E+03  0.78783464996E+03  0.17083350974E+03 0.  0.
         24    2    3    3    0    0 -0.28024352708E+02 -0.76007140151E+02 -0.26780755871E+03  0.29091912787E+03  0.79690656668E+02 0.  0.
         -6    2    1    2    0  502 -0.74452534391E+01  0.96102287261E+02 -0.26188612482E+03  0.32715698178E+03  0.17075206276E+03 0.  0.
        -24    2    5    5    0    0 -0.61900942174E+02  0.27841654148E+02 -0.11221511789E+03  0.15381213361E+03  0.80368248810E+02 0.  0.
          5    1    3    3  501    0  0.35469606147E+02 -0.20095147110E+02 -0.49521817232E+03  0.49691552209E+03  0.47000000000E+01 0. -1.
        -13    1    4    4    0    0 -0.13687856478E+02  0.12506603674E+02 -0.19454551985E+02  0.26874749178E+02  0.00000000000E+00 0.  1.
         14    1    4    4    0    0 -0.14336496230E+02 -0.88513743825E+02 -0.24835300672E+03  0.26404437869E+03  0.00000000000E+00 0. -1.
         -5    1    5    5    0  502  0.54455688735E+02  0.68260633113E+02 -0.14967100694E+03  0.17334484817E+03  0.47000000000E+01 0.  1.
         13    1    6    6    0    0  0.71787736184E+01  0.24435454704E+02 -0.45885208683E+01  0.25878190837E+02  0.00000000000E+00 0. -1.
        -14    1    6    6    0    0 -0.69079715793E+02  0.34061994436E+01 -0.10762659702E+03  0.12793394278E+03  0.00000000000E+00 0.  1.
</event>
<event>
12    1  0.8724767E-002  0.2036359E+03  0.7818608E-02  0.1147326E+00
         21   -1    0    0  501  502  0.00000000000E+00  0.00000000000E+00  0.11403129300E+03  0.11403129300E+03  0.00000000000E+00 0. -1.
         21   -1    0    0  502  503 -0.00000000000E+00 -0.00000000000E+00 -0.55900845522E+03  0.55900845522E+03  0.00000000000E+00 0. -1.
         -6    2    1    2    0  503  0.13867491231E+02  0.10287001321E+03 -0.42305196116E+03  0.46822689617E+03  0.17172337501E+03 0.  0.
        -24    2    3    3    0    0 -0.95673715739E+01 -0.72501078884E+01 -0.24050425507E+03  0.25370093303E+03  0.79860929415E+02 0.  0.
          6    2    1    2  501    0 -0.13867491231E+02 -0.10287001321E+03 -0.21925201062E+02  0.20481285206E+03  0.17519430069E+03 0.  0.
         24    2    5    5    0    0 -0.58678574076E+02 -0.28595196216E+02  0.25378112406E+02  0.10589634661E+03  0.79430015318E+02 0.  0.
          5    1    5    5  501    0  0.44811082846E+02 -0.74274816997E+02 -0.47303313468E+02  0.98916505451E+02  0.47000000000E+01 0. -1.
        -11    1    6    6    0    0  0.12278350659E+02  0.13721807638E+02  0.12563942937E+02  0.22291221632E+02  0.00000000000E+00 0.  1.
         12    1    6    6    0    0 -0.70956924735E+02 -0.42317003854E+02  0.12814169470E+02  0.83605124975E+02  0.00000000000E+00 0. -1.
         -5    1    3    3    0  503  0.23434862804E+02  0.11012012110E+03 -0.18254770608E+03  0.21452596314E+03  0.47000000000E+01 0.  1.
         11    1    4    4    0    0  0.92912137250E+01 -0.30078018081E+02 -0.20530135280E+03  0.20770088899E+03  0.00000000000E+00 0. -1.
        -12    1    4    4    0    0 -0.18858585299E+02  0.22827910193E+02 -0.35202902273E+02  0.46000044040E+02  0.00000000000E+00 0.  1.
</event>
<event>
12    1  0.8724767E-002  0.1772848E+03  0.7818608E-02  0.1170744E+00
         21   -1    0    0  503  502  0.00000000000E+00  0.00000000000E+00  0.88368360129E+03  0.88368360129E+03  0.00000000000E+00 0.  1.
         21   -1    0    0  501  503 -0.00000000000E+00 -0.00000000000E+00 -0.75018961032E+02  0.75018961032E+02  0.00000000000E+00 0.  1.
          6    2    1    2  501    0 -0.31343096576E+02 -0.25347193013E+02  0.55066634836E+02  0.18453212946E+03  0.17144941713E+03 0.  0.
         24    2    3    3    0    0 -0.30260970789E+01 -0.78374001764E+02  0.52700808948E+02  0.12418826450E+03  0.80583548932E+02 0.  0.
         -6    2    1    2    0  502  0.31343096576E+02  0.25347193013E+02  0.75359800542E+03  0.77417043286E+03  0.17264134917E+03 0.  0.
        -24    2    5    5    0    0 -0.13558326749E+02 -0.19818535633E+02  0.20516809523E+03  0.22203499906E+03  0.81418615380E+02 0.  0.
          5    1    3    3  501    0 -0.28316999497E+02  0.53026808751E+02  0.23658258875E+01  0.60343864965E+02  0.47000000000E+01 0. -1.
        -11    1    4    4    0    0 -0.36235397363E+02 -0.63590222928E+02  0.21497598021E+02  0.76281499689E+02  0.00000000000E+00 0.  1.
         12    1    4    4    0    0  0.33209300284E+02 -0.14783778836E+02  0.31203210927E+02  0.47906764806E+02  0.00000000000E+00 0. -1.
         -5    1    5    5    0  502  0.44901423324E+02  0.45165728647E+02  0.54842991019E+03  0.55213543380E+03  0.47000000000E+01 0.  1.
         11    1    6    6    0    0  0.30300526775E+02 -0.21632017999E+02  0.12745690709E+03  0.13278301582E+03  0.00000000000E+00 0. -1.
        -12    1    6    6    0    0 -0.43858853524E+02  0.18134823662E+01  0.77711188136E+02  0.89251983239E+02  0.00000000000E+00 0.  1.
</event>
<event>
12    1  0.8724767E-002  0.1936734E+03  0.7818608E-02  0.1158961E+00
         21   -1    0    0  503  502  0.00000000000E+00  0.00000000000E+00  0.86104968342E+02  0.86104968342E+02  0.00000000000E+00 0. -1.
         21   -1    0    0  501  503 -0.00000000000E+00 -0.00000000000E+00 -0.48387575209E+03  0.48387575209E+03  0.00000000000E+00 0.  1.
          6    2    1    2  501    0  0.53295235415E+01  0.45385468644E+02 -0.32496756526E+03  0.37830321211E+03  0.18820509354E+03 0.  0.
         24    2    3    3    0    0  0.16294225998E+02 -0.46474882050E+02 -0.21383318771E+03  0.23362602454E+03  0.80193956833E+02 0.  0.
         -6    2    1    2    0  502 -0.53295235415E+01 -0.45385468644E+02 -0.72803218481E+02  0.19167750832E+03  0.17132341926E+03 0.  0.
        -24    2    5    5    0    0 -0.42591621335E+02 -0.67822569859E+02 -0.72690472938E+01  0.11288217193E+03  0.79218675205E+02 0.  0.
          5    1    3    3  501    0 -0.10964702457E+02  0.91860350694E+02 -0.11113437755E+03  0.14467718757E+03  0.47000000000E+01 0. -1.
        -11    1    4    4    0    0 -0.12979064793E+02  0.17560586053E+02 -0.72636057079E+02  0.75847393451E+02  0.00000000000E+00 0.  1.
         12    1    4    4    0    0  0.29273290791E+02 -0.64035468103E+02 -0.14119713063E+03  0.15777863109E+03  0.00000000000E+00 0. -1.
         -5    1    5    5    0  502  0.37262097794E+02  0.22437101215E+02 -0.65534171188E+02  0.78795336386E+02  0.47000000000E+01 0.  1.
         13    1    6    6    0    0  0.15044639123E+02 -0.19802590609E+02  0.21163888571E+02  0.32655687722E+02  0.00000000000E+00 0. -1.
        -14    1    6    6    0    0 -0.57636260458E+02 -0.48019979250E+02 -0.28432935865E+02  0.80226484210E+02  0.00000000000E+00 0.  1.
</event>
<event>
12    1  0.8724767E-002  0.2046316E+03  0.7818608E-02  0.1146149E+00
         21   -1    0    0  503  502  0.00000000000E+00  0.00000000000E+00  0.51114714907E+03  0.51114714907E+03  0.00000000000E+00 0.  1.
         21   -1    0    0  501  503 -0.00000000000E+00 -0.00000000000E+00 -0.85434611207E+02  0.85434611207E+02  0.00000000000E+00 0.  1.
          6    2    1    2  501    0 -0.11060380656E+03 -0.22589666722E+02  0.14879852167E+03  0.25301205750E+03  0.17067690565E+03 0.  0.
         24    2    3    3    0    0 -0.13933568093E+03  0.75554300802E+01  0.12941910589E+03  0.20683956328E+03  0.81004836080E+02 0.  0.
         -6    2    1    2    0  502  0.11060380656E+03  0.22589666722E+02  0.27691401619E+03  0.34356970277E+03  0.16916049549E+03 0.  0.
        -24    2    5    5    0    0  0.10182708793E+03  0.48760493062E+02  0.12198723930E+03  0.18613292455E+03  0.83774921846E+02 0.  0.
          5    1    3    3  501    0  0.28731874369E+02 -0.30145096802E+02  0.19379415784E+02  0.46172494216E+02  0.47000000000E+01 0. -1.
        -13    1    4    4    0    0 -0.13278824443E+03  0.16984636079E+02  0.79670691121E+02  0.15578387191E+03  0.00000000000E+00 0.  1.
         14    1    4    4    0    0 -0.65474364933E+01 -0.94292059991E+01  0.49748414767E+02  0.51055691380E+02  0.00000000000E+00 0. -1.
         -5    1    5    5    0  502  0.87767186294E+01 -0.26170826340E+02  0.15492677688E+03  0.15743677822E+03  0.47000000000E+01 0.  1.
         11    1    6    6    0    0  0.16060141746E+02  0.25244583860E+02  0.84467047714E+02  0.89609705483E+02  0.00000000000E+00 0. -1.
        -12    1    6    6    0    0  0.85766946180E+02  0.23515909202E+02  0.37520191590E+02  0.96523219070E+02  0.00000000000E+00 0.  1.
</event>
<event>
12    1  0.8724767E-002  0.2061308E+03  0.7818608E-02  0.1145189E+00
         21   -1    0    0  503  502  0.00000000000E+00  0.00000000000E+00  0.41222179606E+02  0.41222179606E+02  0.00000000000E+00 0. -1.
         21   -1    0    0  501  503 -0.00000000000E+00 -0.00000000000E+00 -0.10197640628E+04  0.10197640628E+04  0.00000000000E+00 0. -1.
          6    2    1    2  501    0 -0.10984012190E+03 -0.25276552924E+02 -0.47025647197E+03  0.51345015246E+03  0.17258665396E+03 0.  0.
         24    2    3    3    0    0 -0.14354732950E+03 -0.33204776653E+02 -0.42049417906E+03  0.45264383395E+03  0.79766489124E+02 0.  0.
         -6    2    1    2    0  502  0.10984012190E+03  0.25276552924E+02 -0.50828541122E+03  0.54753608994E+03  0.16952272420E+03 0.  0.
        -24    2    5    5    0    0  0.55698070144E+02 -0.34457437668E+02 -0.40471363836E+03  0.41620173216E+03  0.71701901989E+02 0.  0.
          5    1    3    3  501    0  0.33707207599E+02  0.79282237292E+01 -0.49762292907E+02  0.60806318512E+02  0.47000000000E+01 0. -1.
        -13    1    4    4    0    0 -0.38415865422E+00  0.16014989873E+02 -0.35126846273E+02  0.38607289565E+02  0.00000000000E+00 0.  1.
         14    1    4    4    0    0 -0.14316317085E+03 -0.49219766526E+02 -0.38536733279E+03  0.41403654438E+03  0.00000000000E+00 0. -1.
         -5    1    5    5    0  502  0.54142051757E+02  0.59733990592E+02 -0.10357177285E+03  0.13133435778E+03  0.47000000000E+01 0.  1.
         11    1    6    6    0    0  0.34761483942E+02  0.88140661819E+01 -0.28421621663E+03  0.28646973020E+03  0.00000000000E+00 0. -1.
        -12    1    6    6    0    0  0.20936586202E+02 -0.43271503850E+02 -0.12049742173E+03  0.12973200196E+03  0.00000000000E+00 0.  1.
</event>
<event>
12    1  0.8724767E-002  0.1884542E+03  0.7818608E-02  0.1160105E+00
         21   -1    0    0  503  502  0.00000000000E+00  0.00000000000E+00  0.66468486799E+02  0.66468486799E+02  0.00000000000E+00 0. -1.
         21   -1    0    0  501  503 -0.00000000000E+00 -0.00000000000E+00 -0.53572307646E+03  0.53572307646E+03  0.00000000000E+00 0. -1.
          6    2    1    2  501    0  0.23996762479E+02 -0.73842573697E+02 -0.26257547486E+03  0.32320408129E+03  0.17171612582E+03 0.  0.
         24    2    3    3    0    0 -0.79621805470E+01 -0.37676568952E+02 -0.26025279425E+03  0.27465679729E+03  0.78879143094E+02 0.  0.
         -6    2    1    2    0  502 -0.23996762479E+02  0.73842573697E+02 -0.20667911479E+03  0.27898748196E+03  0.17055552849E+03 0.  0.
        -24    2    5    5    0    0 -0.91260370634E+01  0.10902972195E+03 -0.19724660635E+03  0.23936001558E+03  0.80101364052E+02 0.  0.
          5    1    3    3  501    0  0.31958943026E+02 -0.36166004745E+02 -0.23226806093E+01  0.48547284000E+02  0.47000000000E+01 0. -1.
        -13    1    4    4    0    0 -0.18475788159E+02 -0.32057464413E+01 -0.89413075360E+01  0.20774468436E+02  0.00000000000E+00 0.  1.
         14    1    4    4    0    0  0.10513607612E+02 -0.34470822510E+02 -0.25131148672E+03  0.25388232886E+03  0.00000000000E+00 0. -1.
         -5    1    5    5    0  502 -0.14870725416E+02 -0.35187148249E+02 -0.94325084487E+01  0.39627466383E+02  0.47000000000E+01 0.  1.
         11    1    6    6    0    0 -0.33369750760E+01  0.33453964469E+02 -0.14105395673E+03  0.14500524767E+03  0.00000000000E+00 0. -1.
        -12    1    6    6    0    0 -0.57890619873E+01  0.75575757477E+02 -0.56192649612E+02  0.94354767910E+02  0.00000000000E+00 0.  1.
</event>
<event>
12    1  0.8724767E-002  0.1784142E+03  0.7818608E-02  0.1169369E+00
         21   -1    0    0  503  502  0.00000000000E+00  0.00000000000E+00  0.41349355946E+02  0.41349355946E+02  0.00000000000E+00 0. -1.
         21   -1    0    0  501  503 -0.00000000000E+00 -0.00000000000E+00 -0.76961351901E+03  0.76961351901E+03  0.00000000000E+00 0. -1.
          6    2    1    2  501    0 -0.43464296798E+02  0.16551227221E+02 -0.35781637550E+03  0.39978990921E+03  0.17215203953E+03 0.  0.
         24    2    3    3    0    0  0.19988644664E+02 -0.26569940962E+02 -0.26273792556E+03  0.27752907097E+03  0.82979877239E+02 0.  0.
         -6    2    1    2    0  502  0.43464296798E+02 -0.16551227221E+02 -0.37044778756E+03  0.41117296574E+03  0.17224562760E+03 0.  0.
        -24    2    5    5    0    0  0.56998493902E+02 -0.70940132161E+02 -0.27084026440E+03  0.29678294807E+03  0.80276639113E+02 0.  0.
          5    1    3    3  501    0 -0.63452941462E+02  0.43121168183E+02 -0.95078449937E+02  0.12226083824E+03  0.47000000000E+01 0. -1.
        -11    1    4    4    0    0  0.49539201579E+02 -0.31777346937E+01 -0.17790661778E+03  0.18470245029E+03  0.00000000000E+00 0.  1.
         12    1    4    4    0    0 -0.29550556914E+02 -0.23392206268E+02 -0.84831307780E+02  0.92826620684E+02  0.00000000000E+00 0. -1.
         -5    1    5    5    0  502 -0.13534197104E+02  0.54388904941E+02 -0.99607523165E+02  0.11439001767E+03  0.47000000000E+01 0.  1.
         11    1    6    6    0    0  0.59566918740E+02 -0.45146748508E+02 -0.10474794959E+03  0.12868014475E+03  0.00000000000E+00 0. -1.
        -12    1    6    6    0    0 -0.25684248381E+01 -0.25793383653E+02 -0.16609231480E+03  0.16810280332E+03  0.00000000000E+00 0.  1.
</event>
<event>
12    1  0.8724767E-002  0.2319269E+03  0.7818608E-02  0.1125547E+00
         21   -1    0    0  503  502  0.00000000000E+00  0.00000000000E+00  0.19849993012E+03  0.19849993012E+03  0.00000000000E+00 0.  1.
         21   -1    0    0  501  503 -0.00000000000E+00 -0.00000000000E+00 -0.28017875818E+03  0.28017875818E+03  0.00000000000E+00 0.  1.
          6    2    1    2  501    0  0.15133140706E+03  0.33537601514E+02  0.65001238724E+01  0.23055446217E+03  0.17054953222E+03 0.  0.
         24    2    3    3    0    0  0.41797846559E+02  0.65299562825E+02  0.26354563274E+02  0.11469803453E+03  0.80311787662E+02 0.  0.
         -6    2    1    2    0  502 -0.15133140706E+03 -0.33537601514E+02 -0.88178951929E+02  0.24812422612E+03  0.17252286383E+03 0.  0.
        -24    2    5    5    0    0 -0.23753068067E+02  0.30004847886E+02 -0.41490873487E+02  0.98071761545E+02  0.80200241212E+02 0.  0.
          5    1    3    3  501    0  0.10953356050E+03 -0.31761961311E+02 -0.19854439401E+02  0.11585642765E+03  0.47000000000E+01 0. -1.
        -11    1    4    4    0    0  0.62565714620E+02  0.27290849292E+02  0.14318929830E+02  0.69744468257E+02  0.00000000000E+00 0.  1.
         12    1    4    4    0    0 -0.20767868061E+02  0.38008713533E+02  0.12035633443E+02  0.44953566272E+02  0.00000000000E+00 0. -1.
         -5    1    5    5    0  502 -0.12757833899E+03 -0.63542449400E+02 -0.46688078441E+02  0.15005246457E+03  0.47000000000E+01 0.  1.
         13    1    6    6    0    0 -0.43875182547E+01 -0.11091941582E+02 -0.50385597647E+02  0.51778276668E+02  0.00000000000E+00 0. -1.
        -14    1    6    6    0    0 -0.19365549813E+02  0.41096789469E+02  0.88947241593E+01  0.46293484877E+02  0.00000000000E+00 0.  1.
</event>
<event>
12    1  0.8724767E-002  0.1773459E+03  0.7818608E-02  0.1170516E+00
         21   -1    0    0  501  502  0.00000000000E+00  0.00000000000E+00  0.17083367291E+03  0.17083367291E+03  0.00000000000E+00 0. -1.
         21   -1    0    0  502  503 -0.00000000000E+00 -0.00000000000E+00 -0.18365873710E+03  0.18365873710E+03  0.00000000000E+00 0. -1.
         -6    2    1    2    0  503 -0.36896538722E+02  0.20522955280E+02 -0.93905273780E+01  0.17759436542E+03  0.17224700392E+03 0.  0.
        -24    2    3    3    0    0  0.21785354218E+01 -0.22218510604E+02  0.47211923843E+02  0.96479497426E+02  0.81122866323E+02 0.  0.
          6    2    1    2  501    0  0.36896538722E+02 -0.20522955280E+02 -0.34345368152E+01  0.17689804459E+03  0.17175149453E+03 0.  0.
         24    2    5    5    0    0 -0.42621990634E+02  0.79202130463E+01  0.81926813321E+01  0.91519519555E+02  0.80183156411E+02 0.  0.
          5    1    5    5  501    0  0.79518529355E+02 -0.28443168326E+02 -0.11627218147E+02  0.85378525035E+02  0.47000000000E+01 0. -1.
        -13    1    6    6    0    0 -0.42718012998E+01 -0.29935724057E+02  0.20129572360E+02  0.36326237688E+02  0.00000000000E+00 0.  1.
         14    1    6    6    0    0 -0.38350189334E+02  0.37855937103E+02 -0.11936891028E+02  0.55193281868E+02  0.00000000000E+00 0. -1.
         -5    1    3    3    0  503 -0.39075074144E+02  0.42741465884E+02 -0.56602451221E+02  0.81114867992E+02  0.47000000000E+01 0.  1.
         11    1    4    4    0    0  0.38631322820E+02 -0.99717106949E+01  0.64054070353E+01  0.40408456495E+02  0.00000000000E+00 0. -1.
        -12    1    4    4    0    0 -0.36452787398E+02 -0.12246799909E+02  0.40806516808E+02  0.56071040931E+02  0.00000000000E+00 0.  1.
</event>
<event>
12    1  0.8724767E-002  0.1932763E+03  0.7818608E-02  0.1156034E+00
         21   -1    0    0  503  502  0.00000000000E+00  0.00000000000E+00  0.35311415634E+03  0.35311415634E+03  0.00000000000E+00 0.  1.
         21   -1    0    0  501  503 -0.00000000000E+00 -0.00000000000E+00 -0.13692151051E+03  0.13692151051E+03  0.00000000000E+00 0.  1.
          6    2    1    2  501    0 -0.12862781684E+02 -0.87118004790E+02 -0.10517054701E+02  0.19356223468E+03  0.17204863366E+03 0.  0.
         24    2    3    3    0    0 -0.33132912419E+02 -0.10658370369E+03  0.33605645072E+02  0.14103896109E+03  0.79402603155E+02 0.  0.
         -6    2    1    2    0  502  0.12862781684E+02  0.87118004790E+02  0.22670970053E+03  0.29647343217E+03  0.16954117422E+03 0.  0.
        -24    2    5    5    0    0  0.70407587527E+02  0.75864507416E+02  0.13741525006E+03  0.18954525643E+03  0.79572617266E+02 0.  0.
          5    1    3    3  501    0  0.20270130735E+02  0.19465698897E+02 -0.44122699772E+02  0.52523273591E+02  0.47000000000E+01 0. -1.
        -11    1    4    4    0    0 -0.32030756427E+02 -0.47685046185E+02  0.53860522278E+02  0.78745087765E+02  0.00000000000E+00 0.  1.
         12    1    4    4    0    0 -0.11021559925E+01 -0.58898657502E+02 -0.20254877206E+02  0.62293873326E+02  0.00000000000E+00 0. -1.
         -5    1    5    5    0  502 -0.57544805842E+02  0.11253497374E+02  0.89294450478E+02  0.10692817575E+03  0.47000000000E+01 0.  1.
         11    1    6    6    0    0  0.52089757834E+02 -0.31643280959E+00  0.58733153665E+02  0.78504944687E+02  0.00000000000E+00 0. -1.
        -12    1    6    6    0    0  0.18317829692E+02  0.76180940226E+02  0.78682096392E+02  0.11104031174E+03  0.00000000000E+00 0.  1.
</event>
<event>
12    1  0.8724767E-002  0.1919183E+03  0.7818608E-02  0.1156979E+00
         21   -1    0    0  503  502  0.00000000000E+00  0.00000000000E+00  0.25513777013E+03  0.25513777013E+03  0.00000000000E+00 0. -1.
         21   -1    0    0  501  503 -0.00000000000E+00 -0.00000000000E+00 -0.15183194902E+03  0.15183194902E+03  0.00000000000E+00 0. -1.
          6    2    1    2  501    0 -0.49127096973E+02  0.66703327308E+02  0.40440157441E+01  0.19090134851E+03  0.17194233123E+03 0.  0.
         24    2    3    3    0    0 -0.17202106125E+02  0.33093534791E+02  0.67954245204E+02  0.11181006818E+03  0.80576779569E+02 0.  0.
         -6    2    1    2    0  502  0.49127096973E+02 -0.66703327308E+02  0.99261805367E+02  0.21606837064E+03  0.17311796342E+03 0.  0.
        -24    2    5    5    0    0 -0.11236066004E+02 -0.94660435011E+02  0.54989429769E+02  0.13602185569E+03  0.79945360733E+02 0.  0.
          5    1    3    3  501    0 -0.31924990848E+02  0.33609792517E+02 -0.63910229460E+02  0.79091280324E+02  0.47000000000E+01 0. -1.
        -11    1    4    4    0    0 -0.27391655906E+02 -0.19866844439E+02  0.34609755644E+02  0.48402784083E+02  0.00000000000E+00 0.  1.
         12    1    4    4    0    0  0.10189549782E+02  0.52960379230E+02  0.33344489559E+02  0.63407284100E+02  0.00000000000E+00 0. -1.
         -5    1    5    5    0  502  0.60363162977E+02  0.27957107703E+02  0.44272375597E+02  0.80046514957E+02  0.47000000000E+01 0.  1.
         11    1    6    6    0    0  0.16913421249E+02 -0.66108466758E+02  0.33632881513E+00  0.68238598407E+02  0.00000000000E+00 0. -1.
        -12    1    6    6    0    0 -0.28149487253E+02 -0.28551968252E+02  0.54653100954E+02  0.67783257281E+02  0.00000000000E+00 0.  1.
</event>
<event>
12    1  0.8724767E-002  0.1879058E+03  0.7818608E-02  0.1160802E+00
         21   -1    0    0  501  502  0.00000000000E+00  0.00000000000E+00  0.10196900210E+04  0.10196900210E+04  0.00000000000E+00 0.  1.
         21   -1    0    0  502  503 -0.00000000000E+00 -0.00000000000E+00 -0.38279961906E+02  0.38279961906E+02  0.00000000000E+00 0.  1.
         -6    2    1    2    0  503  0.40728725901E+02  0.53402539720E+02  0.31740105592E+03  0.36788553634E+03  0.17345223316E+03 0.  0.
        -24    2    3    3    0    0  0.10046588541E+02  0.15179357504E+00  0.28766487153E+03  0.29945041246E+03  0.82574295218E+02 0.  0.
          6    2    1    2  501    0 -0.40728725901E+02 -0.53402539720E+02  0.66400900322E+03  0.69008444661E+03  0.17549338089E+03 0.  0.
         24    2    5    5    0    0 -0.14508079154E+02 -0.78248220819E+02  0.63030843315E+03  0.64045936618E+03  0.81032156607E+02 0.  0.
          5    1    5    5  501    0 -0.26220646747E+02  0.24845681099E+02  0.33700570073E+02  0.49625080436E+02  0.47000000000E+01 0. -1.
        -13    1    6    6    0    0  0.29593643974E+02 -0.47897493126E+02  0.40402523116E+03  0.40792933338E+03  0.00000000000E+00 0.  1.
         14    1    6    6    0    0 -0.44101723128E+02 -0.30350727693E+02  0.22628320199E+03  0.23253003280E+03  0.00000000000E+00 0. -1.
         -5    1    3    3    0  503  0.30682137359E+02  0.53250746145E+02  0.29736184394E+02  0.68435123879E+02  0.47000000000E+01 0.  1.
         13    1    4    4    0    0 -0.25927631353E+02  0.17165243022E+02  0.53105313273E+02  0.61539108974E+02  0.00000000000E+00 0. -1.
        -14    1    4    4    0    0  0.35974219894E+02 -0.17013449447E+02  0.23455955825E+03  0.23791130349E+03  0.00000000000E+00 0.  1.
</event>
<event>
12    1  0.8724767E-002  0.1944420E+03  0.7818608E-02  0.1154878E+00
         21   -1    0    0  503  502  0.00000000000E+00  0.00000000000E+00  0.28836305987E+03  0.28836305987E+03  0.00000000000E+00 0. -1.
         21   -1    0    0  501  503 -0.00000000000E+00 -0.00000000000E+00 -0.15700680445E+03  0.15700680445E+03  0.00000000000E+00 0. -1.
          6    2    1    2  501    0 -0.79634470370E+02 -0.37667338157E+02 -0.26912193947E+02  0.19465770110E+03  0.17148433508E+03 0.  0.
         24    2    3    3    0    0  0.62334851437E+01  0.18956571512E+02 -0.38452401512E+02  0.91048631415E+02  0.80081571913E+02 0.  0.
         -6    2    1    2    0  502  0.79634470370E+02  0.37667338157E+02  0.15826844936E+03  0.25071216322E+03  0.17334130924E+03 0.  0.
        -24    2    5    5    0    0  0.27945572011E+02  0.62095618403E+02  0.16153928792E+03  0.19325547106E+03  0.81338273495E+02 0.  0.
          5    1    3    3  501    0 -0.85867955513E+02 -0.56623909669E+02  0.11540207564E+02  0.10360906968E+03  0.47000000000E+01 0. -1.
        -13    1    4    4    0    0 -0.35841643922E+02  0.12376915804E+02 -0.28173111022E+02  0.47239132809E+02  0.00000000000E+00 0.  1.
         14    1    4    4    0    0  0.42075129066E+02  0.65796557083E+01 -0.10279290490E+02  0.43809498606E+02  0.00000000000E+00 0. -1.
         -5    1    5    5    0  502  0.51688898359E+02 -0.24428280247E+02 -0.32708385519E+01  0.57456692162E+02  0.47000000000E+01 0.  1.
         11    1    6    6    0    0  0.39150962826E+02  0.58550211534E+02  0.64493053225E+02  0.95500152226E+02  0.00000000000E+00 0. -1.
        -12    1    6    6    0    0 -0.11205390815E+02  0.35454068695E+01  0.97046234690E+02  0.97755318836E+02  0.00000000000E+00 0.  1.
</event>
<event>
12    1  0.8724767E-002  0.2053234E+03  0.7818608E-02  0.1145393E+00
         21   -1    0    0  503  502  0.00000000000E+00  0.00000000000E+00  0.36967713723E+03  0.36967713723E+03  0.00000000000E+00 0.  1.
         21   -1    0    0  501  503 -0.00000000000E+00 -0.00000000000E+00 -0.13811906053E+03  0.13811906053E+03  0.00000000000E+00 0.  1.
          6    2    1    2  501    0 -0.11024840675E+03 -0.25264599440E+02  0.92769560907E+01  0.20519650332E+03  0.17095769034E+03 0.  0.
         24    2    3    3    0    0 -0.41434320421E+02  0.51694859000E+02  0.34505162648E+02  0.98816575111E+02  0.64691173366E+02 0.  0.
         -6    2    1    2    0  502  0.11024840675E+03  0.25264599440E+02  0.22228112061E+03  0.30259969444E+03  0.17136121883E+03 0.  0.
        -24    2    5    5    0    0  0.22967549748E+02 -0.35669363622E+02  0.56245958413E+02  0.10531649460E+03  0.78282465179E+02 0.  0.
          5    1    3    3  501    0 -0.68814086328E+02 -0.76959458439E+02 -0.25228206557E+02  0.10637992821E+03  0.47000000000E+01 0. -1.
        -13    1    4    4    0    0 -0.29004172681E+02 -0.91191178049E+01  0.89851299488E+01  0.31703831041E+02  0.00000000000E+00 0.  1.
         14    1    4    4    0    0 -0.12430147740E+02  0.60813976804E+02  0.25520032699E+02  0.67112744070E+02  0.00000000000E+00 0. -1.
         -5    1    5    5    0  502  0.87280857002E+02  0.60933963062E+02  0.16603516220E+03  0.19728319984E+03  0.47000000000E+01 0.  1.
         13    1    6    6    0    0  0.29177363624E+02 -0.56989034469E+02  0.29328492280E+02  0.70421793908E+02  0.00000000000E+00 0. -1.
        -14    1    6    6    0    0 -0.62098138765E+01  0.21319670847E+02  0.26917466133E+02  0.34894700693E+02  0.00000000000E+00 0.  1.
</event>
<event>
12    1  0.8724767E-002  0.2014413E+03  0.7818608E-02  0.1149619E+00
         21   -1    0    0  503  502  0.00000000000E+00  0.00000000000E+00  0.35099608441E+03  0.35099608441E+03  0.00000000000E+00 0. -1.
         21   -1    0    0  501  503 -0.00000000000E+00 -0.00000000000E+00 -0.37532487110E+03  0.37532487110E+03  0.00000000000E+00 0. -1.
          6    2    1    2  501    0 -0.92471223440E+02  0.71291015661E+01 -0.31600129650E+03  0.37474714712E+03  0.17882073043E+03 0.  0.
         24    2    3    3    0    0 -0.27482557722E+02  0.70415294523E+02 -0.17655623617E+03  0.20832694480E+03  0.80711874688E+02 0.  0.
         -6    2    1    2    0  502  0.92471223440E+02 -0.71291015661E+01  0.29167250981E+03  0.35157380840E+03  0.17300155641E+03 0.  0.
        -24    2    5    5    0    0  0.12286862856E+03  0.28298752368E+02  0.21557263166E+03  0.26217349225E+03  0.79786347515E+02 0.  0.
          5    1    3    3  501    0 -0.64988665717E+02 -0.63286192957E+02 -0.13944506032E+03  0.16642020232E+03  0.47000000000E+01 0. -1.
        -13    1    4    4    0    0  0.14827396431E+02  0.33714675540E+02 -0.19695431785E+02  0.41766506496E+02  0.00000000000E+00 0.  1.
         14    1    4    4    0    0 -0.42309954153E+02  0.36700618983E+02 -0.15686080439E+03  0.16656043830E+03  0.00000000000E+00 0. -1.
         -5    1    5    5    0  502 -0.30397405123E+02 -0.35427853934E+02  0.76099878152E+02  0.89400316148E+02  0.47000000000E+01 0.  1.
         13    1    6    6    0    0  0.25823033595E+02  0.18664528947E+02  0.12528502319E+03  0.12927308591E+03  0.00000000000E+00 0. -1.
        -14    1    6    6    0    0  0.97045594968E+02  0.96342234214E+01  0.90287608470E+02  0.13290040635E+03  0.00000000000E+00 0.  1.
</event>
<event>
12    1  0.8724767E-002  0.2029360E+03  0.7818608E-02  0.1147758E+00
         21   -1    0    0  503  502  0.00000000000E+00  0.00000000000E+00  0.53124818162E+03  0.53124818162E+03  0.00000000000E+00 0. -1.
         21   -1    0    0  501  503 -0.00000000000E+00 -0.00000000000E+00 -0.76675871180E+02  0.76675871180E+02  0.00000000000E+00 0. -1.
          6    2    1    2  501    0  0.78082545532E+02 -0.71674184509E+02  0.22380310136E+03  0.30211067439E+03  0.17305767467E+03 0.  0.
         24    2    3    3    0    0  0.31864819411E+02 -0.11441223761E+03  0.19150399268E+03  0.23120269309E+03  0.51724068346E+02 0.  0.
         -6    2    1    2    0  502 -0.78082545532E+02  0.71674184509E+02  0.23076920908E+03  0.30581337841E+03  0.17039167207E+03 0.  0.
        -24    2    5    5    0    0 -0.79105777269E+02  0.10598162194E+03  0.13955324349E+03  0.20824038191E+03  0.79994504203E+02 0.  0.
          5    1    3    3  501    0  0.46217726121E+02  0.42738053106E+02  0.32299108672E+02  0.70907981301E+02  0.47000000000E+01 0. -1.
        -11    1    4    4    0    0  0.29043315035E+02 -0.88821902587E+02  0.18039460440E+03  0.20316263885E+03  0.00000000000E+00 0.  1.
         12    1    4    4    0    0  0.28215043759E+01 -0.25590335028E+02  0.11109388282E+02  0.28040054240E+02  0.00000000000E+00 0. -1.
         -5    1    5    5    0  502  0.10232317366E+01 -0.34307437433E+02  0.91215965592E+02  0.97572996496E+02  0.47000000000E+01 0.  1.
         13    1    6    6    0    0 -0.83031745256E+02  0.68914222411E+02  0.67953535410E+02  0.12751911129E+03  0.00000000000E+00 0. -1.
        -14    1    6    6    0    0  0.39259679869E+01  0.37067399531E+02  0.71599708079E+02  0.80721270615E+02  0.00000000000E+00 0.  1.
</event>
<event>
12    1  0.8724767E-002  0.1814572E+03  0.7818608E-02  0.1166822E+00
         21   -1    0    0  503  502  0.00000000000E+00  0.00000000000E+00  0.55056028745E+02  0.55056028745E+02  0.00000000000E+00 0.  1.
         21   -1    0    0  501  503 -0.00000000000E+00 -0.00000000000E+00 -0.13933234297E+04  0.13933234297E+04  0.00000000000E+00 0.  1.
          6    2    1    2  501    0 -0.53225955860E+02 -0.24521356987E+02 -0.12196073450E+04  0.12330323559E+04  0.17173355903E+03 0.  0.
         24    2    3    3    0    0 -0.79405753624E+02 -0.60255072921E+01 -0.11574374628E+04  0.11629277018E+04  0.79986117029E+02 0.  0.
         -6    2    1    2    0  502  0.53225955860E+02  0.24521356987E+02 -0.11866005588E+03  0.21534710251E+03  0.16988191891E+03 0.  0.
        -24    2    5    5    0    0  0.30281219071E+02  0.68710803226E+02 -0.12001606921E+03  0.16531614332E+03  0.85366525430E+02 0.  0.
          5    1    3    3  501    0  0.26179797764E+02 -0.18495849695E+02 -0.62169882281E+02  0.70104654123E+02  0.47000000000E+01 0. -1.
        -13    1    4    4    0    0 -0.66289015394E+02 -0.38963203552E+02 -0.84223536348E+03  0.84573800452E+03  0.00000000000E+00 0.  1.
         14    1    4    4    0    0 -0.13116738231E+02  0.32937696260E+02 -0.31520209927E+03  0.31718969725E+03  0.00000000000E+00 0. -1.
         -5    1    5    5    0  502  0.22944736789E+02 -0.44189446239E+02  0.13560133327E+01  0.50030959189E+02  0.47000000000E+01 0.  1.
         11    1    6    6    0    0 -0.61432103181E+01  0.11683479511E+02  0.11439222556E+02  0.17467070137E+02  0.00000000000E+00 0. -1.
        -12    1    6    6    0    0  0.36424429389E+02  0.57027323716E+02 -0.13145529177E+03  0.14784907318E+03  0.00000000000E+00 0.  1.
</event>
<event>
12    1  0.8724767E-002  0.1770662E+03  0.7818608E-02  0.1170919E+00
         21   -1    0    0  501  502  0.00000000000E+00  0.00000000000E+00  0.71876014156E+03  0.71876014156E+03  0.00000000000E+00 0. -1.
         21   -1    0    0  502  503 -0.00000000000E+00 -0.00000000000E+00 -0.82963247371E+02  0.82963247371E+02  0.00000000000E+00 0. -1.
         -6    2    1    2    0  503  0.39729447640E+02 -0.67085444800E+01  0.41462132970E+02  0.18185588599E+03  0.17242105794E+03 0.  0.
        -24    2    3    3    0    0  0.85906281016E+02 -0.23660384872E+02  0.30623189905E+01  0.11927553327E+03  0.79231130930E+02 0.  0.
          6    2    1    2  501    0 -0.39729447640E+02  0.67085444800E+01  0.59433476122E+03  0.61986750294E+03  0.17140151466E+03 0.  0.
         24    2    5    5    0    0 -0.36251993268E+02 -0.57635322347E+02  0.27984252839E+03  0.29880725875E+03  0.79610927579E+02 0.  0.
          5    1    5    5  501    0 -0.34774543722E+01  0.64343866827E+02  0.31449223284E+03  0.32106024419E+03  0.47000000000E+01 0. -1.
        -13    1    6    6    0    0  0.13741618091E+02 -0.24057577345E+02  0.26265168910E+02  0.38176670800E+02  0.00000000000E+00 0.  1.
         14    1    6    6    0    0 -0.49993611360E+02 -0.33577745002E+02  0.25357735948E+03  0.26063058795E+03  0.00000000000E+00 0. -1.
         -5    1    3    3    0  503 -0.46176833375E+02  0.16951840392E+02  0.38399813979E+02  0.62580352723E+02  0.47000000000E+01 0.  1.
         11    1    4    4    0    0  0.79492604271E+01  0.10963262599E+02 -0.25871959871E+02  0.29201749532E+02  0.00000000000E+00 0. -1.
        -12    1    4    4    0    0  0.77957020589E+02 -0.34623647471E+02  0.28934278862E+02  0.90073783736E+02  0.00000000000E+00 0.  1.
</event>
<event>
12    1  0.8724767E-002  0.2379118E+03  0.7818608E-02  0.1121966E+00
         21   -1    0    0  503  502  0.00000000000E+00  0.00000000000E+00  0.10801059187E+03  0.10801059187E+03  0.00000000000E+00 0. -1.
         21   -1    0    0  501  503 -0.00000000000E+00 -0.00000000000E+00 -0.56171604529E+03  0.56171604529E+03  0.00000000000E+00 0. -1.
          6    2    1    2  501    0 -0.15459908021E+03 -0.48165225343E+02 -0.32638742989E+03  0.40389453563E+03  0.17430225757E+03 0.  0.
         24    2    3    3    0    0 -0.31839598478E+02  0.26477030789E+02 -0.91887784925E+02  0.12884266736E+03  0.80263782137E+02 0.  0.
         -6    2    1    2    0  502  0.15459908021E+03  0.48165225343E+02 -0.12731802353E+03  0.26583210152E+03  0.16803589661E+03 0.  0.
        -24    2    5    5    0    0  0.15290958713E+03  0.81712919757E+01 -0.52768070975E+02  0.18108450852E+03  0.80987764897E+02 0.  0.
          5    1    3    3  501    0 -0.12275948173E+03 -0.74642256131E+02 -0.23449964496E+03  0.27505186828E+03  0.47000000000E+01 0. -1.
        -11    1    4    4    0    0 -0.37301469926E+02  0.62162987835E+01 -0.34766081880E+01  0.37975371409E+02  0.00000000000E+00 0.  1.
         12    1    4    4    0    0  0.54618714480E+01  0.20260732005E+02 -0.88411176737E+02  0.90867295949E+02  0.00000000000E+00 0. -1.
         -5    1    5    5    0  502  0.16894930739E+01  0.39993933367E+02 -0.74549952554E+02  0.84747592997E+02  0.47000000000E+01 0.  1.
         11    1    6    6    0    0  0.11108716339E+03  0.40798336395E+02 -0.48414073722E+02  0.12786236607E+03  0.00000000000E+00 0. -1.
        -12    1    6    6    0    0  0.41822423737E+02 -0.32627044419E+02 -0.43539972534E+01  0.53222142449E+02  0.00000000000E+00 0.  1.
</event>
<event>
12    1  0.8724767E-002  0.3254286E+03  0.7818608E-02  0.1073264E+00
         21   -1    0    0  501  502  0.00000000000E+00  0.00000000000E+00  0.13960901838E+04  0.13960901838E+04  0.00000000000E+00 0. -1.
         21   -1    0    0  502  503 -0.00000000000E+00 -0.00000000000E+00 -0.80317502534E+02  0.80317502534E+02  0.00000000000E+00 0.  1.
         -6    2    1    2    0  503 -0.21401541126E+03 -0.17456723301E+03  0.83602804784E+03  0.89713247235E+03  0.17212629397E+03 0.  0.
        -24    2    3    3    0    0 -0.13280221833E+03 -0.60788865004E+02  0.28838204284E+03  0.33190744059E+03  0.75277029623E+02 0.  0.
          6    2    1    2  501    0  0.21401541126E+03  0.17456723301E+03  0.47974463347E+03  0.57927521403E+03  0.17067086788E+03 0.  0.
         24    2    5    5    0    0  0.60517522421E+02  0.96313159577E+02  0.10321019196E+03  0.16516704274E+03  0.60738892429E+02 0.  0.
          5    1    5    5  501    0  0.15349788884E+03  0.78254073433E+02  0.37653444151E+03  0.41410817129E+03  0.47000000000E+01 0. -1.
        -11    1    6    6    0    0  0.42967602982E+02  0.93148752105E+02  0.10554446638E+03  0.14718199383E+03  0.00000000000E+00 0.  1.
         12    1    6    6    0    0  0.17549919439E+02  0.31644074718E+01 -0.23342744201E+01  0.17985048902E+02  0.00000000000E+00 0. -1.
         -5    1    3    3    0  503 -0.81213192933E+02 -0.11377836801E+03  0.54764600500E+03  0.56522503176E+03  0.47000000000E+01 0.  1.
         13    1    4    4    0    0 -0.48845837628E+02 -0.16010566752E+02  0.18228077296E+03  0.18938990018E+03  0.00000000000E+00 0. -1.
        -14    1    4    4    0    0 -0.83956380700E+02 -0.44778298252E+02  0.10610126988E+03  0.14251754041E+03  0.00000000000E+00 0.  1.
</event>
<event>
12    1  0.8724767E-002  0.1819133E+03  0.7818608E-02  0.1165969E+00
         21   -1    0    0  503  502  0.00000000000E+00  0.00000000000E+00  0.35873318936E+03  0.35873318936E+03  0.00000000000E+00 0. -1.
         21   -1    0    0  501  503 -0.00000000000E+00 -0.00000000000E+00 -0.11231847396E+03  0.11231847396E+03  0.00000000000E+00 0. -1.
          6    2    1    2  501    0  0.48289309922E+00  0.57937176160E+02  0.23616521500E+02  0.18342087232E+03  0.17241962402E+03 0.  0.
         24    2    3    3    0    0  0.34132152262E+02 -0.11132771189E+02  0.49060719050E+02  0.10235036314E+03  0.82338935321E+02 0.  0.
         -6    2    1    2    0  502 -0.48289309922E+00 -0.57937176160E+02  0.22279819390E+03  0.28763079100E+03  0.17243980736E+03 0.  0.
        -24    2    5    5    0    0 -0.30965555210E+02 -0.26375793635E+02  0.22585877039E+03  0.24339539019E+03  0.81083806682E+02 0.  0.
          5    1    3    3  501    0 -0.33649259163E+02  0.69069947349E+02 -0.25444197550E+02  0.81070509175E+02  0.47000000000E+01 0. -1.
        -13    1    4    4    0    0 -0.75577173187E+00 -0.35497230917E+01 -0.22280514108E+02  0.22574167401E+02  0.00000000000E+00 0.  1.
         14    1    4    4    0    0  0.34887923994E+02 -0.75830480977E+01  0.71341233157E+02  0.79776195744E+02  0.00000000000E+00 0. -1.
         -5    1    5    5    0  502  0.30482662111E+02 -0.31561382525E+02 -0.30605764927E+01  0.44235400809E+02  0.47000000000E+01 0.  1.
         11    1    6    6    0    0  0.27513485337E+02 -0.88997739463E+01  0.88013641658E+02  0.92642317380E+02  0.00000000000E+00 0. -1.
        -12    1    6    6    0    0 -0.58479040547E+02 -0.17476019689E+02  0.13784512873E+03  0.15075307281E+03  0.00000000000E+00 0.  1.
</event>
<event>
12    1  0.8724767E-002  0.2626625E+03  0.7818608E-02  0.1105577E+00
         21   -1    0    0  501  502  0.00000000000E+00  0.00000000000E+00  0.16959409053E+03  0.16959409053E+03  0.00000000000E+00 0.  1.
         21   -1    0    0  502  503 -0.00000000000E+00 -0.00000000000E+00 -0.56916336056E+03  0.56916336056E+03  0.00000000000E+00 0.  1.
         -6    2    1    2    0  503  0.19459228513E+03  0.37795852368E+02 -0.39717387860E+03  0.47608407265E+03  0.17208797315E+03 0.  0.
        -24    2    3    3    0    0  0.45459556387E+02 -0.21511194290E+02 -0.84752046838E+02  0.12481866370E+03  0.76599521001E+02 0.  0.
          6    2    1    2  501    0 -0.19459228513E+03 -0.37795852368E+02 -0.23953914352E+01  0.26267337844E+03  0.17232783278E+03 0.  0.
         24    2    5    5    0    0 -0.21038746100E+03 -0.54267303672E+02  0.19520007551E+02  0.23068633416E+03  0.75015532242E+02 0.  0.
          5    1    5    5  501    0  0.15795175875E+02  0.16471451304E+02 -0.21915398986E+02  0.31987044279E+02  0.47000000000E+01 0. -1.
        -13    1    6    6    0    0 -0.19763229451E+03 -0.34725132976E+02  0.33567440595E+02  0.20344810582E+03  0.00000000000E+00 0.  1.
         14    1    6    6    0    0 -0.12755166488E+02 -0.19542170696E+02 -0.14047433044E+02  0.27238228334E+02  0.00000000000E+00 0. -1.
         -5    1    3    3    0  503  0.14913272874E+03  0.59307046658E+02 -0.31242183176E+03  0.35126540895E+03  0.47000000000E+01 0.  1.
         13    1    4    4    0    0  0.38238723157E+02 -0.39204920403E+02 -0.89683133181E+02  0.10508230160E+03  0.00000000000E+00 0. -1.
        -14    1    4    4    0    0  0.72208332293E+01  0.17693726113E+02  0.49310863435E+01  0.19736362097E+02  0.00000000000E+00 0.  1.
</event>
<event>
12    1  0.8724767E-002  0.2515632E+03  0.7818608E-02  0.1112705E+00
         21   -1    0    0  503  502  0.00000000000E+00  0.00000000000E+00  0.12190829724E+04  0.12190829724E+04  0.00000000000E+00 0. -1.
         21   -1    0    0  501  503 -0.00000000000E+00 -0.00000000000E+00 -0.94158548978E+02  0.94158548978E+02  0.00000000000E+00 0.  1.
          6    2    1    2  501    0 -0.20539257556E+02  0.18214523879E+03  0.11853638757E+03  0.27588867741E+03  0.16871555360E+03 0.  0.
         24    2    3    3    0    0 -0.55037723029E+02  0.18981346766E+03  0.99766495228E+02  0.23559792521E+03  0.80589858755E+02 0.  0.
         -6    2    1    2    0  502  0.20539257556E+02 -0.18214523879E+03  0.10063880359E+04  0.10373528440E+04  0.17229421081E+03 0.  0.
        -24    2    5    5    0    0  0.42581933584E+02 -0.19954261906E+03  0.93704463572E+03  0.96239188381E+03  0.80715616831E+02 0.  0.
          5    1    3    3  501    0  0.34498465473E+02 -0.76682288651E+01  0.18769892345E+02  0.40290752197E+02  0.47000000000E+01 0. -1.
        -13    1    4    4    0    0 -0.35133001330E+02  0.30863401289E+02 -0.21708719006E+00  0.46764564025E+02  0.00000000000E+00 0.  1.
         14    1    4    4    0    0 -0.19904721699E+02  0.15895006637E+03  0.99983582419E+02  0.18883336119E+03  0.00000000000E+00 0. -1.
         -5    1    5    5    0  502 -0.22042676028E+02  0.17397380272E+02  0.69343400142E+02  0.74960960173E+02  0.47000000000E+01 0.  1.
         13    1    6    6    0    0  0.39217207121E+02 -0.52050225853E+02  0.18851599082E+03  0.19946301446E+03  0.00000000000E+00 0. -1.
        -14    1    6    6    0    0  0.33647264634E+01 -0.14749239321E+03  0.74852864490E+03  0.76292886935E+03  0.00000000000E+00 0.  1.
</event>
<event>
12    1  0.8724767E-002  0.2059244E+03  0.7818608E-02  0.1145057E+00
         21   -1    0    0  503  502  0.00000000000E+00  0.00000000000E+00  0.13632040087E+04  0.13632040087E+04  0.00000000000E+00 0.  1.
         21   -1    0    0  501  503 -0.00000000000E+00 -0.00000000000E+00 -0.17505136210E+03  0.17505136210E+03  0.00000000000E+00 0. -1.
          6    2    1    2  501    0  0.99668718108E+02  0.49516284345E+02 -0.10349350708E+03  0.23046859234E+03  0.17326035399E+03 0.  0.
         24    2    3    3    0    0  0.11871334953E+03  0.10781411199E+02 -0.11866215225E+03  0.18447656934E+03  0.75774666444E+02 0.  0.
         -6    2    1    2    0  502 -0.99668718108E+02 -0.49516284345E+02  0.12916461537E+04  0.13077867785E+04  0.17196149510E+03 0.  0.
        -24    2    5    5    0    0 -0.50098584816E+02  0.33217901792E+02  0.83385402491E+03  0.83992155552E+03  0.80885025578E+02 0.  0.
          5    1    3    3  501    0 -0.19044631417E+02  0.38734873146E+02  0.15168645176E+02  0.45992023004E+02  0.47000000000E+01 0. -1.
        -11    1    4    4    0    0  0.60336238131E+02 -0.29944312968E+02 -0.39780843156E+02  0.78228121498E+02  0.00000000000E+00 0.  1.
         12    1    4    4    0    0  0.58377111394E+02  0.40725724167E+02 -0.78881309098E+02  0.10624844784E+03  0.00000000000E+00 0. -1.
         -5    1    5    5    0  502 -0.49570133292E+02 -0.82734186138E+02  0.45779212877E+03  0.46786522293E+03  0.47000000000E+01 0.  1.
         13    1    6    6    0    0  0.21707772314E+02  0.12242534287E+00  0.17801348022E+03  0.17933220989E+03  0.00000000000E+00 0. -1.
        -14    1    6    6    0    0 -0.71806357130E+02  0.33095476449E+02  0.65584054470E+03  0.66058934563E+03  0.00000000000E+00 0.  1.
</event>
<event>
12    1  0.8724767E-002  0.3037676E+03  0.7818608E-02  0.1083379E+00
         21   -1    0    0  503  502  0.00000000000E+00  0.00000000000E+00  0.11243803887E+04  0.11243803887E+04  0.00000000000E+00 0. -1.
         21   -1    0    0  501  503 -0.00000000000E+00 -0.00000000000E+00 -0.22026206494E+03  0.22026206494E+03  0.00000000000E+00 0.  1.
          6    2    1    2  501    0  0.21945925877E+03  0.11986295848E+03 -0.80494333349E+02  0.31425165897E+03  0.17246817789E+03 0.  0.
         24    2    3    3    0    0  0.19136389387E+03  0.13408939224E+03 -0.21984523279E+02  0.24763913146E+03  0.79004526293E+02 0.  0.
         -6    2    1    2    0  502 -0.21945925877E+03 -0.11986295848E+03  0.98461265711E+03  0.10303907947E+04  0.17237636184E+03 0.  0.
        -24    2    5    5    0    0 -0.21060749117E+03 -0.10447848725E+03  0.66511963256E+03  0.71037061018E+03  0.83492565858E+02 0.  0.
          5    1    3    3  501    0  0.28095364899E+02 -0.14226433765E+02 -0.58509810070E+02  0.66612527507E+02  0.47000000000E+01 0. -1.
        -13    1    4    4    0    0  0.88135869830E+02  0.74879452507E+02 -0.49009259039E+02  0.12560561862E+03  0.00000000000E+00 0.  1.
         14    1    4    4    0    0  0.10322802404E+03  0.59209939735E+02  0.27024735760E+02  0.12203351283E+03  0.00000000000E+00 0. -1.
         -5    1    5    5    0  502 -0.88517676040E+01 -0.15384471225E+02  0.31949302455E+03  0.32002018449E+03  0.47000000000E+01 0.  1.
         11    1    6    6    0    0 -0.40670322548E+02  0.13214735577E+02  0.11194728252E+03  0.11983696607E+03  0.00000000000E+00 0. -1.
        -12    1    6    6    0    0 -0.16993716862E+03 -0.11769322283E+03  0.55317235003E+03  0.59053364411E+03  0.00000000000E+00 0.  1.
</event>
<event>
12    1  0.8724767E-002  0.2825595E+03  0.7818608E-02  0.1094613E+00
         21   -1    0    0  501  502  0.00000000000E+00  0.00000000000E+00  0.48708393782E+03  0.48708393782E+03  0.00000000000E+00 0. -1.
         21   -1    0    0  502  503 -0.00000000000E+00 -0.00000000000E+00 -0.21869682966E+03  0.21869682966E+03  0.00000000000E+00 0.  1.
         -6    2    1    2    0  503 -0.33294868954E+02 -0.22205986840E+03 -0.44163537772E+02  0.28598997954E+03  0.17152468299E+03 0.  0.
        -24    2    3    3    0    0  0.21701527377E+02 -0.95200681722E+02  0.28418641417E+02  0.12975899801E+03  0.80595609640E+02 0.  0.
          6    2    1    2  501    0  0.33294868954E+02  0.22205986840E+03  0.31255064593E+03  0.41979078794E+03  0.16768203813E+03 0.  0.
         24    2    5    5    0    0  0.84744601986E+02  0.10750910826E+03  0.11709564960E+03  0.18742534888E+03  0.51739871688E+02 0.  0.
          5    1    5    5  501    0 -0.51449733031E+02  0.11455076014E+03  0.19545499633E+03  0.23236543906E+03  0.47000000000E+01 0. -1.
        -11    1    6    6    0    0  0.42349860196E+02  0.23542341527E+02  0.20542739231E+02  0.52628477446E+02  0.00000000000E+00 0.  1.
         12    1    6    6    0    0  0.42394741790E+02  0.83966766737E+02  0.96552910372E+02  0.13479687144E+03  0.00000000000E+00 0. -1.
         -5    1    3    3    0  503 -0.54996396331E+02 -0.12685918668E+03 -0.72582179189E+02  0.15623098153E+03  0.47000000000E+01 0.  1.
         11    1    4    4    0    0  0.29761120496E+02  0.11326535798E+01  0.39763266175E+01  0.30046936128E+02  0.00000000000E+00 0. -1.
        -12    1    4    4    0    0 -0.80595931196E+01 -0.96333335302E+02  0.24442314799E+02  0.99712061880E+02  0.00000000000E+00 0.  1.
</event>
<event>
12    1  0.8724767E-002  0.2316423E+03  0.7818608E-02  0.1125505E+00
         21   -1    0    0  503  502  0.00000000000E+00  0.00000000000E+00  0.52003397256E+03  0.52003397256E+03  0.00000000000E+00 0.  1.
         21   -1    0    0  501  503 -0.00000000000E+00 -0.00000000000E+00 -0.18724538519E+03  0.18724538519E+03  0.00000000000E+00 0.  1.
          6    2    1    2  501    0 -0.80529150185E+02  0.13238346784E+03 -0.70631816573E+02  0.24208456073E+03  0.17206322804E+03 0.  0.
         24    2    3    3    0    0 -0.32212125752E+02  0.15274782403E+03 -0.36257964821E+02  0.17921251975E+03  0.80205788013E+02 0.  0.
         -6    2    1    2    0  502  0.80529150185E+02 -0.13238346784E+03  0.40342040395E+03  0.46519479703E+03  0.17218551122E+03 0.  0.
        -24    2    5    5    0    0  0.33197909256E+02 -0.33091613266E+02  0.78074176236E+02  0.12172518172E+03  0.80773057530E+02 0.  0.
          5    1    3    3  501    0 -0.48317024432E+02 -0.20364356183E+02 -0.34373851752E+02  0.62872040980E+02  0.47000000000E+01 0. -1.
        -11    1    4    4    0    0 -0.55488712653E+02  0.13541895542E+03 -0.32910551765E+02  0.15000131712E+03  0.00000000000E+00 0.  1.
         12    1    4    4    0    0  0.23276586901E+02  0.17328868604E+02 -0.33474130562E+01  0.29211202629E+02  0.00000000000E+00 0. -1.
         -5    1    5    5    0  502  0.47331240929E+02 -0.99291854576E+02  0.32534622771E+03  0.34346961531E+03  0.47000000000E+01 0.  1.
         13    1    6    6    0    0  0.52800519637E+02 -0.45543809260E+02  0.53289459054E+02  0.87760468789E+02  0.00000000000E+00 0. -1.
        -14    1    6    6    0    0 -0.19602610381E+02  0.12452195993E+02  0.24784717182E+02  0.33964712932E+02  0.00000000000E+00 0.  1.
</event>
<event>
12    1  0.8724767E-002  0.2210984E+03  0.7818608E-02  0.1133399E+00
         21   -1    0    0  503  502  0.00000000000E+00  0.00000000000E+00  0.58181477825E+02  0.58181477825E+02  0.00000000000E+00 0. -1.
         21   -1    0    0  501  503 -0.00000000000E+00 -0.00000000000E+00 -0.86518106124E+03  0.86518106124E+03  0.00000000000E+00 0. -1.
          6    2    1    2  501    0  0.12507870383E+03 -0.53673985680E+02 -0.49036752401E+03  0.53717559159E+03  0.17196432394E+03 0.  0.
         24    2    3    3    0    0  0.48108135973E+02 -0.80395945268E+02 -0.38544010044E+03  0.40424558874E+03  0.77926402641E+02 0.  0.
         -6    2    1    2    0  502 -0.12507870383E+03  0.53673985680E+02 -0.31663205940E+03  0.38618694747E+03  0.17423810853E+03 0.  0.
        -24    2    5    5    0    0 -0.94447270551E+02  0.81058035467E+02 -0.12333454168E+03  0.18851501915E+03  0.69539997450E+02 0.  0.
          5    1    3    3  501    0  0.76970567859E+02  0.26721959589E+02 -0.10492742357E+03  0.13293000285E+03  0.47000000000E+01 0. -1.
        -11    1    4    4    0    0 -0.90314517756E+01 -0.16592985220E+02 -0.15256265314E+02  0.24282666884E+02  0.00000000000E+00 0.  1.
         12    1    4    4    0    0  0.57139587748E+02 -0.63802960049E+02 -0.37018383512E+03  0.37996292186E+03  0.00000000000E+00 0. -1.
         -5    1    5    5    0  502 -0.30631433281E+02 -0.27384049788E+02 -0.19329751772E+03  0.19767192832E+03  0.47000000000E+01 0.  1.
         11    1    6    6    0    0 -0.57727785869E+02  0.80895216404E+02 -0.11275721185E+03  0.15030210286E+03  0.00000000000E+00 0. -1.
        -12    1    6    6    0    0 -0.36719484682E+02  0.16281906346E+00 -0.10577329827E+02  0.38212916293E+02  0.00000000000E+00 0.  1.
</event>
<event>
12    1  0.8724767E-002  0.2284428E+03  0.7818608E-02  0.1128994E+00
         21   -1    0    0  503  502  0.00000000000E+00  0.00000000000E+00  0.30491789415E+04  0.30491789415E+04  0.00000000000E+00 0.  1.
         21   -1    0    0  501  503 -0.00000000000E+00 -0.00000000000E+00 -0.29805716427E+02  0.29805716427E+02  0.00000000000E+00 0. -1.
          6    2    1    2  501    0  0.93277406319E+01 -0.14905400600E+03  0.47199849908E+03  0.52138732423E+03  0.16357889620E+03 0.  0.
         24    2    3    3    0    0  0.40763179455E+02 -0.15580051858E+03  0.33015572039E+03  0.37587043135E+03  0.79626271213E+02 0.  0.
         -6    2    1    2    0  502 -0.93277406319E+01  0.14905400600E+03  0.25473747260E+04  0.25575973337E+04  0.17286417581E+03 0.  0.
        -24    2    5    5    0    0 -0.12454336617E+02  0.87845310098E+02  0.77354335457E+03  0.78270125103E+03  0.79875014552E+02 0.  0.
          5    1    3    3  501    0 -0.31435438823E+02  0.67465125828E+01  0.14184277869E+03  0.14551689288E+03  0.47000000000E+01 0. -1.
        -13    1    4    4    0    0 -0.19313123470E+02 -0.81005874139E+02  0.16664629955E+03  0.18629529660E+03  0.00000000000E+00 0.  1.
         14    1    4    4    0    0  0.60076302924E+02 -0.74794644440E+02  0.16350942084E+03  0.18957513475E+03  0.00000000000E+00 0. -1.
         -5    1    5    5    0  502  0.31265959850E+01  0.61208695898E+02  0.17738313714E+04  0.17748960827E+04  0.47000000000E+01 0.  1.
         11    1    6    6    0    0 -0.22812019456E+02  0.68728204957E+02  0.73409225420E+03  0.73765533419E+03  0.00000000000E+00 0. -1.
        -12    1    6    6    0    0  0.10357682839E+02  0.19117105141E+02  0.39451100373E+02  0.45045916834E+02  0.00000000000E+00 0.  1.
</event>
<event>
12    1  0.8724767E-002  0.1814570E+03  0.7818608E-02  0.1166523E+00
         21   -1    0    0  501  502  0.00000000000E+00  0.00000000000E+00  0.37718448281E+03  0.37718448281E+03  0.00000000000E+00 0. -1.
         21   -1    0    0  502  503 -0.00000000000E+00 -0.00000000000E+00 -0.12717676664E+03  0.12717676664E+03  0.00000000000E+00 0. -1.
         -6    2    1    2    0  503  0.39176181847E+02 -0.41499290778E+02 -0.16528433841E+02  0.18220819649E+03  0.17224887049E+03 0.  0.
        -24    2    3    3    0    0  0.56888807319E+02 -0.73398048054E+02  0.32188476706E+02  0.12116153246E+03  0.70854844985E+02 0.  0.
          6    2    1    2  501    0 -0.39176181847E+02  0.41499290778E+02  0.26653615001E+03  0.32215305296E+03  0.17170936466E+03 0.  0.
         24    2    5    5    0    0 -0.37450047619E+02 -0.35151532325E+02  0.19632593232E+03  0.21808628166E+03  0.79872512504E+02 0.  0.
          5    1    5    5  501    0 -0.17261342280E+01  0.76650823103E+02  0.70210217691E+02  0.10406677131E+03  0.47000000000E+01 0. -1.
        -11    1    6    6    0    0 -0.68099628915E+01 -0.14834660437E+02 -0.19424268049E+01  0.16438240987E+02  0.00000000000E+00 0.  1.
         12    1    6    6    0    0 -0.30640084727E+02 -0.20316871888E+02  0.19826835913E+03  0.20164804067E+03  0.00000000000E+00 0. -1.
         -5    1    3    3    0  503 -0.17712625472E+02  0.31898757276E+02 -0.48716910547E+02  0.61046664038E+02  0.47000000000E+01 0.  1.
         11    1    4    4    0    0  0.36983211759E+02 -0.81637533343E+02  0.99096169716E+01  0.90170091000E+02  0.00000000000E+00 0. -1.
        -12    1    4    4    0    0  0.19905595560E+02  0.82394852891E+01  0.22278859734E+02  0.30991441455E+02  0.00000000000E+00 0.  1.
</event>
<event>
12    1  0.8724767E-002  0.2420921E+03  0.7818608E-02  0.1118461E+00
         21   -1    0    0  501  502  0.00000000000E+00  0.00000000000E+00  0.17775599913E+04  0.17775599913E+04  0.00000000000E+00 0. -1.
         21   -1    0    0  502  503 -0.00000000000E+00 -0.00000000000E+00 -0.33822359849E+02  0.33822359849E+02  0.00000000000E+00 0. -1.
         -6    2    1    2    0  503  0.60269267946E+02 -0.16071465860E+03  0.72504360300E+03  0.76439311481E+03  0.17072498813E+03 0.  0.
        -24    2    3    3    0    0 -0.21643705899E+02 -0.12087338624E+03  0.51816477094E+03  0.53830020598E+03  0.78699151292E+02 0.  0.
          6    2    1    2  501    0 -0.60269267946E+02  0.16071465860E+03  0.10186940285E+04  0.10469892363E+04  0.17025672161E+03 0.  0.
         24    2    5    5    0    0 -0.31678235337E+02  0.12464465608E+02  0.46769468641E+03  0.47565926880E+03  0.79715411359E+02 0.  0.
          5    1    5    5  501    0 -0.28591032608E+02  0.14825019300E+03  0.55099934205E+03  0.57132996754E+03  0.47000000000E+01 0. -1.
        -11    1    6    6    0    0 -0.54125121494E+02  0.22915242555E+02  0.38066312192E+03  0.38517405092E+03  0.00000000000E+00 0.  1.
         12    1    6    6    0    0  0.22446886157E+02 -0.10450776947E+02  0.87031564490E+02  0.90485217879E+02  0.00000000000E+00 0. -1.
         -5    1    3    3    0  503  0.81912973844E+02 -0.39841272363E+02  0.20687883206E+03  0.22609290883E+03  0.47000000000E+01 0.  1.
         11    1    4    4    0    0 -0.48911175403E+02 -0.87408833536E+02  0.40443833096E+03  0.41665689819E+03  0.00000000000E+00 0. -1.
        -12    1    4    4    0    0  0.27267469504E+02 -0.33464552705E+02  0.11372643998E+03  0.12164330780E+03  0.00000000000E+00 0.  1.
</event>
<event>
12    1  0.8724767E-002  0.1982745E+03  0.7818608E-02  0.1151572E+00
         21   -1    0    0  503  502  0.00000000000E+00  0.00000000000E+00  0.29935639345E+03  0.29935639345E+03  0.00000000000E+00 0.  1.
         21   -1    0    0  501  503 -0.00000000000E+00 -0.00000000000E+00 -0.13021683087E+03  0.13021683087E+03  0.00000000000E+00 0.  1.
          6    2    1    2  501    0 -0.80489528200E+02 -0.56969288844E+02  0.87476425009E+02  0.21513991481E+03  0.17002645085E+03 0.  0.
         24    2    3    3    0    0 -0.63779708112E+02 -0.10364700701E+03  0.62166674681E+02  0.15927668072E+03  0.81815721912E+02 0.  0.
         -6    2    1    2    0  502  0.80489528200E+02  0.56969288844E+02  0.81663137579E+02  0.21443330951E+03  0.17201369762E+03 0.  0.
        -24    2    5    5    0    0 -0.10525094472E+02  0.39419964836E+02  0.82831246248E+02  0.12161577458E+03  0.79149668540E+02 0.  0.
          5    1    3    3  501    0 -0.16709820089E+02  0.46677718167E+02  0.25309750328E+02  0.55863234084E+02  0.47000000000E+01 0. -1.
        -13    1    4    4    0    0 -0.21484976893E+02 -0.10473693370E+02 -0.17477769636E+02  0.29610385279E+02  0.00000000000E+00 0.  1.
         14    1    4    4    0    0 -0.42294731218E+02 -0.93173313642E+02  0.79644444316E+02  0.12966629544E+03  0.00000000000E+00 0. -1.
         -5    1    5    5    0  502  0.91014622672E+02  0.17549324008E+02 -0.11681086699E+01  0.92817534934E+02  0.47000000000E+01 0.  1.
         13    1    6    6    0    0  0.22706205542E+01 -0.15615105406E+02 -0.55412248309E+01  0.16724006912E+02  0.00000000000E+00 0. -1.
        -14    1    6    6    0    0 -0.12795715026E+02  0.55035070243E+02  0.88372471079E+02  0.10489176767E+03  0.00000000000E+00 0.  1.
</event>
<event>
12    1  0.8724767E-002  0.1772405E+03  0.7818608E-02  0.1170764E+00
         21   -1    0    0  501  502  0.00000000000E+00  0.00000000000E+00  0.10037750493E+04  0.10037750493E+04  0.00000000000E+00 0. -1.
         21   -1    0    0  502  503 -0.00000000000E+00 -0.00000000000E+00 -0.33738544262E+02  0.33738544262E+02  0.00000000000E+00 0. -1.
         -6    2    1    2    0  503 -0.15711863504E+02  0.35567201914E+02  0.34153181669E+03  0.38478328519E+03  0.17292283321E+03 0.  0.
        -24    2    3    3    0    0  0.31686663724E+02  0.67127622031E+01  0.79273237607E+02  0.11667724017E+03  0.79247879084E+02 0.  0.
          6    2    1    2  501    0  0.15711863504E+02 -0.35567201914E+02  0.62850468833E+03  0.65273030835E+03  0.17183370938E+03 0.  0.
         24    2    5    5    0    0  0.27239221130E+02 -0.20561058187E+02  0.14880647434E+03  0.17263601467E+03  0.80592148953E+02 0.  0.
          5    1    5    5  501    0 -0.11527357626E+02 -0.15006143727E+02  0.47969821398E+03  0.48009429368E+03  0.47000000000E+01 0. -1.
        -11    1    6    6    0    0 -0.13349503957E+02 -0.95503646888E+00 -0.34715867786E+01  0.13826542059E+02  0.00000000000E+00 0.  1.
         12    1    6    6    0    0  0.40588725087E+02 -0.19606021718E+02  0.15227806112E+03  0.15880947261E+03  0.00000000000E+00 0. -1.
         -5    1    3    3    0  503 -0.47398527228E+02  0.28854439711E+02  0.26225857908E+03  0.26810604502E+03  0.47000000000E+01 0.  1.
         13    1    4    4    0    0  0.34464425049E+01  0.31984519548E+02  0.70913632305E+02  0.77869318113E+02  0.00000000000E+00 0. -1.
        -14    1    4    4    0    0  0.28240221219E+02 -0.25271757345E+02  0.83596053017E+01  0.38807922060E+02  0.00000000000E+00 0.  1.
</event>
<event>
12    1  0.8724767E-002  0.2594323E+03  0.7818608E-02  0.1107657E+00
         21   -1    0    0  503  502  0.00000000000E+00  0.00000000000E+00  0.18077956100E+03  0.18077956100E+03  0.00000000000E+00 0. -1.
         21   -1    0    0  501  503 -0.00000000000E+00 -0.00000000000E+00 -0.37069030092E+03  0.37069030092E+03  0.00000000000E+00 0.  1.
          6    2    1    2  501    0  0.15836170585E+03 -0.11095340216E+03 -0.97270921242E+02  0.27706814373E+03  0.17296253010E+03 0.  0.
         24    2    3    3    0    0  0.41854585894E+02 -0.88618611210E+00 -0.69659282926E+02  0.11436229374E+03  0.80459473314E+02 0.  0.
         -6    2    1    2    0  502 -0.15836170585E+03  0.11095340216E+03 -0.92639818676E+02  0.27440171819E+03  0.17124567033E+03 0.  0.
        -24    2    5    5    0    0 -0.39383499652E+02  0.30534893713E+01  0.23120508095E+01  0.87757264078E+02  0.78330121775E+02 0.  0.
          5    1    3    3  501    0  0.11650711996E+03 -0.11006721605E+03 -0.27611638316E+02  0.16270584999E+03  0.47000000000E+01 0. -1.
        -11    1    4    4    0    0  0.38656477199E+02  0.35806579924E+02 -0.49875288993E+02  0.72553282816E+02  0.00000000000E+00 0.  1.
         12    1    4    4    0    0  0.31981086942E+01 -0.36692766036E+02 -0.19783993933E+02  0.41809010925E+02  0.00000000000E+00 0. -1.
         -5    1    5    5    0  502 -0.11897820620E+03  0.10789991279E+03 -0.94951869486E+02  0.18664445411E+03  0.47000000000E+01 0.  1.
         11    1    6    6    0    0 -0.11993040350E+02  0.29345641037E+02  0.27687855336E+02  0.42090580868E+02  0.00000000000E+00 0. -1.
        -12    1    6    6    0    0 -0.27390459301E+02 -0.26292151666E+02 -0.25375804527E+02  0.45666683209E+02  0.00000000000E+00 0.  1.
</event>
<event>
12    1  0.8724767E-002  0.1808128E+03  0.7818608E-02  0.1167283E+00
         21   -1    0    0  503  502  0.00000000000E+00  0.00000000000E+00  0.17066153050E+02  0.17066153050E+02  0.00000000000E+00 0.  1.
         21   -1    0    0  501  503 -0.00000000000E+00 -0.00000000000E+00 -0.20646170014E+04  0.20646170014E+04  0.00000000000E+00 0.  1.
          6    2    1    2  501    0 -0.15405018994E+02  0.52004011832E+02 -0.13111309433E+04  0.13233906266E+04  0.17133787722E+03 0.  0.
         24    2    3    3    0    0  0.56458508347E+02  0.19682722503E+02 -0.67053695351E+03  0.67795141018E+03  0.80145716116E+02 0.  0.
         -6    2    1    2    0  502  0.15405018994E+02 -0.52004011832E+02 -0.73641990505E+03  0.75829252788E+03  0.17248637460E+03 0.  0.
        -24    2    5    5    0    0  0.66264902907E+02 -0.41257011448E+02 -0.62451760744E+03  0.63481605231E+03  0.82921649230E+02 0.  0.
          5    1    3    3  501    0 -0.71863527341E+02  0.32321289329E+02 -0.64059398977E+03  0.64543921638E+03  0.47000000000E+01 0. -1.
        -11    1    4    4    0    0  0.45957694857E+02  0.22556302727E+02 -0.66236052778E+03  0.66433603339E+03  0.00000000000E+00 0.  1.
         12    1    4    4    0    0  0.10500813490E+02 -0.28735802247E+01 -0.81764257369E+01  0.13615376789E+02  0.00000000000E+00 0. -1.
         -5    1    5    5    0  502 -0.50859883913E+02 -0.10747000383E+02 -0.11190229761E+03  0.12347647557E+03  0.47000000000E+01 0.  1.
         11    1    6    6    0    0  0.14145081919E+02  0.17387909348E+02 -0.30439044343E+03  0.30521462086E+03  0.00000000000E+00 0. -1.
        -12    1    6    6    0    0  0.52119820988E+02 -0.58644920796E+02 -0.32012716401E+03  0.32960143145E+03  0.00000000000E+00 0.  1.
</event>
<event>
12    1  0.8724767E-002  0.1826984E+03  0.7818608E-02  0.1167491E+00
         21   -1    0    0  503  502  0.00000000000E+00  0.00000000000E+00  0.15338728260E+03  0.15338728260E+03  0.00000000000E+00 0.  1.
         21   -1    0    0  501  503 -0.00000000000E+00 -0.00000000000E+00 -0.34995944319E+03  0.34995944319E+03  0.00000000000E+00 0.  1.
          6    2    1    2  501    0 -0.20007507508E+02 -0.47131093597E+02 -0.25778458332E+03  0.31066651500E+03  0.16564767370E+03 0.  0.
         24    2    3    3    0    0 -0.25514323999E+02 -0.90266288353E+02 -0.13661766279E+03  0.18184694085E+03  0.74866151002E+02 0.  0.
         -6    2    1    2    0  502  0.20007507508E+02  0.47131093597E+02  0.61212422738E+02  0.19268021079E+03  0.17537691579E+03 0.  0.
        -24    2    5    5    0    0  0.10407910354E+02  0.92000827895E+02  0.74869221730E+02  0.14457570497E+03  0.82001568116E+02 0.  0.
          5    1    3    3  501    0  0.55068164912E+01  0.43135194756E+02 -0.12116692053E+03  0.12881957416E+03  0.47000000000E+01 0. -1.
        -13    1    4    4    0    0 -0.50197071734E+02 -0.52885271985E+02 -0.10125224892E+03  0.12477425983E+03  0.00000000000E+00 0.  1.
         14    1    4    4    0    0  0.24682747735E+02 -0.37381016368E+02 -0.35365413871E+02  0.57072681019E+02  0.00000000000E+00 0. -1.
         -5    1    5    5    0  502  0.95995971543E+01 -0.44869734298E+02 -0.13656798992E+02  0.48104505820E+02  0.47000000000E+01 0.  1.
         11    1    6    6    0    0  0.87152674367E+00 -0.51286265761E+01 -0.12529005249E+02  0.13566073196E+02  0.00000000000E+00 0. -1.
        -12    1    6    6    0    0  0.95363836099E+01  0.97129454471E+02  0.87398226979E+02  0.13100963177E+03  0.00000000000E+00 0.  1.
</event>
<event>
12    1  0.8724767E-002  0.1854655E+03  0.7818608E-02  0.1162738E+00
         21   -1    0    0  503  502  0.00000000000E+00  0.00000000000E+00  0.89844121027E+03  0.89844121027E+03  0.00000000000E+00 0. -1.
         21   -1    0    0  501  503 -0.00000000000E+00 -0.00000000000E+00 -0.49197020473E+02  0.49197020473E+02  0.00000000000E+00 0. -1.
          6    2    1    2  501    0 -0.19788905611E+02 -0.67687302805E+02  0.20084408749E+03  0.27337849805E+03  0.17153508088E+03 0.  0.
         24    2    3    3    0    0 -0.10389503126E+02  0.27340196889E+02  0.58017300735E+02  0.10150600031E+03  0.77987388554E+02 0.  0.
         -6    2    1    2    0  502  0.19788905611E+02  0.67687302805E+02  0.64840010231E+03  0.67425973269E+03  0.17096877701E+03 0.  0.
        -24    2    5    5    0    0  0.59344787889E+02  0.84203411565E+02  0.36315094205E+03  0.38576948485E+03  0.79545398118E+02 0.  0.
          5    1    3    3  501    0 -0.93994024851E+01 -0.95027499694E+02  0.14282678675E+03  0.17187249774E+03  0.47000000000E+01 0. -1.
        -11    1    4    4    0    0  0.31531407840E+02  0.23657472727E+02  0.38559682107E+02  0.55143039274E+02  0.00000000000E+00 0.  1.
         12    1    4    4    0    0 -0.41920910966E+02  0.36827241620E+01  0.19457618629E+02  0.46362961037E+02  0.00000000000E+00 0. -1.
         -5    1    5    5    0  502 -0.39555882279E+02 -0.16516108760E+02  0.28524916026E+03  0.28849024784E+03  0.47000000000E+01 0.  1.
         13    1    6    6    0    0  0.69031319216E+02  0.50079893380E+02  0.31253141150E+03  0.32395864231E+03  0.00000000000E+00 0. -1.
        -14    1    6    6    0    0 -0.96865313268E+01  0.34123518185E+02  0.50619530551E+02  0.61810842542E+02  0.00000000000E+00 0.  1.
</event>
<event>
12    1  0.8724767E-002  0.1977708E+03  0.7818608E-02  0.1152090E+00
         21   -1    0    0  501  502  0.00000000000E+00  0.00000000000E+00  0.17556064974E+03  0.17556064974E+03  0.00000000000E+00 0.  1.
         21   -1    0    0  502  503 -0.00000000000E+00 -0.00000000000E+00 -0.31189931240E+03  0.31189931240E+03  0.00000000000E+00 0. -1.
         -6    2    1    2    0  503  0.94164459319E+02  0.27142757109E+02 -0.19991417175E+03  0.27972186768E+03  0.16933686109E+03 0.  0.
        -24    2    3    3    0    0  0.98358547650E+01  0.60684239660E+02 -0.81684605669E+02  0.13060223485E+03  0.81272676602E+02 0.  0.
          6    2    1    2  501    0 -0.94164459319E+02 -0.27142757109E+02  0.63575509092E+02  0.20773809447E+03  0.17178357277E+03 0.  0.
         24    2    5    5    0    0  0.18476437064E+02 -0.18117235621E+02  0.16660044968E+02  0.85293893504E+02  0.79547961744E+02 0.  0.
          5    1    5    5  501    0 -0.11264089638E+03 -0.90255214877E+01  0.46915464124E+02  0.12244420097E+03  0.47000000000E+01 0. -1.
        -11    1    6    6    0    0  0.44175197398E+00 -0.18772615851E+02  0.46652989794E+02  0.50290234712E+02  0.00000000000E+00 0.  1.
         12    1    6    6    0    0  0.18034685090E+02  0.65538022941E+00 -0.29992944826E+02  0.35003658793E+02  0.00000000000E+00 0. -1.
         -5    1    3    3    0  503  0.84328604554E+02 -0.33541482551E+02 -0.11822956608E+03  0.14911963283E+03  0.47000000000E+01 0.  1.
         11    1    4    4    0    0 -0.10850992506E+01  0.28931541047E+01 -0.70704695386E+02  0.70772181898E+02  0.00000000000E+00 0. -1.
        -12    1    4    4    0    0  0.10920954016E+02  0.57791085555E+02 -0.10979910284E+02  0.59830052951E+02  0.00000000000E+00 0.  1.
</event>
<event>
12    1  0.8724767E-002  0.1930074E+03  0.7818608E-02  0.1155856E+00
         21   -1    0    0  503  502  0.00000000000E+00  0.00000000000E+00  0.17062132235E+03  0.17062132235E+03  0.00000000000E+00 0. -1.
         21   -1    0    0  501  503 -0.00000000000E+00 -0.00000000000E+00 -0.39030647212E+03  0.39030647212E+03  0.00000000000E+00 0. -1.
          6    2    1    2  501    0  0.74955196319E+02  0.44121427101E+02 -0.29628996140E+03  0.35360939605E+03  0.17229881591E+03 0.  0.
         24    2    3    3    0    0  0.42705291332E+02 -0.80491623833E+01 -0.58495375246E+02  0.10798736531E+03  0.79693357437E+02 0.  0.
         -6    2    1    2    0  502 -0.74955196319E+02 -0.44121427101E+02  0.76604811637E+02  0.20731839842E+03  0.17189426801E+03 0.  0.
        -24    2    5    5    0    0 -0.46062817110E+02 -0.93045851908E+02  0.31411230664E+02  0.13456595049E+03  0.79636775057E+02 0.  0.
          5    1    3    3  501    0  0.32249904987E+02  0.52170589484E+02 -0.23779458616E+03  0.24562203074E+03  0.47000000000E+01 0. -1.
        -11    1    4    4    0    0  0.64880066765E+02  0.93995754538E+00 -0.32207474256E+02  0.72440513399E+02  0.00000000000E+00 0.  1.
         12    1    4    4    0    0 -0.22174775433E+02 -0.89891199287E+01 -0.26287900990E+02  0.35546851915E+02  0.00000000000E+00 0. -1.
         -5    1    5    5    0  502 -0.28892379209E+02  0.48924424807E+02  0.45193580973E+02  0.72752447933E+02  0.47000000000E+01 0.  1.
         11    1    6    6    0    0 -0.20168329852E+02  0.10749520320E+02  0.12101949554E+02  0.25860605158E+02  0.00000000000E+00 0. -1.
        -12    1    6    6    0    0 -0.25894487258E+02 -0.10379537223E+03  0.19309281110E+02  0.10870534533E+03  0.00000000000E+00 0.  1.
</event>
<event>
12    1  0.8724767E-002  0.3688731E+03  0.7818608E-02  0.1055165E+00
         21   -1    0    0  501  502  0.00000000000E+00  0.00000000000E+00  0.45979336259E+03  0.45979336259E+03  0.00000000000E+00 0. -1.
         21   -1    0    0  502  503 -0.00000000000E+00 -0.00000000000E+00 -0.53785192117E+03  0.53785192117E+03  0.00000000000E+00 0.  1.
         -6    2    1    2    0  503 -0.13630704480E+03  0.29632920808E+03 -0.37381493763E+03  0.52517140734E+03  0.17226952566E+03 0.  0.
        -24    2    3    3    0    0 -0.40964418242E+01  0.77199322359E+02 -0.13615838845E+03  0.17588602871E+03  0.80126600717E+02 0.  0.
          6    2    1    2  501    0  0.13630704480E+03 -0.29632920808E+03  0.29575637905E+03  0.47247387642E+03  0.17137420496E+03 0.  0.
         24    2    5    5    0    0  0.15086320767E+02 -0.52744122462E+02  0.85845171471E+02  0.12879821109E+03  0.78803846272E+02 0.  0.
          5    1    5    5  501    0  0.12122072404E+03 -0.24358508561E+03  0.20991120758E+03  0.34367566533E+03  0.47000000000E+01 0. -1.
        -13    1    6    6    0    0  0.38127290779E+02 -0.56884627977E+02  0.45709211757E+02  0.82333973800E+02  0.00000000000E+00 0.  1.
         14    1    6    6    0    0 -0.23040970012E+02  0.41405055150E+01  0.40135959714E+02  0.46464237292E+02  0.00000000000E+00 0. -1.
         -5    1    3    3    0  503 -0.13221060298E+03  0.21912988572E+03 -0.23765654918E+03  0.34928537862E+03  0.47000000000E+01 0.  1.
         11    1    4    4    0    0 -0.23044256158E+02  0.61699918863E+01 -0.33510076460E+01  0.24090159692E+02  0.00000000000E+00 0. -1.
        -12    1    4    4    0    0  0.18947814334E+02  0.71029330473E+02 -0.13280738081E+03  0.15179586902E+03  0.00000000000E+00 0.  1.
</event>
<event>
12    1  0.8724767E-002  0.2119413E+03  0.7818608E-02  0.1141025E+00
         21   -1    0    0  501  502  0.00000000000E+00  0.00000000000E+00  0.25235776159E+03  0.25235776159E+03  0.00000000000E+00 0.  1.
         21   -1    0    0  502  503 -0.00000000000E+00 -0.00000000000E+00 -0.37940191406E+03  0.37940191406E+03  0.00000000000E+00 0.  1.
         -6    2    1    2    0  503  0.12335815153E+03  0.36046147240E+01 -0.29568018936E+03  0.36091429382E+03  0.16613887657E+03 0.  0.
        -24    2    3    3    0    0  0.15531256402E+03 -0.76880203011E+00 -0.24542446473E+03  0.30101488556E+03  0.79083562384E+02 0.  0.
          6    2    1    2  501    0 -0.12335815153E+03 -0.36046147240E+01  0.16863603690E+03  0.27084538182E+03  0.17230461723E+03 0.  0.
         24    2    5    5    0    0 -0.56223213345E+02 -0.82500542611E+01  0.16796523240E+03  0.20338265129E+03  0.99614609538E+02 0.  0.
          5    1    5    5  501    0 -0.67134938182E+02  0.46454395371E+01  0.67080450056E+00  0.67462730540E+02  0.47000000000E+01 0. -1.
        -13    1    6    6    0    0 -0.81783422866E+02  0.13356229887E+01  0.14953961600E+03  0.17044767203E+03  0.00000000000E+00 0.  1.
         14    1    6    6    0    0  0.25560209521E+02 -0.95856772498E+01  0.18425616399E+02  0.32934979259E+02  0.00000000000E+00 0. -1.
         -5    1    3    3    0  503 -0.31954412497E+02  0.43734167541E+01 -0.50255724637E+02  0.59899408268E+02  0.47000000000E+01 0.  1.
         13    1    4    4    0    0  0.85620284600E+02  0.38292900087E+02 -0.14493962791E+03  0.17264030546E+03  0.00000000000E+00 0. -1.
        -14    1    4    4    0    0  0.69692279424E+02 -0.39061702117E+02 -0.10048483682E+03  0.12837458010E+03  0.00000000000E+00 0.  1.
</event>
<event>
12    1  0.8724767E-002  0.2017651E+03  0.7818608E-02  0.1148351E+00
         21   -1    0    0  501  502  0.00000000000E+00  0.00000000000E+00  0.18734792933E+03  0.18734792933E+03  0.00000000000E+00 0. -1.
         21   -1    0    0  502  503 -0.00000000000E+00 -0.00000000000E+00 -0.24011905323E+03  0.24011905323E+03  0.00000000000E+00 0. -1.
         -6    2    1    2    0  503  0.61305842267E+02 -0.84787519774E+02 -0.93000061813E+02  0.22216701386E+03  0.17251620429E+03 0.  0.
        -24    2    3    3    0    0  0.81812275728E+02 -0.79943424427E+02 -0.12240992794E+03  0.18568401372E+03  0.80063493092E+02 0.  0.
          6    2    1    2  501    0 -0.61305842267E+02  0.84787519774E+02  0.40228937905E+02  0.20529996871E+03  0.17199529034E+03 0.  0.
         24    2    5    5    0    0 -0.48260692575E+02  0.73673779722E+02  0.91784832096E+02  0.15076748871E+03  0.80928733977E+02 0.  0.
          5    1    5    5  501    0 -0.13045149692E+02  0.11113740052E+02 -0.51555894191E+02  0.54532479994E+02  0.47000000000E+01 0. -1.
        -11    1    6    6    0    0 -0.12653116995E+02 -0.17449075627E+02  0.20219471653E+02  0.29553318661E+02  0.00000000000E+00 0.  1.
         12    1    6    6    0    0 -0.35607575580E+02  0.91122855350E+02  0.71565360443E+02  0.12121417005E+03  0.00000000000E+00 0. -1.
         -5    1    3    3    0  503 -0.20506433460E+02 -0.48440953475E+01  0.29409866126E+02  0.36483000130E+02  0.47000000000E+01 0.  1.
         13    1    4    4    0    0 -0.56097472593E+01 -0.46105360460E+01 -0.47610164869E+02  0.48160711226E+02  0.00000000000E+00 0. -1.
        -14    1    4    4    0    0  0.87422022987E+02 -0.75332888381E+02 -0.74799763070E+02  0.13752330250E+03  0.00000000000E+00 0.  1.
</event>
<event>
12    1  0.8724767E-002  0.4314249E+03  0.7818608E-02  0.1033431E+00
         21   -1    0    0  503  502  0.00000000000E+00  0.00000000000E+00  0.27387933257E+03  0.27387933257E+03  0.00000000000E+00 0. -1.
         21   -1    0    0  501  503 -0.00000000000E+00 -0.00000000000E+00 -0.11717000319E+04  0.11717000319E+04  0.00000000000E+00 0. -1.
          6    2    1    2  501    0 -0.39383275734E+03 -0.38583530879E+02 -0.91759630123E+03  0.10139578108E+04  0.17185616198E+03 0.  0.
         24    2    3    3    0    0 -0.14852381706E+03  0.37147510119E+02 -0.41661252239E+03  0.45100265857E+03  0.79988389642E+02 0.  0.
         -6    2    1    2    0  502  0.39383275734E+03  0.38583530879E+02  0.19775601851E+02  0.43162155373E+03  0.17121086884E+03 0.  0.
        -24    2    5    5    0    0  0.31404298519E+03  0.72886822240E+02 -0.26760047751E+02  0.33297683659E+03  0.78879579998E+02 0.  0.
          5    1    3    3  501    0 -0.24530894028E+03 -0.75731040998E+02 -0.50098377884E+03  0.56295515222E+03  0.47000000000E+01 0. -1.
        -11    1    4    4    0    0 -0.15131161581E+03  0.28467884148E+02 -0.41371647683E+03  0.44143736669E+03  0.00000000000E+00 0.  1.
         12    1    4    4    0    0  0.27877987453E+01  0.86796259712E+01 -0.28960455607E+01  0.95652918792E+01  0.00000000000E+00 0. -1.
         -5    1    5    5    0  502  0.79789772146E+02 -0.34303291361E+02  0.46535649602E+02  0.98644717148E+02  0.47000000000E+01 0.  1.
         11    1    6    6    0    0  0.14213395417E+03  0.24820555525E+02 -0.50576977324E+02  0.15289261440E+03  0.00000000000E+00 0. -1.
        -12    1    6    6    0    0  0.17190903103E+03  0.48066266715E+02  0.23816929573E+02  0.18008422218E+03  0.00000000000E+00 0.  1.
</event>
<event>
12    1  0.8724767E-002  0.1764506E+03  0.7818608E-02  0.1171338E+00
         21   -1    0    0  501  502  0.00000000000E+00  0.00000000000E+00  0.11935999011E+03  0.11935999011E+03  0.00000000000E+00 0.  1.
         21   -1    0    0  502  503 -0.00000000000E+00 -0.00000000000E+00 -0.33008685113E+03  0.33008685113E+03  0.00000000000E+00 0.  1.
         -6    2    1    2    0  503 -0.27615056774E+02 -0.25095040898E+02 -0.20847446732E+03  0.27298183617E+03  0.17223567261E+03 0.  0.
        -24    2    3    3    0    0 -0.77410152376E+02 -0.11321812630E+02 -0.18196767628E+03  0.21472419003E+03  0.82907945583E+02 0.  0.
          6    2    1    2  501    0  0.27615056774E+02  0.25095040898E+02 -0.22523937042E+01  0.17646500507E+03  0.17246006001E+03 0.  0.
         24    2    5    5    0    0  0.89995178001E+01 -0.23857730413E+02  0.54989827941E+02  0.98736798804E+02  0.77941591208E+02 0.  0.
          5    1    5    5  501    0  0.18615538973E+02  0.48952771311E+02 -0.57242221645E+02  0.77728206265E+02  0.47000000000E+01 0. -1.
        -11    1    6    6    0    0  0.32915089125E+02 -0.59428279520E+01  0.59753816119E+02  0.68478017180E+02  0.00000000000E+00 0.  1.
         12    1    6    6    0    0 -0.23915571325E+02 -0.17914902461E+02 -0.47639881784E+01  0.30258781624E+02  0.00000000000E+00 0. -1.
         -5    1    3    3    0  503  0.49795095603E+02 -0.13773228268E+02 -0.26506791035E+02  0.58257646142E+02  0.47000000000E+01 0.  1.
         11    1    4    4    0    0 -0.50406037076E+00 -0.32652273395E+02 -0.69796426109E+02  0.77058199643E+02  0.00000000000E+00 0. -1.
        -12    1    4    4    0    0 -0.76906092006E+02  0.21330460765E+02 -0.11217125017E+03  0.13766599039E+03  0.00000000000E+00 0.  1.
</event>
<event>
12    1  0.8724767E-002  0.2570762E+03  0.7818608E-02  0.1108980E+00
         21   -1    0    0  501  502  0.00000000000E+00  0.00000000000E+00  0.25107369257E+04  0.25107369257E+04  0.00000000000E+00 0. -1.
         21   -1    0    0  502  503 -0.00000000000E+00 -0.00000000000E+00 -0.31798468419E+02  0.31798468419E+02  0.00000000000E+00 0. -1.
         -6    2    1    2    0  503  0.13760473182E+03  0.13092426047E+03  0.71061836460E+03  0.75568951301E+03  0.17323959066E+03 0.  0.
        -24    2    3    3    0    0  0.15840080775E+03  0.14398579660E+03  0.58897202946E+03  0.63150013604E+03  0.77984901200E+02 0.  0.
          6    2    1    2  501    0 -0.13760473182E+03 -0.13092426047E+03  0.17683200926E+04  0.17868458811E+04  0.17258629274E+03 0.  0.
         24    2    5    5    0    0 -0.12578715296E+03 -0.40125289184E+02  0.13413901665E+04  0.13501819826E+04  0.78938968636E+02 0.  0.
          5    1    5    5  501    0 -0.11817578860E+02 -0.90798971288E+02  0.42692992616E+03  0.43666389845E+03  0.47000000000E+01 0. -1.
        -13    1    6    6    0    0  0.87820511362E+01  0.55569925935E+01  0.55664581399E+02  0.56626409132E+02  0.00000000000E+00 0.  1.
         14    1    6    6    0    0 -0.13456920410E+03 -0.45682281778E+02  0.12857255851E+04  0.12935555735E+04  0.00000000000E+00 0. -1.
         -5    1    3    3    0  503 -0.20796075923E+02 -0.13061536131E+02  0.12164633514E+03  0.12418937697E+03  0.47000000000E+01 0.  1.
         11    1    4    4    0    0  0.11983192607E+03  0.12050000063E+03  0.35970901659E+03  0.39783227279E+03  0.00000000000E+00 0. -1.
        -12    1    4    4    0    0  0.38568881681E+02  0.23485795974E+02  0.22926301287E+03  0.23366786325E+03  0.00000000000E+00 0.  1.
</event>
<event>
12    1  0.8724767E-002  0.2304761E+03  0.7818608E-02  0.1126620E+00
         21   -1    0    0  503  502  0.00000000000E+00  0.00000000000E+00  0.14711482360E+04  0.14711482360E+04  0.00000000000E+00 0. -1.
         21   -1    0    0  501  503 -0.00000000000E+00 -0.00000000000E+00 -0.55350306488E+02  0.55350306488E+02  0.00000000000E+00 0. -1.
          6    2    1    2  501    0 -0.58861933748E+02 -0.14198143369E+03  0.11629710407E+04  0.11855888389E+04  0.17174340951E+03 0.  0.
         24    2    3    3    0    0 -0.42367203562E+02 -0.43041536011E+02  0.30696098197E+03  0.32370921269E+03  0.83156816702E+02 0.  0.
         -6    2    1    2    0  502  0.58861933748E+02  0.14198143369E+03  0.25282688883E+03  0.34090970359E+03  0.16933557076E+03 0.  0.
        -24    2    5    5    0    0 -0.12672068208E+02  0.13362188313E+03  0.16997831064E+03  0.23103262486E+03  0.80424241983E+02 0.  0.
          5    1    3    3  501    0 -0.16494730186E+02 -0.98939897683E+02  0.85601005871E+03  0.86187962622E+03  0.47000000000E+01 0. -1.
        -11    1    4    4    0    0  0.25466507710E+02 -0.11927072926E+02  0.87174699229E+02  0.91598178307E+02  0.00000000000E+00 0.  1.
         12    1    4    4    0    0 -0.67833711272E+02 -0.31114463084E+02  0.21978628275E+03  0.23211103438E+03  0.00000000000E+00 0. -1.
         -5    1    5    5    0  502  0.71534001956E+02  0.83595505686E+01  0.82848578197E+02  0.10987707873E+03  0.47000000000E+01 0.  1.
         11    1    6    6    0    0  0.23745747687E+02  0.11071259289E+03  0.12850544437E+03  0.17127401435E+03  0.00000000000E+00 0. -1.
        -12    1    6    6    0    0 -0.36417815895E+02  0.22909290233E+02  0.41472866266E+02  0.59758610508E+02  0.00000000000E+00 0.  1.
</event>
<event>
12    1  0.8724767E-002  0.1733032E+03  0.7818608E-02  0.1174824E+00
         21   -1    0    0  503  502  0.00000000000E+00  0.00000000000E+00  0.80798177284E+03  0.80798177284E+03  0.00000000000E+00 0. -1.
         21   -1    0    0  501  503 -0.00000000000E+00 -0.00000000000E+00 -0.12433033689E+03  0.12433033689E+03  0.00000000000E+00 0. -1.
          6    2    1    2  501    0 -0.13109434673E+02  0.16858866291E+02 -0.48747042594E+02  0.18002855598E+03  0.17198234838E+03 0.  0.
         24    2    3    3    0    0 -0.57212208728E+02 -0.32821037129E+02 -0.45214617063E+02  0.11333736081E+03  0.80315244212E+02 0.  0.
         -6    2    1    2    0  502  0.13109434673E+02 -0.16858866291E+02  0.73239847854E+03  0.75228355375E+03  0.17049027898E+03 0.  0.
        -24    2    5    5    0    0 -0.36343436624E+02 -0.43349022526E+02  0.27781803177E+03  0.29423029545E+03  0.78667813260E+02 0.  0.
          5    1    3    3  501    0  0.44102774055E+02  0.49679903420E+02 -0.35324255314E+01  0.66691195171E+02  0.47000000000E+01 0. -1.
        -11    1    4    4    0    0 -0.31041257789E+02  0.79478443556E+01  0.15556247326E+02  0.35619162622E+02  0.00000000000E+00 0.  1.
         12    1    4    4    0    0 -0.26170950939E+02 -0.40768881485E+02 -0.60770864389E+02  0.77718198185E+02  0.00000000000E+00 0. -1.
         -5    1    5    5    0  502  0.49452871297E+02  0.26490156235E+02  0.45458044676E+03  0.45805325830E+03  0.47000000000E+01 0.  1.
         11    1    6    6    0    0  0.21916348938E+02 -0.60224472312E+01  0.34886175434E+02  0.41637020280E+02  0.00000000000E+00 0. -1.
        -12    1    6    6    0    0 -0.58259785562E+02 -0.37326575295E+02  0.24293185634E+03  0.25259327517E+03  0.00000000000E+00 0.  1.
</event>
<event>
12    1  0.8724767E-002  0.2122471E+03  0.7818608E-02  0.1139963E+00
         21   -1    0    0  501  502  0.00000000000E+00  0.00000000000E+00  0.57046382513E+02  0.57046382513E+02  0.00000000000E+00 0.  1.
         21   -1    0    0  502  503 -0.00000000000E+00 -0.00000000000E+00 -0.10864462183E+04  0.10864462183E+04  0.00000000000E+00 0.  1.
         -6    2    1    2    0  503  0.14780336213E+02 -0.12233462419E+03 -0.81582284473E+03  0.84298026893E+03  0.17281377606E+03 0.  0.
        -24    2    3    3    0    0  0.37721131824E+02 -0.36899152624E+01 -0.42842389678E+03  0.43714424054E+03  0.78176418735E+02 0.  0.
          6    2    1    2  501    0 -0.14780336213E+02  0.12233462419E+03 -0.21357699105E+03  0.30051233189E+03  0.17177983552E+03 0.  0.
         24    2    5    5    0    0  0.56534507274E+02  0.55964441867E+02 -0.12563718853E+03  0.16918713677E+03  0.80693338269E+02 0.  0.
          5    1    5    5  501    0 -0.71314843487E+02  0.66370182326E+02 -0.87939802526E+02  0.13132519511E+03  0.47000000000E+01 0. -1.
        -13    1    6    6    0    0  0.73866097346E+02  0.51874510337E+02 -0.81572981916E+02  0.12166066143E+03  0.00000000000E+00 0.  1.
         14    1    6    6    0    0 -0.17331590072E+02  0.40899315301E+01 -0.44064206612E+02  0.47526475345E+02  0.00000000000E+00 0. -1.
         -5    1    3    3    0  503 -0.22940795611E+02 -0.11864470893E+03 -0.38739894796E+03  0.40583602839E+03  0.47000000000E+01 0.  1.
         13    1    4    4    0    0 -0.18620193386E+01  0.10710437416E+02 -0.32882702202E+03  0.32900667318E+03  0.00000000000E+00 0. -1.
        -14    1    4    4    0    0  0.39583151162E+02 -0.14400352678E+02 -0.99596874754E+02  0.10813756736E+03  0.00000000000E+00 0.  1.
</event>
<event>
12    1  0.8724767E-002  0.2336015E+03  0.7818608E-02  0.1124238E+00
         21   -1    0    0  501  502  0.00000000000E+00  0.00000000000E+00  0.85748308757E+03  0.85748308757E+03  0.00000000000E+00 0. -1.
         21   -1    0    0  502  503 -0.00000000000E+00 -0.00000000000E+00 -0.26426838713E+03  0.26426838713E+03  0.00000000000E+00 0. -1.
         -6    2    1    2    0  503  0.13429622958E+03 -0.83875914005E+02 -0.19239399113E+03  0.30214749437E+03  0.17090059772E+03 0.  0.
        -24    2    3    3    0    0  0.27934486777E+02 -0.85731833448E+02 -0.13770174228E+03  0.18244120024E+03  0.78693957210E+02 0.  0.
          6    2    1    2  501    0 -0.13429622958E+03  0.83875914005E+02  0.78560869157E+03  0.81960398032E+03  0.17175279348E+03 0.  0.
         24    2    5    5    0    0 -0.10264004294E+03  0.54574087013E+02  0.29510655243E+03  0.32718632252E+03  0.80310042772E+02 0.  0.
          5    1    5    5  501    0 -0.31656186642E+02  0.29301826993E+02  0.49050213914E+03  0.49241765780E+03  0.47000000000E+01 0. -1.
        -13    1    6    6    0    0 -0.47542636482E+02 -0.13348111345E+02  0.69811797014E+02  0.85511176828E+02  0.00000000000E+00 0.  1.
         14    1    6    6    0    0 -0.55097406457E+02  0.67922198358E+02  0.22529475542E+03  0.24167514569E+03  0.00000000000E+00 0. -1.
         -5    1    3    3    0  503  0.10636174280E+03  0.18559194429E+01 -0.54692248850E+02  0.11970629413E+03  0.47000000000E+01 0.  1.
         13    1    4    4    0    0  0.25917601043E+02 -0.22281301670E+02 -0.10621558688E+03  0.11157925141E+03  0.00000000000E+00 0. -1.
        -14    1    4    4    0    0  0.20168857340E+01 -0.63450531778E+02 -0.31486155396E+02  0.70861948834E+02  0.00000000000E+00 0.  1.
</event>
<event>
12    1  0.8724767E-002  0.1986704E+03  0.7818608E-02  0.1151306E+00
         21   -1    0    0  503  502  0.00000000000E+00  0.00000000000E+00  0.57238142632E+03  0.57238142632E+03  0.00000000000E+00 0. -1.
         21   -1    0    0  501  503 -0.00000000000E+00 -0.00000000000E+00 -0.62730662207E+03  0.62730662207E+03  0.00000000000E+00 0. -1.
          6    2    1    2  501    0  0.26569051053E+02 -0.96381731443E+02 -0.59372227259E+03  0.62543008119E+03  0.16929647621E+03 0.  0.
         24    2    3    3    0    0  0.12791659165E+02  0.57230009832E+01 -0.15631013205E+03  0.17602306789E+03  0.79717524816E+02 0.  0.
         -6    2    1    2    0  502 -0.26569051053E+02  0.96381731443E+02  0.53879707685E+03  0.57425796720E+03  0.17168159550E+03 0.  0.
        -24    2    5    5    0    0 -0.12809628104E+02  0.32180753054E+02  0.47380330535E+03  0.48175192588E+03  0.79972860958E+02 0.  0.
          5    1    3    3  501    0  0.13777391888E+02 -0.10210473243E+03 -0.43741214055E+03  0.44940701331E+03  0.47000000000E+01 0. -1.
        -11    1    4    4    0    0 -0.56888098286E+00 -0.35781524611E+02 -0.53681093885E+02  0.64515897031E+02  0.00000000000E+00 0.  1.
         12    1    4    4    0    0  0.13360540148E+02  0.41504525594E+02 -0.10262903816E+03  0.11150717085E+03  0.00000000000E+00 0. -1.
         -5    1    5    5    0  502 -0.13759422949E+02  0.64200978389E+02  0.64993771504E+02  0.92506041318E+02  0.47000000000E+01 0.  1.
         11    1    6    6    0    0 -0.14654045160E+02  0.58320214653E+02  0.29801923863E+03  0.30402541846E+03  0.00000000000E+00 0. -1.
        -12    1    6    6    0    0  0.18444170554E+01 -0.26139461599E+02  0.17578406672E+03  0.17772650742E+03  0.00000000000E+00 0.  1.
</event>
<event>
12    1  0.8724767E-002  0.2348255E+03  0.7818608E-02  0.1123663E+00
         21   -1    0    0  501  502  0.00000000000E+00  0.00000000000E+00  0.47609693228E+03  0.47609693228E+03  0.00000000000E+00 0.  1.
         21   -1    0    0  502  503 -0.00000000000E+00 -0.00000000000E+00 -0.14984726605E+03  0.14984726605E+03  0.00000000000E+00 0.  1.
         -6    2    1    2    0  503  0.10977260986E+03 -0.11279655189E+03  0.11086105318E+02  0.23291611470E+03  0.17132987703E+03 0.  0.
        -24    2    3    3    0    0  0.26389768278E+02 -0.11976311477E+03 -0.11131277341E+02  0.14621586464E+03  0.78838760811E+02 0.  0.
          6    2    1    2  501    0 -0.10977260986E+03  0.11279655189E+03  0.31516356092E+03  0.39302808362E+03  0.17426966572E+03 0.  0.
         24    2    5    5    0    0 -0.13657920639E+03  0.62595727790E+02  0.27084871738E+03  0.32074660802E+03  0.83350189514E+02 0.  0.
          5    1    5    5  501    0  0.26806596528E+02  0.50200824102E+02  0.44314843539E+02  0.72281475606E+02  0.47000000000E+01 0. -1.
        -11    1    6    6    0    0 -0.14634826542E+03  0.48351056122E+02  0.23633833802E+03  0.28215500959E+03  0.00000000000E+00 0.  1.
         12    1    6    6    0    0  0.97690590326E+01  0.14244671668E+02  0.34510379359E+02  0.38591598423E+02  0.00000000000E+00 0. -1.
         -5    1    3    3    0  503  0.83382841586E+02  0.69665628834E+01  0.22217382659E+02  0.86700250066E+02  0.47000000000E+01 0.  1.
         11    1    4    4    0    0  0.36920539515E+02 -0.52525729374E+02  0.25315298403E+02  0.69014076952E+02  0.00000000000E+00 0. -1.
        -12    1    4    4    0    0 -0.10530771237E+02 -0.67237385401E+02 -0.36446575745E+02  0.77201787686E+02  0.00000000000E+00 0.  1.
</event>
<event>
12    1  0.8724767E-002  0.1738777E+03  0.7818608E-02  0.1173887E+00
         21   -1    0    0  501  502  0.00000000000E+00  0.00000000000E+00  0.67144029590E+03  0.67144029590E+03  0.00000000000E+00 0.  1.
         21   -1    0    0  502  503 -0.00000000000E+00 -0.00000000000E+00 -0.61985995535E+03  0.61985995535E+03  0.00000000000E+00 0.  1.
         -6    2    1    2    0  503  0.97377232913E+01 -0.24652433236E+02 -0.59598096164E+03  0.62080111879E+03  0.17175027434E+03 0.  0.
        -24    2    3    3    0    0 -0.40693248166E+02  0.33413066305E+02 -0.31345562520E+03  0.32795723401E+03  0.80803124495E+02 0.  0.
          6    2    1    2  501    0 -0.97377232913E+01  0.24652433236E+02  0.64756130219E+03  0.67049913246E+03  0.17184551439E+03 0.  0.
         24    2    5    5    0    0  0.32877256594E+02  0.69624424412E+02  0.41641716942E+03  0.43114956255E+03  0.80982787216E+02 0.  0.
          5    1    5    5  501    0 -0.42614979885E+02 -0.44971991176E+02  0.23114413277E+03  0.23934956991E+03  0.47000000000E+01 0. -1.
        -11    1    6    6    0    0 -0.16278761765E+01  0.59817963166E+02  0.13779206437E+03  0.15022480388E+03  0.00000000000E+00 0.  1.
         12    1    6    6    0    0  0.34505132771E+02  0.98064612469E+01  0.27862510505E+03  0.28092475867E+03  0.00000000000E+00 0. -1.
         -5    1    3    3    0  503  0.50430971457E+02 -0.58065499541E+02 -0.28252533644E+03  0.29284388477E+03  0.47000000000E+01 0.  1.
         11    1    4    4    0    0 -0.23977648225E+02 -0.25499058762E+02 -0.10390382156E+03  0.10964093098E+03  0.00000000000E+00 0. -1.
        -12    1    4    4    0    0 -0.16715599940E+02  0.58912125067E+02 -0.20955180364E+03  0.21831630303E+03  0.00000000000E+00 0.  1.
</event>
<event>
12    1  0.8724767E-002  0.2965042E+03  0.7818608E-02  0.1087056E+00
         21   -1    0    0  501  502  0.00000000000E+00  0.00000000000E+00  0.21822107873E+04  0.21822107873E+04  0.00000000000E+00 0. -1.
         21   -1    0    0  502  503 -0.00000000000E+00 -0.00000000000E+00 -0.50334546067E+02  0.50334546067E+02  0.00000000000E+00 0.  1.
         -6    2    1    2    0  503  0.53234478677E+01  0.24120408083E+03  0.15667336416E+04  0.15945435297E+04  0.17235723526E+03 0.  0.
        -24    2    3    3    0    0  0.40476417647E+02  0.13425596342E+03  0.11984421420E+04  0.12094015432E+04  0.82009272172E+02 0.  0.
          6    2    1    2  501    0 -0.53234478677E+01 -0.24120408083E+03  0.56514259968E+03  0.63800180376E+03  0.17161700359E+03 0.  0.
         24    2    5    5    0    0  0.67854796459E+01 -0.24337975893E+03  0.41885910059E+03  0.49112664654E+03  0.80515135250E+02 0.  0.
          5    1    5    5  501    0 -0.12108927514E+02  0.21756781084E+01  0.14628349909E+03  0.14687515722E+03  0.47000000000E+01 0. -1.
        -11    1    6    6    0    0 -0.52261477930E+01 -0.11048737198E+03  0.11656381974E+03  0.16069192904E+03  0.00000000000E+00 0.  1.
         12    1    6    6    0    0  0.12011627439E+02 -0.13289238696E+03  0.30229528085E+03  0.33043471750E+03  0.00000000000E+00 0. -1.
         -5    1    3    3    0  503 -0.35152969779E+02  0.10694811741E+03  0.36829149956E+03  0.38514198648E+03  0.47000000000E+01 0.  1.
         11    1    4    4    0    0  0.42155116267E+02  0.26169330430E+02  0.25465011665E+03  0.25943895157E+03  0.00000000000E+00 0. -1.
        -12    1    4    4    0    0 -0.16786986201E+01  0.10808663299E+03  0.94379202539E+03  0.94996259161E+03  0.00000000000E+00 0.  1.
</event>
<event>
12    1  0.8724767E-002  0.2154590E+03  0.7818608E-02  0.1137939E+00
         21   -1    0    0  503  502  0.00000000000E+00  0.00000000000E+00  0.13668544544E+03  0.13668544544E+03  0.00000000000E+00 0.  1.
         21   -1    0    0  501  503 -0.00000000000E+00 -0.00000000000E+00 -0.33457463229E+03  0.33457463229E+03  0.00000000000E+00 0. -1.
          6    2    1    2  501    0  0.60599143067E+02 -0.11113646324E+03 -0.96127953772E+02  0.23297892354E+03  0.17033797497E+03 0.  0.
         24    2    3    3    0    0  0.82862788796E+02 -0.70733538403E+02 -0.10840370297E+02  0.13590097470E+03  0.80511403383E+02 0.  0.
         -6    2    1    2    0  502 -0.60599143067E+02  0.11113646324E+03 -0.10176123307E+03  0.23828115418E+03  0.17435306215E+03 0.  0.
        -24    2    5    5    0    0 -0.20812325763E+02  0.92636370333E+02  0.49005533690E+01  0.12285121459E+03  0.77805883394E+02 0.  0.
          5    1    3    3  501    0 -0.22263645729E+02 -0.40402924836E+02 -0.85287583475E+02  0.97077948842E+02  0.47000000000E+01 0. -1.
        -11    1    4    4    0    0  0.71986668500E+02 -0.66107689495E+02 -0.39101921293E+02  0.10526759853E+03  0.00000000000E+00 0.  1.
         12    1    4    4    0    0  0.10876120296E+02 -0.46258489082E+01  0.28261550996E+02  0.30633376169E+02  0.00000000000E+00 0. -1.
         -5    1    5    5    0  502 -0.39786817304E+02  0.18500092907E+02 -0.10666178644E+03  0.11542993960E+03  0.47000000000E+01 0.  1.
         11    1    6    6    0    0  0.84563421714E+01  0.80095367483E+01 -0.25704458125E+02  0.28220233332E+02  0.00000000000E+00 0. -1.
        -12    1    6    6    0    0 -0.29268667934E+02  0.84626833585E+02  0.30605011494E+02  0.94630981257E+02  0.00000000000E+00 0.  1.
</event>
<event>
12    1  0.8724767E-002  0.1824654E+03  0.7818608E-02  0.1166623E+00
         21   -1    0    0  503  502  0.00000000000E+00  0.00000000000E+00  0.14042359943E+04  0.14042359943E+04  0.00000000000E+00 0.  1.
         21   -1    0    0  501  503 -0.00000000000E+00 -0.00000000000E+00 -0.23168911895E+02  0.23168911895E+02  0.00000000000E+00 0.  1.
          6    2    1    2  501    0 -0.32734672954E+02  0.16792248979E+02  0.65452907739E+03  0.67948652204E+03  0.17871788395E+03 0.  0.
         24    2    3    3    0    0 -0.42015610043E+02  0.77966154997E+02  0.44838392709E+03  0.46420462414E+03  0.81201934629E+02 0.  0.
         -6    2    1    2    0  502  0.32734672954E+02 -0.16792248979E+02  0.72653800504E+03  0.74791838418E+03  0.17369772074E+03 0.  0.
        -24    2    5    5    0    0 -0.46526157093E+02 -0.16191828464E+02  0.47121222269E+03  0.48053105312E+03  0.80263787529E+02 0.  0.
          5    1    3    3  501    0  0.92809370894E+01 -0.61173906018E+02  0.20614515030E+03  0.21528189790E+03  0.47000000000E+01 0. -1.
        -11    1    4    4    0    0 -0.58496982719E+02  0.24376021859E+02  0.21246154812E+03  0.22171151720E+03  0.00000000000E+00 0.  1.
         12    1    4    4    0    0  0.16481372676E+02  0.53590133138E+02  0.23592237897E+03  0.24249310695E+03  0.00000000000E+00 0. -1.
         -5    1    5    5    0  502  0.79260830047E+02 -0.60042051463E+00  0.25532578234E+03  0.26738733106E+03  0.47000000000E+01 0.  1.
         11    1    6    6    0    0 -0.13008776194E+02  0.18515410137E+02  0.33960508936E+03  0.34035814283E+03  0.00000000000E+00 0. -1.
        -12    1    6    6    0    0 -0.33517380899E+02 -0.34707238602E+02  0.13160713334E+03  0.14017291029E+03  0.00000000000E+00 0.  1.
</event>
<event>
12    1  0.8724767E-002  0.2416524E+03  0.7818608E-02  0.1118768E+00
         21   -1    0    0  503  502  0.00000000000E+00  0.00000000000E+00  0.20597454250E+04  0.20597454250E+04  0.00000000000E+00 0.  1.
         21   -1    0    0  501  503 -0.00000000000E+00 -0.00000000000E+00 -0.29963268053E+02  0.29963268053E+02  0.00000000000E+00 0.  1.
          6    2    1    2  501    0  0.10772894176E+03  0.13003036951E+03  0.76962524723E+03  0.80667149529E+03  0.17286543394E+03 0.  0.
         24    2    3    3    0    0  0.59011295075E+02  0.15655144272E+03  0.54442384971E+03  0.57469189302E+03  0.76699130433E+02 0.  0.
         -6    2    1    2    0  502 -0.10772894176E+03 -0.13003036951E+03  0.12601569097E+04  0.12830371978E+04  0.17226604962E+03 0.  0.
        -24    2    5    5    0    0 -0.60110796507E+02 -0.59874705696E+02  0.10500511573E+04  0.10564189679E+04  0.78837265824E+02 0.  0.
          5    1    3    3  501    0  0.48717646683E+02 -0.26521073209E+02  0.22520139752E+03  0.23197960227E+03  0.47000000000E+01 0. -1.
        -13    1    4    4    0    0  0.43977234079E+02  0.22998551306E+02  0.14281543181E+03  0.15119251979E+03  0.00000000000E+00 0.  1.
         14    1    4    4    0    0  0.15034060996E+02  0.13355289141E+03  0.40160841790E+03  0.42349937323E+03  0.00000000000E+00 0. -1.
         -5    1    5    5    0  502 -0.47618145252E+02 -0.70155663814E+02  0.21010575238E+03  0.22661822986E+03  0.47000000000E+01 0.  1.
         11    1    6    6    0    0  0.51806138037E+01 -0.10966288144E+01  0.38776655717E+01  0.65633561861E+01  0.00000000000E+00 0. -1.
        -12    1    6    6    0    0 -0.65291410310E+02 -0.58778076882E+02  0.10461734918E+04  0.10498556117E+04  0.00000000000E+00 0.  1.
</event>
<event>
12    1  0.8724767E-002  0.2271022E+03  0.7818608E-02  0.1128809E+00
         21   -1    0    0  501  502  0.00000000000E+00  0.00000000000E+00  0.66548246981E+03  0.66548246981E+03  0.00000000000E+00 0. -1.
         21   -1    0    0  502  503 -0.00000000000E+00 -0.00000000000E+00 -0.14796262065E+03  0.14796262065E+03  0.00000000000E+00 0.  1.
         -6    2    1    2    0  503  0.75262160797E+02  0.12689851134E+03 -0.22151373283E+02  0.22817996615E+03  0.17264932258E+03 0.  0.
        -24    2    3    3    0    0  0.61658757441E+02  0.11151674710E+03  0.43737664676E+02  0.15900550138E+03  0.84451044419E+02 0.  0.
          6    2    1    2  501    0 -0.75262160797E+02 -0.12689851134E+03  0.53967122244E+03  0.58526512431E+03  0.17182145494E+03 0.  0.
         24    2    5    5    0    0  0.10259753691E+02 -0.91615429150E+02  0.39632536334E+03  0.41459286802E+03  0.79465735897E+02 0.  0.
          5    1    5    5  501    0 -0.85521914488E+02 -0.35283082191E+02  0.14334585910E+03  0.17067225630E+03  0.47000000000E+01 0. -1.
        -13    1    6    6    0    0 -0.17122751353E+02  0.34811129835E+01  0.26392811983E+02  0.31652603145E+02  0.00000000000E+00 0.  1.
         14    1    6    6    0    0  0.27382505044E+02 -0.95096542133E+02  0.36993255135E+03  0.38294026487E+03  0.00000000000E+00 0. -1.
         -5    1    3    3    0  503  0.13603403356E+02  0.15381764238E+02 -0.65889037958E+02  0.69174464776E+02  0.47000000000E+01 0.  1.
         13    1    4    4    0    0  0.57463876101E+02  0.34681399910E+02  0.47078202563E+02  0.81983252637E+02  0.00000000000E+00 0. -1.
        -14    1    4    4    0    0  0.41948813401E+01  0.76835347193E+02 -0.33405378876E+01  0.77022248741E+02  0.00000000000E+00 0.  1.
</event>
<event>
12    1  0.8724767E-002  0.2430508E+03  0.7818608E-02  0.1117791E+00
         21   -1    0    0  501  502  0.00000000000E+00  0.00000000000E+00  0.50503274082E+03  0.50503274082E+03  0.00000000000E+00 0. -1.
         21   -1    0    0  502  503 -0.00000000000E+00 -0.00000000000E+00 -0.18243311942E+03  0.18243311942E+03  0.00000000000E+00 0.  1.
         -6    2    1    2    0  503 -0.13464956470E+03 -0.10592329115E+03 -0.44650903149E+02  0.24711822449E+03  0.17240494437E+03 0.  0.
        -24    2    3    3    0    0 -0.11354460541E+03 -0.13927376376E+03 -0.24105522240E+02  0.20237589546E+03  0.89918675337E+02 0.  0.
          6    2    1    2  501    0  0.13464956470E+03  0.10592329115E+03  0.36725052455E+03  0.44034763575E+03  0.17228709657E+03 0.  0.
         24    2    5    5    0    0  0.11747610863E+03  0.94078347256E+01  0.24494342497E+03  0.28353157302E+03  0.80645694314E+02 0.  0.
          5    1    5    5  501    0  0.17173456069E+02  0.96515456421E+02  0.12230709958E+03  0.15681606273E+03  0.47000000000E+01 0. -1.
        -11    1    6    6    0    0  0.26096234870E+02 -0.27769280627E+02  0.10969994799E+03  0.11613020714E+03  0.00000000000E+00 0.  1.
         12    1    6    6    0    0  0.91379873757E+02  0.37177115352E+02  0.13524347698E+03  0.16740136588E+03  0.00000000000E+00 0. -1.
         -5    1    3    3    0  503 -0.21104959291E+02  0.33350472612E+02 -0.20545380909E+02  0.44742329028E+02  0.47000000000E+01 0.  1.
         11    1    4    4    0    0  0.54647952941E+01  0.87310045926E+01  0.25123216268E+01  0.10602178491E+02  0.00000000000E+00 0. -1.
        -12    1    4    4    0    0 -0.11900940070E+03 -0.14800476835E+03 -0.26617843866E+02  0.19177371697E+03  0.00000000000E+00 0.  1.
</event>
<event>
12    1  0.8724767E-002  0.3649606E+03  0.7818608E-02  0.1056727E+00
         21   -1    0    0  503  502  0.00000000000E+00  0.00000000000E+00  0.55733931179E+03  0.55733931179E+03  0.00000000000E+00 0. -1.
         21   -1    0    0  501  503 -0.00000000000E+00 -0.00000000000E+00 -0.84272103980E+03  0.84272103980E+03  0.00000000000E+00 0.  1.
          6    2    1    2  501    0  0.19768527686E+03 -0.25395674813E+03 -0.73555211262E+03  0.82111702865E+03  0.17211265422E+03 0.  0.
         24    2    3    3    0    0  0.15266186719E+03 -0.24717513615E+03 -0.52230713358E+03  0.60301473896E+03  0.80130144066E+02 0.  0.
         -6    2    1    2    0  502 -0.19768527686E+03  0.25395674813E+03  0.45017038461E+03  0.57894332294E+03  0.17014257960E+03 0.  0.
        -24    2    5    5    0    0 -0.20815874163E+03  0.19353229646E+03  0.41192642165E+03  0.50651750899E+03  0.78049974844E+02 0.  0.
          5    1    3    3  501    0  0.45023409676E+02 -0.67816119726E+01 -0.21324497904E+03  0.21810228968E+03  0.47000000000E+01 0. -1.
        -13    1    4    4    0    0  0.14971212342E+03 -0.18266095349E+03 -0.42531316712E+03  0.48648744481E+03  0.00000000000E+00 0.  1.
         14    1    4    4    0    0  0.29497437670E+01 -0.64514182661E+02 -0.96993966465E+02  0.11652729416E+03  0.00000000000E+00 0. -1.
         -5    1    5    5    0  502  0.10473464767E+02  0.60424451667E+02  0.38243962966E+02  0.72425813954E+02  0.47000000000E+01 0.  1.
         11    1    6    6    0    0 -0.18672330190E+03  0.19630075357E+03  0.36235054778E+03  0.45243507469E+03  0.00000000000E+00 0. -1.
        -12    1    6    6    0    0 -0.21435439728E+02 -0.27684571123E+01  0.49575873862E+02  0.54082434304E+02  0.00000000000E+00 0.  1.
</event>
<event>
12    1  0.8724767E-002  0.2897675E+03  0.7818608E-02  0.1090648E+00
         21   -1    0    0  503  502  0.00000000000E+00  0.00000000000E+00  0.77712722880E+03  0.77712722880E+03  0.00000000000E+00 0. -1.
         21   -1    0    0  501  503 -0.00000000000E+00 -0.00000000000E+00 -0.12628886440E+03  0.12628886440E+03  0.00000000000E+00 0.  1.
          6    2    1    2  501    0  0.23405723149E+03  0.38421897808E+01  0.15073241833E+03  0.32542722212E+03  0.16847867797E+03 0.  0.
         24    2    3    3    0    0  0.20525090616E+03  0.25978845294E+02  0.17382619203E+03  0.28212308514E+03  0.81086714383E+02 0.  0.
         -6    2    1    2    0  502 -0.23405723149E+03 -0.38421897808E+01  0.50010594607E+03  0.57798887108E+03  0.17078532652E+03 0.  0.
        -24    2    5    5    0    0 -0.19385208060E+03 -0.25195342297E+02  0.26990406059E+03  0.34328179969E+03  0.82345355951E+02 0.  0.
          5    1    3    3  501    0  0.28806325324E+02 -0.22136655513E+02 -0.23093773705E+02  0.43304136984E+02  0.47000000000E+01 0. -1.
        -11    1    4    4    0    0  0.96240779164E+02  0.52977023239E+02  0.82983213749E+02  0.13767739949E+03  0.00000000000E+00 0.  1.
         12    1    4    4    0    0  0.10901012700E+03 -0.26998177945E+02  0.90842978281E+02  0.14444568565E+03  0.00000000000E+00 0. -1.
         -5    1    5    5    0  502 -0.40205150887E+02  0.21353152516E+02  0.23020188548E+03  0.23470707139E+03  0.47000000000E+01 0.  1.
         11    1    6    6    0    0 -0.13010577537E+03  0.22934038692E+02  0.17402456671E+03  0.21849034929E+03  0.00000000000E+00 0. -1.
        -12    1    6    6    0    0 -0.63746305236E+02 -0.48129380989E+02  0.95879493882E+02  0.12479145040E+03  0.00000000000E+00 0.  1.
</event>
<event>
12    1  0.8724767E-002  0.2294024E+03  0.7818608E-02  0.1127170E+00
         21   -1    0    0  501  502  0.00000000000E+00  0.00000000000E+00  0.13694586356E+03  0.13694586356E+03  0.00000000000E+00 0.  1.
         21   -1    0    0  502  503 -0.00000000000E+00 -0.00000000000E+00 -0.40187285692E+03  0.40187285692E+03  0.00000000000E+00 0. -1.
         -6    2    1    2    0  503  0.15101452362E+03 -0.51660553374E+01 -0.19029714096E+03  0.29758215736E+03  0.17178493546E+03 0.  0.
        -24    2    3    3    0    0  0.14262310616E+03  0.29042961712E+02 -0.20132970320E+03  0.26037355401E+03  0.77948022419E+02 0.  0.
          6    2    1    2  501    0 -0.15101452362E+03  0.51660553374E+01 -0.74629852402E+02  0.24123656311E+03  0.17260761872E+03 0.  0.
         24    2    5    5    0    0 -0.14081688972E+03  0.58193602079E+02 -0.38867864917E+02  0.17629872977E+03  0.79715992382E+02 0.  0.
          5    1    5    5  501    0 -0.10197633897E+02 -0.53027546741E+02 -0.35761987484E+02  0.64937833343E+02  0.47000000000E+01 0. -1.
        -11    1    6    6    0    0 -0.12452859722E+03  0.31874535902E+02 -0.56793909742E+02  0.14053080000E+03  0.00000000000E+00 0.  1.
         12    1    6    6    0    0 -0.16288292501E+02  0.26319066176E+02  0.17926044825E+02  0.35767929770E+02  0.00000000000E+00 0. -1.
         -5    1    3    3    0  503  0.83914174520E+01 -0.34209017050E+02  0.11032562236E+02  0.37208603358E+02  0.47000000000E+01 0.  1.
         11    1    4    4    0    0  0.12658391659E+03 -0.43236731391E+01 -0.16919573293E+03  0.21135131447E+03  0.00000000000E+00 0. -1.
        -12    1    4    4    0    0  0.16039189573E+02  0.33366634851E+02 -0.32133970274E+02  0.49022239535E+02  0.00000000000E+00 0.  1.
</event>
<event>
12    1  0.8724767E-002  0.2372808E+03  0.7818608E-02  0.1121681E+00
         21   -1    0    0  503  502  0.00000000000E+00  0.00000000000E+00  0.45309474465E+03  0.45309474465E+03  0.00000000000E+00 0. -1.
         21   -1    0    0  501  503 -0.00000000000E+00 -0.00000000000E+00 -0.15439309431E+04  0.15439309431E+04  0.00000000000E+00 0.  1.
          6    2    1    2  501    0  0.11954818247E+03  0.11129929728E+03 -0.15029378051E+04  0.15214944751E+04  0.17159280324E+03 0.  0.
         24    2    3    3    0    0  0.10773271137E+03  0.34679455759E+02 -0.12316451525E+04  0.12393030527E+04  0.78187423031E+02 0.  0.
         -6    2    1    2    0  502 -0.11954818247E+03 -0.11129929728E+03  0.41210160662E+03  0.47553121273E+03  0.17211304016E+03 0.  0.
        -24    2    5    5    0    0 -0.10629227580E+03 -0.77368259062E+02  0.41118275717E+03  0.43878929252E+03  0.78618623964E+02 0.  0.
          5    1    3    3  501    0  0.11815471102E+02  0.76619841519E+02 -0.27129265266E+03  0.28219142237E+03  0.47000000000E+01 0. -1.
        -11    1    4    4    0    0 -0.15839219713E+01  0.53246280028E+01 -0.39465115311E+03  0.39469024959E+03  0.00000000000E+00 0.  1.
         12    1    4    4    0    0  0.10931663334E+03  0.29354827756E+02 -0.83699399934E+03  0.84461280311E+03  0.00000000000E+00 0. -1.
         -5    1    5    5    0  502 -0.13255906676E+02 -0.33931038216E+02  0.91884945322E+00  0.36741920207E+02  0.47000000000E+01 0.  1.
         13    1    6    6    0    0 -0.93076539226E+02 -0.85443931851E+02  0.28617669250E+03  0.31282743961E+03  0.00000000000E+00 0. -1.
        -14    1    6    6    0    0 -0.13215736569E+02  0.80756727889E+01  0.12500606467E+03  0.12596185291E+03  0.00000000000E+00 0.  1.
</event>
<event>
12    1  0.8724767E-002  0.2202219E+03  0.7818608E-02  0.1134226E+00
         21   -1    0    0  501  502  0.00000000000E+00  0.00000000000E+00  0.32751660721E+02  0.32751660721E+02  0.00000000000E+00 0.  1.
         21   -1    0    0  502  503 -0.00000000000E+00 -0.00000000000E+00 -0.21106822913E+04  0.21106822913E+04  0.00000000000E+00 0.  1.
         -6    2    1    2    0  503  0.14666353032E+02  0.13661031714E+03 -0.16372768164E+04  0.16520209067E+04  0.17210526432E+03 0.  0.
        -24    2    3    3    0    0  0.55857070835E+02  0.29537760887E+02 -0.92075972885E+03  0.92636256127E+03  0.79728445269E+02 0.  0.
          6    2    1    2  501    0 -0.14666353032E+02 -0.13661031714E+03 -0.44065381415E+03  0.49141304529E+03  0.16862240804E+03 0.  0.
         24    2    5    5    0    0 -0.46955450345E+02 -0.12869084659E+03 -0.42649933527E+03  0.45497483606E+03  0.79588128225E+02 0.  0.
          5    1    5    5  501    0  0.32289097313E+02 -0.79194705518E+01 -0.14154478884E+02  0.36438209226E+02  0.47000000000E+01 0. -1.
        -13    1    6    6    0    0 -0.17189271080E+02 -0.10214180322E+03 -0.20250455261E+03  0.22745661747E+03  0.00000000000E+00 0.  1.
         14    1    6    6    0    0 -0.29766179265E+02 -0.26549043368E+02 -0.22399478266E+03  0.22751821859E+03  0.00000000000E+00 0. -1.
         -5    1    3    3    0  503 -0.41190717803E+02  0.10707255625E+03 -0.71651708756E+03  0.72565834544E+03  0.47000000000E+01 0.  1.
         11    1    4    4    0    0  0.12247749028E+02 -0.56307164193E+01 -0.21613116170E+02  0.25472320550E+02  0.00000000000E+00 0. -1.
        -12    1    4    4    0    0  0.43609321808E+02  0.35168477306E+02 -0.89914661267E+03  0.90089024072E+03  0.00000000000E+00 0.  1.
</event>
<event>
12    1  0.8724767E-002  0.1762055E+03  0.7818608E-02  0.1171689E+00
         21   -1    0    0  501  502  0.00000000000E+00  0.00000000000E+00  0.11214020150E+04  0.11214020150E+04  0.00000000000E+00 0. -1.
         21   -1    0    0  502  503 -0.00000000000E+00 -0.00000000000E+00 -0.39175167360E+02  0.39175167360E+02  0.00000000000E+00 0. -1.
         -6    2    1    2    0  503  0.14708916401E+02 -0.33948149642E+02  0.22477711028E+03  0.28520958039E+03  0.17161272202E+03 0.  0.
        -24    2    3    3    0    0 -0.26508423203E+02 -0.39612831066E+02  0.22489665629E+03  0.24333999727E+03  0.79774528375E+02 0.  0.
          6    2    1    2  501    0 -0.14708916401E+02  0.33948149642E+02  0.85744973739E+03  0.87536760199E+03  0.17227755913E+03 0.  0.
         24    2    5    5    0    0 -0.53764837381E+02 -0.22276615502E+02  0.36464260799E+03  0.37780600182E+03  0.79913941912E+02 0.  0.
          5    1    5    5  501    0  0.39055920979E+02  0.56224765145E+02  0.49280712940E+03  0.49756160017E+03  0.47000000000E+01 0. -1.
        -13    1    6    6    0    0 -0.66581173937E+02 -0.17416331474E+02  0.35351261200E+03  0.36014934148E+03  0.00000000000E+00 0.  1.
         14    1    6    6    0    0  0.12816336557E+02 -0.48602840277E+01  0.11129995986E+02  0.17656660336E+02  0.00000000000E+00 0. -1.
         -5    1    3    3    0  503  0.41217339604E+02  0.56646814234E+01 -0.11954600963E+00  0.41869583123E+02  0.47000000000E+01 0.  1.
         13    1    4    4    0    0 -0.53396745723E+02 -0.31601968268E+02  0.12461779869E+03  0.13921024604E+03  0.00000000000E+00 0. -1.
        -14    1    4    4    0    0  0.26888322520E+02 -0.80108627983E+01  0.10027885760E+03  0.10412975123E+03  0.00000000000E+00 0.  1.
</event>
<event>
12    1  0.8724767E-002  0.2368020E+03  0.7818608E-02  0.1122109E+00
         21   -1    0    0  501  502  0.00000000000E+00  0.00000000000E+00  0.79365605899E+03  0.79365605899E+03  0.00000000000E+00 0.  1.
         21   -1    0    0  502  503 -0.00000000000E+00 -0.00000000000E+00 -0.10512933785E+03  0.10512933785E+03  0.00000000000E+00 0.  1.
         -6    2    1    2    0  503 -0.15534525608E+03 -0.45405414240E+02  0.86304644662E+02  0.25203900755E+03  0.17286228452E+03 0.  0.
        -24    2    3    3    0    0 -0.66184239581E+02  0.13036074623E+02  0.98766682834E+02  0.14460304114E+03  0.81270468546E+02 0.  0.
          6    2    1    2  501    0  0.15534525608E+03  0.45405414240E+02  0.60222207647E+03  0.64674638928E+03  0.17150994849E+03 0.  0.
         24    2    5    5    0    0  0.11969479745E+03  0.96203059610E+02  0.45181948472E+03  0.48397542879E+03  0.80681445703E+02 0.  0.
          5    1    5    5  501    0  0.35650458631E+02 -0.50797645370E+02  0.15040259175E+03  0.16277096050E+03  0.47000000000E+01 0. -1.
        -13    1    6    6    0    0  0.99217508310E+02  0.34732714415E+02  0.32476570512E+03  0.34135500381E+03  0.00000000000E+00 0.  1.
         14    1    6    6    0    0  0.20477289140E+02  0.61470345195E+02  0.12705377961E+03  0.14262042498E+03  0.00000000000E+00 0. -1.
         -5    1    3    3    0  503 -0.89161016501E+02 -0.58441488864E+02 -0.12462038171E+02  0.10743596641E+03  0.47000000000E+01 0.  1.
         13    1    4    4    0    0  0.15745342171E+02 -0.11632663786E+02  0.13300556865E+02  0.23667265996E+02  0.00000000000E+00 0. -1.
        -14    1    4    4    0    0 -0.81929581752E+02  0.24668738409E+02  0.85466125969E+02  0.12093577514E+03  0.00000000000E+00 0.  1.
</event>
<event>
12    1  0.8724767E-002  0.1765467E+03  0.7818608E-02  0.1171720E+00
         21   -1    0    0  503  502  0.00000000000E+00  0.00000000000E+00  0.14790227325E+03  0.14790227325E+03  0.00000000000E+00 0.  1.
         21   -1    0    0  501  503 -0.00000000000E+00 -0.00000000000E+00 -0.40321601799E+03  0.40321601799E+03  0.00000000000E+00 0.  1.
          6    2    1    2  501    0 -0.37590021036E+02  0.90878172615E+01 -0.31969229736E+03  0.36520118091E+03  0.17225893137E+03 0.  0.
         24    2    3    3    0    0 -0.46669656829E+02 -0.57094147092E+02 -0.17780493987E+03  0.20830438550E+03  0.79613578464E+02 0.  0.
         -6    2    1    2    0  502  0.37590021036E+02 -0.90878172615E+01  0.64378552620E+02  0.18591711034E+03  0.17007344230E+03 0.  0.
        -24    2    5    5    0    0 -0.13753272900E+02  0.47995482047E+02  0.17002716943E+02  0.95577768418E+02  0.79707581947E+02 0.  0.
          5    1    3    3  501    0  0.90796357926E+01  0.66181964353E+02 -0.14188735750E+03  0.15689679541E+03  0.47000000000E+01 0. -1.
        -11    1    4    4    0    0 -0.35029263986E+02 -0.10276690189E+02 -0.14606240782E+03  0.15055526120E+03  0.00000000000E+00 0.  1.
         12    1    4    4    0    0 -0.11640392842E+02 -0.46817456902E+02 -0.31742532044E+02  0.57749124295E+02  0.00000000000E+00 0. -1.
         -5    1    5    5    0  502  0.51343293936E+02 -0.57083299308E+02  0.47375835676E+02  0.90339341918E+02  0.47000000000E+01 0.  1.
         13    1    6    6    0    0 -0.30354513238E+02 -0.79448487359E+01  0.19897832889E+02  0.37154284397E+02  0.00000000000E+00 0. -1.
        -14    1    6    6    0    0  0.16601240338E+02  0.55940330783E+02 -0.28951159453E+01  0.58423484021E+02  0.00000000000E+00 0.  1.
</event>
<event>
12    1  0.8724767E-002  0.2059929E+03  0.7818608E-02  0.1148224E+00
         21   -1    0    0  503  502  0.00000000000E+00  0.00000000000E+00  0.36009534098E+03  0.36009534098E+03  0.00000000000E+00 0. -1.
         21   -1    0    0  501  503 -0.00000000000E+00 -0.00000000000E+00 -0.15132896200E+03  0.15132896200E+03  0.00000000000E+00 0. -1.
          6    2    1    2  501    0  0.15114653558E+01  0.81971481997E+02  0.23689512909E+03  0.30351971039E+03  0.17112365126E+03 0.  0.
         24    2    3    3    0    0  0.51575267509E+02  0.16566321600E+01  0.10447349198E+03  0.14068716031E+03  0.78837896350E+02 0.  0.
         -6    2    1    2    0  502 -0.15114653558E+01 -0.81971481997E+02 -0.28128750116E+02  0.20790459259E+03  0.18897482544E+03 0.  0.
        -24    2    5    5    0    0 -0.49647548366E+02  0.13495216576E+02 -0.32659593915E+02  0.10078974036E+03  0.80280276267E+02 0.  0.
          5    1    3    3  501    0 -0.50063802153E+02  0.80314849837E+02  0.13242163711E+03  0.16283255008E+03  0.47000000000E+01 0. -1.
        -11    1    4    4    0    0  0.27774490154E+02  0.22995421587E+02  0.52462448051E+01  0.36438095475E+02  0.00000000000E+00 0.  1.
         12    1    4    4    0    0  0.23800777356E+02 -0.21338789427E+02  0.99227247180E+02  0.10424906484E+03  0.00000000000E+00 0. -1.
         -5    1    5    5    0  502  0.48136083010E+02 -0.95466698574E+02  0.45308437997E+01  0.10711485224E+03  0.47000000000E+01 0.  1.
         11    1    6    6    0    0 -0.67165900385E+02  0.21989379902E+02 -0.10761653055E+02  0.71488489839E+02  0.00000000000E+00 0. -1.
        -12    1    6    6    0    0  0.17518352019E+02 -0.84941633256E+01 -0.21897940861E+02  0.29301250519E+02  0.00000000000E+00 0.  1.
</event>
<event>
12    1  0.8724767E-002  0.2168148E+03  0.7818608E-02  0.1136456E+00
         21   -1    0    0  503  502  0.00000000000E+00  0.00000000000E+00  0.16605019699E+03  0.16605019699E+03  0.00000000000E+00 0. -1.
         21   -1    0    0  501  503 -0.00000000000E+00 -0.00000000000E+00 -0.39413703730E+03  0.39413703730E+03  0.00000000000E+00 0. -1.
          6    2    1    2  501    0 -0.67779070627E+02 -0.11204427342E+03 -0.26334163590E+03  0.34052489561E+03  0.17164051302E+03 0.  0.
         24    2    3    3    0    0  0.97084013651E+01 -0.91233884013E+02 -0.96854897188E+02  0.15565384652E+03  0.80183378447E+02 0.  0.
         -6    2    1    2    0  502  0.67779070627E+02  0.11204427342E+03  0.35254795582E+02  0.21966233868E+03  0.17280254860E+03 0.  0.
        -24    2    5    5    0    0  0.22136646177E+02  0.85960850152E+02  0.85317559224E+02  0.14691657466E+03  0.80162928687E+02 0.  0.
          5    1    3    3  501    0 -0.77487471992E+02 -0.20810389410E+02 -0.16648673871E+03  0.18487104908E+03  0.47000000000E+01 0. -1.
        -13    1    4    4    0    0 -0.14133620154E+02 -0.33981409256E+01 -0.52370015636E+02  0.54350024086E+02  0.00000000000E+00 0.  1.
         14    1    4    4    0    0  0.23842021520E+02 -0.87835743087E+02 -0.44484881552E+02  0.10130382244E+03  0.00000000000E+00 0. -1.
         -5    1    5    5    0  502  0.45642424450E+02  0.26083423271E+02 -0.50062763642E+02  0.72745764019E+02  0.47000000000E+01 0.  1.
         11    1    6    6    0    0  0.31669230666E+02  0.44608440823E+02  0.35857836494E+01  0.54824365095E+02  0.00000000000E+00 0. -1.
        -12    1    6    6    0    0 -0.95325844897E+01  0.41352409328E+02  0.81731775574E+02  0.92092209567E+02  0.00000000000E+00 0.  1.
</event>
<event>
12    1  0.8724767E-002  0.2283641E+03  0.7818608E-02  0.1127871E+00
         21   -1    0    0  503  502  0.00000000000E+00  0.00000000000E+00  0.27994442886E+03  0.27994442886E+03  0.00000000000E+00 0. -1.
         21   -1    0    0  501  503 -0.00000000000E+00 -0.00000000000E+00 -0.31834860856E+03  0.31834860856E+03  0.00000000000E+00 0.  1.
          6    2    1    2  501    0 -0.14496187249E+03 -0.37549739164E+02 -0.21213238575E+03  0.31168945017E+03  0.17241298349E+03 0.  0.
         24    2    3    3    0    0 -0.15724660215E+03  0.12142438020E+02 -0.15529618525E+03  0.23505609749E+03  0.79123518149E+02 0.  0.
         -6    2    1    2    0  502  0.14496187249E+03  0.37549739164E+02  0.17372820606E+03  0.28660358725E+03  0.17186098818E+03 0.  0.
        -24    2    5    5    0    0  0.25216305891E+02  0.19333297071E+02  0.17000397594E+02  0.88470966442E+02  0.80798885675E+02 0.  0.
          5    1    3    3  501    0  0.12284729661E+02 -0.49692177184E+02 -0.56836200504E+02  0.76633352686E+02  0.47000000000E+01 0. -1.
        -11    1    4    4    0    0 -0.12801865110E+03 -0.22118552766E+02 -0.12808931868E+03  0.18244143983E+03  0.00000000000E+00 0.  1.
         12    1    4    4    0    0 -0.29227951043E+02  0.34260990786E+02 -0.27206866569E+02  0.52614657657E+02  0.00000000000E+00 0. -1.
         -5    1    5    5    0  502  0.11974556659E+03  0.18216442093E+02  0.15672780846E+03  0.19813262081E+03  0.47000000000E+01 0.  1.
         13    1    6    6    0    0  0.17649450642E+02 -0.31134591543E+02  0.67952090696E+01  0.36428570721E+02  0.00000000000E+00 0. -1.
        -14    1    6    6    0    0  0.75668552489E+01  0.50467888614E+02  0.10205188525E+02  0.52042395720E+02  0.00000000000E+00 0.  1.
</event>
<event>
12    1  0.8724767E-002  0.2768347E+03  0.7818608E-02  0.1097885E+00
         21   -1    0    0  501  502  0.00000000000E+00  0.00000000000E+00  0.47035140890E+03  0.47035140890E+03  0.00000000000E+00 0. -1.
         21   -1    0    0  502  503 -0.00000000000E+00 -0.00000000000E+00 -0.17176736071E+03  0.17176736071E+03  0.00000000000E+00 0.  1.
         -6    2    1    2    0  503 -0.11010409078E+03 -0.18273500563E+03  0.68170068236E+02  0.28194096519E+03  0.17125582198E+03 0.  0.
        -24    2    3    3    0    0 -0.12388255356E+03 -0.77869325500E+02  0.27864895193E+02  0.16865701276E+03  0.79108891019E+02 0.  0.
          6    2    1    2  501    0  0.11010409078E+03  0.18273500563E+03  0.23041397996E+03  0.36017780442E+03  0.17641557627E+03 0.  0.
         24    2    5    5    0    0  0.41202096994E+02  0.17571555089E+03  0.13403095017E+03  0.24139844627E+03  0.87950819418E+02 0.  0.
          5    1    5    5  501    0  0.68901993787E+02  0.70194547410E+01  0.96383029786E+02  0.11877935815E+03  0.47000000000E+01 0. -1.
        -11    1    6    6    0    0 -0.11095234787E+02  0.32871577127E+01 -0.61516008979E+01  0.13105412409E+02  0.00000000000E+00 0.  1.
         12    1    6    6    0    0  0.52297331780E+02  0.17242839318E+03  0.14018255107E+03  0.22829303386E+03  0.00000000000E+00 0. -1.
         -5    1    3    3    0  503  0.13778462774E+02 -0.10486568013E+03  0.40305173043E+02  0.11328395244E+03  0.47000000000E+01 0.  1.
         11    1    4    4    0    0 -0.10589719128E+03 -0.86081360667E+02  0.24958599280E+01  0.13649338846E+03  0.00000000000E+00 0. -1.
        -12    1    4    4    0    0 -0.17985362271E+02  0.82120351674E+01  0.25369035265E+02  0.32163624296E+02  0.00000000000E+00 0.  1.
</event>
<event>
12    1  0.8724767E-002  0.2191272E+03  0.7818608E-02  0.1135017E+00
         21   -1    0    0  501  502  0.00000000000E+00  0.00000000000E+00  0.51600691365E+03  0.51600691365E+03  0.00000000000E+00 0. -1.
         21   -1    0    0  502  503 -0.00000000000E+00 -0.00000000000E+00 -0.91985678290E+02  0.91985678290E+02  0.00000000000E+00 0.  1.
         -6    2    1    2    0  503  0.57328774590E+01 -0.13503586756E+03  0.21447828003E+03  0.30480128191E+03  0.16921979033E+03 0.  0.
        -24    2    3    3    0    0  0.29868935120E+02 -0.14448784862E+03  0.22135569579E+03  0.27757485958E+03  0.79250027931E+02 0.  0.
          6    2    1    2  501    0 -0.57328774590E+01  0.13503586756E+03  0.20954295533E+03  0.30319131003E+03  0.17247947395E+03 0.  0.
         24    2    5    5    0    0 -0.31105121923E+02  0.47999045650E+02  0.31723456121E+02  0.10353905370E+03  0.80265316165E+02 0.  0.
          5    1    5    5  501    0  0.25372244464E+02  0.87036821912E+02  0.17781949921E+03  0.19965225633E+03  0.47000000000E+01 0. -1.
        -13    1    6    6    0    0 -0.11815892906E+02 -0.15907046494E+02 -0.12533942180E+02  0.23446730260E+02  0.00000000000E+00 0.  1.
         14    1    6    6    0    0 -0.19289229017E+02  0.63906092144E+02  0.44257398301E+02  0.80092323437E+02  0.00000000000E+00 0. -1.
         -5    1    3    3    0  503 -0.24136057661E+02  0.94519810589E+01 -0.68774157665E+01  0.27226422331E+02  0.47000000000E+01 0.  1.
         13    1    4    4    0    0  0.25925739618E+02 -0.56370247696E+02  0.15572619742E+03  0.16763173137E+03  0.00000000000E+00 0. -1.
        -14    1    4    4    0    0  0.39431955015E+01 -0.88117600925E+02  0.65629498373E+02  0.10994312821E+03  0.00000000000E+00 0.  1.
</event>
<event>
12    1  0.8724767E-002  0.1922232E+03  0.7818608E-02  0.1156490E+00
         21   -1    0    0  503  502  0.00000000000E+00  0.00000000000E+00  0.35414616041E+03  0.35414616041E+03  0.00000000000E+00 0. -1.
         21   -1    0    0  501  503 -0.00000000000E+00 -0.00000000000E+00 -0.10848166871E+03  0.10848166871E+03  0.00000000000E+00 0. -1.
          6    2    1    2  501    0 -0.76938976063E+02  0.40148949865E+02  0.77338238941E+02  0.20712146716E+03  0.17142507035E+03 0.  0.
         24    2    3    3    0    0 -0.46572788556E+02  0.18348393598E+02 -0.16332497436E+02  0.10615777839E+03  0.92179364604E+02 0.  0.
         -6    2    1    2    0  502  0.76938976063E+02 -0.40148949865E+02  0.16832625276E+03  0.25550636196E+03  0.17151743182E+03 0.  0.
        -24    2    5    5    0    0  0.98194671975E+02 -0.22139434086E+02  0.56453958065E+02  0.14012158138E+03  0.79464835254E+02 0.  0.
          5    1    3    3  501    0 -0.30366187507E+02  0.21800556268E+02  0.93670736377E+02  0.10096368877E+03  0.47000000000E+01 0. -1.
        -11    1    4    4    0    0 -0.49571269561E+02 -0.24024859972E+02 -0.28429271036E+02  0.61989742007E+02  0.00000000000E+00 0.  1.
         12    1    4    4    0    0  0.29984810046E+01  0.42373253570E+02  0.12096773600E+02  0.44168036383E+02  0.00000000000E+00 0. -1.
         -5    1    5    5    0  502 -0.21255695912E+02 -0.18009515780E+02  0.11187229470E+03  0.11538478057E+03  0.47000000000E+01 0.  1.
         13    1    6    6    0    0  0.78355948937E+02  0.96406415899E+01  0.64331008976E+02  0.10183847711E+03  0.00000000000E+00 0. -1.
        -14    1    6    6    0    0  0.19838723038E+02 -0.31780075676E+02 -0.78770509109E+01  0.38283104273E+02  0.00000000000E+00 0.  1.
</event>
<event>
12    1  0.8724767E-002  0.2410048E+03  0.7818608E-02  0.1119407E+00
         21   -1    0    0  503  502  0.00000000000E+00  0.00000000000E+00  0.28542224091E+02  0.28542224091E+02  0.00000000000E+00 0.  1.
         21   -1    0    0  501  503 -0.00000000000E+00 -0.00000000000E+00 -0.21284639725E+04  0.21284639725E+04  0.00000000000E+00 0. -1.
          6    2    1    2  501    0 -0.14224737442E+03  0.88828610491E+02 -0.12891068613E+04  0.13111314410E+04  0.17071707057E+03 0.  0.
         24    2    3    3    0    0 -0.87795407517E+02  0.10862923646E+03 -0.66755796049E+03  0.68687011145E+03  0.81538793177E+02 0.  0.
         -6    2    1    2    0  502  0.14224737442E+03 -0.88828610491E+02 -0.81081488715E+03  0.84587475563E+03  0.17308519118E+03 0.  0.
        -24    2    5    5    0    0  0.63970421268E+02  0.18712455597E+02 -0.29728107089E+03  0.31537364089E+03  0.81499248262E+02 0.  0.
          5    1    3    3  501    0 -0.54451966901E+02 -0.19800625967E+02 -0.62154890078E+03  0.62426132954E+03  0.47000000000E+01 0. -1.
        -11    1    4    4    0    0 -0.61345508419E+02  0.13304750293E+02 -0.25238784674E+03  0.26007674437E+03  0.00000000000E+00 0.  1.
         12    1    4    4    0    0 -0.26449899098E+02  0.95324486165E+02 -0.41517011375E+03  0.42679336707E+03  0.00000000000E+00 0. -1.
         -5    1    5    5    0  502  0.78276953150E+02 -0.10754106609E+03 -0.51353381626E+03  0.53050111473E+03  0.47000000000E+01 0.  1.
         11    1    6    6    0    0 -0.15707876098E+01 -0.23038194350E+02 -0.35898529661E+02  0.42684074365E+02  0.00000000000E+00 0. -1.
        -12    1    6    6    0    0  0.65541208877E+02  0.41750649947E+02 -0.26138254123E+03  0.27268956653E+03  0.00000000000E+00 0.  1.
</event>
<event>
12    1  0.8724767E-002  0.1859611E+03  0.7818608E-02  0.1162288E+00
         21   -1    0    0  503  502  0.00000000000E+00  0.00000000000E+00  0.24822678834E+02  0.24822678834E+02  0.00000000000E+00 0.  1.
         21   -1    0    0  501  503 -0.00000000000E+00 -0.00000000000E+00 -0.14363259142E+04  0.14363259142E+04  0.00000000000E+00 0. -1.
          6    2    1    2  501    0  0.25574810227E+02  0.65276522807E+02 -0.57399016287E+03  0.60336244051E+03  0.17223946181E+03 0.  0.
         24    2    3    3    0    0 -0.20232856746E+02  0.43317120035E+02 -0.14780202827E+03  0.17413176384E+03  0.78680939479E+02 0.  0.
         -6    2    1    2    0  502 -0.25574810227E+02 -0.65276522807E+02 -0.83751307252E+03  0.85778615254E+03  0.17162121520E+03 0.  0.
        -24    2    5    5    0    0  0.35028591866E+02 -0.60898926309E+02 -0.68955799897E+03  0.69777137358E+03  0.80367744626E+02 0.  0.
          5    1    3    3  501    0  0.45807666973E+02  0.21959402772E+02 -0.42618813460E+03  0.42923067667E+03  0.47000000000E+01 0. -1.
        -11    1    4    4    0    0  0.29224107997E+02  0.14036523624E+02 -0.72357785687E+02  0.79288849362E+02  0.00000000000E+00 0.  1.
         12    1    4    4    0    0 -0.49456964743E+02  0.29280596411E+02 -0.75444242581E+02  0.94842914477E+02  0.00000000000E+00 0. -1.
         -5    1    5    5    0  502 -0.60603402093E+02 -0.43775964979E+01 -0.14795507355E+03  0.16001477896E+03  0.47000000000E+01 0.  1.
         13    1    6    6    0    0  0.21983090794E+02 -0.67398955635E+02 -0.31286406411E+03  0.32079557059E+03  0.00000000000E+00 0. -1.
        -14    1    6    6    0    0  0.13045501072E+02  0.65000293257E+01 -0.37669393486E+03  0.37697580299E+03  0.00000000000E+00 0.  1.
</event>
<event>
12    1  0.8724767E-002  0.1777377E+03  0.7818608E-02  0.1170281E+00
         21   -1    0    0  503  502  0.00000000000E+00  0.00000000000E+00  0.24499995108E+03  0.24499995108E+03  0.00000000000E+00 0.  1.
         21   -1    0    0  501  503 -0.00000000000E+00 -0.00000000000E+00 -0.13626072614E+03  0.13626072614E+03  0.00000000000E+00 0. -1.
          6    2    1    2  501    0  0.14131120956E+02  0.35838897833E+02  0.10104331282E+03  0.20445157360E+03  0.17351247708E+03 0.  0.
         24    2    3    3    0    0 -0.54485864207E+02 -0.25213752649E+01  0.77887622067E+02  0.12236578177E+03  0.77018414334E+02 0.  0.
         -6    2    1    2    0  502 -0.14131120956E+02 -0.35838897833E+02  0.76959121131E+01  0.17680910362E+03  0.17238943378E+03 0.  0.
        -24    2    5    5    0    0  0.78609538158E+01 -0.82184449367E+02  0.31678318382E+02  0.11998650855E+03  0.81099741463E+02 0.  0.
          5    1    3    3  501    0  0.68616985163E+02  0.38360273098E+02  0.23155690757E+02  0.82085791825E+02  0.47000000000E+01 0. -1.
        -13    1    4    4    0    0 -0.54839046649E+02  0.29486303754E+02  0.48706077705E+02  0.79050902284E+02  0.00000000000E+00 0.  1.
         14    1    4    4    0    0  0.35318244155E+00 -0.32007679019E+02  0.29181544362E+02  0.43314879491E+02  0.00000000000E+00 0. -1.
         -5    1    5    5    0  502 -0.21992074772E+02  0.46345551534E+02 -0.23982406269E+02  0.56822595067E+02  0.47000000000E+01 0.  1.
         13    1    6    6    0    0 -0.23596995938E+02  0.37910058254E+01  0.32203540910E+01  0.24115568061E+02  0.00000000000E+00 0. -1.
        -14    1    6    6    0    0  0.31457949753E+02 -0.85975455192E+02  0.28457964291E+02  0.95870940487E+02  0.00000000000E+00 0.  1.
</event>
<event>
12    1  0.8724767E-002  0.2555378E+03  0.7818608E-02  0.1110225E+00
         21   -1    0    0  501  502  0.00000000000E+00  0.00000000000E+00  0.32855513316E+03  0.32855513316E+03  0.00000000000E+00 0.  1.
         21   -1    0    0  502  503 -0.00000000000E+00 -0.00000000000E+00 -0.23389587210E+03  0.23389587210E+03  0.00000000000E+00 0.  1.
         -6    2    1    2    0  503 -0.14381817407E+03  0.11762215537E+03  0.15938385718E+03  0.30116899999E+03  0.17544490303E+03 0.  0.
        -24    2    3    3    0    0 -0.71280571790E+02  0.64473099109E+01  0.10395156765E+03  0.15723714553E+03  0.93782214713E+02 0.  0.
          6    2    1    2  501    0  0.14381817407E+03 -0.11762215537E+03 -0.64724596132E+02  0.26128200527E+03  0.17193130694E+03 0.  0.
         24    2    5    5    0    0  0.32803922222E+02 -0.10925710485E+03 -0.41487062412E+01  0.13445272387E+03  0.71043021606E+02 0.  0.
          5    1    5    5  501    0  0.11101425185E+03 -0.83650505192E+01 -0.60575889890E+02  0.12682928140E+03  0.47000000000E+01 0. -1.
        -11    1    6    6    0    0  0.41723500462E+02 -0.69240956245E+02  0.24459845835E+02  0.84459721588E+02  0.00000000000E+00 0.  1.
         12    1    6    6    0    0 -0.89195782391E+01 -0.40016148605E+02 -0.28608552076E+02  0.49993002281E+02  0.00000000000E+00 0. -1.
         -5    1    3    3    0  503 -0.72537602283E+02  0.11117484546E+03  0.55432289535E+02  0.14393185447E+03  0.47000000000E+01 0.  1.
         11    1    4    4    0    0 -0.54380920395E+01  0.40662744852E+02  0.53882681901E+02  0.67722781047E+02  0.00000000000E+00 0. -1.
        -12    1    4    4    0    0 -0.65842479751E+02 -0.34215434941E+02  0.50068885750E+02  0.89514364479E+02  0.00000000000E+00 0.  1.
</event>
<event>
12    1  0.8724767E-002  0.1875619E+03  0.7818608E-02  0.1160940E+00
         21   -1    0    0  501  502  0.00000000000E+00  0.00000000000E+00  0.58881142917E+02  0.58881142917E+02  0.00000000000E+00 0. -1.
         21   -1    0    0  502  503 -0.00000000000E+00 -0.00000000000E+00 -0.78821543104E+03  0.78821543104E+03  0.00000000000E+00 0. -1.
         -6    2    1    2    0  503 -0.31183985567E+01 -0.72891900310E+02 -0.57415283799E+03  0.60366124238E+03  0.17155891304E+03 0.  0.
        -24    2    3    3    0    0 -0.62335018432E+02 -0.20153985838E+02 -0.38822172523E+03  0.40147230998E+03  0.78562523360E+02 0.  0.
          6    2    1    2  501    0  0.31183985567E+01  0.72891900310E+02 -0.15518145014E+03  0.24343533158E+03  0.17279040671E+03 0.  0.
         24    2    5    5    0    0 -0.21661437809E+01  0.11602960549E+03 -0.13401142791E+03  0.19486530134E+03  0.80906497439E+02 0.  0.
          5    1    5    5  501    0  0.52845423376E+01 -0.43137705179E+02 -0.21170022226E+02  0.48570030233E+02  0.47000000000E+01 0. -1.
        -13    1    6    6    0    0 -0.22180878569E+02  0.91557622006E+02 -0.53427541806E+02  0.10830185476E+03  0.00000000000E+00 0.  1.
         14    1    6    6    0    0  0.20014734788E+02  0.24471983483E+02 -0.80583886104E+02  0.86563446580E+02  0.00000000000E+00 0. -1.
         -5    1    3    3    0  503  0.59216619875E+02 -0.52737914472E+02 -0.18593111276E+03  0.20218893240E+03  0.47000000000E+01 0.  1.
         13    1    4    4    0    0 -0.23664674177E+02 -0.43523915651E+02 -0.12606111364E+03  0.13544649279E+03  0.00000000000E+00 0. -1.
        -14    1    4    4    0    0 -0.38670344255E+02  0.23369929813E+02 -0.26216061159E+03  0.26602581719E+03  0.00000000000E+00 0.  1.
</event>
<event>
12    1  0.8724767E-002  0.1894736E+03  0.7818608E-02  0.1160217E+00
         21   -1    0    0  503  502  0.00000000000E+00  0.00000000000E+00  0.32357312603E+02  0.32357312603E+02  0.00000000000E+00 0. -1.
         21   -1    0    0  501  503 -0.00000000000E+00 -0.00000000000E+00 -0.17532151147E+04  0.17532151147E+04  0.00000000000E+00 0. -1.
          6    2    1    2  501    0 -0.76737130569E+02  0.31808420201E+02 -0.14069148051E+04  0.14188839356E+04  0.16407922194E+03 0.  0.
         24    2    3    3    0    0 -0.51487423839E+01 -0.18063873332E+02 -0.97318563870E+03  0.97644159724E+03  0.77427981841E+02 0.  0.
         -6    2    1    2    0  502  0.76737130569E+02 -0.31808420201E+02 -0.31394299696E+03  0.36668849168E+03  0.17029351656E+03 0.  0.
        -24    2    5    5    0    0  0.19622044207E+01 -0.33272946372E+02 -0.72345984952E+02  0.11373663730E+03  0.81185848028E+02 0.  0.
          5    1    3    3  501    0 -0.71588388185E+02  0.49872293533E+02 -0.43372916639E+03  0.44244233835E+03  0.47000000000E+01 0. -1.
        -11    1    4    4    0    0  0.19115583939E+02 -0.39915008193E+01 -0.66145589999E+02  0.68967939685E+02  0.00000000000E+00 0.  1.
         12    1    4    4    0    0 -0.24264326323E+02 -0.14072372513E+02 -0.90704004870E+03  0.90747365755E+03  0.00000000000E+00 0. -1.
         -5    1    5    5    0  502  0.74774926149E+02  0.14645261710E+01 -0.24159701201E+03  0.25295185437E+03  0.47000000000E+01 0.  1.
         13    1    6    6    0    0  0.28599946011E+02  0.11900121639E+02 -0.10633008215E+02  0.32751040755E+02  0.00000000000E+00 0. -1.
        -14    1    6    6    0    0 -0.26637741590E+02 -0.45173068011E+02 -0.61712976738E+02  0.80985596549E+02  0.00000000000E+00 0.  1.
</event>
<event>
12    1  0.8724767E-002  0.1923918E+03  0.7818608E-02  0.1156366E+00
         21   -1    0    0  503  502  0.00000000000E+00  0.00000000000E+00  0.19285450802E+04  0.19285450802E+04  0.00000000000E+00 0.  1.
         21   -1    0    0  501  503 -0.00000000000E+00 -0.00000000000E+00 -0.19559438229E+02  0.19559438229E+02  0.00000000000E+00 0.  1.
          6    2    1    2  501    0  0.62190717550E+02 -0.61051816958E+02  0.81707747095E+03  0.83937640047E+03  0.17129547114E+03 0.  0.
         24    2    3    3    0    0  0.50162093459E+02 -0.10086934562E+03  0.73216263641E+03  0.74470463852E+03  0.76367610754E+02 0.  0.
         -6    2    1    2    0  502 -0.62190717550E+02  0.61051816958E+02  0.10919081710E+04  0.11087281179E+04  0.17152135697E+03 0.  0.
        -24    2    5    5    0    0 -0.18690896053E+02  0.10280348370E+03  0.78845152498E+03  0.79930371333E+03  0.79452583705E+02 0.  0.
          5    1    3    3  501    0  0.12028624091E+02  0.39817528664E+02  0.84914834541E+02  0.94671761954E+02  0.47000000000E+01 0. -1.
        -11    1    4    4    0    0  0.49488842051E+02 -0.49418281638E+02  0.24363114613E+03  0.25347080189E+03  0.00000000000E+00 0.  1.
         12    1    4    4    0    0  0.67325140859E+00 -0.51451063984E+02  0.48853149028E+03  0.49123383663E+03  0.00000000000E+00 0. -1.
         -5    1    5    5    0  502 -0.43499821497E+02 -0.41751666740E+02  0.30345664603E+03  0.30942440461E+03  0.47000000000E+01 0.  1.
         13    1    6    6    0    0 -0.17707571157E+02 -0.49691034270E+01  0.21696446391E+03  0.21774257430E+03  0.00000000000E+00 0. -1.
        -14    1    6    6    0    0 -0.98332489582E+00  0.10777258713E+03  0.57148706107E+03  0.58156113903E+03  0.00000000000E+00 0.  1.
</event>
<event>
12    1  0.8724767E-002  0.2090672E+03  0.7818608E-02  0.1142726E+00
         21   -1    0    0  501  502  0.00000000000E+00  0.00000000000E+00  0.29063355550E+03  0.29063355550E+03  0.00000000000E+00 0.  1.
         21   -1    0    0  502  503 -0.00000000000E+00 -0.00000000000E+00 -0.32964406063E+03  0.32964406063E+03  0.00000000000E+00 0.  1.
         -6    2    1    2    0  503  0.54477620713E+02  0.10070216196E+03 -0.24911481744E+03  0.32387769624E+03  0.17242341276E+03 0.  0.
        -24    2    3    3    0    0  0.34406028404E+02 -0.15398592877E+02 -0.98895544738E+02  0.13290603870E+03  0.80391510125E+02 0.  0.
          6    2    1    2  501    0 -0.54477620713E+02 -0.10070216196E+03  0.21010431230E+03  0.29639991989E+03  0.17492956834E+03 0.  0.
         24    2    5    5    0    0 -0.62061476501E+02 -0.61492650512E+01  0.60117661957E+02  0.11887287839E+03  0.81407540258E+02 0.  0.
          5    1    5    5  501    0  0.75838557879E+01 -0.94552896910E+02  0.14998665035E+03  0.17752704150E+03  0.47000000000E+01 0. -1.
        -13    1    6    6    0    0 -0.14870097755E+02 -0.35119805926E+02  0.49502685335E+02  0.62490290693E+02  0.00000000000E+00 0.  1.
         14    1    6    6    0    0 -0.47191378745E+02  0.28970540874E+02  0.10614976621E+02  0.56382587694E+02  0.00000000000E+00 0. -1.
         -5    1    3    3    0  503  0.20071592309E+02  0.11610075484E+03 -0.15021927270E+03  0.19097165754E+03  0.47000000000E+01 0.  1.
         13    1    4    4    0    0 -0.18508768687E+02 -0.24737458140E+02 -0.17894461024E+02  0.35703334422E+02  0.00000000000E+00 0. -1.
        -14    1    4    4    0    0  0.52914797091E+02  0.93388652638E+01 -0.81001083714E+02  0.97202704275E+02  0.00000000000E+00 0.  1.
</event>
<event>
12    1  0.8724767E-002  0.3515602E+03  0.7818608E-02  0.1062115E+00
         21   -1    0    0  503  502  0.00000000000E+00  0.00000000000E+00  0.37104726741E+03  0.37104726741E+03  0.00000000000E+00 0. -1.
         21   -1    0    0  501  503 -0.00000000000E+00 -0.00000000000E+00 -0.33185296313E+03  0.33185296313E+03  0.00000000000E+00 0.  1.
          6    2    1    2  501    0  0.10065939104E+03  0.28823574895E+03  0.23311682124E+02  0.35098147400E+03  0.17155873801E+03 0.  0.
         24    2    3    3    0    0 -0.35232357238E+01  0.19067731066E+03  0.34305160396E+01  0.20679749650E+03  0.79894844199E+02 0.  0.
         -6    2    1    2    0  502 -0.10065939104E+03 -0.28823574895E+03  0.15882622151E+02  0.35191875654E+03  0.17430546044E+03 0.  0.
        -24    2    5    5    0    0 -0.12537441517E+03 -0.16443975867E+03  0.32811322283E+02  0.22446307594E+03  0.80919165716E+02 0.  0.
          5    1    3    3  501    0  0.10418262676E+03  0.97558438297E+02  0.19881166084E+02  0.14418397750E+03  0.47000000000E+01 0. -1.
        -13    1    4    4    0    0  0.21703263991E+02  0.14631049144E+03 -0.22396797920E+02  0.14959748705E+03  0.00000000000E+00 0.  1.
         14    1    4    4    0    0 -0.25226499715E+02  0.44366819215E+02  0.25827313960E+02  0.57200009454E+02  0.00000000000E+00 0. -1.
         -5    1    5    5    0  502  0.24715024133E+02 -0.12379599029E+03 -0.16928700132E+02  0.12745568060E+03  0.47000000000E+01 0.  1.
         11    1    6    6    0    0 -0.10902334126E+03 -0.17224486523E+03  0.28424255239E+02  0.20582108936E+03  0.00000000000E+00 0. -1.
        -12    1    6    6    0    0 -0.16351073910E+02  0.78051065639E+01  0.43870670438E+01  0.18641986582E+02  0.00000000000E+00 0.  1.
</event>
<event>
12    1  0.8724767E-002  0.1883988E+03  0.7818608E-02  0.1160984E+00
         21   -1    0    0  501  502  0.00000000000E+00  0.00000000000E+00  0.34496290085E+03  0.34496290085E+03  0.00000000000E+00 0. -1.
         21   -1    0    0  502  503 -0.00000000000E+00 -0.00000000000E+00 -0.22377363196E+03  0.22377363196E+03  0.00000000000E+00 0. -1.
         -6    2    1    2    0  503 -0.47566345484E+02  0.49883101285E+02  0.27141581341E+03  0.32777567463E+03  0.17035101436E+03 0.  0.
        -24    2    3    3    0    0 -0.56194002509E+02  0.79290082871E+02  0.12526556169E+03  0.17837288647E+03  0.81735809310E+02 0.  0.
          6    2    1    2  501    0  0.47566345484E+02 -0.49883101285E+02 -0.15022654452E+03  0.24096085818E+03  0.17533750164E+03 0.  0.
         24    2    5    5    0    0 -0.87854343388E+01 -0.26859825787E+02 -0.15176913948E+03  0.17988660908E+03  0.92340058113E+02 0.  0.
          5    1    5    5  501    0  0.56351779823E+02 -0.23023275498E+02  0.15425949589E+01  0.61074249100E+02  0.47000000000E+01 0. -1.
        -11    1    6    6    0    0 -0.12527966717E+02  0.33435315078E+02 -0.48165575386E+02  0.59956591770E+02  0.00000000000E+00 0.  1.
         12    1    6    6    0    0  0.37425323783E+01 -0.60295140865E+02 -0.10360356409E+03  0.11993001731E+03  0.00000000000E+00 0. -1.
         -5    1    3    3    0  503  0.86276570247E+01 -0.29406981585E+02  0.14615025172E+03  0.14940278816E+03  0.47000000000E+01 0.  1.
         11    1    4    4    0    0 -0.76688720007E+02  0.56892851408E+02  0.10469920416E+03  0.14170349209E+03  0.00000000000E+00 0. -1.
        -12    1    4    4    0    0  0.20494717498E+02  0.22397231463E+02  0.20566357521E+02  0.36669394380E+02  0.00000000000E+00 0.  1.
</event>
<event>
12    1  0.8724767E-002  0.2014290E+03  0.7818608E-02  0.1148704E+00
         21   -1    0    0  501  502  0.00000000000E+00  0.00000000000E+00  0.42344770671E+02  0.42344770671E+02  0.00000000000E+00 0. -1.
         21   -1    0    0  502  503 -0.00000000000E+00 -0.00000000000E+00 -0.14856668710E+04  0.14856668710E+04  0.00000000000E+00 0. -1.
         -6    2    1    2    0  503 -0.15846500902E+02  0.10206396875E+03 -0.11794332972E+04  0.11965101591E+04  0.17293204761E+03 0.  0.
        -24    2    3    3    0    0  0.22561916162E+02  0.11942292740E+03 -0.68551925171E+03  0.70077866501E+03  0.79895038753E+02 0.  0.
          6    2    1    2  501    0  0.15846500902E+02 -0.10206396875E+03 -0.26388880311E+03  0.33150148251E+03  0.17201095078E+03 0.  0.
         24    2    5    5    0    0  0.65566881522E+01 -0.10804878970E+03 -0.28092061286E+03  0.31066182690E+03  0.76660608176E+02 0.  0.
          5    1    5    5  501    0  0.92898127500E+01  0.59848209498E+01  0.17031809747E+02  0.20839655611E+02  0.47000000000E+01 0. -1.
        -11    1    6    6    0    0  0.27359343802E+02 -0.10710721211E+02 -0.37230310759E+02  0.47427305230E+02  0.00000000000E+00 0.  1.
         12    1    6    6    0    0 -0.20802655650E+02 -0.97338068491E+02 -0.24369030210E+03  0.26323452167E+03  0.00000000000E+00 0. -1.
         -5    1    3    3    0  503 -0.38408417064E+02 -0.17358958652E+02 -0.49391404549E+03  0.49573149414E+03  0.47000000000E+01 0.  1.
         11    1    4    4    0    0  0.20916735552E+02 -0.43722574003E+01 -0.11693575260E+03  0.11887218639E+03  0.00000000000E+00 0. -1.
        -12    1    4    4    0    0  0.16451806105E+01  0.12379518480E+03 -0.56858349911E+03  0.58190647862E+03  0.00000000000E+00 0.  1.
</event>
<event>
12    1  0.8724767E-002  0.1959495E+03  0.7818608E-02  0.1153345E+00
         21   -1    0    0  503  502  0.00000000000E+00  0.00000000000E+00  0.96340139365E+03  0.96340139365E+03  0.00000000000E+00 0. -1.
         21   -1    0    0  501  503 -0.00000000000E+00 -0.00000000000E+00 -0.63464886789E+02  0.63464886789E+02  0.00000000000E+00 0. -1.
          6    2    1    2  501    0  0.45017381559E+02  0.83692002314E+02  0.13639595562E+03  0.23874682995E+03  0.17136299544E+03 0.  0.
         24    2    3    3    0    0  0.39087644675E+02  0.51352727551E+01  0.84323315973E+01  0.88403554033E+02  0.78675721522E+02 0.  0.
         -6    2    1    2    0  502 -0.45017381559E+02 -0.83692002314E+02  0.76354055124E+03  0.78811945050E+03  0.17060826172E+03 0.  0.
        -24    2    5    5    0    0 -0.35340601783E+02 -0.12322923950E+03  0.65216176182E+03  0.66944275555E+03  0.80026469223E+02 0.  0.
          5    1    3    3  501    0  0.59297368849E+01  0.78556729559E+02  0.12796362403E+03  0.15034327591E+03  0.47000000000E+01 0. -1.
        -13    1    4    4    0    0 -0.20378571852E+01  0.26197525305E+02  0.27845053592E+02  0.38285900846E+02  0.00000000000E+00 0.  1.
         14    1    4    4    0    0  0.41125501860E+02 -0.21062252550E+02 -0.19412721995E+02  0.50117653187E+02  0.00000000000E+00 0. -1.
         -5    1    5    5    0  502 -0.96767797770E+01  0.39537237182E+02  0.11137878942E+03  0.11867669495E+03  0.47000000000E+01 0.  1.
         11    1    6    6    0    0 -0.23328666068E+02 -0.56799264411E+02  0.48939367307E+03  0.49323072729E+03  0.00000000000E+00 0. -1.
        -12    1    6    6    0    0 -0.12011935714E+02 -0.66429975084E+02  0.16276808875E+03  0.17621202826E+03  0.00000000000E+00 0.  1.
</event>
<event>
12    1  0.8724767E-002  0.2985808E+03  0.7818608E-02  0.1085976E+00
         21   -1    0    0  503  502  0.00000000000E+00  0.00000000000E+00  0.14023128304E+04  0.14023128304E+04  0.00000000000E+00 0.  1.
         21   -1    0    0  501  503 -0.00000000000E+00 -0.00000000000E+00 -0.10671935414E+03  0.10671935414E+03  0.00000000000E+00 0. -1.
          6    2    1    2  501    0 -0.24060758939E+03 -0.41924594014E+02  0.16770343795E+03  0.34229038716E+03  0.17143098433E+03 0.  0.
         24    2    3    3    0    0 -0.17638213425E+03  0.10050225781E+02  0.17236558002E+03  0.25940422095E+03  0.79805966893E+02 0.  0.
         -6    2    1    2    0  502  0.24060758939E+03  0.41924594014E+02  0.11278900383E+04  0.11667417974E+04  0.17175796797E+03 0.  0.
        -24    2    5    5    0    0  0.24657067571E+03  0.16005073349E+02  0.10884684140E+04  0.11189554561E+04  0.79022553439E+02 0.  0.
          5    1    3    3  501    0 -0.64225455141E+02 -0.51974819795E+02 -0.46621420689E+01  0.82886166213E+02  0.47000000000E+01 0. -1.
        -11    1    4    4    0    0 -0.75561481282E+02 -0.26207876482E+02  0.40962792498E+02  0.89857334772E+02  0.00000000000E+00 0.  1.
         12    1    4    4    0    0 -0.10082065296E+03  0.36258102263E+02  0.13140278752E+03  0.16954688618E+03  0.00000000000E+00 0. -1.
         -5    1    5    5    0  502 -0.59630863272E+01  0.25919520665E+02  0.39421624355E+02  0.47786341321E+02  0.47000000000E+01 0.  1.
         11    1    6    6    0    0  0.81431500423E+02 -0.17381327196E+02  0.49831349469E+03  0.50522226671E+03  0.00000000000E+00 0. -1.
        -12    1    6    6    0    0  0.16513917529E+03  0.33386400545E+02  0.59015491928E+03  0.61373318934E+03  0.00000000000E+00 0.  1.
</event>
<event>
12    1  0.8724767E-002  0.3558846E+03  0.7818608E-02  0.1060232E+00
         21   -1    0    0  503  502  0.00000000000E+00  0.00000000000E+00  0.41742433813E+03  0.41742433813E+03  0.00000000000E+00 0. -1.
         21   -1    0    0  501  503 -0.00000000000E+00 -0.00000000000E+00 -0.30795270926E+03  0.30795270926E+03  0.00000000000E+00 0.  1.
          6    2    1    2  501    0 -0.16058184611E+03  0.26682351835E+03  0.99011197795E+02  0.36933875796E+03  0.17212373920E+03 0.  0.
         24    2    3    3    0    0 -0.16788618896E+03  0.25675456604E+03  0.52858430847E+02  0.32130850580E+03  0.79601900507E+02 0.  0.
         -6    2    1    2    0  502  0.16058184611E+03 -0.26682351835E+03  0.10460431075E+02  0.35603828943E+03  0.17225714405E+03 0.  0.
        -24    2    5    5    0    0  0.55206894891E+02 -0.19553852697E+03 -0.34487188775E+02  0.22102788661E+03  0.79880183368E+02 0.  0.
          5    1    3    3  501    0  0.73043428496E+01  0.10068952307E+02  0.46152766948E+02  0.48030252154E+02  0.47000000000E+01 0. -1.
        -13    1    4    4    0    0 -0.89171799330E+02  0.19299237258E+03  0.56385508412E+02  0.21994770112E+03  0.00000000000E+00 0.  1.
         14    1    4    4    0    0 -0.78714389627E+02  0.63762193457E+02 -0.35270775653E+01  0.10136080468E+03  0.00000000000E+00 0. -1.
         -5    1    5    5    0  502  0.10537495122E+03 -0.71284991377E+02  0.44947619850E+02  0.13501040282E+03  0.47000000000E+01 0.  1.
         11    1    6    6    0    0  0.55571585391E+02 -0.13354960760E+03  0.95856935283E+01  0.14496752848E+03  0.00000000000E+00 0. -1.
        -12    1    6    6    0    0 -0.36469050036E+00 -0.61988919367E+02 -0.44072882303E+02  0.76060358124E+02  0.00000000000E+00 0.  1.
</event>
<event>
12    1  0.8724767E-002  0.1734800E+03  0.7818608E-02  0.1175613E+00
         21   -1    0    0  501  502  0.00000000000E+00  0.00000000000E+00  0.14062432386E+03  0.14062432386E+03  0.00000000000E+00 0. -1.
         21   -1    0    0  502  503 -0.00000000000E+00 -0.00000000000E+00 -0.23676883362E+03  0.23676883362E+03  0.00000000000E+00 0. -1.
         -6    2    1    2    0  503 -0.16615069455E+02 -0.85500531862E+01 -0.11490964985E+03  0.20808536948E+03  0.17247066249E+03 0.  0.
        -24    2    3    3    0    0 -0.37006648699E+02 -0.41911355897E+02 -0.13099611778E+02  0.98924172729E+02  0.80550222348E+02 0.  0.
          6    2    1    2  501    0  0.16615069455E+02  0.85500531862E+01  0.18765140092E+02  0.16930778800E+03  0.16722389976E+03 0.  0.
         24    2    5    5    0    0 -0.33107988488E+02 -0.24045610190E+02  0.48977459045E+02  0.10245171887E+03  0.80145074298E+02 0.  0.
          5    1    5    5  501    0  0.49723057943E+02  0.32595663376E+02 -0.30212318953E+02  0.66856069124E+02  0.47000000000E+01 0. -1.
        -11    1    6    6    0    0  0.11012530157E+02 -0.43503364372E+01 -0.16973640206E+02  0.20695548058E+02  0.00000000000E+00 0.  1.
         12    1    6    6    0    0 -0.44120518645E+02 -0.19695273753E+02  0.65951099252E+02  0.81756170814E+02  0.00000000000E+00 0. -1.
         -5    1    3    3    0  503  0.20391579244E+02  0.33361302711E+02 -0.10181003808E+03  0.10916119675E+03  0.47000000000E+01 0.  1.
         11    1    4    4    0    0 -0.45239618490E+02 -0.46593626382E+02 -0.35921119589E+02  0.74215334892E+02  0.00000000000E+00 0. -1.
        -12    1    4    4    0    0  0.82329697911E+01  0.46822704849E+01  0.22821507811E+02  0.24708837837E+02  0.00000000000E+00 0.  1.
</event>
<event>
12    1  0.8724767E-002  0.2585682E+03  0.7818608E-02  0.1108008E+00
         21   -1    0    0  503  502  0.00000000000E+00  0.00000000000E+00  0.31446417649E+03  0.31446417649E+03  0.00000000000E+00 0.  1.
         21   -1    0    0  501  503 -0.00000000000E+00 -0.00000000000E+00 -0.21829603932E+03  0.21829603932E+03  0.00000000000E+00 0. -1.
          6    2    1    2  501    0 -0.88858026440E+01 -0.19209140932E+03  0.50588854490E+01  0.25861765107E+03  0.17285667502E+03 0.  0.
         24    2    3    3    0    0  0.18412799392E+02 -0.19337533054E+03 -0.32005393721E+02  0.21232820392E+03  0.79535346293E+02 0.  0.
         -6    2    1    2    0  502  0.88858026440E+01  0.19209140932E+03  0.91109251719E+02  0.27414256473E+03  0.17284438963E+03 0.  0.
        -24    2    5    5    0    0 -0.75726605255E+01  0.18887206637E+03  0.12247178141E+03  0.23826857070E+03  0.77733981624E+02 0.  0.
          5    1    3    3  501    0 -0.27298602036E+02  0.12839212219E+01  0.37064279170E+02  0.46289447148E+02  0.47000000000E+01 0. -1.
        -11    1    4    4    0    0 -0.75526291877E+01 -0.13702572361E+02 -0.26417204500E+02  0.30702954101E+02  0.00000000000E+00 0.  1.
         12    1    4    4    0    0  0.25965428579E+02 -0.17967275818E+03 -0.55881892214E+01  0.18162524982E+03  0.00000000000E+00 0. -1.
         -5    1    5    5    0  502  0.16458463169E+02  0.32193429480E+01 -0.31362529693E+02  0.35873994030E+02  0.47000000000E+01 0.  1.
         13    1    6    6    0    0 -0.46134598714E+01  0.12101955921E+03  0.32226236440E+02  0.12532177799E+03  0.00000000000E+00 0. -1.
        -14    1    6    6    0    0 -0.29592006541E+01  0.67852507161E+02  0.90245544972E+02  0.11294679271E+03  0.00000000000E+00 0.  1.
</event>
<event>
12    1  0.8724767E-002  0.1742986E+03  0.7818608E-02  0.1173828E+00
         21   -1    0    0  503  502  0.00000000000E+00  0.00000000000E+00  0.24278099424E+03  0.24278099424E+03  0.00000000000E+00 0. -1.
         21   -1    0    0  501  503 -0.00000000000E+00 -0.00000000000E+00 -0.38817255705E+03  0.38817255705E+03  0.00000000000E+00 0. -1.
          6    2    1    2  501    0 -0.24265314110E+02  0.17396257855E+02 -0.33283110829E+03  0.37499735354E+03  0.17016178555E+03 0.  0.
         24    2    3    3    0    0 -0.32649657539E+01  0.11218005280E+02 -0.59100090904E+02  0.10035222740E+03  0.80257368231E+02 0.  0.
         -6    2    1    2    0  502  0.24265314110E+02 -0.17396257855E+02  0.18743954547E+03  0.25595619774E+03  0.17172232441E+03 0.  0.
        -24    2    5    5    0    0 -0.46765030756E+02 -0.30090755115E+02  0.13620209302E+03  0.16733437940E+03  0.79733071816E+02 0.  0.
          5    1    3    3  501    0 -0.21000348356E+02  0.61782525746E+01 -0.27373101738E+03  0.27464512614E+03  0.47000000000E+01 0. -1.
        -11    1    4    4    0    0  0.58668729936E+01  0.26754001029E+02 -0.72756503476E+02  0.77741273258E+02  0.00000000000E+00 0.  1.
         12    1    4    4    0    0 -0.91318387475E+01 -0.15535995749E+02  0.13656412572E+02  0.22610954141E+02  0.00000000000E+00 0. -1.
         -5    1    5    5    0  502  0.71030344866E+02  0.12694497261E+02  0.51237452453E+02  0.88621818342E+02  0.47000000000E+01 0.  1.
         13    1    6    6    0    0  0.52487303092E+01 -0.29039575855E+01  0.96018763489E+02  0.96205951383E+02  0.00000000000E+00 0. -1.
        -14    1    6    6    0    0 -0.52013761065E+02 -0.27186797530E+02  0.40183329532E+02  0.71128428018E+02  0.00000000000E+00 0.  1.
</event>
<event>
12    1  0.8724767E-002  0.2441949E+03  0.7818608E-02  0.1117110E+00
         21   -1    0    0  501  502  0.00000000000E+00  0.00000000000E+00  0.42829252044E+02  0.42829252044E+02  0.00000000000E+00 0. -1.
         21   -1    0    0  502  503 -0.00000000000E+00 -0.00000000000E+00 -0.14119413260E+04  0.14119413260E+04  0.00000000000E+00 0.  1.
         -6    2    1    2    0  503  0.10424936124E+03 -0.13841077373E+03 -0.77695713541E+03  0.81442835472E+03  0.17206302073E+03 0.  0.
        -24    2    3    3    0    0  0.94540207247E+02 -0.16694524493E+03 -0.59433300741E+03  0.62927397091E+03  0.77106686958E+02 0.  0.
          6    2    1    2  501    0 -0.10424936124E+03  0.13841077373E+03 -0.59215493856E+03  0.64034222334E+03  0.17136283181E+03 0.  0.
         24    2    5    5    0    0 -0.13810558260E+03  0.91624488682E+02 -0.40641799323E+03  0.44577731629E+03  0.77933507736E+02 0.  0.
          5    1    5    5  501    0  0.33856221360E+02  0.46786285048E+02 -0.18573694534E+03  0.19456490705E+03  0.47000000000E+01 0. -1.
        -13    1    6    6    0    0 -0.89266616218E+02  0.72582296127E+02 -0.18197615553E+03  0.21529523837E+03  0.00000000000E+00 0.  1.
         14    1    6    6    0    0 -0.48838966381E+02  0.19042192555E+02 -0.22444183770E+03  0.23048207792E+03  0.00000000000E+00 0. -1.
         -5    1    3    3    0  503  0.97091539919E+01  0.28534471196E+02 -0.18262412800E+03  0.18515438381E+03  0.47000000000E+01 0.  1.
         11    1    4    4    0    0  0.70519959527E+02 -0.14158103551E+03 -0.37225304591E+03  0.40446332899E+03  0.00000000000E+00 0. -1.
        -12    1    4    4    0    0  0.24020247720E+02 -0.25364209421E+02 -0.22207996150E+03  0.22481064192E+03  0.00000000000E+00 0.  1.
</event>
<event>
12    1  0.8724767E-002  0.2203344E+03  0.7818608E-02  0.1134383E+00
         21   -1    0    0  503  502  0.00000000000E+00  0.00000000000E+00  0.12297763231E+03  0.12297763231E+03  0.00000000000E+00 0.  1.
         21   -1    0    0  501  503 -0.00000000000E+00 -0.00000000000E+00 -0.38805234377E+03  0.38805234377E+03  0.00000000000E+00 0.  1.
          6    2    1    2  501    0 -0.84568741899E+02 -0.10839989076E+03 -0.14193918527E+03  0.26209535709E+03  0.17217675648E+03 0.  0.
         24    2    3    3    0    0 -0.90178767865E+02 -0.13137308914E+03 -0.15426940296E+03  0.23501465357E+03  0.77728630362E+02 0.  0.
         -6    2    1    2    0  502  0.84568741899E+02  0.10839989076E+03 -0.12313552619E+03  0.24893461898E+03  0.16704394121E+03 0.  0.
        -24    2    5    5    0    0  0.15641251719E+02  0.33978334058E+02  0.99284602862E+00  0.88561585730E+02  0.80268255139E+02 0.  0.
          5    1    3    3  501    0  0.56100259661E+01  0.22973198384E+02  0.12330217688E+02  0.27080703528E+02  0.47000000000E+01 0. -1.
        -11    1    4    4    0    0 -0.48486468362E+02 -0.11878831846E+02 -0.54086493183E+02  0.73602941552E+02  0.00000000000E+00 0.  1.
         12    1    4    4    0    0 -0.41692299503E+02 -0.11949425730E+03 -0.10018290977E+03  0.16141171201E+03  0.00000000000E+00 0. -1.
         -5    1    5    5    0  502  0.68927490180E+02  0.74421556701E+02 -0.12412837222E+03  0.16037303325E+03  0.47000000000E+01 0.  1.
         13    1    6    6    0    0 -0.74838632081E+01  0.55648919850E+02  0.60261756718E+01  0.56472340861E+02  0.00000000000E+00 0. -1.
        -14    1    6    6    0    0  0.23125114927E+02 -0.21670585792E+02 -0.50333296432E+01  0.32089244869E+02  0.00000000000E+00 0.  1.
</event>
<event>
12    1  0.8724767E-002  0.3301840E+03  0.7818608E-02  0.1071225E+00
         21   -1    0    0  501  502  0.00000000000E+00  0.00000000000E+00  0.44121000561E+03  0.44121000561E+03  0.00000000000E+00 0.  1.
         21   -1    0    0  502  503 -0.00000000000E+00 -0.00000000000E+00 -0.69198231694E+03  0.69198231694E+03  0.00000000000E+00 0. -1.
         -6    2    1    2    0  503 -0.24368071060E+03 -0.14272751230E+03  0.32940045279E+03  0.46639693508E+03  0.17108480724E+03 0.  0.
        -24    2    3    3    0    0 -0.20137420591E+03 -0.11109899382E+03  0.16453594092E+03  0.29321321531E+03  0.77507138671E+02 0.  0.
          6    2    1    2  501    0  0.24368071060E+03  0.14272751230E+03 -0.58017276412E+03  0.66679538747E+03  0.16811966289E+03 0.  0.
         24    2    5    5    0    0  0.91397436798E+02  0.10181623578E+03 -0.19740822549E+03  0.25279694538E+03  0.78843203771E+02 0.  0.
          5    1    5    5  501    0  0.15228327380E+03  0.40911276521E+02 -0.38276453862E+03  0.41399844209E+03  0.47000000000E+01 0. -1.
        -13    1    6    6    0    0  0.42427587642E+02  0.96266664244E+02 -0.15739207452E+03  0.18931359159E+03  0.00000000000E+00 0.  1.
         14    1    6    6    0    0  0.48969849156E+02  0.55495715393E+01 -0.40016150972E+02  0.63483353797E+02  0.00000000000E+00 0. -1.
         -5    1    3    3    0  503 -0.42306504689E+02 -0.31628518490E+02  0.16486451187E+03  0.17318371977E+03  0.47000000000E+01 0.  1.
         11    1    4    4    0    0 -0.42725730947E+02 -0.81572564562E+01  0.15065133578E+01  0.43523539612E+02  0.00000000000E+00 0. -1.
        -12    1    4    4    0    0 -0.15864847496E+03 -0.10294173736E+03  0.16302942756E+03  0.24968967570E+03  0.00000000000E+00 0.  1.
</event>
<event>
12    1  0.8724767E-002  0.1761329E+03  0.7818608E-02  0.1171656E+00
         21   -1    0    0  501  502  0.00000000000E+00  0.00000000000E+00  0.93703871594E+02  0.93703871594E+02  0.00000000000E+00 0.  1.
         21   -1    0    0  502  503 -0.00000000000E+00 -0.00000000000E+00 -0.43596874903E+03  0.43596874903E+03  0.00000000000E+00 0.  1.
         -6    2    1    2    0  503  0.97300793124E+01  0.36503651804E+02 -0.30138637534E+03  0.34907956449E+03  0.17203372944E+03 0.  0.
        -24    2    3    3    0    0 -0.28390442443E+02  0.47637904194E+02 -0.29536578278E+03  0.30863845558E+03  0.70294832581E+02 0.  0.
          6    2    1    2  501    0 -0.97300793124E+01 -0.36503651804E+02 -0.40878502089E+02  0.18059305613E+03  0.17180107378E+03 0.  0.
         24    2    5    5    0    0 -0.71441694333E+02 -0.84114756956E+01 -0.27734859386E+02  0.11136633347E+03  0.80365223775E+02 0.  0.
          5    1    5    5  501    0  0.61711615020E+02 -0.28092176109E+02 -0.13143642703E+02  0.69226722661E+02  0.47000000000E+01 0. -1.
        -13    1    6    6    0    0 -0.62605238344E+02 -0.38645775632E+02 -0.75593530602E+01  0.73959824642E+02  0.00000000000E+00 0.  1.
         14    1    6    6    0    0 -0.88364559886E+01  0.30234299936E+02 -0.20175506326E+02  0.37406508826E+02  0.00000000000E+00 0. -1.
         -5    1    3    3    0  503  0.38120521756E+02 -0.11134252390E+02 -0.60205925660E+01  0.40441108912E+02  0.47000000000E+01 0.  1.
         13    1    4    4    0    0 -0.36075208696E+02 -0.37250538254E+01 -0.14836152630E+03  0.15272995513E+03  0.00000000000E+00 0. -1.
        -14    1    4    4    0    0  0.76847662524E+01  0.51362958020E+02 -0.14700425648E+03  0.15590850045E+03  0.00000000000E+00 0.  1.
</event>
<event>
12    1  0.8724767E-002  0.1725010E+03  0.7818608E-02  0.1175466E+00
         21   -1    0    0  503  502  0.00000000000E+00  0.00000000000E+00  0.54677649230E+02  0.54677649230E+02  0.00000000000E+00 0. -1.
         21   -1    0    0  501  503 -0.00000000000E+00 -0.00000000000E+00 -0.63725272667E+03  0.63725272667E+03  0.00000000000E+00 0. -1.
          6    2    1    2  501    0  0.11662771944E+01  0.18791425281E+02 -0.42579378046E+03  0.45940933776E+03  0.17147045891E+03 0.  0.
         24    2    3    3    0    0 -0.23525062962E+02  0.38259150068E+01 -0.92490345954E+02  0.12482467250E+03  0.80365841981E+02 0.  0.
         -6    2    1    2    0  502 -0.11662771944E+01 -0.18791425281E+02 -0.15678129699E+03  0.23252103814E+03  0.17067858749E+03 0.  0.
        -24    2    5    5    0    0  0.45053519915E+02  0.18257599019E+02 -0.44152872627E+02  0.10517838299E+03  0.82157510364E+02 0.  0.
          5    1    3    3  501    0  0.24691340157E+02  0.14965510274E+02 -0.33330343450E+03  0.33458466526E+03  0.47000000000E+01 0. -1.
        -11    1    4    4    0    0 -0.44403770270E+02 -0.18619077379E+02 -0.34509720023E+02  0.59239223769E+02  0.00000000000E+00 0.  1.
         12    1    4    4    0    0  0.20878707308E+02  0.22444992386E+02 -0.57980625930E+02  0.65585448732E+02  0.00000000000E+00 0. -1.
         -5    1    5    5    0  502 -0.46219797110E+02 -0.37049024300E+02 -0.11262842436E+03  0.12734265515E+03  0.47000000000E+01 0.  1.
         13    1    6    6    0    0 -0.78816929642E+01 -0.16568485829E+02 -0.37143429243E+02  0.41427890878E+02  0.00000000000E+00 0. -1.
        -14    1    6    6    0    0  0.52935212879E+02  0.34826084848E+02 -0.70094433834E+01  0.63750492115E+02  0.00000000000E+00 0.  1.
</event>
<event>
12    1  0.8724767E-002  0.1910327E+03  0.7818608E-02  0.1157653E+00
         21   -1    0    0  501  502  0.00000000000E+00  0.00000000000E+00  0.32259870232E+03  0.32259870232E+03  0.00000000000E+00 0.  1.
         21   -1    0    0  502  503 -0.00000000000E+00 -0.00000000000E+00 -0.17468554195E+03  0.17468554195E+03  0.00000000000E+00 0.  1.
         -6    2    1    2    0  503 -0.78252244093E+02  0.12617575434E+02 -0.73960350775E+02  0.20485029766E+03  0.17381281325E+03 0.  0.
        -24    2    3    3    0    0 -0.32305352187E+02  0.66403847737E+02 -0.31319943553E+02  0.12211956400E+03  0.92082258188E+02 0.  0.
          6    2    1    2  501    0  0.78252244093E+02 -0.12617575434E+02  0.22187351115E+03  0.29243394662E+03  0.17322569460E+03 0.  0.
         24    2    5    5    0    0 -0.11444119033E+02  0.27472829064E+01  0.16911849820E+03  0.18714055736E+03  0.79259108955E+02 0.  0.
          5    1    5    5  501    0  0.89696363126E+02 -0.15364858341E+02  0.52755012942E+02  0.10529338925E+03  0.47000000000E+01 0. -1.
        -11    1    6    6    0    0 -0.23874760952E+02 -0.32535837466E+02  0.11012124530E+03  0.11728287854E+03  0.00000000000E+00 0.  1.
         12    1    6    6    0    0  0.12430641920E+02  0.35283120373E+02  0.58997252898E+02  0.69857678829E+02  0.00000000000E+00 0. -1.
         -5    1    3    3    0  503 -0.45946891907E+02 -0.53786272303E+02 -0.42640407222E+02  0.82730733661E+02  0.47000000000E+01 0.  1.
         13    1    4    4    0    0  0.19807246775E+02  0.23049289073E+02  0.20615013915E+02  0.36722956720E+02  0.00000000000E+00 0. -1.
        -14    1    4    4    0    0 -0.52112598962E+02  0.43354558664E+02 -0.51934957468E+02  0.85396607279E+02  0.00000000000E+00 0.  1.
</event>
<event>
12    1  0.8724767E-002  0.2317610E+03  0.7818608E-02  0.1125416E+00
         21   -1    0    0  501  502  0.00000000000E+00  0.00000000000E+00  0.30764068867E+03  0.30764068867E+03  0.00000000000E+00 0.  1.
         21   -1    0    0  502  503 -0.00000000000E+00 -0.00000000000E+00 -0.20149084294E+03  0.20149084294E+03  0.00000000000E+00 0.  1.
         -6    2    1    2    0  503  0.14855237635E+03  0.42792671372E+02  0.14615701311E+03  0.27399823505E+03  0.17266771292E+03 0.  0.
        -24    2    3    3    0    0  0.43774276890E+02  0.61019758839E+02  0.11819361425E+03  0.16393135301E+03  0.85230040279E+02 0.  0.
          6    2    1    2  501    0 -0.14855237635E+03 -0.42792671372E+02 -0.40007167376E+02  0.23513329657E+03  0.17259221440E+03 0.  0.
         24    2    5    5    0    0 -0.95382819594E+02 -0.26925250973E+02 -0.94404354264E+02  0.15728780384E+03  0.77488190847E+02 0.  0.
          5    1    5    5  501    0 -0.53169556758E+02 -0.15867420399E+02  0.54397186888E+02  0.77845492723E+02  0.47000000000E+01 0. -1.
        -13    1    6    6    0    0 -0.99672329789E+02 -0.25966401658E+01 -0.84411939973E+02  0.13063954790E+03  0.00000000000E+00 0.  1.
         14    1    6    6    0    0  0.42895101949E+01 -0.24328610807E+02 -0.99924142913E+01  0.26648255944E+02  0.00000000000E+00 0. -1.
         -5    1    3    3    0  503  0.10477809946E+03 -0.18227087467E+02  0.27963398859E+02  0.11006688203E+03  0.47000000000E+01 0.  1.
         13    1    4    4    0    0  0.25102809493E+01 -0.73792247393E+01 -0.10126241685E+02  0.12778702550E+02  0.00000000000E+00 0. -1.
        -14    1    4    4    0    0  0.41263995941E+02  0.68398983579E+02  0.12831985593E+03  0.15115265046E+03  0.00000000000E+00 0.  1.
</event>
<event>
12    1  0.8724767E-002  0.1945599E+03  0.7818608E-02  0.1155580E+00
         21   -1    0    0  501  502  0.00000000000E+00  0.00000000000E+00  0.13246461448E+03  0.13246461448E+03  0.00000000000E+00 0. -1.
         21   -1    0    0  502  503 -0.00000000000E+00 -0.00000000000E+00 -0.14897493463E+04  0.14897493463E+04  0.00000000000E+00 0. -1.
         -6    2    1    2    0  503  0.68807538221E+02 -0.39999657439E+02 -0.14118647019E+04  0.14252071805E+04  0.17753625225E+03 0.  0.
        -24    2    3    3    0    0  0.26991946130E+02 -0.78672761625E+02 -0.12055670482E+04  0.12111395167E+04  0.80926217858E+02 0.  0.
          6    2    1    2  501    0 -0.68807538221E+02  0.39999657439E+02  0.54579970117E+02  0.19700678028E+03  0.17175054127E+03 0.  0.
         24    2    5    5    0    0 -0.26254919865E+02  0.76754576125E+02 -0.56544662656E+01  0.11447238319E+03  0.80569024762E+02 0.  0.
          5    1    5    5  501    0 -0.42552618357E+02 -0.36754918685E+02  0.60234436383E+02  0.82534397090E+02  0.47000000000E+01 0. -1.
        -13    1    6    6    0    0 -0.88568416435E+01  0.60835165248E+02 -0.39609244606E+02  0.73131752563E+02  0.00000000000E+00 0.  1.
         14    1    6    6    0    0 -0.17398078221E+02  0.15919410877E+02  0.33954778341E+02  0.41340630627E+02  0.00000000000E+00 0. -1.
         -5    1    3    3    0  503  0.41815592091E+02  0.38673104186E+02 -0.20629765378E+03  0.21406766380E+03  0.47000000000E+01 0.  1.
         11    1    4    4    0    0 -0.21963745373E+02 -0.14288025944E+02 -0.13486346532E+03  0.13738525421E+03  0.00000000000E+00 0. -1.
        -12    1    4    4    0    0  0.48955691504E+02 -0.64384735681E+02 -0.10707035828E+04  0.10737542625E+04  0.00000000000E+00 0.  1.
</event>
<event>
12    1  0.8724767E-002  0.1796744E+03  0.7818608E-02  0.1169954E+00
         21   -1    0    0  503  502  0.00000000000E+00  0.00000000000E+00  0.95733995830E+02  0.95733995830E+02  0.00000000000E+00 0.  1.
         21   -1    0    0  501  503 -0.00000000000E+00 -0.00000000000E+00 -0.36289697374E+03  0.36289697374E+03  0.00000000000E+00 0.  1.
          6    2    1    2  501    0  0.37970191787E+02  0.20103036764E+02 -0.21165416543E+03  0.27763351913E+03  0.17446208083E+03 0.  0.
         24    2    3    3    0    0  0.49498306094E+02 -0.27372888832E+02 -0.20622176215E+03  0.22825273404E+03  0.79828178362E+02 0.  0.
         -6    2    1    2    0  502 -0.37970191787E+02 -0.20103036764E+02 -0.55508812476E+02  0.18099745044E+03  0.16683219489E+03 0.  0.
        -24    2    5    5    0    0 -0.41597800249E+02 -0.59252325734E+01 -0.99036337922E+02  0.13483572228E+03  0.81283395646E+02 0.  0.
          5    1    3    3  501    0 -0.11528114307E+02  0.47475925596E+02 -0.54324032753E+01  0.49380785089E+02  0.47000000000E+01 0. -1.
        -11    1    4    4    0    0 -0.82845931936E+01 -0.91619555326E+01 -0.13139468022E+03  0.13197400465E+03  0.00000000000E+00 0.  1.
         12    1    4    4    0    0  0.57782899287E+02 -0.18210933299E+02 -0.74827081938E+02  0.96278729391E+02  0.00000000000E+00 0. -1.
         -5    1    5    5    0  502  0.36276084624E+01 -0.14177804191E+02  0.43527525447E+02  0.46161728156E+02  0.47000000000E+01 0.  1.
         13    1    6    6    0    0 -0.33094506149E+02  0.29432574393E+02 -0.21579088332E+02  0.49266416815E+02  0.00000000000E+00 0. -1.
        -14    1    6    6    0    0 -0.85032941005E+01 -0.35357806966E+02 -0.77457249591E+02  0.85569305467E+02  0.00000000000E+00 0.  1.
</event>
<event>
12    1  0.8724767E-002  0.2365830E+03  0.7818608E-02  0.1122132E+00
         21   -1    0    0  503  502  0.00000000000E+00  0.00000000000E+00  0.21017945867E+04  0.21017945867E+04  0.00000000000E+00 0.  1.
         21   -1    0    0  501  503 -0.00000000000E+00 -0.00000000000E+00 -0.47278361510E+02  0.47278361510E+02  0.00000000000E+00 0.  1.
          6    2    1    2  501    0 -0.13050811987E+03 -0.97604430118E+02  0.31696802999E+03  0.39552529055E+03  0.17150081428E+03 0.  0.
         24    2    3    3    0    0 -0.58095189194E+02 -0.80744073048E+02  0.92952126002E+02  0.15944666083E+03  0.82996888992E+02 0.  0.
         -6    2    1    2    0  502  0.13050811987E+03  0.97604430118E+02  0.17375481952E+04  0.17535476577E+04  0.17116267967E+03 0.  0.
        -24    2    5    5    0    0  0.31686694011E+02  0.89670353307E+02  0.66098406833E+03  0.67241814042E+03  0.78748956442E+02 0.  0.
          5    1    3    3  501    0 -0.72412930674E+02 -0.16860357070E+02  0.22401590399E+03  0.23607862972E+03  0.47000000000E+01 0. -1.
        -13    1    4    4    0    0 -0.42417849876E+02 -0.33941856332E+02  0.95664844688E+02  0.11001402687E+03  0.00000000000E+00 0.  1.
         14    1    4    4    0    0 -0.15677339319E+02 -0.46802216716E+02 -0.27127186860E+01  0.49432633961E+02  0.00000000000E+00 0. -1.
         -5    1    5    5    0  502  0.98821425858E+02  0.79340768108E+01  0.10765641269E+04  0.10811295173E+04  0.47000000000E+01 0.  1.
         13    1    6    6    0    0  0.39609772078E+02  0.79494312094E+01  0.18011936532E+03  0.18459445621E+03  0.00000000000E+00 0. -1.
        -14    1    6    6    0    0 -0.79230780668E+01  0.81720922098E+02  0.48086470300E+03  0.48782368420E+03  0.00000000000E+00 0.  1.
</event>
<event>
12    1  0.8724767E-002  0.2729096E+03  0.7818608E-02  0.1099637E+00
         21   -1    0    0  503  502  0.00000000000E+00  0.00000000000E+00  0.50421826905E+03  0.50421826905E+03  0.00000000000E+00 0.  1.
         21   -1    0    0  501  503 -0.00000000000E+00 -0.00000000000E+00 -0.15231940714E+03  0.15231940714E+03  0.00000000000E+00 0.  1.
          6    2    1    2  501    0  0.83157047109E+02  0.19465594609E+03  0.11856690232E+03  0.29747853738E+03  0.17213174617E+03 0.  0.
         24    2    3    3    0    0  0.21631934758E+02  0.70698252976E+02 -0.66903135986E+01  0.11076402462E+03  0.82205384735E+02 0.  0.
         -6    2    1    2    0  502 -0.83157047109E+02 -0.19465594609E+03  0.23333195959E+03  0.35905913881E+03  0.17226035517E+03 0.  0.
        -24    2    5    5    0    0 -0.12458323308E+03 -0.11742550115E+03  0.16587528727E+03  0.24836513197E+03  0.69720137447E+02 0.  0.
          5    1    3    3  501    0  0.61525112352E+02  0.12395769312E+03  0.12525721592E+03  0.18671451275E+03  0.47000000000E+01 0. -1.
        -13    1    4    4    0    0  0.28617981849E+02  0.70502959702E+02  0.23609651586E+02  0.79668512349E+02  0.00000000000E+00 0.  1.
         14    1    4    4    0    0 -0.69860470912E+01  0.19529327401E+00 -0.30299965184E+02  0.31095512274E+02  0.00000000000E+00 0. -1.
         -5    1    5    5    0  502  0.41426185973E+02 -0.77230444943E+02  0.67456672324E+02  0.11069400684E+03  0.47000000000E+01 0.  1.
         11    1    6    6    0    0 -0.37704545465E+02 -0.12385613724E-01  0.45505983775E+02  0.59096763545E+02  0.00000000000E+00 0. -1.
        -12    1    6    6    0    0 -0.86878687617E+02 -0.11741311554E+03  0.12036930349E+03  0.18926836842E+03  0.00000000000E+00 0.  1.
</event>
<event>
12    1  0.8724767E-002  0.1934096E+03  0.7818608E-02  0.1155995E+00
         21   -1    0    0  501  502  0.00000000000E+00  0.00000000000E+00  0.10237255043E+04  0.10237255043E+04  0.00000000000E+00 0. -1.
         21   -1    0    0  502  503 -0.00000000000E+00 -0.00000000000E+00 -0.42699121510E+02  0.42699121510E+02  0.00000000000E+00 0. -1.
         -6    2    1    2    0  503 -0.66991176701E+02 -0.43785900482E+02  0.28294793762E+03  0.34273433650E+03  0.17607460684E+03 0.  0.
        -24    2    3    3    0    0 -0.57445976091E+02 -0.28577121341E+02  0.29963095113E+03  0.31777775906E+03  0.84186134529E+02 0.  0.
          6    2    1    2  501    0  0.66991176701E+02  0.43785900482E+02  0.69807844512E+03  0.72369028927E+03  0.17323133780E+03 0.  0.
         24    2    5    5    0    0 -0.64111675581E+01  0.64528599193E+02  0.51667975568E+03  0.52685091763E+03  0.80055457652E+02 0.  0.
          5    1    5    5  501    0  0.73402344259E+02 -0.20742698711E+02  0.18139868945E+03  0.19683937164E+03  0.47000000000E+01 0. -1.
        -11    1    6    6    0    0 -0.35093111540E+02  0.79026195558E+01  0.12545837531E+03  0.13051353113E+03  0.00000000000E+00 0.  1.
         12    1    6    6    0    0  0.28681943982E+02  0.56625979637E+02  0.39122138037E+03  0.39633738650E+03  0.00000000000E+00 0. -1.
         -5    1    3    3    0  503 -0.95452006099E+01 -0.15208779141E+02 -0.16683013508E+02  0.24956577436E+02  0.47000000000E+01 0.  1.
         13    1    4    4    0    0  0.23811076443E+01 -0.35807448025E+02  0.53816542399E+02  0.64684335379E+02  0.00000000000E+00 0. -1.
        -14    1    4    4    0    0 -0.59827083735E+02  0.72303266841E+01  0.24581440873E+03  0.25309342368E+03  0.00000000000E+00 0.  1.
</event>
<event>
12    1  0.8724767E-002  0.1832088E+03  0.7818608E-02  0.1165709E+00
         21   -1    0    0  503  502  0.00000000000E+00  0.00000000000E+00  0.31026975874E+03  0.31026975874E+03  0.00000000000E+00 0.  1.
         21   -1    0    0  501  503 -0.00000000000E+00 -0.00000000000E+00 -0.13729658696E+03  0.13729658696E+03  0.00000000000E+00 0.  1.
          6    2    1    2  501    0  0.49635717011E+02 -0.27932382266E+02 -0.21463429627E+02  0.18041271778E+03  0.16983564862E+03 0.  0.
         24    2    3    3    0    0  0.16180898611E+02  0.61246412396E+01 -0.74060365189E+02  0.10922540602E+03  0.78395911366E+02 0.  0.
         -6    2    1    2    0  502 -0.49635717011E+02  0.27932382266E+02  0.19443660141E+03  0.26715362792E+03  0.17413083174E+03 0.  0.
        -24    2    5    5    0    0 -0.90431478778E+02 -0.78757409602E+01  0.92838564198E+02  0.15186803892E+03  0.78771965782E+02 0.  0.
          5    1    3    3  501    0  0.33454818400E+02 -0.34057023505E+02  0.52596935562E+02  0.71187311754E+02  0.47000000000E+01 0. -1.
        -13    1    4    4    0    0  0.30208757074E+02  0.33902911195E+02 -0.59554262759E+02  0.74891165061E+02  0.00000000000E+00 0.  1.
         14    1    4    4    0    0 -0.14027858463E+02 -0.27778269955E+02 -0.14506102431E+02  0.34334240963E+02  0.00000000000E+00 0. -1.
         -5    1    5    5    0  502  0.40795761767E+02  0.35808123226E+02  0.10159803721E+03  0.11528558900E+03  0.47000000000E+01 0.  1.
         11    1    6    6    0    0 -0.48086191772E+02 -0.42966397440E+02  0.58256425551E+02  0.86903419186E+02  0.00000000000E+00 0. -1.
        -12    1    6    6    0    0 -0.42345287006E+02  0.35090656480E+02  0.34582138646E+02  0.64964619733E+02  0.00000000000E+00 0.  1.
</event>
<event>
12    1  0.8724767E-002  0.2369748E+03  0.7818608E-02  0.1121837E+00
         21   -1    0    0  501  502  0.00000000000E+00  0.00000000000E+00  0.42623331808E+02  0.42623331808E+02  0.00000000000E+00 0.  1.
         21   -1    0    0  502  503 -0.00000000000E+00 -0.00000000000E+00 -0.19969981449E+04  0.19969981449E+04  0.00000000000E+00 0.  1.
         -6    2    1    2    0  503 -0.15431132566E+03 -0.56598585236E+02 -0.15723277469E+04  0.15900854136E+04  0.17070938314E+03 0.  0.
        -24    2    3    3    0    0 -0.57602625884E+02 -0.20383858649E+02 -0.37006210754E+03  0.38338377822E+03  0.79395174645E+02 0.  0.
          6    2    1    2  501    0  0.15431132566E+03  0.56598585236E+02 -0.38204706618E+03  0.44953606319E+03  0.17060869337E+03 0.  0.
         24    2    5    5    0    0  0.34571858463E+02  0.73177881579E+02 -0.15163217726E+03  0.18929478263E+03  0.79309405499E+02 0.  0.
          5    1    5    5  501    0  0.11973946720E+03 -0.16579296343E+02 -0.23041488892E+03  0.26024128056E+03  0.47000000000E+01 0. -1.
        -11    1    6    6    0    0  0.40999269194E+02  0.18570466726E+02 -0.11427808433E+03  0.12282215951E+03  0.00000000000E+00 0.  1.
         12    1    6    6    0    0 -0.64274107314E+01  0.54607414852E+02 -0.37354092927E+02  0.66472623116E+02  0.00000000000E+00 0. -1.
         -5    1    3    3    0  503 -0.96708699774E+02 -0.36214726587E+02 -0.12022656394E+04  0.12067016353E+04  0.47000000000E+01 0.  1.
         13    1    4    4    0    0 -0.33194887783E+02 -0.43316607761E+02 -0.12990365367E+03  0.14090134250E+03  0.00000000000E+00 0. -1.
        -14    1    4    4    0    0 -0.24407738101E+02  0.22932749112E+02 -0.24015845388E+03  0.24248243571E+03  0.00000000000E+00 0.  1.
</event>
<event>
12    1  0.8724767E-002  0.1797674E+03  0.7818608E-02  0.1168159E+00
         21   -1    0    0  501  502  0.00000000000E+00  0.00000000000E+00  0.79272680248E+02  0.79272680248E+02  0.00000000000E+00 0.  1.
         21   -1    0    0  502  503 -0.00000000000E+00 -0.00000000000E+00 -0.40953335844E+03  0.40953335844E+03  0.00000000000E+00 0.  1.
         -6    2    1    2    0  503 -0.23392654390E+02 -0.46339170580E+02 -0.14364677127E+03  0.22969010713E+03  0.17154770592E+03 0.  0.
        -24    2    3    3    0    0  0.47243591399E+02 -0.22233202297E+02 -0.11552910001E+03  0.14979473578E+03  0.79782314489E+02 0.  0.
          6    2    1    2  501    0  0.23392654390E+02  0.46339170580E+02 -0.18661390691E+03  0.25911593155E+03  0.17210979264E+03 0.  0.
         24    2    5    5    0    0  0.87863969483E-01 -0.39436091192E+02 -0.50012646380E+02  0.96074516054E+02  0.71929373891E+02 0.  0.
          5    1    5    5  501    0  0.23304790421E+02  0.85775261772E+02 -0.13660126053E+03  0.16304141550E+03  0.47000000000E+01 0. -1.
        -11    1    6    6    0    0  0.27256434182E+02 -0.34982219138E+02 -0.68414150578E+01  0.44871748574E+02  0.00000000000E+00 0.  1.
         12    1    6    6    0    0 -0.27168570212E+02 -0.44538720543E+01 -0.43171231323E+02  0.51202767480E+02  0.00000000000E+00 0. -1.
         -5    1    3    3    0  503 -0.70636245789E+02 -0.24105968284E+02 -0.28117671261E+02  0.79895371351E+02  0.47000000000E+01 0.  1.
         11    1    4    4    0    0  0.46082308007E+02 -0.13850470698E+02 -0.12684445183E+03  0.13566476923E+03  0.00000000000E+00 0. -1.
        -12    1    4    4    0    0  0.11612833918E+01 -0.83827315984E+01  0.11315351814E+02  0.14129966555E+02  0.00000000000E+00 0.  1.
</event>
<event>
12    1  0.8724767E-002  0.1742299E+03  0.7818608E-02  0.1173661E+00
         21   -1    0    0  501  502  0.00000000000E+00  0.00000000000E+00  0.19850283417E+04  0.19850283417E+04  0.00000000000E+00 0. -1.
         21   -1    0    0  502  503 -0.00000000000E+00 -0.00000000000E+00 -0.23637678564E+02  0.23637678564E+02  0.00000000000E+00 0. -1.
         -6    2    1    2    0  503 -0.15210791424E+02  0.47340526511E+01  0.38314577106E+03  0.42089991383E+03  0.17350007538E+03 0.  0.
        -24    2    3    3    0    0  0.11039209588E+01  0.52770925660E+02  0.12668309592E+03  0.15942543182E+03  0.81128738933E+02 0.  0.
          6    2    1    2  501    0  0.15210791424E+02 -0.47340526511E+01  0.15782448920E+04  0.15877661064E+04  0.17288866339E+03 0.  0.
         24    2    5    5    0    0 -0.58358566074E+02 -0.12948405886E+02  0.94814646681E+03  0.95331670617E+03  0.79105222937E+02 0.  0.
          5    1    5    5  501    0  0.73569357498E+02  0.82143532344E+01  0.63009842524E+03  0.63444940023E+03  0.47000000000E+01 0. -1.
        -11    1    6    6    0    0 -0.74146349701E+02 -0.25366398689E+02  0.70502194308E+03  0.70936385274E+03  0.00000000000E+00 0.  1.
         12    1    6    6    0    0  0.15787783627E+02  0.12417992804E+02  0.24312452373E+03  0.24395285343E+03  0.00000000000E+00 0. -1.
         -5    1    3    3    0  503 -0.16314712383E+02 -0.48036873009E+02  0.25646267514E+03  0.26147448202E+03  0.47000000000E+01 0.  1.
         11    1    4    4    0    0 -0.38385164479E+02  0.12563758236E+02  0.50561706899E+02  0.64712866400E+02  0.00000000000E+00 0. -1.
        -12    1    4    4    0    0  0.39489085438E+02  0.40207167424E+02  0.76121389025E+02  0.94712565418E+02  0.00000000000E+00 0.  1.
</event>
<event>
12    1  0.8724767E-002  0.1744078E+03  0.7818608E-02  0.1173948E+00
         21   -1    0    0  501  502  0.00000000000E+00  0.00000000000E+00  0.58860027618E+02  0.58860027618E+02  0.00000000000E+00 0.  1.
         21   -1    0    0  502  503 -0.00000000000E+00 -0.00000000000E+00 -0.84061669431E+03  0.84061669431E+03  0.00000000000E+00 0.  1.
         -6    2    1    2    0  503  0.14977770101E+02 -0.14771609253E+01 -0.67477189832E+03  0.69694705856E+03  0.17375722164E+03 0.  0.
        -24    2    3    3    0    0 -0.51655433632E+02 -0.28088977920E+02 -0.43416078275E+03  0.44582164850E+03  0.82486862511E+02 0.  0.
          6    2    1    2  501    0 -0.14977770101E+02  0.14771609253E+01 -0.10698476837E+03  0.20252966337E+03  0.17130676659E+03 0.  0.
         24    2    5    5    0    0 -0.34806207066E+02  0.49590480999E+02 -0.10996729928E+03  0.15019378684E+03  0.82429841914E+02 0.  0.
          5    1    5    5  501    0  0.19828436965E+02 -0.48113320073E+02  0.29825309137E+01  0.52335876525E+02  0.47000000000E+01 0. -1.
        -13    1    6    6    0    0  0.93024654706E+01  0.16623568337E+02  0.74897483968E+01  0.20468884169E+02  0.00000000000E+00 0.  1.
         14    1    6    6    0    0 -0.44108672537E+02  0.32966912662E+02 -0.11745704768E+03  0.12972490267E+03  0.00000000000E+00 0. -1.
         -5    1    3    3    0  503  0.66633203733E+02  0.26611816995E+02 -0.24061111557E+03  0.25112541006E+03  0.47000000000E+01 0.  1.
         11    1    4    4    0    0  0.15510677589E+02 -0.21342239896E+02 -0.58918342538E+02  0.64555738788E+02  0.00000000000E+00 0. -1.
        -12    1    4    4    0    0 -0.67166111221E+02 -0.67467380240E+01 -0.37524244022E+03  0.38126590971E+03  0.00000000000E+00 0.  1.
</event>
<event>
12    1  0.8724767E-002  0.1793331E+03  0.7818608E-02  0.1168601E+00
         21   -1    0    0  501  502  0.00000000000E+00  0.00000000000E+00  0.10840204943E+04  0.10840204943E+04  0.00000000000E+00 0.  1.
         21   -1    0    0  502  503 -0.00000000000E+00 -0.00000000000E+00 -0.30784333003E+02  0.30784333003E+02  0.00000000000E+00 0.  1.
         -6    2    1    2    0  503  0.21261310884E+02  0.51859363716E+02  0.41656169886E+03  0.45352400709E+03  0.17034946169E+03 0.  0.
        -24    2    3    3    0    0  0.66197607343E+02 -0.61913053660E+01  0.21981529800E+03  0.24347547181E+03  0.80876972353E+02 0.  0.
          6    2    1    2  501    0 -0.21261310884E+02 -0.51859363716E+02  0.63667446242E+03  0.66128082020E+03  0.16969535976E+03 0.  0.
         24    2    5    5    0    0  0.31658351130E+02 -0.26554931073E+02  0.54364679237E+03  0.55120338231E+03  0.81030353882E+02 0.  0.
          5    1    5    5  501    0 -0.52919662015E+02 -0.25304432644E+02  0.93027670048E+02  0.11007743790E+03  0.47000000000E+01 0. -1.
        -11    1    6    6    0    0 -0.90723626771E+01 -0.40786138550E+02  0.36668450246E+03  0.36905736845E+03  0.00000000000E+00 0.  1.
         12    1    6    6    0    0  0.40730713807E+02  0.14231207477E+02  0.17696228991E+03  0.18214601386E+03  0.00000000000E+00 0. -1.
         -5    1    3    3    0  503 -0.44936296459E+02  0.58050669082E+02  0.19674640086E+03  0.21004853527E+03  0.47000000000E+01 0.  1.
         13    1    4    4    0    0  0.45769208335E+02 -0.31852394176E+02  0.19364827527E+03  0.20151687265E+03  0.00000000000E+00 0. -1.
        -14    1    4    4    0    0  0.20428399008E+02  0.25661088810E+02  0.26167022731E+02  0.41958599161E+02  0.00000000000E+00 0.  1.
</event>
<event>
12    1  0.8724767E-002  0.2970943E+03  0.7818608E-02  0.1086769E+00
         21   -1    0    0  503  502  0.00000000000E+00  0.00000000000E+00  0.34526170494E+03  0.34526170494E+03  0.00000000000E+00 0. -1.
         21   -1    0    0  501  503 -0.00000000000E+00 -0.00000000000E+00 -0.50596409993E+03  0.50596409993E+03  0.00000000000E+00 0. -1.
          6    2    1    2  501    0  0.43168587657E+02  0.23741487213E+03 -0.38002215155E+03  0.48237106994E+03  0.17330800609E+03 0.  0.
         24    2    3    3    0    0 -0.89963449774E+01  0.23264380383E+03 -0.31540163560E+03  0.39905333850E+03  0.74574134571E+02 0.  0.
         -6    2    1    2    0  502 -0.43168587657E+02 -0.23741487213E+03  0.21931975656E+03  0.36885473494E+03  0.17240449937E+03 0.  0.
        -24    2    5    5    0    0 -0.45883932444E+02 -0.25617569808E+03  0.18532332264E+03  0.32964773037E+03  0.81188476302E+02 0.  0.
          5    1    3    3  501    0  0.52164932634E+02  0.47710682946E+01 -0.64620515949E+02  0.83317731432E+02  0.47000000000E+01 0. -1.
        -11    1    4    4    0    0 -0.54998244844E+01  0.90405778407E+02 -0.66532935417E+02  0.11238364798E+03  0.00000000000E+00 0.  1.
         12    1    4    4    0    0 -0.34965204930E+01  0.14223802543E+03 -0.24886870018E+03  0.28666969052E+03  0.00000000000E+00 0. -1.
         -5    1    5    5    0  502  0.27153447868E+01  0.18760825950E+02  0.33996433924E+02  0.39207004568E+02  0.47000000000E+01 0.  1.
         11    1    6    6    0    0  0.62427805586E+00 -0.19823398574E+03  0.13852076105E+03  0.24183693694E+03  0.00000000000E+00 0. -1.
        -12    1    6    6    0    0 -0.46508210500E+02 -0.57941712338E+02  0.46802561584E+02  0.87810793434E+02  0.00000000000E+00 0.  1.
</event>
<event>
12    1  0.8724767E-002  0.3621881E+03  0.7818608E-02  0.1057764E+00
         21   -1    0    0  503  502  0.00000000000E+00  0.00000000000E+00  0.15499056887E+04  0.15499056887E+04  0.00000000000E+00 0. -1.
         21   -1    0    0  501  503 -0.00000000000E+00 -0.00000000000E+00 -0.93090862721E+02  0.93090862721E+02  0.00000000000E+00 0. -1.
          6    2    1    2  501    0 -0.25410682208E+03  0.19087648678E+03  0.47974958853E+03  0.60111552698E+03  0.17371269052E+03 0.  0.
         24    2    3    3    0    0 -0.99867590411E+02  0.77000950199E+02  0.31453297044E+03  0.34798315190E+03  0.79111330226E+02 0.  0.
         -6    2    1    2    0  502  0.25410682208E+03 -0.19087648678E+03  0.97706523747E+03  0.10418810245E+04  0.17278738564E+03 0.  0.
        -24    2    5    5    0    0  0.17236336105E+03 -0.57531071315E+02  0.44352261149E+03  0.48586590149E+03  0.79589037699E+02 0.  0.
          5    1    3    3  501    0 -0.15423923167E+03  0.11387553658E+03  0.16521661809E+03  0.25313237507E+03  0.47000000000E+01 0. -1.
        -13    1    4    4    0    0 -0.10264170647E+03  0.67304580365E+02  0.21209592836E+03  0.24505082997E+03  0.00000000000E+00 0.  1.
         14    1    4    4    0    0  0.27741160569E+01  0.96963698347E+01  0.10243704208E+03  0.10293232193E+03  0.00000000000E+00 0. -1.
         -5    1    5    5    0  502  0.81743461026E+02 -0.13334541547E+03  0.53354262598E+03  0.55601512298E+03  0.47000000000E+01 0.  1.
         13    1    6    6    0    0  0.47505326490E+02 -0.55135564494E+02  0.18364553513E+03  0.19754080361E+03  0.00000000000E+00 0. -1.
        -14    1    6    6    0    0  0.12485803456E+03 -0.23955068216E+01  0.25987707636E+03  0.28832509787E+03  0.00000000000E+00 0.  1.
</event>
<event>
12    1  0.8724767E-002  0.1957994E+03  0.7818608E-02  0.1153988E+00
         21   -1    0    0  503  502  0.00000000000E+00  0.00000000000E+00  0.20103487453E+03  0.20103487453E+03  0.00000000000E+00 0.  1.
         21   -1    0    0  501  503 -0.00000000000E+00 -0.00000000000E+00 -0.18871443473E+03  0.18871443473E+03  0.00000000000E+00 0. -1.
          6    2    1    2  501    0  0.17021386307E+02 -0.82578682742E+02 -0.75393032842E+01  0.19294533788E+03  0.17338424346E+03 0.  0.
         24    2    3    3    0    0 -0.36060817149E+02 -0.10441105867E+02 -0.41189656224E+02  0.97153967840E+02  0.79579560579E+02 0.  0.
         -6    2    1    2    0  502 -0.17021386307E+02  0.82578682742E+02  0.19859743083E+02  0.19680397138E+03  0.17671566801E+03 0.  0.
        -24    2    5    5    0    0 -0.71553778848E+02  0.71112315713E+02  0.44163519528E+02  0.13582837824E+03  0.79511176354E+02 0.  0.
          5    1    3    3  501    0  0.53082203456E+02 -0.72137576875E+02  0.33650352940E+02  0.95791370040E+02  0.47000000000E+01 0. -1.
        -13    1    4    4    0    0 -0.15571866617E+02 -0.49571753853E+01  0.23755167973E+02  0.28833394236E+02  0.00000000000E+00 0.  1.
         14    1    4    4    0    0 -0.20488950532E+02 -0.54839304817E+01 -0.64944824198E+02  0.68320573604E+02  0.00000000000E+00 0. -1.
         -5    1    5    5    0  502  0.54532392541E+02  0.11466367029E+02 -0.24303776445E+02  0.60975593138E+02  0.47000000000E+01 0.  1.
         13    1    6    6    0    0 -0.27321897768E+02  0.27980601707E+02 -0.22354616757E+02  0.45045855080E+02  0.00000000000E+00 0. -1.
        -14    1    6    6    0    0 -0.44231881081E+02  0.43131714006E+02  0.66518136284E+02  0.90782523162E+02  0.00000000000E+00 0.  1.
</event>
<event>
12    1  0.8724767E-002  0.1825842E+03  0.7818608E-02  0.1165476E+00
         21   -1    0    0  501  502  0.00000000000E+00  0.00000000000E+00  0.22934917228E+03  0.22934917228E+03  0.00000000000E+00 0. -1.
         21   -1    0    0  502  503 -0.00000000000E+00 -0.00000000000E+00 -0.14537140322E+03  0.14537140322E+03  0.00000000000E+00 0.  1.
         -6    2    1    2    0  503  0.37618611873E+02 -0.47900110645E+02  0.30856842529E+02  0.18517321667E+03  0.17212610168E+03 0.  0.
        -24    2    3    3    0    0  0.30944315738E+02 -0.77655613105E+02 -0.28849920506E+02  0.11796515385E+03  0.78073777200E+02 0.  0.
          6    2    1    2  501    0 -0.37618611873E+02  0.47900110645E+02  0.53120926527E+02  0.18954735884E+03  0.17145491491E+03 0.  0.
         24    2    5    5    0    0 -0.27031887509E+02  0.16010952802E+02 -0.35258843322E+02  0.94879144323E+02  0.82290901339E+02 0.  0.
          5    1    5    5  501    0 -0.10586724364E+02  0.31889157844E+02  0.88379769849E+02  0.94668214514E+02  0.47000000000E+01 0. -1.
        -13    1    6    6    0    0 -0.36796101826E+02  0.30978190082E+02 -0.51686469584E+02  0.70605187546E+02  0.00000000000E+00 0.  1.
         14    1    6    6    0    0  0.97642143172E+01 -0.14967237280E+02  0.16427626262E+02  0.24273956777E+02  0.00000000000E+00 0. -1.
         -5    1    3    3    0  503  0.66742961347E+01  0.29755502460E+02  0.59706763035E+02  0.67208062817E+02  0.47000000000E+01 0.  1.
         11    1    4    4    0    0  0.19853451043E+02 -0.54700452118E+02  0.21088789044E+02  0.61895363345E+02  0.00000000000E+00 0. -1.
        -12    1    4    4    0    0  0.11090864696E+02 -0.22955160987E+02 -0.49938709551E+02  0.56069790505E+02  0.00000000000E+00 0.  1.
</event>
<event>
12    1  0.8724767E-002  0.1924357E+03  0.7818608E-02  0.1156615E+00
         21   -1    0    0  501  502  0.00000000000E+00  0.00000000000E+00  0.24817429092E+04  0.24817429092E+04  0.00000000000E+00 0.  1.
         21   -1    0    0  502  503 -0.00000000000E+00 -0.00000000000E+00 -0.23661459532E+02  0.23661459532E+02  0.00000000000E+00 0. -1.
         -6    2    1    2    0  503 -0.85545116463E+02 -0.44027083619E+01  0.46568458379E+03  0.50387858903E+03  0.17231990632E+03 0.  0.
        -24    2    3    3    0    0  0.11336713765E+02 -0.38536512901E+02  0.18152757425E+03  0.20168907612E+03  0.78183369772E+02 0.  0.
          6    2    1    2  501    0  0.85545116463E+02  0.44027083619E+01  0.19923968659E+04  0.20015257797E+04  0.17065410880E+03 0.  0.
         24    2    5    5    0    0  0.12627105433E+03  0.11583398482E+01  0.17198255871E+04  0.17258696172E+04  0.69858173521E+02 0.  0.
          5    1    5    5  501    0 -0.40725937872E+02  0.32443685137E+01  0.27257127876E+03  0.27565616255E+03  0.47000000000E+01 0. -1.
        -13    1    6    6    0    0  0.55818874893E+01 -0.32622010082E+01  0.50796030218E+03  0.50800144490E+03  0.00000000000E+00 0.  1.
         14    1    6    6    0    0  0.12068916685E+03  0.44205408564E+01  0.12118652850E+04  0.12178681723E+04  0.00000000000E+00 0. -1.
         -5    1    3    3    0  503 -0.96881830228E+02  0.34133804540E+02  0.28415700953E+03  0.30218951290E+03  0.47000000000E+01 0.  1.
         13    1    4    4    0    0  0.40042263609E+02 -0.16983032094E+01  0.68018203405E+02  0.78947723863E+02  0.00000000000E+00 0. -1.
        -14    1    4    4    0    0 -0.28705549844E+02 -0.36838209692E+02  0.11350937085E+03  0.12274135226E+03  0.00000000000E+00 0.  1.
</event>
<event>
12    1  0.8724767E-002  0.1956250E+03  0.7818608E-02  0.1154156E+00
         21   -1    0    0  501  502  0.00000000000E+00  0.00000000000E+00  0.10255133837E+04  0.10255133837E+04  0.00000000000E+00 0. -1.
         21   -1    0    0  502  503 -0.00000000000E+00 -0.00000000000E+00 -0.39202246674E+02  0.39202246674E+02  0.00000000000E+00 0.  1.
         -6    2    1    2    0  503 -0.92852741616E+02 -0.17919458963E+02  0.62309679152E+03  0.65217011016E+03  0.16773044550E+03 0.  0.
        -24    2    3    3    0    0 -0.22635996762E+02 -0.67175377152E+02  0.36295335866E+03  0.37821166004E+03  0.79271682069E+02 0.  0.
          6    2    1    2  501    0  0.92852741616E+02  0.17919458963E+02  0.36321434546E+03  0.41254552017E+03  0.17124954549E+03 0.  0.
         24    2    5    5    0    0  0.65380774342E+02  0.53411854534E+02  0.12352318309E+03  0.16864315764E+03  0.77814304598E+02 0.  0.
          5    1    5    5  501    0  0.27471967274E+02 -0.35492395572E+02  0.23969116236E+03  0.24390236252E+03  0.47000000000E+01 0. -1.
        -13    1    6    6    0    0 -0.65560836755E+01 -0.68461599963E+01 -0.40214341704E+01  0.10296799145E+02  0.00000000000E+00 0.  1.
         14    1    6    6    0    0  0.71936858017E+02  0.60258014531E+02  0.12754461727E+03  0.15834635850E+03  0.00000000000E+00 0. -1.
         -5    1    3    3    0  503 -0.70216744853E+02  0.49255918189E+02  0.26014343286E+03  0.27395845012E+03  0.47000000000E+01 0.  1.
         11    1    4    4    0    0 -0.42029084554E+02 -0.86001798198E+01  0.18346101374E+03  0.18841005972E+03  0.00000000000E+00 0. -1.
        -12    1    4    4    0    0  0.19393087792E+02 -0.58575197332E+02  0.17949234492E+03  0.18980160032E+03  0.00000000000E+00 0.  1.
</event>
<event>
12    1  0.8724767E-002  0.2425532E+03  0.7818608E-02  0.1118277E+00
         21   -1    0    0  501  502  0.00000000000E+00  0.00000000000E+00  0.10434237185E+04  0.10434237185E+04  0.00000000000E+00 0. -1.
         21   -1    0    0  502  503 -0.00000000000E+00 -0.00000000000E+00 -0.27357363155E+03  0.27357363155E+03  0.00000000000E+00 0.  1.
         -6    2    1    2    0  503  0.85573283854E+02 -0.14589341219E+03 -0.20230587983E+03  0.31503963311E+03  0.17237931079E+03 0.  0.
        -24    2    3    3    0    0  0.48637308836E+02 -0.88815423093E+02 -0.32494591426E+02  0.13206387855E+03  0.78301994575E+02 0.  0.
          6    2    1    2  501    0 -0.85573283854E+02  0.14589341219E+03  0.97215596678E+03  0.10019577169E+04  0.17385156930E+03 0.  0.
         24    2    5    5    0    0 -0.29218859008E+02  0.57219720529E+01  0.30155033025E+03  0.31452927442E+03  0.84318326055E+02 0.  0.
          5    1    5    5  501    0 -0.56354424846E+02  0.14017144014E+03  0.67060563653E+03  0.68742844251E+03  0.47000000000E+01 0. -1.
        -13    1    6    6    0    0 -0.37346683422E+02  0.25462789896E+02  0.79471941457E+02  0.91427118028E+02  0.00000000000E+00 0.  1.
         14    1    6    6    0    0  0.81278244146E+01 -0.19740817843E+02  0.22207838879E+03  0.22310215639E+03  0.00000000000E+00 0. -1.
         -5    1    3    3    0  503  0.36935975018E+02 -0.57077989097E+02 -0.16981128841E+03  0.18297575457E+03  0.47000000000E+01 0.  1.
         13    1    4    4    0    0 -0.19989914476E+02 -0.92469296282E+01  0.17872290240E+00  0.22025765144E+02  0.00000000000E+00 0. -1.
        -14    1    4    4    0    0  0.68627223311E+02 -0.79568493465E+02 -0.32673314328E+02  0.11003811340E+03  0.00000000000E+00 0.  1.
</event>
<event>
12    1  0.8724767E-002  0.2945874E+03  0.7818608E-02  0.1088037E+00
         21   -1    0    0  503  502  0.00000000000E+00  0.00000000000E+00  0.28702456321E+03  0.28702456321E+03  0.00000000000E+00 0.  1.
         21   -1    0    0  501  503 -0.00000000000E+00 -0.00000000000E+00 -0.34527633617E+03  0.34527633617E+03  0.00000000000E+00 0. -1.
          6    2    1    2  501    0 -0.21733028052E+03  0.98691018384E+02  0.82976877772E+02  0.30560950400E+03  0.17187099451E+03 0.  0.
         24    2    3    3    0    0 -0.31926902691E+02  0.17128009295E+02  0.46947058933E+02  0.99825212072E+02  0.80301623924E+02 0.  0.
         -6    2    1    2    0  502  0.21733028052E+03 -0.98691018384E+02 -0.14122865073E+03  0.32669139538E+03  0.17265389682E+03 0.  0.
        -24    2    5    5    0    0  0.15106587299E+03 -0.16109701047E+02 -0.14987631617E+03  0.22035458240E+03  0.54889082563E+02 0.  0.
          5    1    3    3  501    0 -0.18540337782E+03  0.81563009089E+02  0.36029818838E+02  0.20578429193E+03  0.47000000000E+01 0. -1.
        -11    1    4    4    0    0  0.87636030270E+01  0.40115443356E+02  0.26077484059E+02  0.48642416762E+02  0.00000000000E+00 0.  1.
         12    1    4    4    0    0 -0.40690505718E+02 -0.22987434060E+02  0.20869574874E+02  0.51182795310E+02  0.00000000000E+00 0. -1.
         -5    1    5    5    0  502  0.66264407521E+02 -0.82581317337E+02  0.86476654350E+01  0.10633681298E+03  0.47000000000E+01 0.  1.
         13    1    6    6    0    0  0.57557819656E+02  0.28836093075E+01 -0.92592916576E+02  0.10906267009E+03  0.00000000000E+00 0. -1.
        -14    1    6    6    0    0  0.93508053339E+02 -0.18993310355E+02 -0.57283399590E+02  0.11129191231E+03  0.00000000000E+00 0.  1.
</event>
<event>
12    1  0.8724767E-002  0.2898786E+03  0.7818608E-02  0.1090666E+00
         21   -1    0    0  503  502  0.00000000000E+00  0.00000000000E+00  0.17439225168E+03  0.17439225168E+03  0.00000000000E+00 0. -1.
         21   -1    0    0  501  503 -0.00000000000E+00 -0.00000000000E+00 -0.49176930389E+03  0.49176930389E+03  0.00000000000E+00 0. -1.
          6    2    1    2  501    0 -0.11611784271E+03 -0.20171597015E+03 -0.21261177429E+03  0.35793216810E+03  0.16952576319E+03 0.  0.
         24    2    3    3    0    0 -0.13598091529E+03 -0.10819946420E+03 -0.12801666527E+03  0.23018906258E+03  0.80005028390E+02 0.  0.
         -6    2    1    2    0  502  0.11611784271E+03  0.20171597015E+03 -0.10476527792E+03  0.30822938747E+03  0.17279150973E+03 0.  0.
        -24    2    5    5    0    0  0.33473865098E+02  0.11312908668E+03  0.73303965516E+01  0.14310763483E+03  0.80668274656E+02 0.  0.
          5    1    3    3  501    0  0.19863072583E+02 -0.93516505957E+02 -0.84595109021E+02  0.12774310552E+03  0.47000000000E+01 0. -1.
        -13    1    4    4    0    0  0.48102590080E+01  0.57070944519E+01 -0.14902064018E+02  0.16666764257E+02  0.00000000000E+00 0.  1.
         14    1    4    4    0    0 -0.14079117430E+03 -0.11390655865E+03 -0.11311460125E+03  0.21352229832E+03  0.00000000000E+00 0. -1.
         -5    1    5    5    0  502  0.82643977612E+02  0.88586883470E+02 -0.11209567447E+03  0.16512175264E+03  0.47000000000E+01 0.  1.
         13    1    6    6    0    0 -0.22796721252E+02  0.64481394649E+02  0.31177581183E+00  0.68393259608E+02  0.00000000000E+00 0. -1.
        -14    1    6    6    0    0  0.56270586350E+02  0.48647692034E+02  0.70186207397E+01  0.74714375227E+02  0.00000000000E+00 0.  1.
</event>
<event>
12    1  0.8724767E-002  0.1793374E+03  0.7818608E-02  0.1169750E+00
         21   -1    0    0  503  502  0.00000000000E+00  0.00000000000E+00  0.26409831293E+03  0.26409831293E+03  0.00000000000E+00 0.  1.
         21   -1    0    0  501  503 -0.00000000000E+00 -0.00000000000E+00 -0.12236631695E+03  0.12236631695E+03  0.00000000000E+00 0.  1.
          6    2    1    2  501    0 -0.38611505203E+02  0.28530723581E+02  0.34281423000E+02  0.17740113218E+03  0.16730539505E+03 0.  0.
         24    2    3    3    0    0  0.15803006440E+02 -0.37397631252E+02  0.31296985534E+02  0.91736180680E+02  0.76076985392E+02 0.  0.
         -6    2    1    2    0  502  0.38611505203E+02 -0.28530723581E+02  0.10745057298E+03  0.20906349770E+03  0.17279198452E+03 0.  0.
        -24    2    5    5    0    0  0.69952048658E+02 -0.63829132211E+02  0.46175459894E+02  0.13157197042E+03  0.78813470128E+02 0.  0.
          5    1    3    3  501    0 -0.54414511643E+02  0.65928354833E+02  0.29844374661E+01  0.85664951499E+02  0.47000000000E+01 0. -1.
        -11    1    4    4    0    0  0.29683229818E+02 -0.50486629881E+02  0.43611852223E+01  0.58728305490E+02  0.00000000000E+00 0.  1.
         12    1    4    4    0    0 -0.13880223378E+02  0.13088998629E+02  0.26935800311E+02  0.33007875190E+02  0.00000000000E+00 0. -1.
         -5    1    5    5    0  502 -0.31340543455E+02  0.35298408631E+02  0.61275113085E+02  0.77491527275E+02  0.47000000000E+01 0.  1.
         13    1    6    6    0    0  0.38504480000E+02 -0.13270366972E+02 -0.17560365404E+02  0.44351595831E+02  0.00000000000E+00 0. -1.
        -14    1    6    6    0    0  0.31447568659E+02 -0.50558765240E+02  0.63735825298E+02  0.87220374590E+02  0.00000000000E+00 0.  1.
</event>
<event>
12    1  0.8724767E-002  0.1821455E+03  0.7818608E-02  0.1165756E+00
         21   -1    0    0  503  502  0.00000000000E+00  0.00000000000E+00  0.14393673952E+02  0.14393673952E+02  0.00000000000E+00 0. -1.
         21   -1    0    0  501  503 -0.00000000000E+00 -0.00000000000E+00 -0.24108238079E+04  0.24108238079E+04  0.00000000000E+00 0. -1.
          6    2    1    2  501    0  0.58944043459E+02 -0.12639396015E+02 -0.14529619324E+04  0.14643276767E+04  0.17182262113E+03 0.  0.
         24    2    3    3    0    0 -0.22697470349E+01  0.24523291738E+02 -0.11438951205E+04  0.11470382541E+04  0.81204469960E+02 0.  0.
         -6    2    1    2    0  502 -0.58944043459E+02  0.12639396015E+02 -0.94346820154E+03  0.96088980516E+03  0.17188023662E+03 0.  0.
        -24    2    5    5    0    0 -0.90285545996E+02  0.51043463220E+02 -0.62772590115E+03  0.64124554599E+03  0.79994551859E+02 0.  0.
          5    1    3    3  501    0  0.61213790494E+02 -0.37162687753E+02 -0.30906681191E+03  0.31728942266E+03  0.47000000000E+01 0. -1.
        -13    1    4    4    0    0 -0.22227960316E+02  0.46137180122E+01 -0.91794832136E+02  0.94560350150E+02  0.00000000000E+00 0.  1.
         14    1    4    4    0    0  0.19958213281E+02  0.19909573726E+02 -0.10521002884E+04  0.10524779039E+04  0.00000000000E+00 0. -1.
         -5    1    5    5    0  502  0.31341502537E+02 -0.38404067205E+02 -0.31574230039E+03  0.31964425917E+03  0.47000000000E+01 0.  1.
         11    1    6    6    0    0 -0.20641452697E+02  0.51089330325E+02 -0.18353165619E+03  0.19162478458E+03  0.00000000000E+00 0. -1.
        -12    1    6    6    0    0 -0.69644093299E+02 -0.45867104568E-01 -0.44419424496E+03  0.44962076141E+03  0.00000000000E+00 0.  1.
</event>
<event>
12    1  0.8724767E-002  0.1934533E+03  0.7818608E-02  0.1155721E+00
         21   -1    0    0  503  502  0.00000000000E+00  0.00000000000E+00  0.67246578003E+03  0.67246578003E+03  0.00000000000E+00 0.  1.
         21   -1    0    0  501  503 -0.00000000000E+00 -0.00000000000E+00 -0.65206988010E+02  0.65206988010E+02  0.00000000000E+00 0. -1.
          6    2    1    2  501    0 -0.74637698967E+02 -0.45970066779E+02  0.15821574620E+03  0.24873120771E+03  0.17073651688E+03 0.  0.
         24    2    3    3    0    0 -0.48253667840E+02 -0.92721937445E+02  0.79541105696E+02  0.15337061014E+03  0.79183220549E+02 0.  0.
         -6    2    1    2    0  502  0.74637698967E+02  0.45970066779E+02  0.44904304582E+03  0.48894156033E+03  0.17245335391E+03 0.  0.
        -24    2    5    5    0    0 -0.26224157605E+02  0.30080353517E+02  0.16155632946E+03  0.18382469881E+03  0.78093137960E+02 0.  0.
          5    1    3    3  501    0 -0.26384031127E+02  0.46751870666E+02  0.78674640505E+02  0.95360597564E+02  0.47000000000E+01 0. -1.
        -13    1    4    4    0    0 -0.27318787012E+02 -0.39122012408E+02  0.82983923865E+02  0.95724498425E+02  0.00000000000E+00 0.  1.
         14    1    4    4    0    0 -0.20934880828E+02 -0.53599925037E+02 -0.34428181686E+01  0.57646111718E+02  0.00000000000E+00 0. -1.
         -5    1    5    5    0  502  0.10086185657E+03  0.15889713262E+02  0.28748671636E+03  0.30511686152E+03  0.47000000000E+01 0.  1.
         13    1    6    6    0    0 -0.20590510531E+02  0.43629491199E+02  0.43810146043E+02  0.65167710735E+02  0.00000000000E+00 0. -1.
        -14    1    6    6    0    0 -0.56336470741E+01 -0.13549137681E+02  0.11774618341E+03  0.11865698808E+03  0.00000000000E+00 0.  1.
</event>
<event>
12    1  0.8724767E-002  0.2250227E+03  0.7818608E-02  0.1130971E+00
         21   -1    0    0  501  502  0.00000000000E+00  0.00000000000E+00  0.87027702708E+03  0.87027702708E+03  0.00000000000E+00 0. -1.
         21   -1    0    0  502  503 -0.00000000000E+00 -0.00000000000E+00 -0.97994594163E+02  0.97994594163E+02  0.00000000000E+00 0. -1.
         -6    2    1    2    0  503 -0.89612848927E+02 -0.11271619379E+03  0.75499485369E+02  0.23735077466E+03  0.17291562944E+03 0.  0.
        -24    2    3    3    0    0 -0.43427789782E+02 -0.14215247485E+03  0.47611047675E+02  0.17571142612E+03  0.80711798245E+02 0.  0.
          6    2    1    2  501    0  0.89612848927E+02  0.11271619379E+03  0.69678294755E+03  0.73092084659E+03  0.16734217921E+03 0.  0.
         24    2    5    5    0    0  0.67514583537E+02  0.79817920650E+02  0.25906429986E+03  0.29138662239E+03  0.82841612710E+02 0.  0.
          5    1    5    5  501    0  0.22098265390E+02  0.32898273139E+02  0.43771864769E+03  0.43953422420E+03  0.47000000000E+01 0. -1.
        -11    1    6    6    0    0 -0.16437878101E+02  0.17241631219E+02  0.84817078785E+02  0.88098890669E+02  0.00000000000E+00 0.  1.
         12    1    6    6    0    0  0.83952461638E+02  0.62576289431E+02  0.17424722107E+03  0.20328773172E+03  0.00000000000E+00 0. -1.
         -5    1    3    3    0  503 -0.46185059144E+02  0.29436281065E+02  0.27888437694E+02  0.61639348538E+02  0.47000000000E+01 0.  1.
         11    1    4    4    0    0  0.11569462697E+02 -0.80384133626E+02  0.19422033542E+01  0.81235666796E+02  0.00000000000E+00 0. -1.
        -12    1    4    4    0    0 -0.54997252479E+02 -0.61768341229E+02  0.45668844321E+02  0.94475759325E+02  0.00000000000E+00 0.  1.
</event>
<event>
12    1  0.8724767E-002  0.2046831E+03  0.7818608E-02  0.1146074E+00
         21   -1    0    0  503  502  0.00000000000E+00  0.00000000000E+00  0.77427084746E+03  0.77427084746E+03  0.00000000000E+00 0. -1.
         21   -1    0    0  501  503 -0.00000000000E+00 -0.00000000000E+00 -0.56116024881E+02  0.56116024881E+02  0.00000000000E+00 0.  1.
          6    2    1    2  501    0 -0.10169870228E+03 -0.37065577872E+02  0.27410330828E+03  0.34143192650E+03  0.17241419233E+03 0.  0.
         24    2    3    3    0    0 -0.63503611276E+02 -0.17080207882E+02  0.52180853610E+02  0.11531260872E+03  0.79055133285E+02 0.  0.
         -6    2    1    2    0  502  0.10169870228E+03  0.37065577872E+02  0.44405151430E+03  0.48895494584E+03  0.17372020205E+03 0.  0.
        -24    2    5    5    0    0  0.76433112794E+02  0.30120337829E+02  0.12775891575E+03  0.17154403823E+03  0.79723026889E+02 0.  0.
          5    1    3    3  501    0 -0.38195091002E+02 -0.19985369990E+02  0.22192245467E+03  0.22611931779E+03  0.47000000000E+01 0. -1.
        -11    1    4    4    0    0  0.11005889379E+02  0.17365093434E+02  0.13280839597E+02  0.24475636281E+02  0.00000000000E+00 0.  1.
         12    1    4    4    0    0 -0.74509500655E+02 -0.34445301316E+02  0.38900014013E+02  0.90836972434E+02  0.00000000000E+00 0. -1.
         -5    1    5    5    0  502  0.25265589484E+02  0.69452400428E+01  0.31629259855E+03  0.31741090760E+03  0.47000000000E+01 0.  1.
         11    1    6    6    0    0 -0.18124499714E-01  0.57265965179E+01  0.75638652220E+02  0.75855124717E+02  0.00000000000E+00 0. -1.
        -12    1    6    6    0    0  0.76451237294E+02  0.24393741311E+02  0.52120263532E+02  0.95688913515E+02  0.00000000000E+00 0.  1.
</event>
<event>
12    1  0.8724767E-002  0.2025222E+03  0.7818608E-02  0.1148462E+00
         21   -1    0    0  503  502  0.00000000000E+00  0.00000000000E+00  0.15504844913E+03  0.15504844913E+03  0.00000000000E+00 0.  1.
         21   -1    0    0  501  503 -0.00000000000E+00 -0.00000000000E+00 -0.36548238846E+03  0.36548238846E+03  0.00000000000E+00 0.  1.
          6    2    1    2  501    0 -0.91035808314E+02  0.51815478375E+02 -0.24619416366E+03  0.31878957044E+03  0.17332876796E+03 0.  0.
         24    2    3    3    0    0 -0.83959422576E+02  0.47211830495E+02 -0.73909442920E+02  0.14623411903E+03  0.81508712651E+02 0.  0.
         -6    2    1    2    0  502  0.91035808314E+02 -0.51815478375E+02  0.35760224329E+02  0.20174126715E+03  0.16866648461E+03 0.  0.
        -24    2    5    5    0    0  0.98049177345E+01 -0.52796599308E+02 -0.26256201194E+02  0.99430235399E+02  0.79456694496E+02 0.  0.
          5    1    3    3  501    0 -0.70763857377E+01  0.46036478801E+01 -0.17228472074E+03  0.17255545141E+03  0.47000000000E+01 0. -1.
        -11    1    4    4    0    0 -0.75127698976E+02  0.47217799659E+02 -0.90934769025E+02  0.12705441344E+03  0.00000000000E+00 0.  1.
         12    1    4    4    0    0 -0.88317236003E+01 -0.59691644561E-02  0.17025326105E+02  0.19179705586E+02  0.00000000000E+00 0. -1.
         -5    1    5    5    0  502  0.81230890579E+02  0.98112093276E+00  0.62016425523E+02  0.10231103175E+03  0.47000000000E+01 0.  1.
         11    1    6    6    0    0 -0.21488832884E+01  0.11340294864E+02 -0.31920781279E+02  0.33943427412E+02  0.00000000000E+00 0. -1.
        -12    1    6    6    0    0  0.11953801023E+02 -0.64136894171E+02  0.56645800857E+01  0.65486807987E+02  0.00000000000E+00 0.  1.
</event>
<event>
12    1  0.8724767E-002  0.2057079E+03  0.7818608E-02  0.1145804E+00
         21   -1    0    0  503  502  0.00000000000E+00  0.00000000000E+00  0.25702174350E+03  0.25702174350E+03  0.00000000000E+00 0. -1.
         21   -1    0    0  501  503 -0.00000000000E+00 -0.00000000000E+00 -0.17737575474E+03  0.17737575474E+03  0.00000000000E+00 0.  1.
          6    2    1    2  501    0  0.11003711239E+03  0.93457046505E+01 -0.25368704372E+02  0.20343463666E+03  0.16895730802E+03 0.  0.
         24    2    3    3    0    0  0.14104624866E+03  0.25875681362E+02 -0.33479042818E+02  0.16706604785E+03  0.78908953170E+02 0.  0.
         -6    2    1    2    0  502 -0.11003711239E+03 -0.93457046505E+01  0.10501469313E+03  0.23096286159E+03  0.17355186360E+03 0.  0.
        -24    2    5    5    0    0 -0.12348467636E+03 -0.67536130896E+01  0.13359414576E+03  0.19892489930E+03  0.80185055940E+02 0.  0.
          5    1    3    3  501    0 -0.31009136267E+02 -0.16529976711E+02  0.81103384464E+01  0.36368588807E+02  0.47000000000E+01 0. -1.
        -11    1    4    4    0    0  0.66340460040E+02  0.42372249991E+02 -0.43450685148E+02  0.89913437524E+02  0.00000000000E+00 0.  1.
         12    1    4    4    0    0  0.74705788618E+02 -0.16496568630E+02  0.99716423296E+01  0.77152610328E+02  0.00000000000E+00 0. -1.
         -5    1    5    5    0  502  0.13447563968E+02 -0.25920915609E+01 -0.28579452623E+02  0.32037962288E+02  0.47000000000E+01 0.  1.
         13    1    6    6    0    0 -0.36973376984E+02 -0.34809965250E+01  0.98928397397E+02  0.10566918072E+03  0.00000000000E+00 0. -1.
        -14    1    6    6    0    0 -0.86511299375E+02 -0.32726165646E+01  0.34665748359E+02  0.93255718580E+02  0.00000000000E+00 0.  1.
</event>
<event>
12    1  0.8724767E-002  0.2163810E+03  0.7818608E-02  0.1137066E+00
         21   -1    0    0  503  502  0.00000000000E+00  0.00000000000E+00  0.76645553634E+02  0.76645553634E+02  0.00000000000E+00 0.  1.
         21   -1    0    0  501  503 -0.00000000000E+00 -0.00000000000E+00 -0.12212646752E+04  0.12212646752E+04  0.00000000000E+00 0.  1.
          6    2    1    2  501    0  0.44710762309E+02  0.11680269263E+03 -0.10320418025E+04  0.10539955500E+04  0.17365026934E+03 0.  0.
         24    2    3    3    0    0 -0.30229824152E+02  0.84895499965E+02 -0.44675398970E+03  0.46304878907E+03  0.81877747674E+02 0.  0.
         -6    2    1    2    0  502 -0.44710762309E+02 -0.11680269263E+03 -0.11257731903E+03  0.24391467879E+03  0.17657518653E+03 0.  0.
        -24    2    5    5    0    0  0.44185388537E+02 -0.59497023258E+02 -0.69295200255E+02  0.12953855723E+03  0.80536753689E+02 0.  0.
          5    1    3    3  501    0  0.74940586461E+02  0.31907192670E+02 -0.58528781280E+03  0.59094676093E+03  0.47000000000E+01 0. -1.
        -11    1    4    4    0    0  0.16736793818E+02  0.61401243747E+02 -0.31197639467E+03  0.31840148214E+03  0.00000000000E+00 0.  1.
         12    1    4    4    0    0 -0.46966617969E+02  0.23494256218E+02 -0.13477759503E+03  0.14464730693E+03  0.00000000000E+00 0. -1.
         -5    1    5    5    0  502 -0.88896150846E+02 -0.57305669376E+02 -0.43282118771E+02  0.11437612156E+03  0.47000000000E+01 0.  1.
         13    1    6    6    0    0  0.93718702528E+01  0.18832132409E+02 -0.31549674186E+01  0.21270519093E+02  0.00000000000E+00 0. -1.
        -14    1    6    6    0    0  0.34813518284E+02 -0.78329155667E+02 -0.66140232837E+02  0.10826803814E+03  0.00000000000E+00 0.  1.
</event>
<event>
12    1  0.8724767E-002  0.2056806E+03  0.7818608E-02  0.1145899E+00
         21   -1    0    0  503  502  0.00000000000E+00  0.00000000000E+00  0.19952472332E+02  0.19952472332E+02  0.00000000000E+00 0.  1.
         21   -1    0    0  501  503 -0.00000000000E+00 -0.00000000000E+00 -0.21266166921E+04  0.21266166921E+04  0.00000000000E+00 0. -1.
          6    2    1    2  501    0 -0.82381099862E+02  0.64711058667E+02 -0.12064810158E+04  0.12231871634E+04  0.17209366196E+03 0.  0.
         24    2    3    3    0    0 -0.11332012781E+03  0.22745972082E+02 -0.68838596073E+03  0.70245415308E+03  0.78789438636E+02 0.  0.
         -6    2    1    2    0  502  0.82381099862E+02 -0.64711058667E+02 -0.90018320391E+03  0.92338200098E+03  0.17700382030E+03 0.  0.
        -24    2    5    5    0    0  0.79074194535E+02 -0.93794325326E+02 -0.85915732742E+03  0.87276595052E+03  0.92298360870E+02 0.  0.
          5    1    3    3  501    0  0.30939027951E+02  0.41965086585E+02 -0.51809505509E+03  0.52073301033E+03  0.47000000000E+01 0. -1.
        -11    1    4    4    0    0 -0.47441121046E+02  0.48062139928E+02 -0.28107781693E+03  0.28907675180E+03  0.00000000000E+00 0.  1.
         12    1    4    4    0    0 -0.65879006767E+02 -0.25316167846E+02 -0.40730814380E+03  0.41337740128E+03  0.00000000000E+00 0. -1.
         -5    1    5    5    0  502  0.33069053269E+01  0.29083266659E+02 -0.41025876492E+02  0.50616050461E+02  0.47000000000E+01 0.  1.
         13    1    6    6    0    0 -0.14509350446E+02 -0.51006284502E+01 -0.23105534437E+03  0.23156664229E+03  0.00000000000E+00 0. -1.
        -14    1    6    6    0    0  0.93583544981E+02 -0.88693696876E+02 -0.62810198305E+03  0.64119930822E+03  0.00000000000E+00 0.  1.
</event>
<event>
12    1  0.8724767E-002  0.2060349E+03  0.7818608E-02  0.1144786E+00
         21   -1    0    0  503  502  0.00000000000E+00  0.00000000000E+00  0.31623284793E+03  0.31623284793E+03  0.00000000000E+00 0.  1.
         21   -1    0    0  501  503 -0.00000000000E+00 -0.00000000000E+00 -0.19186239927E+03  0.19186239927E+03  0.00000000000E+00 0.  1.
          6    2    1    2  501    0  0.11440065246E+03  0.74114200685E+01 -0.77180867612E+02  0.22001655109E+03  0.17119567167E+03 0.  0.
         24    2    3    3    0    0  0.82589430814E+02 -0.12848405838E+02 -0.11742253223E+03  0.16466408105E+03  0.79624825899E+02 0.  0.
         -6    2    1    2    0  502 -0.11440065246E+03 -0.74114200685E+01  0.20155131627E+03  0.28807869612E+03  0.17095017881E+03 0.  0.
        -24    2    5    5    0    0 -0.95232374655E+01  0.35825713779E+02  0.11560416399E+03  0.14567881935E+03  0.80522182380E+02 0.  0.
          5    1    3    3  501    0  0.31811221644E+02  0.20259825907E+02  0.40241664613E+02  0.55352470036E+02  0.47000000000E+01 0. -1.
        -11    1    4    4    0    0  0.63027729616E+02  0.22632926676E+02 -0.42003357960E+02  0.79050782098E+02  0.00000000000E+00 0.  1.
         12    1    4    4    0    0  0.19561701198E+02 -0.35481332514E+02 -0.75419174265E+02  0.85613298953E+02  0.00000000000E+00 0. -1.
         -5    1    5    5    0  502 -0.10487741499E+03 -0.43237133848E+02  0.85947152281E+02  0.14239987677E+03  0.47000000000E+01 0.  1.
         13    1    6    6    0    0  0.82270176999E+01  0.25781438429E+02  0.12147708533E+03  0.12445500652E+03  0.00000000000E+00 0. -1.
        -14    1    6    6    0    0 -0.17750255165E+02  0.10044275350E+02 -0.58729213432E+01  0.21223812826E+02  0.00000000000E+00 0.  1.
</event>
<event>
12    1  0.8724767E-002  0.3010302E+03  0.7818608E-02  0.1086556E+00
         21   -1    0    0  503  502  0.00000000000E+00  0.00000000000E+00  0.67675703325E+03  0.67675703325E+03  0.00000000000E+00 0. -1.
         21   -1    0    0  501  503 -0.00000000000E+00 -0.00000000000E+00 -0.13895259997E+03  0.13895259997E+03  0.00000000000E+00 0.  1.
          6    2    1    2  501    0 -0.48977046865E+02 -0.22459511910E+03  0.14637473601E+03  0.32191170109E+03  0.17134719523E+03 0.  0.
         24    2    3    3    0    0  0.32809111825E+02 -0.14056122185E+03  0.55474234227E+02  0.17346756054E+03  0.78611125100E+02 0.  0.
         -6    2    1    2    0  502  0.48977046865E+02  0.22459511910E+03  0.39142969726E+03  0.49379793213E+03  0.19436427458E+03 0.  0.
        -24    2    5    5    0    0 -0.58698754965E+01  0.16194264842E+03  0.36454771324E+03  0.40617231921E+03  0.76295745924E+02 0.  0.
          5    1    3    3  501    0 -0.81786158690E+02 -0.84033897251E+02  0.90900501780E+02  0.14844414055E+03  0.47000000000E+01 0. -1.
        -13    1    4    4    0    0  0.48363756711E+01 -0.20918458507E+02 -0.19939108692E+02  0.29300861615E+02  0.00000000000E+00 0.  1.
         14    1    4    4    0    0  0.27972736154E+02 -0.11964276334E+03  0.75413342920E+02  0.14416669892E+03  0.00000000000E+00 0. -1.
         -5    1    5    5    0  502  0.54846922362E+02  0.62652470676E+02  0.26881984020E+02  0.87625612918E+02  0.47000000000E+01 0.  1.
         13    1    6    6    0    0  0.10900068349E+02  0.52432995428E+02  0.20536075117E+03  0.21222881195E+03  0.00000000000E+00 0. -1.
        -14    1    6    6    0    0 -0.16769943845E+02  0.10950965300E+03  0.15918696207E+03  0.19394350726E+03  0.00000000000E+00 0.  1.
</event>
<event>
12    1  0.8724767E-002  0.1993367E+03  0.7818608E-02  0.1150624E+00
         21   -1    0    0  503  502  0.00000000000E+00  0.00000000000E+00  0.43909397523E+02  0.43909397523E+02  0.00000000000E+00 0. -1.
         21   -1    0    0  501  503 -0.00000000000E+00 -0.00000000000E+00 -0.10682232469E+04  0.10682232469E+04  0.00000000000E+00 0.  1.
          6    2    1    2  501    0  0.28845351416E+01  0.10051915892E+03 -0.73575530437E+03  0.76228012337E+03  0.17211245372E+03 0.  0.
         24    2    3    3    0    0 -0.19545068559E+02  0.96659408153E+02 -0.29369347935E+03  0.31960786093E+03  0.78538360464E+02 0.  0.
         -6    2    1    2    0  502 -0.28845351416E+01 -0.10051915892E+03 -0.28855854497E+03  0.34985252101E+03  0.17034767604E+03 0.  0.
        -24    2    5    5    0    0  0.16754230441E+02 -0.37515886973E+00 -0.65801980672E+02  0.10478706282E+03  0.79809666665E+02 0.  0.
          5    1    3    3  501    0  0.22429603701E+02  0.38597507681E+01 -0.44206182502E+03  0.44267226244E+03  0.47000000000E+01 0. -1.
        -11    1    4    4    0    0  0.11444936716E+02  0.50013783622E+02 -0.22600798318E+03  0.23175843801E+03  0.00000000000E+00 0.  1.
         12    1    4    4    0    0 -0.30990005275E+02  0.46645624531E+02 -0.67685496171E+02  0.87849422917E+02  0.00000000000E+00 0. -1.
         -5    1    5    5    0  502 -0.19638765582E+02 -0.10014400005E+03 -0.22275656430E+03  0.24506545819E+03  0.47000000000E+01 0.  1.
         13    1    6    6    0    0  0.26553206014E+02 -0.28275865959E+02 -0.76331117704E+01  0.39533046185E+02  0.00000000000E+00 0. -1.
        -14    1    6    6    0    0 -0.97989755733E+01  0.27900707089E+02 -0.58168868902E+02  0.65254016640E+02  0.00000000000E+00 0.  1.
</event>
<event>
12    1  0.8724767E-002  0.3307799E+03  0.7818608E-02  0.1070885E+00
         21   -1    0    0  503  502  0.00000000000E+00  0.00000000000E+00  0.16024107905E+03  0.16024107905E+03  0.00000000000E+00 0.  1.
         21   -1    0    0  501  503 -0.00000000000E+00 -0.00000000000E+00 -0.93401401632E+03  0.93401401632E+03  0.00000000000E+00 0. -1.
          6    2    1    2  501    0 -0.17259035295E+03  0.22264899393E+03 -0.67124486134E+03  0.74794978506E+03  0.17175334836E+03 0.  0.
         24    2    3    3    0    0 -0.16526999618E+03  0.23914537606E+03 -0.66151644923E+03  0.72691528367E+03  0.79354486329E+02 0.  0.
         -6    2    1    2    0  502  0.17259035295E+03 -0.22264899393E+03 -0.10252807594E+03  0.34630531031E+03  0.17336480949E+03 0.  0.
        -24    2    5    5    0    0  0.13006378230E+03 -0.14757050280E+03 -0.13777213331E+03  0.25298048714E+03  0.79525627274E+02 0.  0.
          5    1    3    3  501    0 -0.73203567659E+01 -0.16496382133E+02 -0.97284121093E+01  0.21034501393E+02  0.47000000000E+01 0. -1.
        -11    1    4    4    0    0  0.32664384219E+01  0.41280806920E+02 -0.92992982336E+02  0.10179621508E+03  0.00000000000E+00 0.  1.
         12    1    4    4    0    0 -0.16853643460E+03  0.19786456914E+03 -0.56852346689E+03  0.62511906859E+03  0.00000000000E+00 0. -1.
         -5    1    5    5    0  502  0.42526570644E+02 -0.75078491129E+02  0.35244057368E+02  0.93324823176E+02  0.47000000000E+01 0.  1.
         11    1    6    6    0    0  0.35557016997E+02 -0.98915844723E+02 -0.79241732515E+02  0.13163547382E+03  0.00000000000E+00 0. -1.
        -12    1    6    6    0    0  0.94506765304E+02 -0.48654658076E+02 -0.58530400790E+02  0.12134501332E+03  0.00000000000E+00 0.  1.
</event>
<event>
12    1  0.8724767E-002  0.1957674E+03  0.7818608E-02  0.1153894E+00
         21   -1    0    0  501  502  0.00000000000E+00  0.00000000000E+00  0.15175067163E+03  0.15175067163E+03  0.00000000000E+00 0.  1.
         21   -1    0    0  502  503 -0.00000000000E+00 -0.00000000000E+00 -0.56424579031E+03  0.56424579031E+03  0.00000000000E+00 0.  1.
         -6    2    1    2    0  503  0.24419878015E+02  0.85302490693E+02 -0.47423571286E+03  0.51305398281E+03  0.17450510755E+03 0.  0.
        -24    2    3    3    0    0 -0.60930667863E+01  0.16117551804E+01 -0.35549667362E+03  0.36454058795E+03  0.80450183927E+02 0.  0.
          6    2    1    2  501    0 -0.24419878015E+02 -0.85302490693E+02  0.61740594189E+02  0.20294247912E+03  0.17175827055E+03 0.  0.
         24    2    5    5    0    0 -0.49528764728E+01 -0.42935071736E+02  0.10544956726E+03  0.13886029233E+03  0.79338629812E+02 0.  0.
          5    1    5    5  501    0 -0.19467001543E+02 -0.42367418957E+02 -0.43708973066E+02  0.64082186797E+02  0.47000000000E+01 0. -1.
        -13    1    6    6    0    0 -0.28630776482E+02 -0.21427044956E+02  0.10026925344E+03  0.10645544985E+03  0.00000000000E+00 0.  1.
         14    1    6    6    0    0  0.23677900009E+02 -0.21508026780E+02  0.51803138176E+01  0.32404842478E+02  0.00000000000E+00 0. -1.
         -5    1    3    3    0  503  0.30512944802E+02  0.83690735512E+02 -0.11873903925E+03  0.14851339486E+03  0.47000000000E+01 0.  1.
         11    1    4    4    0    0 -0.15671694860E+02  0.11658662236E+01 -0.94013914876E+01  0.18312493706E+02  0.00000000000E+00 0. -1.
        -12    1    4    4    0    0  0.95786280736E+01  0.44588895684E+00 -0.34609528213E+03  0.34622809425E+03  0.00000000000E+00 0.  1.
</event>
<event>
12    1  0.8724767E-002  0.1877763E+03  0.7818608E-02  0.1160761E+00
         21   -1    0    0  501  502  0.00000000000E+00  0.00000000000E+00  0.19283768436E+02  0.19283768436E+02  0.00000000000E+00 0.  1.
         21   -1    0    0  502  503 -0.00000000000E+00 -0.00000000000E+00 -0.18169896613E+04  0.18169896613E+04  0.00000000000E+00 0.  1.
         -6    2    1    2    0  503 -0.28598727492E+00  0.74551925129E+02 -0.90812222062E+03  0.92708749434E+03  0.17101807870E+03 0.  0.
        -24    2    3    3    0    0 -0.40897708907E+02  0.20150645622E+02 -0.74138728170E+03  0.74700017939E+03  0.79218024702E+02 0.  0.
          6    2    1    2  501    0  0.28598727492E+00 -0.74551925129E+02 -0.88958367227E+03  0.90918593543E+03  0.17234234499E+03 0.  0.
         24    2    5    5    0    0  0.55552974223E+01 -0.33367778157E+02 -0.83971058202E+03  0.84412200746E+03  0.79270624902E+02 0.  0.
          5    1    5    5  501    0 -0.52693101474E+01 -0.41184146973E+02 -0.49873090250E+02  0.65063927967E+02  0.47000000000E+01 0. -1.
        -11    1    6    6    0    0  0.32276628333E+02  0.90209672117E+01 -0.44170291039E+03  0.44297248180E+03  0.00000000000E+00 0.  1.
         12    1    6    6    0    0 -0.26721330911E+02 -0.42388745368E+02 -0.39800767163E+03  0.40114952566E+03  0.00000000000E+00 0. -1.
         -5    1    3    3    0  503  0.40611721632E+02  0.54401279508E+02 -0.16673493893E+03  0.18008731495E+03  0.47000000000E+01 0.  1.
         11    1    4    4    0    0 -0.52050845253E+02  0.38289811316E+02 -0.42358221474E+03  0.42848254665E+03  0.00000000000E+00 0. -1.
        -12    1    4    4    0    0  0.11153136346E+02 -0.18139165695E+02 -0.31780506696E+03  0.31851763274E+03  0.00000000000E+00 0.  1.
</event>
<event>
12    1  0.8724767E-002  0.1850423E+03  0.7818608E-02  0.1164171E+00
         21   -1    0    0  501  502  0.00000000000E+00  0.00000000000E+00  0.13692843084E+04  0.13692843084E+04  0.00000000000E+00 0.  1.
         21   -1    0    0  502  503 -0.00000000000E+00 -0.00000000000E+00 -0.29344786018E+02  0.29344786018E+02  0.00000000000E+00 0.  1.
         -6    2    1    2    0  503  0.96867348852E+01  0.66571832299E+02  0.38888629615E+03  0.43066598091E+03  0.17238037619E+03 0.  0.
        -24    2    3    3    0    0  0.43233960014E+02 -0.18010287878E+02  0.18304804885E+03  0.20556372544E+03  0.80971051997E+02 0.  0.
          6    2    1    2  501    0 -0.96867348852E+01 -0.66571832299E+02  0.95105322625E+03  0.96796311352E+03  0.16710687685E+03 0.  0.
         24    2    5    5    0    0 -0.60007209987E+02 -0.38696780876E+02  0.78926401536E+03  0.79618707484E+03  0.76667242628E+02 0.  0.
          5    1    5    5  501    0  0.50320475102E+02 -0.27875051423E+02  0.16178921088E+03  0.17177603868E+03  0.47000000000E+01 0. -1.
        -13    1    6    6    0    0 -0.33335793646E+02 -0.55895301069E+02  0.65491211482E+03  0.65813785634E+03  0.00000000000E+00 0.  1.
         14    1    6    6    0    0 -0.26671416341E+02  0.17198520193E+02  0.13435190055E+03  0.13804921850E+03  0.00000000000E+00 0. -1.
         -5    1    3    3    0  503 -0.33547225129E+02  0.84582120177E+02  0.20583824729E+03  0.22510225547E+03  0.47000000000E+01 0.  1.
         11    1    4    4    0    0 -0.21266455431E+02 -0.12583754444E+02  0.81294851551E+02  0.84967440182E+02  0.00000000000E+00 0. -1.
        -12    1    4    4    0    0  0.64500415444E+02 -0.54265334331E+01  0.10175319730E+03  0.12059628526E+03  0.00000000000E+00 0.  1.
</event>
<event>
12    1  0.8724767E-002  0.1772670E+03  0.7818608E-02  0.1170706E+00
         21   -1    0    0  501  502  0.00000000000E+00  0.00000000000E+00  0.70503053841E+02  0.70503053841E+02  0.00000000000E+00 0. -1.
         21   -1    0    0  502  503 -0.00000000000E+00 -0.00000000000E+00 -0.51843344945E+03  0.51843344945E+03  0.00000000000E+00 0. -1.
         -6    2    1    2    0  503 -0.26453605919E+02  0.30541706018E+02 -0.33653067285E+03  0.38036362241E+03  0.17260070222E+03 0.  0.
        -24    2    3    3    0    0  0.55973252173E+01 -0.20227258008E+02 -0.29718436090E+03  0.30842634306E+03  0.79798450581E+02 0.  0.
          6    2    1    2  501    0  0.26453605919E+02 -0.30541706018E+02 -0.11139972276E+03  0.20857288089E+03  0.17163962054E+03 0.  0.
         24    2    5    5    0    0  0.20264859532E+02 -0.38827617381E+02 -0.14591978442E+03  0.17223169810E+03  0.80330106069E+02 0.  0.
          5    1    5    5  501    0  0.61887463872E+01  0.82859113630E+01  0.34520061665E+02  0.36341182787E+02  0.47000000000E+01 0. -1.
        -11    1    6    6    0    0  0.18519917023E+02 -0.58696175874E+02 -0.67642896561E+02  0.91453757954E+02  0.00000000000E+00 0.  1.
         12    1    6    6    0    0  0.17449425092E+01  0.19868558493E+02 -0.78276887861E+02  0.80777940146E+02  0.00000000000E+00 0. -1.
         -5    1    3    3    0  503 -0.32050931136E+02  0.50768964026E+02 -0.39346311953E+02  0.71937279343E+02  0.47000000000E+01 0.  1.
         13    1    4    4    0    0 -0.11992565742E+02  0.23912123444E+02 -0.17997368134E+03  0.18195091991E+03  0.00000000000E+00 0. -1.
        -14    1    4    4    0    0  0.17589890959E+02 -0.44139381451E+02 -0.11721067956E+03  0.12647542315E+03  0.00000000000E+00 0.  1.
</event>
<event>
12    1  0.8724767E-002  0.1758276E+03  0.7818608E-02  0.1172087E+00
         21   -1    0    0  503  502  0.00000000000E+00  0.00000000000E+00  0.32131166673E+03  0.32131166673E+03  0.00000000000E+00 0.  1.
         21   -1    0    0  501  503 -0.00000000000E+00 -0.00000000000E+00 -0.22902807772E+03  0.22902807772E+03  0.00000000000E+00 0.  1.
          6    2    1    2  501    0 -0.15801393053E+02  0.29447523686E+02 -0.16375964190E+03  0.23973792060E+03  0.17187265514E+03 0.  0.
         24    2    3    3    0    0 -0.66519585096E+02  0.48169192255E+02 -0.75299425566E+02  0.13595865604E+03  0.77907806916E+02 0.  0.
         -6    2    1    2    0  502  0.15801393053E+02 -0.29447523686E+02  0.25604323091E+03  0.31060182385E+03  0.17262246727E+03 0.  0.
        -24    2    5    5    0    0  0.15031375422E+02 -0.81312769759E+02  0.12393957731E+03  0.16860160564E+03  0.78916245641E+02 0.  0.
          5    1    3    3  501    0  0.50718192043E+02 -0.18721668569E+02 -0.88460216336E+02  0.10377926456E+03  0.47000000000E+01 0. -1.
        -11    1    4    4    0    0  0.13924602038E+02  0.21578905560E+02 -0.56869492896E+01  0.26303708851E+02  0.00000000000E+00 0.  1.
         12    1    4    4    0    0 -0.80444187134E+02  0.26590286695E+02 -0.69612476276E+02  0.10965494719E+03  0.00000000000E+00 0. -1.
         -5    1    5    5    0  502  0.77001763029E+00  0.51865246073E+02  0.13210365360E+03  0.14200021821E+03  0.47000000000E+01 0.  1.
         11    1    6    6    0    0  0.15403162317E+02 -0.22465308784E+02 -0.42322175919E+01  0.27565543235E+02  0.00000000000E+00 0. -1.
        -12    1    6    6    0    0 -0.37178689472E+00 -0.58847460975E+02  0.12817179490E+03  0.14103606240E+03  0.00000000000E+00 0.  1.
</event>
<event>
12    1  0.8724767E-002  0.2253813E+03  0.7818608E-02  0.1130032E+00
         21   -1    0    0  501  502  0.00000000000E+00  0.00000000000E+00  0.88743317699E+02  0.88743317699E+02  0.00000000000E+00 0.  1.
         21   -1    0    0  502  503 -0.00000000000E+00 -0.00000000000E+00 -0.65317966232E+03  0.65317966232E+03  0.00000000000E+00 0.  1.
         -6    2    1    2    0  503 -0.66219908713E+02  0.12861474184E+03 -0.41409003125E+03  0.47145232939E+03  0.17282915487E+03 0.  0.
        -24    2    3    3    0    0  0.19587265953E+02  0.72255829088E+02 -0.13381336273E+03  0.17292879733E+03  0.79961159806E+02 0.  0.
          6    2    1    2  501    0  0.66219908713E+02 -0.12861474184E+03 -0.15034631337E+03  0.27047065063E+03  0.17211487670E+03 0.  0.
         24    2    5    5    0    0  0.64708784341E+02 -0.14468692101E+03 -0.16928709012E+03  0.24514395593E+03  0.79472689431E+02 0.  0.
          5    1    5    5  501    0  0.15111243723E+01  0.16072179170E+02  0.18940776756E+02  0.25326694697E+02  0.47000000000E+01 0. -1.
        -13    1    6    6    0    0  0.63392971675E+02 -0.46158867358E+02 -0.82724354519E+02  0.11398521274E+03  0.00000000000E+00 0.  1.
         14    1    6    6    0    0  0.13158126658E+01 -0.98528053654E+02 -0.86562735603E+02  0.13115874319E+03  0.00000000000E+00 0. -1.
         -5    1    3    3    0  503 -0.85807174666E+02  0.56358912753E+02 -0.28027666853E+03  0.29852353206E+03  0.47000000000E+01 0.  1.
         11    1    4    4    0    0  0.39999128675E+02  0.45330972448E+02 -0.12366327892E+03  0.13764967821E+03  0.00000000000E+00 0. -1.
        -12    1    4    4    0    0 -0.20411862722E+02  0.26924856641E+02 -0.10150083810E+02  0.35279119126E+02  0.00000000000E+00 0.  1.
</event>
<event>
12    1  0.8724767E-002  0.2053996E+03  0.7818608E-02  0.1145719E+00
         21   -1    0    0  503  502  0.00000000000E+00  0.00000000000E+00  0.40855514455E+03  0.40855514455E+03  0.00000000000E+00 0. -1.
         21   -1    0    0  501  503 -0.00000000000E+00 -0.00000000000E+00 -0.16413128433E+03  0.16413128433E+03  0.00000000000E+00 0. -1.
          6    2    1    2  501    0  0.10463537179E+03  0.26464101894E+02 -0.53341959003E+02  0.21221303425E+03  0.17475725335E+03 0.  0.
         24    2    3    3    0    0  0.10645822921E+02  0.51859349035E+00 -0.76787083101E+02  0.11181896797E+03  0.80583019185E+02 0.  0.
         -6    2    1    2    0  502 -0.10463537179E+03 -0.26464101894E+02  0.29776581923E+03  0.36047339463E+03  0.17212691660E+03 0.  0.
        -24    2    5    5    0    0  0.83412065773E+01  0.25998735021E+01  0.10323782895E+03  0.13359974934E+03  0.84347546664E+02 0.  0.
          5    1    3    3  501    0  0.93989548864E+02  0.25945508404E+02  0.23445124098E+02  0.10039406629E+03  0.47000000000E+01 0. -1.
        -13    1    4    4    0    0 -0.21702108675E+02  0.17815428257E+02 -0.68755929710E+02  0.74268087866E+02  0.00000000000E+00 0.  1.
         14    1    4    4    0    0  0.32347931597E+02 -0.17296834767E+02 -0.80311533911E+01  0.37550880101E+02  0.00000000000E+00 0. -1.
         -5    1    5    5    0  502 -0.11297657836E+03 -0.29063975396E+02  0.19452799028E+03  0.22687364528E+03  0.47000000000E+01 0.  1.
         11    1    6    6    0    0 -0.25405637209E+02  0.18777123828E+02  0.87451045647E+02  0.92982321793E+02  0.00000000000E+00 0. -1.
        -12    1    6    6    0    0  0.33746843787E+02 -0.16177250326E+02  0.15786783305E+02  0.40617427550E+02  0.00000000000E+00 0.  1.
</event>
<event>
12    1  0.8724767E-002  0.1804357E+03  0.7818608E-02  0.1168447E+00
         21   -1    0    0  503  502  0.00000000000E+00  0.00000000000E+00  0.54237456744E+03  0.54237456744E+03  0.00000000000E+00 0.  1.
         21   -1    0    0  501  503 -0.00000000000E+00 -0.00000000000E+00 -0.98104995884E+02  0.98104995884E+02  0.00000000000E+00 0.  1.
          6    2    1    2  501    0 -0.11278452938E+02  0.33220519370E+02  0.17270313436E+02  0.17692222682E+03  0.17254681744E+03 0.  0.
         24    2    3    3    0    0 -0.38274037600E+02 -0.28169049646E+02 -0.26506437570E+02  0.96697949298E+02  0.79934378422E+02 0.  0.
         -6    2    1    2    0  502  0.11278452938E+02 -0.33220519370E+02  0.42699925812E+03  0.46355733651E+03  0.17699217888E+03 0.  0.
        -24    2    5    5    0    0 -0.66959007640E+01  0.15098461415E+02  0.10278878772E+03  0.13523992848E+03  0.86322098852E+02 0.  0.
          5    1    3    3  501    0  0.26995584662E+02  0.61389569016E+02  0.43776751006E+02  0.80224277521E+02  0.47000000000E+01 0. -1.
        -11    1    4    4    0    0 -0.45899396736E+02  0.22586472921E+01 -0.41509096847E+02  0.61926256381E+02  0.00000000000E+00 0.  1.
         12    1    4    4    0    0  0.76253591363E+01 -0.30427696938E+02  0.15002659277E+02  0.34771692917E+02  0.00000000000E+00 0. -1.
         -5    1    5    5    0  502  0.17974353702E+02 -0.48318980784E+02  0.32421047040E+03  0.32831740803E+03  0.47000000000E+01 0.  1.
         11    1    6    6    0    0 -0.19950818266E+02 -0.16569009185E+02  0.97023342013E+02  0.10042955795E+03  0.00000000000E+00 0. -1.
        -12    1    6    6    0    0  0.13254917502E+02  0.31667470600E+02  0.57654457083E+01  0.34810370530E+02  0.00000000000E+00 0.  1.
</event>
<event>
12    1  0.8724767E-002  0.2420562E+03  0.7818608E-02  0.1118543E+00
         21   -1    0    0  503  502  0.00000000000E+00  0.00000000000E+00  0.51146960520E+03  0.51146960520E+03  0.00000000000E+00 0. -1.
         21   -1    0    0  501  503 -0.00000000000E+00 -0.00000000000E+00 -0.12245798786E+03  0.12245798786E+03  0.00000000000E+00 0.  1.
          6    2    1    2  501    0 -0.67988737525E+02  0.15552211445E+03  0.11261079863E+03  0.26696889208E+03  0.17257346509E+03 0.  0.
         24    2    3    3    0    0  0.10023823645E+02  0.33180897833E+02  0.62530528113E+01  0.87003914707E+02  0.79555838776E+02 0.  0.
         -6    2    1    2    0  502  0.67988737525E+02 -0.15552211445E+03  0.27640081871E+03  0.36695870099E+03  0.17161491525E+03 0.  0.
        -24    2    5    5    0    0 -0.19132676268E+02 -0.34481378211E+02  0.12767988438E+03  0.15629069944E+03  0.81053100562E+02 0.  0.
          5    1    3    3  501    0 -0.78012561170E+02  0.12234121662E+03  0.10635774582E+03  0.17996497737E+03  0.47000000000E+01 0. -1.
        -11    1    4    4    0    0 -0.80469330697E-01  0.49056151778E+02 -0.21428122347E+02  0.53532017801E+02  0.00000000000E+00 0.  1.
         12    1    4    4    0    0  0.10104292975E+02 -0.15875253945E+02  0.27681175158E+02  0.33471896906E+02  0.00000000000E+00 0. -1.
         -5    1    5    5    0  502  0.87121413793E+02 -0.12104073624E+03  0.14872093433E+03  0.21066800155E+03  0.47000000000E+01 0.  1.
         13    1    6    6    0    0 -0.18509286566E+02 -0.52410638653E+02  0.44510771160E+02  0.71208689655E+02  0.00000000000E+00 0. -1.
        -14    1    6    6    0    0 -0.62338970239E+00  0.17929260441E+02  0.83169113221E+02  0.85082009783E+02  0.00000000000E+00 0.  1.
</event>
<event>
12    1  0.8724767E-002  0.2069016E+03  0.7818608E-02  0.1145401E+00
         21   -1    0    0  503  502  0.00000000000E+00  0.00000000000E+00  0.66297222183E+03  0.66297222183E+03  0.00000000000E+00 0.  1.
         21   -1    0    0  501  503 -0.00000000000E+00 -0.00000000000E+00 -0.78478834153E+02  0.78478834153E+02  0.00000000000E+00 0. -1.
          6    2    1    2  501    0 -0.10479573590E+03  0.28660762082E+01  0.12888511504E+03  0.24376142272E+03  0.17837572053E+03 0.  0.
         24    2    3    3    0    0 -0.54832735787E+02 -0.62243439134E+02  0.37372974221E+02  0.12074877181E+03  0.79389243997E+02 0.  0.
         -6    2    1    2    0  502  0.10479573590E+03 -0.28660762082E+01  0.45560827264E+03  0.49768963326E+03  0.17066256855E+03 0.  0.
        -24    2    5    5    0    0  0.37621523965E+02 -0.56515743101E+02  0.19634617596E+03  0.22450547142E+03  0.85096871854E+02 0.  0.
          5    1    3    3  501    0 -0.49963000109E+02  0.65109515342E+02  0.91512140819E+02  0.12301265092E+03  0.47000000000E+01 0. -1.
        -11    1    4    4    0    0 -0.27611719843E+01 -0.58196646789E+02  0.32325612720E+01  0.58351719945E+02  0.00000000000E+00 0.  1.
         12    1    4    4    0    0 -0.52071563802E+02 -0.40467923453E+01  0.34140412948E+02  0.62397051865E+02  0.00000000000E+00 0. -1.
         -5    1    5    5    0  502  0.67174211930E+02  0.53649666893E+02  0.25926209668E+03  0.27318416184E+03  0.47000000000E+01 0.  1.
         13    1    6    6    0    0 -0.15173135411E+02 -0.47802533652E+02  0.12955408820E+03  0.13892288519E+03  0.00000000000E+00 0. -1.
        -14    1    6    6    0    0  0.52794659376E+02 -0.87132094491E+01  0.66792087766E+02  0.85582586229E+02  0.00000000000E+00 0.  1.
</event>
<event>
12    1  0.8724767E-002  0.2032741E+03  0.7818608E-02  0.1147895E+00
         21   -1    0    0  503  502  0.00000000000E+00  0.00000000000E+00  0.42394876636E+03  0.42394876636E+03  0.00000000000E+00 0.  1.
         21   -1    0    0  501  503 -0.00000000000E+00 -0.00000000000E+00 -0.13696369686E+03  0.13696369686E+03  0.00000000000E+00 0.  1.
          6    2    1    2  501    0  0.64182795433E+01  0.10154454193E+03 -0.11992720830E+02  0.19937673677E+03  0.17104025697E+03 0.  0.
         24    2    3    3    0    0 -0.98142806671E+01  0.81625580561E+01 -0.52507580061E+02  0.96191298157E+02  0.79578718375E+02 0.  0.
         -6    2    1    2    0  502 -0.64182795433E+01 -0.10154454193E+03  0.29897779033E+03  0.36153572645E+03  0.17597691349E+03 0.  0.
        -24    2    5    5    0    0 -0.19394272809E+02 -0.13932323898E+03  0.22230734231E+03  0.27495597159E+03  0.79957045528E+02 0.  0.
          5    1    3    3  501    0  0.16232560210E+02  0.93381983875E+02  0.40514859230E+02  0.10318543861E+03  0.47000000000E+01 0. -1.
        -13    1    4    4    0    0 -0.33324142750E+02 -0.80381566522E+01  0.23376123654E+01  0.34359494815E+02  0.00000000000E+00 0.  1.
         14    1    4    4    0    0  0.23509862083E+02  0.16200714708E+02 -0.54845192426E+02  0.61831803342E+02  0.00000000000E+00 0. -1.
         -5    1    5    5    0  502  0.12975993265E+02  0.37778697054E+02  0.76670448011E+02  0.86579754854E+02  0.47000000000E+01 0.  1.
         11    1    6    6    0    0 -0.40189298245E+02 -0.29240348676E+02  0.64560355299E+02  0.81475254896E+02  0.00000000000E+00 0. -1.
        -12    1    6    6    0    0  0.20795025436E+02 -0.11008289031E+03  0.15774698701E+03  0.19348071670E+03  0.00000000000E+00 0.  1.
</event>
<event>
12    1  0.8724767E-002  0.1920762E+03  0.7818608E-02  0.1156916E+00
         21   -1    0    0  501  502  0.00000000000E+00  0.00000000000E+00  0.88529520973E+03  0.88529520973E+03  0.00000000000E+00 0.  1.
         21   -1    0    0  502  503 -0.00000000000E+00 -0.00000000000E+00 -0.61153727959E+02  0.61153727959E+02  0.00000000000E+00 0.  1.
         -6    2    1    2    0  503  0.59232058217E+02 -0.57342336571E+02  0.14392749586E+03  0.24001749730E+03  0.17348398965E+03 0.  0.
        -24    2    3    3    0    0  0.13730601673E+02  0.25101297062E+02  0.11384461286E+03  0.14105081036E+03  0.78205694748E+02 0.  0.
          6    2    1    2  501    0 -0.59232058217E+02  0.57342336571E+02  0.68021398591E+03  0.70643144038E+03  0.17192362563E+03 0.  0.
         24    2    5    5    0    0 -0.80115877116E+02  0.76863335553E+02  0.65082651199E+03  0.66516502648E+03  0.80887808863E+02 0.  0.
          5    1    5    5  501    0  0.20883818898E+02 -0.19520998982E+02  0.29387473920E+02  0.41266413904E+02  0.47000000000E+01 0. -1.
        -11    1    6    6    0    0 -0.51984000474E+02  0.60228501688E+02  0.23593381638E+03  0.24898709692E+03  0.00000000000E+00 0.  1.
         12    1    6    6    0    0 -0.28131876642E+02  0.16634833865E+02  0.41489269562E+03  0.41617792957E+03  0.00000000000E+00 0. -1.
         -5    1    3    3    0  503  0.45501456544E+02 -0.82443633633E+02  0.30082882999E+02  0.98966686939E+02  0.47000000000E+01 0.  1.
         11    1    4    4    0    0  0.12172777148E+02  0.40530056126E+02  0.11769572365E+03  0.12507256021E+03  0.00000000000E+00 0. -1.
        -12    1    4    4    0    0  0.15578245249E+01 -0.15428759064E+02 -0.38511107924E+01  0.15978250149E+02  0.00000000000E+00 0.  1.
</event>
<event>
12    1  0.8724767E-002  0.2016740E+03  0.7818608E-02  0.1148335E+00
         21   -1    0    0  501  502  0.00000000000E+00  0.00000000000E+00  0.32363689905E+03  0.32363689905E+03  0.00000000000E+00 0. -1.
         21   -1    0    0  502  503 -0.00000000000E+00 -0.00000000000E+00 -0.23944552995E+03  0.23944552995E+03  0.00000000000E+00 0. -1.
         -6    2    1    2    0  503 -0.10523100026E+03  0.38817708762E+01  0.23616727476E+03  0.31055979819E+03  0.17199934600E+03 0.  0.
        -24    2    3    3    0    0 -0.10353325329E+03  0.42241329117E+01  0.25685240427E+03  0.28927684399E+03  0.83492257442E+02 0.  0.
          6    2    1    2  501    0  0.10523100026E+03 -0.38817708762E+01 -0.15197590566E+03  0.25252263082E+03  0.17199526625E+03 0.  0.
         24    2    5    5    0    0  0.44123231871E+02  0.62015069688E+02 -0.62023904169E+02  0.12528267826E+03  0.77820667725E+02 0.  0.
          5    1    5    5  501    0  0.61107768386E+02 -0.65896840564E+02 -0.89952001491E+02  0.12723995255E+03  0.47000000000E+01 0. -1.
        -11    1    6    6    0    0  0.13075988183E+02 -0.14739168128E+02  0.30975011179E+01  0.19945401908E+02  0.00000000000E+00 0.  1.
         12    1    6    6    0    0  0.31047243688E+02  0.76754237817E+02 -0.65121405287E+02  0.10533727636E+03  0.00000000000E+00 0. -1.
         -5    1    3    3    0  503 -0.16977469696E+01 -0.34236203555E+00 -0.20685129512E+02  0.21282954200E+02  0.47000000000E+01 0.  1.
         11    1    4    4    0    0 -0.64026078822E+01  0.56081682330E+01  0.12611033264E+03  0.12639723469E+03  0.00000000000E+00 0. -1.
        -12    1    4    4    0    0 -0.97130645405E+02 -0.13840353213E+01  0.13074207163E+03  0.16287960929E+03  0.00000000000E+00 0.  1.
</event>
<event>
12    1  0.8724767E-002  0.1921244E+03  0.7818608E-02  0.1156971E+00
         21   -1    0    0  503  502  0.00000000000E+00  0.00000000000E+00  0.19021822162E+03  0.19021822162E+03  0.00000000000E+00 0.  1.
         21   -1    0    0  501  503 -0.00000000000E+00 -0.00000000000E+00 -0.31247700405E+03  0.31247700405E+03  0.00000000000E+00 0. -1.
          6    2    1    2  501    0 -0.22571715053E+02  0.79359724257E+02 -0.21689282548E+03  0.28852846323E+03  0.17146057330E+03 0.  0.
         24    2    3    3    0    0 -0.52015892591E+02  0.19619792861E+02 -0.19624068195E+03  0.21863983735E+03  0.78755214902E+02 0.  0.
         -6    2    1    2    0  502  0.22571715053E+02 -0.79359724257E+02  0.94634043041E+02  0.21416676244E+03  0.17350605717E+03 0.  0.
        -24    2    5    5    0    0  0.14366212866E+02  0.25871777642E+02  0.36269275927E+02  0.93462432364E+02  0.80895172517E+02 0.  0.
          5    1    3    3  501    0  0.29444177539E+02  0.59739931396E+02 -0.20652143530E+02  0.69888625874E+02  0.47000000000E+01 0. -1.
        -13    1    4    4    0    0 -0.32301458899E+01 -0.12894221235E+02  0.54758845798E+00  0.13303933134E+02  0.00000000000E+00 0.  1.
         14    1    4    4    0    0 -0.48785746702E+02  0.32514014096E+02 -0.19678827040E+03  0.20533590422E+03  0.00000000000E+00 0. -1.
         -5    1    5    5    0  502  0.82055021869E+01 -0.10523150190E+03  0.58364767114E+02  0.12070433007E+03  0.47000000000E+01 0.  1.
         13    1    6    6    0    0  0.18243952839E+02 -0.14592374739E+02 -0.15204026604E+02  0.27873672895E+02  0.00000000000E+00 0. -1.
        -14    1    6    6    0    0 -0.38777399735E+01  0.40464152381E+02  0.51473302531E+02  0.65588759468E+02  0.00000000000E+00 0.  1.
</event>
<event>
12    1  0.8724767E-002  0.1729679E+03  0.7818608E-02  0.1175319E+00
         21   -1    0    0  501  502  0.00000000000E+00  0.00000000000E+00  0.14390699820E+03  0.14390699820E+03  0.00000000000E+00 0. -1.
         21   -1    0    0  502  503 -0.00000000000E+00 -0.00000000000E+00 -0.37773348836E+03  0.37773348836E+03  0.00000000000E+00 0. -1.
         -6    2    1    2    0  503  0.22758856782E+02 -0.24610751993E+01 -0.29269074671E+03  0.33893062226E+03  0.16935781956E+03 0.  0.
        -24    2    3    3    0    0 -0.85251525634E+00  0.18775781927E+02 -0.29451777032E+03  0.30677585581E+03  0.83770232810E+02 0.  0.
          6    2    1    2  501    0 -0.22758856782E+02  0.24610751993E+01  0.58864256546E+02  0.18270986430E+03  0.17144640959E+03 0.  0.
         24    2    5    5    0    0 -0.30976229737E+02 -0.21970296945E+02 -0.26369401045E+02  0.93539894301E+02  0.81315101659E+02 0.  0.
          5    1    5    5  501    0  0.82173729554E+01  0.24431372144E+02  0.85233657591E+02  0.89169969998E+02  0.47000000000E+01 0. -1.
        -13    1    6    6    0    0 -0.54979868995E+02  0.27594691465E+01 -0.12919369209E+02  0.56544767799E+02  0.00000000000E+00 0.  1.
         14    1    6    6    0    0  0.24003639258E+02 -0.24729766091E+02 -0.13450031836E+02  0.36995126502E+02  0.00000000000E+00 0. -1.
         -5    1    3    3    0  503  0.23611372038E+02 -0.21236857126E+02  0.18270236127E+01  0.32154766449E+02  0.47000000000E+01 0.  1.
         11    1    4    4    0    0 -0.41198822657E+02 -0.34063579403E+00 -0.13944315341E+03  0.14540237981E+03  0.00000000000E+00 0. -1.
        -12    1    4    4    0    0  0.40346307400E+02  0.19116417721E+02 -0.15507461691E+03  0.16137347600E+03  0.00000000000E+00 0.  1.
</event>
<event>
12    1  0.8724767E-002  0.1801022E+03  0.7818608E-02  0.1168121E+00
         21   -1    0    0  503  502  0.00000000000E+00  0.00000000000E+00  0.20821700720E+04  0.20821700720E+04  0.00000000000E+00 0.  1.
         21   -1    0    0  501  503 -0.00000000000E+00 -0.00000000000E+00 -0.25697337202E+02  0.25697337202E+02  0.00000000000E+00 0.  1.
          6    2    1    2  501    0 -0.43922875862E+02 -0.28293954462E+02  0.35911093884E+03  0.40097729723E+03  0.17056482527E+03 0.  0.
         24    2    3    3    0    0  0.14899664164E+02 -0.33061341843E+02  0.90592234200E+02  0.12600965561E+03  0.79727210498E+02 0.  0.
         -6    2    1    2    0  502  0.43922875862E+02  0.28293954462E+02  0.16973617960E+04  0.17068901120E+04  0.17235724839E+03 0.  0.
        -24    2    5    5    0    0  0.16397010145E+02 -0.57318931153E+01  0.37418745618E+03  0.38298382562E+03  0.79741092187E+02 0.  0.
          5    1    3    3  501    0 -0.58822540026E+02  0.47673873808E+01  0.26851870464E+03  0.27496764162E+03  0.47000000000E+01 0. -1.
        -11    1    4    4    0    0 -0.16862757124E+02 -0.49112942329E+02  0.51233309978E+02  0.72947143421E+02  0.00000000000E+00 0.  1.
         12    1    4    4    0    0  0.31762421287E+02  0.16051600486E+02  0.39358924223E+02  0.53062512192E+02  0.00000000000E+00 0. -1.
         -5    1    5    5    0  502  0.27525865717E+02  0.34025847577E+02  0.13231743398E+04  0.13239062864E+04  0.47000000000E+01 0.  1.
         13    1    6    6    0    0  0.46839394043E+02  0.22315032777E+01  0.27359949560E+03  0.27758889105E+03  0.00000000000E+00 0. -1.
        -14    1    6    6    0    0 -0.30442383898E+02 -0.79633963931E+01  0.10058796058E+03  0.10539493457E+03  0.00000000000E+00 0.  1.
</event>
<event>
12    1  0.8724767E-002  0.1844900E+03  0.7818608E-02  0.1163933E+00
         21   -1    0    0  503  502  0.00000000000E+00  0.00000000000E+00  0.30107818549E+02  0.30107818549E+02  0.00000000000E+00 0.  1.
         21   -1    0    0  501  503 -0.00000000000E+00 -0.00000000000E+00 -0.11207062082E+04  0.11207062082E+04  0.00000000000E+00 0.  1.
          6    2    1    2  501    0  0.13027868672E+02  0.61087179399E+02 -0.56285607906E+03  0.59232047108E+03  0.17359494771E+03 0.  0.
         24    2    3    3    0    0 -0.52199258928E+02  0.37650271645E+02 -0.43807453197E+03  0.44950453599E+03  0.77477265881E+02 0.  0.
         -6    2    1    2    0  502 -0.13027868672E+02 -0.61087179399E+02 -0.52774231058E+03  0.55849355566E+03  0.17176069542E+03 0.  0.
        -24    2    5    5    0    0  0.16278903832E+01  0.31871434892E+02 -0.30927627893E+03  0.32057425794E+03  0.78087129253E+02 0.  0.
          5    1    3    3  501    0  0.65227127600E+02  0.23436907754E+02 -0.12478154710E+03  0.14281593509E+03  0.47000000000E+01 0. -1.
        -13    1    4    4    0    0 -0.12339444905E+02  0.34117368438E+02 -0.35951113798E+03  0.36133712107E+03  0.00000000000E+00 0.  1.
         14    1    4    4    0    0 -0.39859814023E+02  0.35329032074E+01 -0.78563393985E+02  0.88167414919E+02  0.00000000000E+00 0. -1.
         -5    1    5    5    0  502 -0.14655759055E+02 -0.92958614291E+02 -0.21846603166E+03  0.23791929773E+03  0.47000000000E+01 0.  1.
         13    1    6    6    0    0  0.25243981664E+02  0.45925065462E+02 -0.14872461415E+03  0.15768760605E+03  0.00000000000E+00 0. -1.
        -14    1    6    6    0    0 -0.23616091281E+02 -0.14053630570E+02 -0.16055166478E+03  0.16288665189E+03  0.00000000000E+00 0.  1.
</event>
<event>
12    1  0.8724767E-002  0.1759192E+03  0.7818608E-02  0.1171868E+00
         21   -1    0    0  501  502  0.00000000000E+00  0.00000000000E+00  0.59204179666E+03  0.59204179666E+03  0.00000000000E+00 0.  1.
         21   -1    0    0  502  503 -0.00000000000E+00 -0.00000000000E+00 -0.73034545096E+02  0.73034545096E+02  0.00000000000E+00 0.  1.
         -6    2    1    2    0  503 -0.23168387768E+02 -0.30455361715E+02  0.82035144753E+02  0.19410650096E+03  0.17170691742E+03 0.  0.
        -24    2    3    3    0    0  0.49875434373E+02 -0.90005079722E+01  0.73451164201E+02  0.11735048866E+03  0.76206925990E+02 0.  0.
          6    2    1    2  501    0  0.23168387768E+02  0.30455361715E+02  0.43697210682E+03  0.47096984080E+03  0.17147497065E+03 0.  0.
         24    2    5    5    0    0  0.95620901934E+01  0.17731711566E+02  0.44314811356E+03  0.45078926434E+03  0.80155243910E+02 0.  0.
          5    1    5    5  501    0  0.13606297575E+02  0.12723650149E+02 -0.61760067491E+01  0.20180576458E+02  0.47000000000E+01 0. -1.
        -11    1    6    6    0    0  0.27539782859E+02 -0.24208742304E+02  0.21822988249E+03  0.22128891625E+03  0.00000000000E+00 0.  1.
         12    1    6    6    0    0 -0.17977692665E+02  0.41940453869E+02  0.22491823107E+03  0.22950034809E+03  0.00000000000E+00 0. -1.
         -5    1    3    3    0  503 -0.73043822141E+02 -0.21454853742E+02  0.85839805520E+01  0.76756012300E+02  0.47000000000E+01 0.  1.
         13    1    4    4    0    0  0.11523209964E+02  0.79198364572E+01 -0.14362461043E+02  0.20044661748E+02  0.00000000000E+00 0. -1.
        -14    1    4    4    0    0  0.38352224408E+02 -0.16920344429E+02  0.87813625244E+02  0.97305826912E+02  0.00000000000E+00 0.  1.
</event>
<event>
12    1  0.8724767E-002  0.1973189E+03  0.7818608E-02  0.1152068E+00
         21   -1    0    0  503  502  0.00000000000E+00  0.00000000000E+00  0.24507628142E+03  0.24507628142E+03  0.00000000000E+00 0.  1.
         21   -1    0    0  501  503 -0.00000000000E+00 -0.00000000000E+00 -0.21355557303E+03  0.21355557303E+03  0.00000000000E+00 0.  1.
          6    2    1    2  501    0  0.62929568346E+02 -0.73699679994E+02 -0.10047538967E+03  0.22123401781E+03  0.17163162093E+03 0.  0.
         24    2    3    3    0    0  0.93929502977E+02 -0.85443753958E+02 -0.44363259212E+02  0.15589199148E+03  0.78808804194E+02 0.  0.
         -6    2    1    2    0  502 -0.62929568346E+02  0.73699679994E+02  0.13199609806E+03  0.23739783664E+03  0.17188074218E+03 0.  0.
        -24    2    5    5    0    0 -0.16440551618E+02 -0.23273624904E+02  0.84876290527E+02  0.11989287163E+03  0.79739341731E+02 0.  0.
          5    1    3    3  501    0 -0.30999934631E+02  0.11744073963E+02 -0.56112130463E+02  0.65342026334E+02  0.47000000000E+01 0. -1.
        -11    1    4    4    0    0  0.23581088461E+02 -0.25326407586E+02 -0.52629597389E+02  0.62987055618E+02  0.00000000000E+00 0.  1.
         12    1    4    4    0    0  0.70348414516E+02 -0.60117346372E+02  0.82663381768E+01  0.92904935857E+02  0.00000000000E+00 0. -1.
         -5    1    5    5    0  502 -0.46489016728E+02  0.96973304899E+02  0.47119807537E+02  0.11750496501E+03  0.47000000000E+01 0.  1.
         11    1    6    6    0    0 -0.16419830309E+02  0.15048610609E+02 -0.44323410660E+01  0.22709406773E+02  0.00000000000E+00 0. -1.
        -12    1    6    6    0    0 -0.20721308424E-01 -0.38322235513E+02  0.89308631593E+02  0.97183464855E+02  0.00000000000E+00 0.  1.
</event>
<event>
12    1  0.8724767E-002  0.2089876E+03  0.7818608E-02  0.1142473E+00
         21   -1    0    0  501  502  0.00000000000E+00  0.00000000000E+00  0.58022403565E+02  0.58022403565E+02  0.00000000000E+00 0. -1.
         21   -1    0    0  502  503 -0.00000000000E+00 -0.00000000000E+00 -0.10084170007E+04  0.10084170007E+04  0.00000000000E+00 0.  1.
         -6    2    1    2    0  503 -0.11586966715E+03 -0.91671373438E+01 -0.74509949000E+03  0.77385338538E+03  0.17368360863E+03 0.  0.
        -24    2    3    3    0    0 -0.11975190740E+03 -0.59129352651E+02 -0.49518298340E+03  0.51891879571E+03  0.78953972745E+02 0.  0.
          6    2    1    2  501    0  0.11586966715E+03  0.91671373438E+01 -0.20529510710E+03  0.29258601884E+03  0.17306265122E+03 0.  0.
         24    2    5    5    0    0  0.11696369377E+03  0.62546232156E+02 -0.14981415568E+03  0.21544491030E+03  0.79872969842E+02 0.  0.
          5    1    5    5  501    0 -0.10940266216E+01 -0.53379094813E+02 -0.55480951415E+02  0.77141108542E+02  0.47000000000E+01 0. -1.
        -13    1    6    6    0    0  0.36870266766E+01 -0.13550814962E+02 -0.18585027976E+01  0.14165902177E+02  0.00000000000E+00 0.  1.
         14    1    6    6    0    0  0.11327666710E+03  0.76097047118E+02 -0.14795565289E+03  0.20127900812E+03  0.00000000000E+00 0. -1.
         -5    1    3    3    0  503  0.38822402523E+01  0.49962215308E+02 -0.24991650659E+03  0.25493458968E+03  0.47000000000E+01 0.  1.
         11    1    4    4    0    0 -0.19458935615E+01 -0.23527085170E+02 -0.32633888916E+02  0.40277548884E+02  0.00000000000E+00 0. -1.
        -12    1    4    4    0    0 -0.11780601384E+03 -0.35602267481E+02 -0.46254909449E+03  0.47864124682E+03  0.00000000000E+00 0.  1.
</event>
<event>
12    1  0.8724767E-002  0.2572973E+03  0.7818608E-02  0.1108786E+00
         21   -1    0    0  501  502  0.00000000000E+00  0.00000000000E+00  0.20105737566E+03  0.20105737566E+03  0.00000000000E+00 0.  1.
         21   -1    0    0  502  503 -0.00000000000E+00 -0.00000000000E+00 -0.33404861176E+03  0.33404861176E+03  0.00000000000E+00 0. -1.
         -6    2    1    2    0  503  0.14920561269E+02  0.19101722516E+03 -0.34273886607E+02  0.25952115689E+03  0.17165758973E+03 0.  0.
        -24    2    3    3    0    0 -0.32197233293E+02  0.18926547486E+03 -0.40548379414E+02  0.21172351622E+03  0.79527318828E+02 0.  0.
          6    2    1    2  501    0 -0.14920561269E+02 -0.19101722516E+03 -0.98717349494E+02  0.27558483052E+03  0.17173141898E+03 0.  0.
         24    2    5    5    0    0  0.51599313086E+02 -0.12276473081E+03 -0.36644906562E+02  0.16174997276E+03  0.84181567283E+02 0.  0.
          5    1    5    5  501    0 -0.66519874355E+02 -0.68252494355E+02 -0.62072442931E+02  0.11383485776E+03  0.47000000000E+01 0. -1.
        -13    1    6    6    0    0  0.13036216783E+02 -0.11550231707E+03 -0.15765516503E+02  0.11729995613E+03  0.00000000000E+00 0.  1.
         14    1    6    6    0    0  0.38563096304E+02 -0.72624137395E+01 -0.20879390059E+02  0.44450016637E+02  0.00000000000E+00 0. -1.
         -5    1    3    3    0  503  0.47117794562E+02  0.17517502985E+01  0.62744928074E+01  0.47797640668E+02  0.47000000000E+01 0.  1.
         11    1    4    4    0    0 -0.14200152931E+00  0.31968063344E+02 -0.39983180083E+02  0.51192108064E+02  0.00000000000E+00 0. -1.
        -12    1    4    4    0    0 -0.32055231764E+02  0.15729741152E+03 -0.56519933084E+00  0.16053140816E+03  0.00000000000E+00 0.  1.
</event>
<event>
12    1  0.8724767E-002  0.2101082E+03  0.7818608E-02  0.1141527E+00
         21   -1    0    0  501  502  0.00000000000E+00  0.00000000000E+00  0.55542719168E+03  0.55542719168E+03  0.00000000000E+00 0.  1.
         21   -1    0    0  502  503 -0.00000000000E+00 -0.00000000000E+00 -0.79513324129E+02  0.79513324129E+02  0.00000000000E+00 0.  1.
         -6    2    1    2    0  503  0.70684199697E+02  0.97505138607E+02  0.22532756540E+03  0.30792531332E+03  0.17187780167E+03 0.  0.
        -24    2    3    3    0    0  0.12907985535E+02  0.62088713581E+02  0.21700007224E+03  0.23948664569E+03  0.79013908039E+02 0.  0.
          6    2    1    2  501    0 -0.70684199697E+02 -0.97505138607E+02  0.25058630214E+03  0.32701520249E+03  0.17216834696E+03 0.  0.
         24    2    5    5    0    0 -0.24248942695E+02 -0.77315401119E+02  0.25217169349E+03  0.27613827198E+03  0.78077524165E+02 0.  0.
          5    1    5    5  501    0 -0.46435257003E+02 -0.20189737488E+02 -0.15853913470E+01  0.50876930513E+02  0.47000000000E+01 0. -1.
        -13    1    6    6    0    0 -0.59883444987E+01 -0.44329525620E+02  0.38061054555E+02  0.58733389017E+02  0.00000000000E+00 0.  1.
         14    1    6    6    0    0 -0.18260598196E+02 -0.32985875498E+02  0.21411063894E+03  0.21740488296E+03  0.00000000000E+00 0. -1.
         -5    1    3    3    0  503  0.57776214162E+02  0.35416425026E+02  0.83274931597E+01  0.68438667629E+02  0.47000000000E+01 0.  1.
         13    1    4    4    0    0 -0.60830508524E+01  0.23946564805E+02  0.76789136418E+01  0.25872904521E+02  0.00000000000E+00 0. -1.
        -14    1    4    4    0    0  0.18991036387E+02  0.38142148776E+02  0.20932115860E+03  0.21361374117E+03  0.00000000000E+00 0.  1.
</event>
<event>
12    1  0.8724767E-002  0.2638391E+03  0.7818608E-02  0.1104903E+00
         21   -1    0    0  503  502  0.00000000000E+00  0.00000000000E+00  0.12449467950E+03  0.12449467950E+03  0.00000000000E+00 0.  1.
         21   -1    0    0  501  503 -0.00000000000E+00 -0.00000000000E+00 -0.68938280477E+03  0.68938280477E+03  0.00000000000E+00 0.  1.
          6    2    1    2  501    0  0.15343505897E+03 -0.12926575161E+03 -0.10500208016E+03  0.28368292558E+03  0.17087601813E+03 0.  0.
         24    2    3    3    0    0  0.15884872220E+03 -0.10103037203E+03 -0.13239690884E+03  0.24369403902E+03  0.80111113886E+02 0.  0.
         -6    2    1    2    0  502 -0.15343505897E+03  0.12926575161E+03 -0.45988604511E+03  0.53019455869E+03  0.17134510126E+03 0.  0.
        -24    2    5    5    0    0 -0.13076997490E+03  0.11442765228E+03 -0.23499909907E+03  0.30363307978E+03  0.82304292925E+02 0.  0.
          5    1    3    3  501    0 -0.54136632301E+01 -0.28235379574E+02  0.27394828688E+02  0.39988886557E+02  0.47000000000E+01 0. -1.
        -13    1    4    4    0    0  0.12630428082E+03 -0.53469498416E+02 -0.56356910408E+02  0.14828304005E+03  0.00000000000E+00 0.  1.
         14    1    4    4    0    0  0.32544441373E+02 -0.47560873617E+02 -0.76039998436E+02  0.95410998976E+02  0.00000000000E+00 0. -1.
         -5    1    5    5    0  502 -0.22665084064E+02  0.14838099331E+02 -0.22488694604E+03  0.22656147891E+03  0.47000000000E+01 0.  1.
         11    1    6    6    0    0 -0.62754777774E+02  0.73468805645E+02 -0.66291380233E+02  0.11717668125E+03  0.00000000000E+00 0. -1.
        -12    1    6    6    0    0 -0.68015197128E+02  0.40958846631E+02 -0.16870771884E+03  0.18645639853E+03  0.00000000000E+00 0.  1.
</event>
<event>
12    1  0.8724767E-002  0.1833672E+03  0.7818608E-02  0.1164895E+00
         21   -1    0    0  501  502  0.00000000000E+00  0.00000000000E+00  0.25047525542E+03  0.25047525542E+03  0.00000000000E+00 0.  1.
         21   -1    0    0  502  503 -0.00000000000E+00 -0.00000000000E+00 -0.13906954474E+03  0.13906954474E+03  0.00000000000E+00 0. -1.
         -6    2    1    2    0  503 -0.64712828186E+00  0.67429477094E+02  0.95257845009E+02  0.20546796465E+03  0.16910314693E+03 0.  0.
        -24    2    3    3    0    0 -0.45845200232E+02  0.49319950143E+02  0.52556276105E+01  0.10303110697E+03  0.77804546877E+02 0.  0.
          6    2    1    2  501    0  0.64712828186E+00 -0.67429477094E+02  0.16147865671E+02  0.18407683552E+03  0.17051795991E+03 0.  0.
         24    2    5    5    0    0 -0.60606043621E+02 -0.26870022534E+02 -0.13938535515E+02  0.10455135558E+03  0.79634242308E+02 0.  0.
          5    1    5    5  501    0  0.61253171903E+02 -0.40559454561E+02  0.30086401185E+02  0.79525479934E+02  0.47000000000E+01 0. -1.
        -13    1    6    6    0    0 -0.26507173064E+02 -0.50730471314E+02  0.75147329418E+01  0.57729387271E+02  0.00000000000E+00 0.  1.
         14    1    6    6    0    0 -0.34098870557E+02  0.23860448780E+02 -0.21453268456E+02  0.46821968313E+02  0.00000000000E+00 0. -1.
         -5    1    3    3    0  503  0.45198071950E+02  0.18109526952E+02  0.90002217399E+02  0.10243685768E+03  0.47000000000E+01 0.  1.
         11    1    4    4    0    0 -0.42961067951E+02 -0.78930240779E+01  0.12133589347E+02  0.45334062017E+02  0.00000000000E+00 0. -1.
        -12    1    4    4    0    0 -0.28841322814E+01  0.57212974221E+02 -0.68779617361E+01  0.57697044949E+02  0.00000000000E+00 0.  1.
</event>
<event>
12    1  0.8724767E-002  0.2031944E+03  0.7818608E-02  0.1147282E+00
         21   -1    0    0  503  502  0.00000000000E+00  0.00000000000E+00  0.74438728457E+03  0.74438728457E+03  0.00000000000E+00 0.  1.
         21   -1    0    0  501  503 -0.00000000000E+00 -0.00000000000E+00 -0.63086792285E+02  0.63086792285E+02  0.00000000000E+00 0.  1.
          6    2    1    2  501    0  0.35437689351E+02 -0.10241259829E+03  0.19704703381E+03  0.28231755405E+03  0.17067951745E+03 0.  0.
         24    2    3    3    0    0  0.85863063355E+02 -0.47073361599E+02  0.13303336332E+03  0.18370219282E+03  0.80375698254E+02 0.  0.
         -6    2    1    2    0  502 -0.35437689351E+02  0.10241259829E+03  0.48425345848E+03  0.52515652281E+03  0.17188307446E+03 0.  0.
        -24    2    5    5    0    0  0.27422129714E+01  0.37896716370E+02  0.41952970254E+03  0.42600381965E+03  0.63485448735E+02 0.  0.
          5    1    3    3  501    0 -0.50425374003E+02 -0.55339236688E+02  0.64013670488E+02  0.98615361227E+02  0.47000000000E+01 0. -1.
        -11    1    4    4    0    0  0.39089794337E+01  0.13141056775E+02 -0.28241776830E+01  0.13997981031E+02  0.00000000000E+00 0.  1.
         12    1    4    4    0    0  0.81954083921E+02 -0.60214418373E+02  0.13585754100E+03  0.16970421179E+03  0.00000000000E+00 0. -1.
         -5    1    5    5    0  502 -0.38179902323E+02  0.64515881917E+02  0.64723755940E+02  0.99152703159E+02  0.47000000000E+01 0.  1.
         13    1    6    6    0    0  0.63143333816E+01 -0.10682534706E+02  0.20149509947E+02  0.23664110060E+02  0.00000000000E+00 0. -1.
        -14    1    6    6    0    0 -0.35721204102E+01  0.48579251076E+02  0.39938019259E+03  0.40233970959E+03  0.00000000000E+00 0.  1.
</event>
<event>
12    1  0.8724767E-002  0.2294190E+03  0.7818608E-02  0.1127119E+00
         21   -1    0    0  501  502  0.00000000000E+00  0.00000000000E+00  0.37359240370E+03  0.37359240370E+03  0.00000000000E+00 0. -1.
         21   -1    0    0  502  503 -0.00000000000E+00 -0.00000000000E+00 -0.21210581713E+03  0.21210581713E+03  0.00000000000E+00 0.  1.
         -6    2    1    2    0  503 -0.28545899248E+02 -0.14780670542E+03 -0.89195255797E+02  0.24614808506E+03  0.17312248724E+03 0.  0.
        -24    2    3    3    0    0 -0.44875077915E+02 -0.82527426998E+02  0.13301571848E+02  0.12344634935E+03  0.78977974968E+02 0.  0.
          6    2    1    2  501    0  0.28545899248E+02  0.14780670542E+03  0.25068184237E+03  0.33955013578E+03  0.17260132700E+03 0.  0.
         24    2    5    5    0    0 -0.48745953157E+01  0.16914936702E+03  0.19897103218E+03  0.27421609755E+03  0.83484887650E+02 0.  0.
          5    1    5    5  501    0  0.33420494564E+02 -0.21342661597E+02  0.51710810186E+02  0.65334038227E+02  0.47000000000E+01 0. -1.
        -11    1    6    6    0    0 -0.17459171028E+02  0.41093847014E+02  0.10261034866E+02  0.45812833921E+02  0.00000000000E+00 0.  1.
         12    1    6    6    0    0  0.12584575712E+02  0.12805552001E+03  0.18870999732E+03  0.22840326363E+03  0.00000000000E+00 0. -1.
         -5    1    3    3    0  503  0.16329178667E+02 -0.65279278425E+02 -0.10249682765E+03  0.12270173570E+03  0.47000000000E+01 0.  1.
         11    1    4    4    0    0 -0.66309351272E+02 -0.48880725604E+02  0.39632814838E+01  0.82474014101E+02  0.00000000000E+00 0. -1.
        -12    1    4    4    0    0  0.21434273357E+02 -0.33646701394E+02  0.93382903644E+01  0.40972335252E+02  0.00000000000E+00 0.  1.
</event>
<event>
12    1  0.8724767E-002  0.2298173E+03  0.7818608E-02  0.1132826E+00
         21   -1    0    0  503  502  0.00000000000E+00  0.00000000000E+00  0.57107506621E+02  0.57107506621E+02  0.00000000000E+00 0.  1.
         21   -1    0    0  501  503 -0.00000000000E+00 -0.00000000000E+00 -0.82216632052E+03  0.82216632052E+03  0.00000000000E+00 0. -1.
          6    2    1    2  501    0  0.12509768658E+03  0.26915053818E+02 -0.47992603737E+03  0.53211369097E+03  0.19089821230E+03 0.  0.
         24    2    3    3    0    0  0.60575358638E+02 -0.48800092036E+02 -0.14409547430E+03  0.18182784882E+03  0.79038204919E+02 0.  0.
         -6    2    1    2    0  502 -0.12509768658E+03 -0.26915053818E+02 -0.28513277652E+03  0.34716013617E+03  0.15114763837E+03 0.  0.
        -24    2    5    5    0    0 -0.12867214271E+03  0.55034673541E+01 -0.27033874980E+03  0.31103963675E+03  0.84117819293E+02 0.  0.
          5    1    3    3  501    0  0.64522327945E+02  0.75715145853E+02 -0.33583056307E+03  0.35028584215E+03  0.47000000000E+01 0. -1.
        -13    1    4    4    0    0  0.20658610657E+02  0.14778257589E+02 -0.84038874101E+01  0.26754446644E+02  0.00000000000E+00 0.  1.
         14    1    4    4    0    0  0.39916747981E+02 -0.63578349624E+02 -0.13569158689E+03  0.15507340218E+03  0.00000000000E+00 0. -1.
         -5    1    5    5    0  502  0.35744561312E+01 -0.32418521172E+02 -0.14794026725E+02  0.36120499420E+02  0.47000000000E+01 0.  1.
         11    1    6    6    0    0 -0.10710481338E+03 -0.29930861124E+02 -0.21280553786E+03  0.24011142089E+03  0.00000000000E+00 0. -1.
        -12    1    6    6    0    0 -0.21567329337E+02  0.35434328478E+02 -0.57533211935E+02  0.70928215859E+02  0.00000000000E+00 0.  1.
</event>
<event>
12    1  0.8724767E-002  0.3666929E+03  0.7818608E-02  0.1056081E+00
         21   -1    0    0  501  502  0.00000000000E+00  0.00000000000E+00  0.14699409602E+04  0.14699409602E+04  0.00000000000E+00 0.  1.
         21   -1    0    0  502  503 -0.00000000000E+00 -0.00000000000E+00 -0.15542761638E+03  0.15542761638E+03  0.00000000000E+00 0. -1.
         -6    2    1    2    0  503 -0.21356942547E+02  0.32286533034E+03  0.13410850830E+03  0.38931871845E+03  0.16995832432E+03 0.  0.
        -24    2    3    3    0    0  0.48230603274E+02  0.75164981471E+02  0.11732445207E+02  0.10436981043E+03  0.52720409018E+02 0.  0.
          6    2    1    2  501    0  0.21356942547E+02 -0.32286533034E+03  0.11804048355E+04  0.12360498581E+04  0.17252691243E+03 0.  0.
         24    2    5    5    0    0  0.65825871321E+02 -0.29830073181E+03  0.10260497771E+04  0.10734814750E+04  0.79170450115E+02 0.  0.
          5    1    5    5  501    0 -0.44468928774E+02 -0.24564598532E+02  0.15435505843E+03  0.16256838312E+03  0.47000000000E+01 0. -1.
        -13    1    6    6    0    0  0.26051095775E+02 -0.20082543245E+02  0.78028791047E+02  0.84678570881E+02  0.00000000000E+00 0.  1.
         14    1    6    6    0    0  0.39774775546E+02 -0.27821818857E+03  0.94802098606E+03  0.98880290413E+03  0.00000000000E+00 0. -1.
         -5    1    3    3    0  503 -0.69587545821E+02  0.24770034887E+03  0.12237606309E+03  0.28494890802E+03  0.47000000000E+01 0.  1.
         13    1    4    4    0    0  0.18094504035E+02  0.20075549734E+02 -0.20372533182E+02  0.33844924016E+02  0.00000000000E+00 0. -1.
        -14    1    4    4    0    0  0.30136099239E+02  0.55089431736E+02  0.32104978388E+02  0.70524886414E+02  0.00000000000E+00 0.  1.
</event>
<event>
12    1  0.8724767E-002  0.1862448E+03  0.7818608E-02  0.1162699E+00
         21   -1    0    0  503  502  0.00000000000E+00  0.00000000000E+00  0.76796637348E+02  0.76796637348E+02  0.00000000000E+00 0. -1.
         21   -1    0    0  501  503 -0.00000000000E+00 -0.00000000000E+00 -0.44334403190E+03  0.44334403190E+03  0.00000000000E+00 0. -1.
          6    2    1    2  501    0 -0.67021798853E+02  0.82241935155E+01 -0.18527579193E+03  0.26270562841E+03  0.17357295079E+03 0.  0.
         24    2    3    3    0    0  0.25222618095E+02  0.32684359337E+02 -0.74087904662E+02  0.11610355324E+03  0.79287890938E+02 0.  0.
         -6    2    1    2    0  502  0.67021798853E+02 -0.82241935155E+01 -0.18127160262E+03  0.25743504083E+03  0.16986420297E+03 0.  0.
        -24    2    5    5    0    0 -0.45464438458E+01  0.13072628704E+02 -0.15270805679E+03  0.17735049707E+03  0.89117251015E+02 0.  0.
          5    1    3    3  501    0 -0.92244416948E+02 -0.24460165822E+02 -0.11118788726E+03  0.14660207517E+03  0.47000000000E+01 0. -1.
        -11    1    4    4    0    0  0.51711136592E+02  0.11705724930E+02 -0.58313052574E+02  0.78812928789E+02  0.00000000000E+00 0.  1.
         12    1    4    4    0    0 -0.26488518497E+02  0.20978634407E+02 -0.15774852088E+02  0.37290624453E+02  0.00000000000E+00 0. -1.
         -5    1    5    5    0  502  0.71568242699E+02 -0.21296822220E+02 -0.28563545833E+02  0.80084543766E+02  0.47000000000E+01 0.  1.
         11    1    6    6    0    0  0.19485638165E+02  0.34029419571E+02 -0.26871788309E+02  0.47537190682E+02  0.00000000000E+00 0. -1.
        -12    1    6    6    0    0 -0.24032082010E+02 -0.20956790867E+02 -0.12583626848E+03  0.12981330639E+03  0.00000000000E+00 0.  1.
</event>
<event>
12    1  0.8724767E-002  0.2389323E+03  0.7818608E-02  0.1120811E+00
         21   -1    0    0  503  502  0.00000000000E+00  0.00000000000E+00  0.46545636465E+03  0.46545636465E+03  0.00000000000E+00 0. -1.
         21   -1    0    0  501  503 -0.00000000000E+00 -0.00000000000E+00 -0.15347895758E+03  0.15347895758E+03  0.00000000000E+00 0. -1.
          6    2    1    2  501    0  0.12808063670E+03  0.10304753780E+03  0.14749594087E+02  0.23757852763E+03  0.17088757041E+03 0.  0.
         24    2    3    3    0    0  0.59336689531E+02  0.13913567703E+02 -0.45254748463E+02  0.10993368432E+03  0.79517247186E+02 0.  0.
         -6    2    1    2    0  502 -0.12808063670E+03 -0.10304753780E+03  0.29722781299E+03  0.38135679460E+03  0.17339315856E+03 0.  0.
        -24    2    5    5    0    0 -0.15042485524E+03 -0.11450785386E+03  0.22115735394E+03  0.30111087455E+03  0.77572533145E+02 0.  0.
          5    1    3    3  501    0  0.68743947167E+02  0.89133970094E+02  0.60004342550E+02  0.12764484330E+03  0.47000000000E+01 0. -1.
        -11    1    4    4    0    0  0.28910300428E+02  0.46977286570E+02 -0.22572983315E+02  0.59600423657E+02  0.00000000000E+00 0.  1.
         12    1    4    4    0    0  0.30426389103E+02 -0.33063718867E+02 -0.22681765148E+02  0.50333260668E+02  0.00000000000E+00 0. -1.
         -5    1    5    5    0  502  0.22344218543E+02  0.11460316063E+02  0.76070459043E+02  0.80245920055E+02  0.47000000000E+01 0.  1.
         11    1    6    6    0    0  0.30768275768E+01 -0.11404280108E+02 -0.12450727061E+01  0.11877486214E+02  0.00000000000E+00 0. -1.
        -12    1    6    6    0    0 -0.15350168282E+03 -0.10310357375E+03  0.22240242665E+03  0.28923338834E+03  0.00000000000E+00 0.  1.
</event>
<event>
12    1  0.8724767E-002  0.3764185E+03  0.7818608E-02  0.1052277E+00
         21   -1    0    0  503  502  0.00000000000E+00  0.00000000000E+00  0.18208603316E+04  0.18208603316E+04  0.00000000000E+00 0. -1.
         21   -1    0    0  501  503 -0.00000000000E+00 -0.00000000000E+00 -0.23058723090E+03  0.23058723090E+03  0.00000000000E+00 0.  1.
          6    2    1    2  501    0  0.33430247873E+03 -0.23092253785E+02 -0.39880010696E+02  0.37839942725E+03  0.17118502219E+03 0.  0.
         24    2    3    3    0    0  0.32673026838E+03 -0.20778950367E+02  0.17157555546E+00  0.33730308552E+03  0.81172095040E+02 0.  0.
         -6    2    1    2    0  502 -0.33430247873E+03  0.23092253785E+02  0.16301531114E+04  0.16730481352E+04  0.17146281450E+03 0.  0.
        -24    2    5    5    0    0 -0.32380157311E+03 -0.32000026419E+01  0.15837201514E+04  0.16184618591E+04  0.79947311875E+02 0.  0.
          5    1    3    3  501    0  0.75722103528E+01 -0.23133034176E+01 -0.40051586252E+02  0.41096341730E+02  0.47000000000E+01 0. -1.
        -13    1    4    4    0    0  0.16901977113E+03 -0.12358479182E+02  0.40619131618E+02  0.17427084924E+03  0.00000000000E+00 0.  1.
         14    1    4    4    0    0  0.15771049724E+03 -0.84204711849E+01 -0.40447556062E+02  0.16303223628E+03  0.00000000000E+00 0. -1.
         -5    1    5    5    0  502 -0.10500905616E+02  0.26292256427E+02  0.46432959949E+02  0.54586276081E+02  0.47000000000E+01 0.  1.
         13    1    6    6    0    0 -0.24970666314E+03 -0.23894587041E+02  0.10698208484E+04  0.10988362100E+04  0.00000000000E+00 0. -1.
        -14    1    6    6    0    0 -0.74094909970E+02  0.20694584400E+02  0.51389930305E+03  0.51962564908E+03  0.00000000000E+00 0.  1.
</event>
<event>
12    1  0.8724767E-002  0.1966319E+03  0.7818608E-02  0.1152619E+00
         21   -1    0    0  503  502  0.00000000000E+00  0.00000000000E+00  0.24682399413E+03  0.24682399413E+03  0.00000000000E+00 0. -1.
         21   -1    0    0  501  503 -0.00000000000E+00 -0.00000000000E+00 -0.19610820701E+03  0.19610820701E+03  0.00000000000E+00 0. -1.
          6    2    1    2  501    0  0.96453086974E+02 -0.80711070261E+01 -0.74022363185E+02  0.21007233311E+03  0.17112198611E+03 0.  0.
         24    2    3    3    0    0 -0.12742392820E+01  0.18450395438E+02  0.68676231953E+01  0.80383088037E+02  0.77924552077E+02 0.  0.
         -6    2    1    2    0  502 -0.96453086974E+02  0.80711070261E+01  0.12473815031E+03  0.23285986803E+03  0.17116007490E+03 0.  0.
        -24    2    5    5    0    0 -0.15062015574E+02  0.21672116025E+02  0.12441889295E+03  0.15020585497E+03  0.79907402770E+02 0.  0.
          5    1    3    3  501    0  0.97727326256E+02 -0.26521502465E+02 -0.80889986380E+02  0.12968924507E+03  0.47000000000E+01 0. -1.
        -11    1    4    4    0    0  0.37261154921E+02  0.18004150738E+02  0.95283032973E+00  0.41393852146E+02  0.00000000000E+00 0.  1.
         12    1    4    4    0    0 -0.38535394203E+02  0.44624470020E+00  0.59147928656E+01  0.38989235891E+02  0.00000000000E+00 0. -1.
         -5    1    5    5    0  502 -0.81391071400E+02 -0.13601008999E+02  0.31925735751E+00  0.82654013059E+02  0.47000000000E+01 0.  1.
         13    1    6    6    0    0 -0.29699505839E+02  0.26592735507E+02  0.19906913099E+02  0.44559167609E+02  0.00000000000E+00 0. -1.
        -14    1    6    6    0    0  0.14637490266E+02 -0.49206194824E+01  0.10451197985E+03  0.10564668736E+03  0.00000000000E+00 0.  1.
</event>
<event>
12    1  0.8724767E-002  0.2507671E+03  0.7818608E-02  0.1112861E+00
         21   -1    0    0  501  502  0.00000000000E+00  0.00000000000E+00  0.99914514099E+03  0.99914514099E+03  0.00000000000E+00 0. -1.
         21   -1    0    0  502  503 -0.00000000000E+00 -0.00000000000E+00 -0.13107579363E+03  0.13107579363E+03  0.00000000000E+00 0.  1.
         -6    2    1    2    0  503 -0.16430293783E+03 -0.79571360064E+02  0.26297226857E+02  0.25189044804E+03  0.17155231550E+03 0.  0.
        -24    2    3    3    0    0 -0.13233516358E+03 -0.11715837666E+03 -0.41341656508E+01  0.19372789947E+03  0.79213174183E+02 0.  0.
          6    2    1    2  501    0  0.16430293783E+03  0.79571360064E+02  0.84177212051E+03  0.87833048658E+03  0.17192173818E+03 0.  0.
         24    2    5    5    0    0  0.57305564280E+02 -0.71367712980E+01  0.20915604493E+03  0.23088015870E+03  0.78895724515E+02 0.  0.
          5    1    5    5  501    0  0.10699737355E+03  0.86708131361E+02  0.63261607558E+03  0.64745032788E+03  0.47000000000E+01 0. -1.
        -13    1    6    6    0    0  0.25538402934E+01 -0.35177209774E+02  0.61021185653E+02  0.70480800834E+02  0.00000000000E+00 0.  1.
         14    1    6    6    0    0  0.54751723987E+02  0.28040438476E+02  0.14813485928E+03  0.16039935786E+03  0.00000000000E+00 0. -1.
         -5    1    3    3    0  503 -0.31967774250E+02  0.37587016595E+02  0.30431392508E+02  0.58162548577E+02  0.47000000000E+01 0.  1.
         13    1    4    4    0    0 -0.30979257427E+02 -0.59066797042E+02  0.28349367543E+02  0.72472667563E+02  0.00000000000E+00 0. -1.
        -14    1    4    4    0    0 -0.10135590616E+03 -0.58091579616E+02 -0.32483533194E+02  0.12125523190E+03  0.00000000000E+00 0.  1.
</event>
<event>
12    1  0.8724767E-002  0.2907878E+03  0.7818608E-02  0.1089978E+00
         21   -1    0    0  501  502  0.00000000000E+00  0.00000000000E+00  0.10559090331E+04  0.10559090331E+04  0.00000000000E+00 0. -1.
         21   -1    0    0  502  503 -0.00000000000E+00 -0.00000000000E+00 -0.98332794619E+02  0.98332794619E+02  0.00000000000E+00 0. -1.
         -6    2    1    2    0  503  0.14364728679E+03 -0.18477985371E+03  0.22977472647E+03  0.37061294857E+03  0.17256707504E+03 0.  0.
        -24    2    3    3    0    0  0.16060446841E+03 -0.19929749815E+03  0.21856779539E+03  0.34519655007E+03  0.76651738110E+02 0.  0.
          6    2    1    2  501    0 -0.14364728679E+03  0.18477985371E+03  0.72780151201E+03  0.78362887914E+03  0.17204953358E+03 0.  0.
         24    2    5    5    0    0 -0.11012784375E+03  0.94633509404E+02  0.31133064468E+03  0.35617129085E+03  0.94061549207E+02 0.  0.
          5    1    5    5  501    0 -0.33519443034E+02  0.90146344308E+02  0.41647086732E+03  0.42745758828E+03  0.47000000000E+01 0. -1.
        -13    1    6    6    0    0 -0.54307485677E+02 -0.87238439241E+01  0.11268684161E+03  0.12539430898E+03  0.00000000000E+00 0.  1.
         14    1    6    6    0    0 -0.55820358076E+02  0.10335735333E+03  0.19864380308E+03  0.23077698187E+03  0.00000000000E+00 0. -1.
         -5    1    3    3    0  503 -0.16957181628E+02  0.14517644435E+02  0.11206931082E+02  0.25416398505E+02  0.47000000000E+01 0.  1.
         11    1    4    4    0    0  0.91670849263E+02 -0.14521231318E+03  0.10327931143E+03  0.20039155839E+03  0.00000000000E+00 0. -1.
        -12    1    4    4    0    0  0.68933619152E+02 -0.54085184967E+02  0.11528848395E+03  0.14480499168E+03  0.00000000000E+00 0.  1.
</event>
<event>
12    1  0.8724767E-002  0.1791922E+03  0.7818608E-02  0.1169470E+00
         21   -1    0    0  501  502  0.00000000000E+00  0.00000000000E+00  0.34186505096E+02  0.34186505096E+02  0.00000000000E+00 0. -1.
         21   -1    0    0  502  503 -0.00000000000E+00 -0.00000000000E+00 -0.92529971150E+03  0.92529971150E+03  0.00000000000E+00 0.  1.
         -6    2    1    2    0  503  0.34172856461E+02  0.21038971150E+02 -0.41560768987E+03  0.45259208215E+03  0.17464082719E+03 0.  0.
        -24    2    3    3    0    0 -0.28836499447E+02 -0.18761244408E+02 -0.31973396854E+03  0.33106802473E+03  0.78693699673E+02 0.  0.
          6    2    1    2  501    0 -0.34172856461E+02 -0.21038971150E+02 -0.47550551654E+03  0.50689413445E+03  0.17095538849E+03 0.  0.
         24    2    5    5    0    0 -0.63429387613E+02 -0.64243794959E+02 -0.36785754633E+03  0.38717455833E+03  0.80214785574E+02 0.  0.
          5    1    5    5  501    0  0.29256531152E+02  0.43204823809E+02 -0.10764797021E+03  0.11971957612E+03  0.47000000000E+01 0. -1.
        -13    1    6    6    0    0 -0.14930490751E+02  0.19148221064E+02 -0.71357140451E+02  0.75375164460E+02  0.00000000000E+00 0.  1.
         14    1    6    6    0    0 -0.48498896862E+02 -0.83392016023E+02 -0.29650040588E+03  0.31179939387E+03  0.00000000000E+00 0. -1.
         -5    1    3    3    0  503  0.63009355907E+02  0.39800215558E+02 -0.95873721326E+02  0.12152405742E+03  0.47000000000E+01 0.  1.
         13    1    4    4    0    0  0.34700941151E+01 -0.41698890734E+02 -0.21619500966E+03  0.22020699635E+03  0.00000000000E+00 0. -1.
        -14    1    4    4    0    0 -0.32306593562E+02  0.22937646326E+02 -0.10353895888E+03  0.11086102838E+03  0.00000000000E+00 0.  1.
</event>
<event>
12    1  0.8724767E-002  0.2460086E+03  0.7818608E-02  0.1115951E+00
         21   -1    0    0  503  502  0.00000000000E+00  0.00000000000E+00  0.20629579323E+03  0.20629579323E+03  0.00000000000E+00 0. -1.
         21   -1    0    0  501  503 -0.00000000000E+00 -0.00000000000E+00 -0.38952802968E+03  0.38952802968E+03  0.00000000000E+00 0.  1.
          6    2    1    2  501    0 -0.17233015554E+03 -0.34052777080E+02  0.56869700268E+02  0.25249636355E+03  0.17222943030E+03 0.  0.
         24    2    3    3    0    0 -0.68540218568E+01 -0.10772259015E+02  0.33945555432E+02  0.83760061124E+02  0.75501178308E+02 0.  0.
         -6    2    1    2    0  502  0.17233015554E+03  0.34052777080E+02 -0.24010193672E+03  0.34332745936E+03  0.17136957198E+03 0.  0.
        -24    2    5    5    0    0  0.43540395962E+02  0.38418188778E+02 -0.40006790939E+02  0.10528121101E+03  0.78178428998E+02 0.  0.
          5    1    3    3  501    0 -0.16547613368E+03 -0.23280518065E+02  0.22924144836E+02  0.16873630243E+03  0.47000000000E+01 0. -1.
        -11    1    4    4    0    0  0.18766751907E+02 -0.20626501862E+02 -0.11904348032E+02  0.30320901344E+02  0.00000000000E+00 0.  1.
         12    1    4    4    0    0 -0.25620773764E+02  0.98542428470E+01  0.45849903464E+02  0.53439159780E+02  0.00000000000E+00 0. -1.
         -5    1    5    5    0  502  0.12878975958E+03 -0.43654116976E+01 -0.20009514578E+03  0.23804624835E+03  0.47000000000E+01 0.  1.
         13    1    6    6    0    0  0.22929356303E+02 -0.52121813676E+01  0.18155917195E+02  0.29707903734E+02  0.00000000000E+00 0. -1.
        -14    1    6    6    0    0  0.20611039659E+02  0.43630370145E+02 -0.58162708134E+02  0.75573307274E+02  0.00000000000E+00 0.  1.
</event>
<event>
12    1  0.8724767E-002  0.1783509E+03  0.7818608E-02  0.1169492E+00
         21   -1    0    0  503  502  0.00000000000E+00  0.00000000000E+00  0.14880973726E+04  0.14880973726E+04  0.00000000000E+00 0. -1.
         21   -1    0    0  501  503 -0.00000000000E+00 -0.00000000000E+00 -0.24734783533E+02  0.24734783533E+02  0.00000000000E+00 0. -1.
          6    2    1    2  501    0  0.46882060057E+02 -0.70248260926E+01  0.10127221746E+04  0.10283069725E+04  0.17193531054E+03 0.  0.
         24    2    3    3    0    0 -0.39453424778E+02 -0.13651361250E+02  0.56516353690E+03  0.57242480451E+03  0.80730421641E+02 0.  0.
         -6    2    1    2    0  502 -0.46882060057E+02  0.70248260926E+01  0.45064041451E+03  0.48452518368E+03  0.17158261770E+03 0.  0.
        -24    2    5    5    0    0 -0.93779468951E+02  0.10007297898E+02  0.38576367035E+03  0.40427966024E+03  0.75721195964E+02 0.  0.
          5    1    3    3  501    0  0.86335484834E+02  0.66265351574E+01  0.44755863768E+03  0.45588216797E+03  0.47000000000E+01 0. -1.
        -11    1    4    4    0    0 -0.14095801353E+02 -0.24931496190E+02  0.50873494261E+03  0.50954049197E+03  0.00000000000E+00 0.  1.
         12    1    4    4    0    0 -0.25357623425E+02  0.11280134940E+02  0.56428594291E+02  0.62884312540E+02  0.00000000000E+00 0. -1.
         -5    1    5    5    0  502  0.46897408894E+02 -0.29824718055E+01  0.64876744160E+02  0.80245523438E+02  0.47000000000E+01 0.  1.
         13    1    6    6    0    0 -0.67261461357E+02 -0.21836621981E+02  0.16277154948E+03  0.17746977084E+03  0.00000000000E+00 0. -1.
        -14    1    6    6    0    0 -0.26518007594E+02  0.31843919879E+02  0.22299212087E+03  0.22680988940E+03  0.00000000000E+00 0.  1.
</event>
<event>
12    1  0.8724767E-002  0.3168929E+03  0.7818608E-02  0.1077114E+00
         21   -1    0    0  503  502  0.00000000000E+00  0.00000000000E+00  0.46964339576E+03  0.46964339576E+03  0.00000000000E+00 0.  1.
         21   -1    0    0  501  503 -0.00000000000E+00 -0.00000000000E+00 -0.88297580750E+03  0.88297580750E+03  0.00000000000E+00 0. -1.
          6    2    1    2  501    0 -0.13366457120E+03  0.22984545016E+03 -0.79546843953E+03  0.85618287736E+03  0.17199980421E+03 0.  0.
         24    2    3    3    0    0 -0.44075530181E+02  0.18924462605E+03 -0.44626125463E+03  0.49335733916E+03  0.80598857726E+02 0.  0.
         -6    2    1    2    0  502  0.13366457120E+03 -0.22984545016E+03  0.38213602779E+03  0.49643632589E+03  0.17241210334E+03 0.  0.
        -24    2    5    5    0    0  0.22084691289E+02 -0.73945249687E+02  0.21338730939E+03  0.24098934104E+03  0.81154698859E+02 0.  0.
          5    1    3    3  501    0 -0.89589041015E+02  0.40600824110E+02 -0.34920718490E+03  0.36282553821E+03  0.47000000000E+01 0. -1.
        -11    1    4    4    0    0  0.20130286937E+01 -0.76123184593E+01 -0.12217267040E+02  0.14534830263E+02  0.00000000000E+00 0.  1.
         12    1    4    4    0    0 -0.46088558875E+02  0.19685694451E+03 -0.43404398759E+03  0.47882250889E+03  0.00000000000E+00 0. -1.
         -5    1    5    5    0  502  0.11157987991E+03 -0.15590020047E+03  0.16874871840E+03  0.25544698485E+03  0.47000000000E+01 0.  1.
         13    1    6    6    0    0  0.91455581231E+01  0.17404033738E+02  0.40766250715E+02  0.45259571597E+02  0.00000000000E+00 0. -1.
        -14    1    6    6    0    0  0.12939133165E+02 -0.91349283425E+02  0.17262105867E+03  0.19572976944E+03  0.00000000000E+00 0.  1.
</event>
<event>
12    1  0.8724767E-002  0.1882213E+03  0.7818608E-02  0.1160122E+00
         21   -1    0    0  503  502  0.00000000000E+00  0.00000000000E+00  0.16957072213E+03  0.16957072213E+03  0.00000000000E+00 0. -1.
         21   -1    0    0  501  503 -0.00000000000E+00 -0.00000000000E+00 -0.23472694872E+03  0.23472694872E+03  0.00000000000E+00 0. -1.
          6    2    1    2  501    0 -0.72676103848E+02 -0.34256128578E+01  0.34752166089E+02  0.19120389400E+03  0.17337146576E+03 0.  0.
         24    2    3    3    0    0  0.65201656244E+01  0.38812244471E+01  0.55614023681E+02  0.10884646524E+03  0.93258012538E+02 0.  0.
         -6    2    1    2    0  502  0.72676103848E+02  0.34256128578E+01 -0.99908392674E+02  0.21309377684E+03  0.17359066769E+03 0.  0.
        -24    2    5    5    0    0  0.43117002997E+02  0.56279275839E+02 -0.10787719307E+03  0.15183333355E+03  0.79933969972E+02 0.  0.
          5    1    3    3  501    0 -0.79196269473E+02 -0.73068373049E+01 -0.20861857591E+02  0.82357428760E+02  0.47000000000E+01 0. -1.
        -13    1    4    4    0    0  0.23386809291E+02  0.26110300452E+02 -0.10906716799E+02  0.36710313399E+02  0.00000000000E+00 0.  1.
         14    1    4    4    0    0 -0.16866643667E+02 -0.22229076005E+02  0.66520740480E+02  0.72136151842E+02  0.00000000000E+00 0. -1.
         -5    1    5    5    0  502  0.29559100851E+02 -0.52853662981E+02  0.79688003907E+01  0.61260443300E+02  0.47000000000E+01 0.  1.
         13    1    6    6    0    0 -0.61988502181E+01  0.55786688998E+02 -0.69542649889E+02  0.89368677774E+02  0.00000000000E+00 0. -1.
        -14    1    6    6    0    0  0.49315853215E+02  0.49258684039E+00 -0.38334543176E+02  0.62464655771E+02  0.00000000000E+00 0.  1.
</event>
<event>
12    1  0.8724767E-002  0.3053491E+03  0.7818608E-02  0.1082630E+00
         21   -1    0    0  501  502  0.00000000000E+00  0.00000000000E+00  0.65406740444E+03  0.65406740444E+03  0.00000000000E+00 0. -1.
         21   -1    0    0  502  503 -0.00000000000E+00 -0.00000000000E+00 -0.19262038739E+03  0.19262038739E+03  0.00000000000E+00 0.  1.
         -6    2    1    2    0  503 -0.17196285320E+03 -0.18388770899E+03  0.14689932438E+02  0.30570220662E+03  0.17277769710E+03 0.  0.
        -24    2    3    3    0    0 -0.26666719081E+02 -0.24522563553E+02 -0.11835402057E+02  0.88368593151E+02  0.79727419900E+02 0.  0.
          6    2    1    2  501    0  0.17196285320E+03  0.18388770899E+03  0.44675708461E+03  0.54098558522E+03  0.17230089486E+03 0.  0.
         24    2    5    5    0    0  0.39262265063E+02  0.11679760196E+03  0.29049730068E+03  0.32523170084E+03  0.78764028874E+02 0.  0.
          5    1    5    5  501    0  0.13270058814E+03  0.67090107038E+02  0.15625978393E+03  0.21575388439E+03  0.47000000000E+01 0. -1.
        -13    1    6    6    0    0  0.10929263450E+02 -0.81302775982E+01  0.10097207486E+02  0.16955937379E+02  0.00000000000E+00 0.  1.
         14    1    6    6    0    0  0.28333001612E+02  0.12492787955E+03  0.28040009320E+03  0.30827576346E+03  0.00000000000E+00 0. -1.
         -5    1    3    3    0  503 -0.14529613412E+03 -0.15936514544E+03  0.26525334495E+02  0.21733361346E+03  0.47000000000E+01 0.  1.
         11    1    4    4    0    0 -0.42336934870E+02 -0.27621124193E+02  0.18707410236E+02  0.53900925350E+02  0.00000000000E+00 0. -1.
        -12    1    4    4    0    0  0.15670215789E+02  0.30985606393E+01 -0.30542812293E+02  0.34467667801E+02  0.00000000000E+00 0.  1.
</event>
<event>
12    1  0.8724767E-002  0.1841944E+03  0.7818608E-02  0.1165659E+00
         21   -1    0    0  501  502  0.00000000000E+00  0.00000000000E+00  0.68358519436E+02  0.68358519436E+02  0.00000000000E+00 0. -1.
         21   -1    0    0  502  503 -0.00000000000E+00 -0.00000000000E+00 -0.47994445108E+03  0.47994445108E+03  0.00000000000E+00 0. -1.
         -6    2    1    2    0  503  0.42736960673E+02 -0.53421559710E+01 -0.22708275282E+03  0.28759433730E+03  0.17114011739E+03 0.  0.
        -24    2    3    3    0    0 -0.79900203622E+01  0.27677069887E+02 -0.20658374051E+03  0.22351785654E+03  0.80333864111E+02 0.  0.
          6    2    1    2  501    0 -0.42736960673E+02  0.53421559710E+01 -0.18450317882E+03  0.26070863321E+03  0.17908819615E+03 0.  0.
         24    2    5    5    0    0  0.82491802946E+01 -0.53932774622E+02 -0.58628426757E+02  0.11245328871E+03  0.78940842175E+02 0.  0.
          5    1    5    5  501    0 -0.50986140968E+02  0.59274930593E+02 -0.12587475206E+03  0.14825534451E+03  0.47000000000E+01 0. -1.
        -13    1    6    6    0    0 -0.19806271016E+02 -0.62762867020E+02 -0.33924353446E+02  0.74042741743E+02  0.00000000000E+00 0.  1.
         14    1    6    6    0    0  0.28055451310E+02  0.88300923980E+01 -0.24704073310E+02  0.38410546964E+02  0.00000000000E+00 0. -1.
         -5    1    3    3    0  503  0.50726981035E+02 -0.33019225858E+02 -0.20499012306E+02  0.64076480761E+02  0.47000000000E+01 0.  1.
         11    1    4    4    0    0 -0.20520302608E+02 -0.21549578382E+02 -0.11503047327E+03  0.11881698922E+03  0.00000000000E+00 0. -1.
        -12    1    4    4    0    0  0.12530282246E+02  0.49226648269E+02 -0.91553267246E+02  0.10470086731E+03  0.00000000000E+00 0.  1.
</event>
<event>
12    1  0.8724767E-002  0.1830547E+03  0.7818608E-02  0.1165450E+00
         21   -1    0    0  501  502  0.00000000000E+00  0.00000000000E+00  0.92050280129E+02  0.92050280129E+02  0.00000000000E+00 0. -1.
         21   -1    0    0  502  503 -0.00000000000E+00 -0.00000000000E+00 -0.43707288906E+03  0.43707288906E+03  0.00000000000E+00 0. -1.
         -6    2    1    2    0  503  0.45167526072E+02  0.34231468955E+02 -0.28505770851E+03  0.33877268076E+03  0.17406071692E+03 0.  0.
        -24    2    3    3    0    0  0.23901687836E+02 -0.90143589643E+01 -0.27722594931E+03  0.28972307363E+03  0.80204009078E+02 0.  0.
          6    2    1    2  501    0 -0.45167526072E+02 -0.34231468955E+02 -0.59964900416E+02  0.19035048842E+03  0.17153897598E+03 0.  0.
         24    2    5    5    0    0 -0.67217919199E+02  0.50483858888E+01 -0.89245162774E+02  0.13641950848E+03  0.78114328736E+02 0.  0.
          5    1    5    5  501    0  0.22050393126E+02 -0.39279854844E+02  0.29280262358E+02  0.53930979940E+02  0.47000000000E+01 0. -1.
        -11    1    6    6    0    0 -0.57249897942E+02 -0.31435216386E+02 -0.54585120595E+02  0.85119087365E+02  0.00000000000E+00 0.  1.
         12    1    6    6    0    0 -0.99680212568E+01  0.36483602274E+02 -0.34660042179E+02  0.51300421114E+02  0.00000000000E+00 0. -1.
         -5    1    3    3    0  503  0.21265838236E+02  0.43245827919E+02 -0.78317592015E+01  0.49049607139E+02  0.47000000000E+01 0.  1.
         11    1    4    4    0    0 -0.20433444896E+02  0.19610582974E+02 -0.13697068729E+03  0.13986804428E+03  0.00000000000E+00 0. -1.
        -12    1    4    4    0    0  0.44335132732E+02 -0.28624941939E+02 -0.14025526202E+03  0.14985502934E+03  0.00000000000E+00 0.  1.
</event>
<event>
12    1  0.8724767E-002  0.1878206E+03  0.7818608E-02  0.1162198E+00
         21   -1    0    0  503  502  0.00000000000E+00  0.00000000000E+00  0.41299397270E+03  0.41299397270E+03  0.00000000000E+00 0.  1.
         21   -1    0    0  501  503 -0.00000000000E+00 -0.00000000000E+00 -0.84570120783E+02  0.84570120783E+02  0.00000000000E+00 0.  1.
          6    2    1    2  501    0  0.29296071446E+02  0.40908884377E+02  0.11791245691E+03  0.21544418407E+03  0.17315037492E+03 0.  0.
         24    2    3    3    0    0 -0.23880480252E+02  0.40956508285E+02  0.13094766192E+03  0.16049189124E+03  0.79766183822E+02 0.  0.
         -6    2    1    2    0  502 -0.29296071446E+02 -0.40908884377E+02  0.21051139500E+03  0.28211990941E+03  0.18095524097E+03 0.  0.
        -24    2    5    5    0    0 -0.67434497242E+02  0.27720320675E+02  0.11660285252E+03  0.15962333126E+03  0.81040453281E+02 0.  0.
          5    1    3    3  501    0  0.53176551698E+02 -0.47623908239E-01 -0.13035205010E+02  0.54952292838E+02  0.47000000000E+01 0. -1.
        -11    1    4    4    0    0 -0.30057671029E+02  0.51873218486E+02  0.48550871688E+02  0.77145845808E+02  0.00000000000E+00 0.  1.
         12    1    4    4    0    0  0.61771907773E+01 -0.10916710201E+02  0.82396790236E+02  0.83346045429E+02  0.00000000000E+00 0. -1.
         -5    1    5    5    0  502  0.38138425795E+02 -0.68629205052E+02  0.93908542478E+02  0.12249657815E+03  0.47000000000E+01 0.  1.
         11    1    6    6    0    0 -0.80489484297E+02  0.28534661856E+02  0.11885212638E+03  0.14635098891E+03  0.00000000000E+00 0. -1.
        -12    1    6    6    0    0  0.13054987056E+02 -0.81434118102E+00 -0.22492738523E+01  0.13272342350E+02  0.00000000000E+00 0.  1.
</event>
<event>
12    1  0.8724767E-002  0.2266392E+03  0.7818608E-02  0.1129487E+00
         21   -1    0    0  501  502  0.00000000000E+00  0.00000000000E+00  0.10802844403E+03  0.10802844403E+03  0.00000000000E+00 0. -1.
         21   -1    0    0  502  503 -0.00000000000E+00 -0.00000000000E+00 -0.71493604712E+03  0.71493604712E+03  0.00000000000E+00 0.  1.
         -6    2    1    2    0  503  0.14515018736E+03  0.27836731818E+02 -0.54534728245E+03  0.59056667971E+03  0.17181933588E+03 0.  0.
        -24    2    3    3    0    0  0.23558052318E+02 -0.24705996148E+02 -0.29443202629E+03  0.30679574861E+03  0.79170987013E+02 0.  0.
          6    2    1    2  501    0 -0.14515018736E+03 -0.27836731818E+02 -0.61560320632E+02  0.23239781144E+03  0.16845061341E+03 0.  0.
         24    2    5    5    0    0 -0.97825152888E+02 -0.66096441671E+02  0.33387974690E+01  0.14330544467E+03  0.81159120040E+02 0.  0.
          5    1    5    5  501    0 -0.47325034469E+02  0.38259709853E+02 -0.64899118101E+02  0.89092366765E+02  0.47000000000E+01 0. -1.
        -11    1    6    6    0    0 -0.17332313231E+01  0.46138954948E+01 -0.20976823889E+02  0.21548068659E+02  0.00000000000E+00 0.  1.
         12    1    6    6    0    0 -0.96091921565E+02 -0.70710337166E+02  0.24315621358E+02  0.12175737602E+03  0.00000000000E+00 0. -1.
         -5    1    3    3    0  503  0.12159213504E+03  0.52542727966E+02 -0.25091525616E+03  0.28377093111E+03  0.47000000000E+01 0.  1.
         11    1    4    4    0    0 -0.14799417901E+02 -0.25613770326E+02 -0.41465164327E+02  0.50935722761E+02  0.00000000000E+00 0. -1.
        -12    1    4    4    0    0  0.38357470219E+02  0.90777417823E+00 -0.25296686196E+03  0.25586002585E+03  0.00000000000E+00 0.  1.
</event>
<event>
12    1  0.8724767E-002  0.3516939E+03  0.7818608E-02  0.1061964E+00
         21   -1    0    0  501  502  0.00000000000E+00  0.00000000000E+00  0.22970319479E+03  0.22970319479E+03  0.00000000000E+00 0. -1.
         21   -1    0    0  502  503 -0.00000000000E+00 -0.00000000000E+00 -0.11378020530E+04  0.11378020530E+04  0.00000000000E+00 0.  1.
         -6    2    1    2    0  503 -0.15251313661E+03  0.26611775838E+03 -0.95043130501E+03  0.10132728128E+04  0.17124021007E+03 0.  0.
        -24    2    3    3    0    0 -0.81707860306E+02  0.16550492804E+03 -0.76286636484E+03  0.78890921160E+03  0.79652984291E+02 0.  0.
          6    2    1    2  501    0  0.15251313661E+03 -0.26611775838E+03  0.42332446842E+02  0.35423243490E+03  0.17207458765E+03 0.  0.
         24    2    5    5    0    0  0.11905819030E+03 -0.87317071753E+02  0.39259805838E+02  0.17224218765E+03  0.79541908168E+02 0.  0.
          5    1    5    5  501    0  0.33454946307E+02 -0.17880068662E+03  0.30726410040E+01  0.18199024725E+03  0.47000000000E+01 0. -1.
        -13    1    6    6    0    0  0.83484358336E+00 -0.31284039011E+02 -0.93682632554E+01  0.32667298895E+02  0.00000000000E+00 0.  1.
         14    1    6    6    0    0  0.11822334672E+03 -0.56033032742E+02  0.48628069094E+02  0.13957488876E+03  0.00000000000E+00 0. -1.
         -5    1    3    3    0  503 -0.70805276305E+02  0.10061283034E+03 -0.18756494017E+03  0.22436360124E+03  0.47000000000E+01 0.  1.
         11    1    4    4    0    0 -0.50793453123E+02  0.44294174837E+02 -0.16762242727E+03  0.18066329712E+03  0.00000000000E+00 0. -1.
        -12    1    4    4    0    0 -0.30914407183E+02  0.12121075320E+03 -0.59524393757E+03  0.60824591448E+03  0.00000000000E+00 0.  1.
</event>
<event>
12    1  0.8724767E-002  0.1849259E+03  0.7818608E-02  0.1163682E+00
         21   -1    0    0  503  502  0.00000000000E+00  0.00000000000E+00  0.54726175387E+03  0.54726175387E+03  0.00000000000E+00 0.  1.
         21   -1    0    0  501  503 -0.00000000000E+00 -0.00000000000E+00 -0.16676124384E+03  0.16676124384E+03  0.00000000000E+00 0.  1.
          6    2    1    2  501    0 -0.59570533743E+02  0.60584504706E+00 -0.93601199196E+02  0.20513202159E+03  0.17253679681E+03 0.  0.
         24    2    3    3    0    0  0.15370352828E+02  0.46362446337E+02 -0.45814820029E+02  0.10505489596E+03  0.80943247115E+02 0.  0.
         -6    2    1    2    0  502  0.59570533743E+02 -0.60584504706E+00  0.47410170923E+03  0.50889097612E+03  0.17506735661E+03 0.  0.
        -24    2    5    5    0    0 -0.77799743127E+00  0.57592898651E+02  0.23899836471E+03  0.25924179910E+03  0.82271166362E+02 0.  0.
          5    1    3    3  501    0 -0.74940886571E+02 -0.45756601290E+02 -0.47786379167E+02  0.10007712564E+03  0.47000000000E+01 0. -1.
        -11    1    4    4    0    0 -0.29411803467E+02  0.34435449585E+02 -0.35588366630E+02  0.57596755210E+02  0.00000000000E+00 0.  1.
         12    1    4    4    0    0  0.44782156294E+02  0.11926996752E+02 -0.10226453399E+02  0.47458140745E+02  0.00000000000E+00 0. -1.
         -5    1    5    5    0  502  0.60348531174E+02 -0.58198743698E+02  0.23510334452E+03  0.24964917702E+03  0.47000000000E+01 0.  1.
         13    1    6    6    0    0 -0.32948182844E+02  0.28872230518E+01  0.50683087674E+02  0.60520196513E+02  0.00000000000E+00 0. -1.
        -14    1    6    6    0    0  0.32170185413E+02  0.54705675599E+02  0.18831527703E+03  0.19872160259E+03  0.00000000000E+00 0.  1.
</event>
<event>
12    1  0.8724767E-002  0.2174259E+03  0.7818608E-02  0.1136210E+00
         21   -1    0    0  501  502  0.00000000000E+00  0.00000000000E+00  0.19869033566E+03  0.19869033566E+03  0.00000000000E+00 0.  1.
         21   -1    0    0  502  503 -0.00000000000E+00 -0.00000000000E+00 -0.27607368367E+03  0.27607368367E+03  0.00000000000E+00 0. -1.
         -6    2    1    2    0  503  0.84620910135E+02 -0.10235699983E+03  0.51957462802E+02  0.22354775205E+03  0.17215215845E+03 0.  0.
        -24    2    3    3    0    0  0.93102181342E+01 -0.29877718924E+02  0.73822784849E+02  0.11665935792E+03  0.84736320303E+02 0.  0.
          6    2    1    2  501    0 -0.84620910135E+02  0.10235699983E+03 -0.12934081082E+03  0.25121626728E+03  0.16953735210E+03 0.  0.
         24    2    5    5    0    0 -0.32214467554E+02 -0.14504319393E+02 -0.36848153060E+02  0.93165690271E+02  0.77935308166E+02 0.  0.
          5    1    5    5  501    0 -0.52406442580E+02  0.11686131922E+03 -0.92492657756E+02  0.15805057701E+03  0.47000000000E+01 0. -1.
        -11    1    6    6    0    0  0.77484517995E+01 -0.17156699347E+01  0.20571296283E+02  0.22049042142E+02  0.00000000000E+00 0.  1.
         12    1    6    6    0    0 -0.39962919354E+02 -0.12788649458E+02 -0.57419449343E+02  0.71116648129E+02  0.00000000000E+00 0. -1.
         -5    1    3    3    0  503  0.75310692000E+02 -0.72479280907E+02 -0.21865322047E+02  0.10688839412E+03  0.47000000000E+01 0.  1.
         13    1    4    4    0    0  0.14077465569E+02 -0.43787716489E+02  0.86026560874E+02  0.97550542428E+02  0.00000000000E+00 0. -1.
        -14    1    4    4    0    0 -0.47672474348E+01  0.13909997565E+02 -0.12203776025E+02  0.19108815496E+02  0.00000000000E+00 0.  1.
</event>
<event>
12    1  0.8724767E-002  0.1749302E+03  0.7818608E-02  0.1173001E+00
         21   -1    0    0  501  502  0.00000000000E+00  0.00000000000E+00  0.52843749407E+03  0.52843749407E+03  0.00000000000E+00 0. -1.
         21   -1    0    0  502  503 -0.00000000000E+00 -0.00000000000E+00 -0.76918333873E+02  0.76918333873E+02  0.00000000000E+00 0. -1.
         -6    2    1    2    0  503 -0.25719269054E+02  0.88988347897E+01  0.74637217417E+02  0.19018747387E+03  0.17280014737E+03 0.  0.
        -24    2    3    3    0    0  0.15306773295E+02 -0.58444418351E+02  0.36252324193E+02  0.10235957442E+03  0.74250953667E+02 0.  0.
          6    2    1    2  501    0  0.25719269054E+02 -0.88988347897E+01  0.37688194278E+03  0.41516835408E+03  0.17200027142E+03 0.  0.
         24    2    5    5    0    0 -0.21636942328E+02  0.34177027839E+02  0.31175109216E+03  0.32372296928E+03  0.77276069199E+02 0.  0.
          5    1    5    5  501    0  0.47356211382E+02 -0.43075862629E+02  0.65130850622E+02  0.91445384796E+02  0.47000000000E+01 0. -1.
        -11    1    6    6    0    0 -0.49190580438E+02  0.33057898240E+02  0.19820553246E+03  0.20687670467E+03  0.00000000000E+00 0.  1.
         12    1    6    6    0    0  0.27553638110E+02  0.11191295992E+01  0.11354555970E+03  0.11684626461E+03  0.00000000000E+00 0. -1.
         -5    1    3    3    0  503 -0.41026042349E+02  0.67343253141E+02  0.38384893223E+02  0.87827899452E+02  0.47000000000E+01 0.  1.
         11    1    4    4    0    0 -0.10099943722E+02 -0.60937156766E+02  0.43819385943E+02  0.75732981734E+02  0.00000000000E+00 0. -1.
        -12    1    4    4    0    0  0.25406717017E+02  0.24927384153E+01 -0.75670617502E+01  0.26626592683E+02  0.00000000000E+00 0.  1.
</event>
<event>
12    1  0.8724767E-002  0.1819044E+03  0.7818608E-02  0.1166322E+00
         21   -1    0    0  501  502  0.00000000000E+00  0.00000000000E+00  0.16066324492E+04  0.16066324492E+04  0.00000000000E+00 0. -1.
         21   -1    0    0  502  503 -0.00000000000E+00 -0.00000000000E+00 -0.22331182562E+02  0.22331182562E+02  0.00000000000E+00 0. -1.
         -6    2    1    2    0  503 -0.52704063856E+02  0.74953586016E+01  0.55746169715E+03  0.58638958598E+03  0.17394051861E+03 0.  0.
        -24    2    3    3    0    0 -0.48632350415E+02  0.68228000963E+02  0.42787832690E+03  0.44314513568E+03  0.79231199794E+02 0.  0.
          6    2    1    2  501    0  0.52704063856E+02 -0.74953586016E+01  0.10268395695E+04  0.10425740458E+04  0.17241589462E+03 0.  0.
         24    2    5    5    0    0 -0.79929875782E+01  0.38205957318E+02  0.33160653007E+03  0.34318587643E+03  0.79309973956E+02 0.  0.
          5    1    5    5  501    0  0.60697051434E+02 -0.45701315919E+02  0.69523303944E+03  0.69938816937E+03  0.47000000000E+01 0. -1.
        -13    1    6    6    0    0  0.31315938126E+02  0.93600197711E+01  0.72432989680E+02  0.79465942043E+02  0.00000000000E+00 0.  1.
         14    1    6    6    0    0 -0.39308925705E+02  0.28845937546E+02  0.25917354039E+03  0.26371993439E+03  0.00000000000E+00 0. -1.
         -5    1    3    3    0  503 -0.40717134410E+01 -0.60732642361E+02  0.12958337025E+03  0.14324445031E+03  0.47000000000E+01 0.  1.
         13    1    4    4    0    0 -0.55905151964E+02  0.27817484957E+02  0.15355372270E+03  0.16576472556E+03  0.00000000000E+00 0. -1.
        -14    1    4    4    0    0  0.72728015484E+01  0.40410516006E+02  0.27432460420E+03  0.27738041011E+03  0.00000000000E+00 0.  1.
</event>
<event>
12    1  0.8724767E-002  0.2117071E+03  0.7818608E-02  0.1140417E+00
         21   -1    0    0  501  502  0.00000000000E+00  0.00000000000E+00  0.14691336172E+04  0.14691336172E+04  0.00000000000E+00 0.  1.
         21   -1    0    0  502  503 -0.00000000000E+00 -0.00000000000E+00 -0.11517267436E+03  0.11517267436E+03  0.00000000000E+00 0.  1.
         -6    2    1    2    0  503  0.92715270954E+02  0.81406500673E+02 -0.31998105719E+01  0.21073241078E+03  0.17080623626E+03 0.  0.
        -24    2    3    3    0    0 -0.32825451313E+01  0.73403478468E+02 -0.15547617846E+02  0.11349976502E+03  0.85097723147E+02 0.  0.
          6    2    1    2  501    0 -0.92715270954E+02 -0.81406500673E+02  0.13571607534E+04  0.13735738807E+04  0.17203707601E+03 0.  0.
         24    2    5    5    0    0 -0.36444448199E+02 -0.91278495811E+02  0.53556179792E+03  0.54997762322E+03  0.77388533107E+02 0.  0.
          5    1    5    5  501    0 -0.56270822754E+02  0.98719951387E+01  0.82159895546E+03  0.82359625752E+03  0.47000000000E+01 0. -1.
        -13    1    6    6    0    0 -0.33641301596E+02 -0.71777105973E+02  0.51655558223E+03  0.52260248722E+03  0.00000000000E+00 0.  1.
         14    1    6    6    0    0 -0.28031466039E+01 -0.19501389838E+02  0.19006215687E+02  0.27375136004E+02  0.00000000000E+00 0. -1.
         -5    1    3    3    0  503  0.95997816085E+02  0.80030222050E+01  0.12347807275E+02  0.97232645763E+02  0.47000000000E+01 0.  1.
         11    1    4    4    0    0 -0.18868040805E+02  0.11436261002E+02  0.28388987727E+02  0.35954494207E+02  0.00000000000E+00 0. -1.
        -12    1    4    4    0    0  0.15585495673E+02  0.61967217466E+02 -0.43936605574E+02  0.77545270811E+02  0.00000000000E+00 0.  1.
</event>
<event>
12    1  0.8724767E-002  0.1858846E+03  0.7818608E-02  0.1162432E+00
         21   -1    0    0  503  502  0.00000000000E+00  0.00000000000E+00  0.71771011847E+03  0.71771011847E+03  0.00000000000E+00 0.  1.
         21   -1    0    0  501  503 -0.00000000000E+00 -0.00000000000E+00 -0.58768924670E+02  0.58768924670E+02  0.00000000000E+00 0.  1.
          6    2    1    2  501    0 -0.31124501483E+02  0.58163751374E+02  0.16198286384E+03  0.24589381975E+03  0.17283971142E+03 0.  0.
         24    2    3    3    0    0 -0.43873218220E+02 -0.38321182210E+01  0.25425766374E+02  0.95308466892E+02  0.80608249321E+02 0.  0.
         -6    2    1    2    0  502  0.31124501483E+02 -0.58163751374E+02  0.49695832996E+03  0.53058522340E+03  0.17378533023E+03 0.  0.
        -24    2    5    5    0    0  0.37369248000E+02 -0.84798030185E+02  0.21977721724E+03  0.25201774339E+03  0.81386430977E+02 0.  0.
          5    1    3    3  501    0  0.12748716737E+02  0.61995869595E+02  0.13655709747E+03  0.15058535285E+03  0.47000000000E+01 0. -1.
        -13    1    4    4    0    0 -0.34057508056E+02  0.34423104932E+02  0.27631110187E+02  0.55752508987E+02  0.00000000000E+00 0.  1.
         14    1    4    4    0    0 -0.98157101635E+01 -0.38255223153E+02 -0.22053438127E+01  0.39555957905E+02  0.00000000000E+00 0. -1.
         -5    1    5    5    0  502 -0.62447465174E+01  0.26634278811E+02  0.27718111272E+03  0.27856748001E+03  0.47000000000E+01 0.  1.
         11    1    6    6    0    0  0.39665664339E+02 -0.66813433446E+01  0.43801096263E+02  0.59468826373E+02  0.00000000000E+00 0. -1.
        -12    1    6    6    0    0 -0.22964163390E+01 -0.78116686841E+02  0.17597612098E+03  0.19254891702E+03  0.00000000000E+00 0.  1.
</event>
<event>
12    1  0.8724767E-002  0.1794427E+03  0.7818608E-02  0.1168712E+00
         21   -1    0    0  503  502  0.00000000000E+00  0.00000000000E+00  0.10173982118E+03  0.10173982118E+03  0.00000000000E+00 0. -1.
         21   -1    0    0  501  503 -0.00000000000E+00 -0.00000000000E+00 -0.57337282820E+03  0.57337282820E+03  0.00000000000E+00 0. -1.
          6    2    1    2  501    0 -0.31659726427E+02  0.32999408191E+02 -0.46237666306E+03  0.49543135136E+03  0.17195565168E+03 0.  0.
         24    2    3    3    0    0  0.38087288062E+02  0.21377723841E+02 -0.36092950772E+03  0.37168433158E+03  0.77275379061E+02 0.  0.
         -6    2    1    2    0  502  0.31659726427E+02 -0.32999408191E+02 -0.92563439607E+01  0.17968129802E+03  0.17351769286E+03 0.  0.
        -24    2    5    5    0    0  0.48100404735E+02 -0.49537955440E+02 -0.61770488461E+02  0.12203023714E+03  0.79423721681E+02 0.  0.
          5    1    3    3  501    0 -0.69747014489E+02  0.11621684350E+02 -0.10144715534E+03  0.12374701978E+03  0.47000000000E+01 0. -1.
        -13    1    4    4    0    0  0.30871323707E+02 -0.28891117426E+01 -0.44461416221E+02  0.54205194645E+02  0.00000000000E+00 0.  1.
         14    1    4    4    0    0  0.72159643547E+01  0.24266835583E+02 -0.31646809150E+03  0.31747913694E+03  0.00000000000E+00 0. -1.
         -5    1    5    5    0  502 -0.16440678308E+02  0.16538547249E+02  0.52514144501E+02  0.57651060883E+02  0.47000000000E+01 0.  1.
         11    1    6    6    0    0  0.63107451471E+02 -0.36109736619E+02 -0.19608242984E+02  0.75305688382E+02  0.00000000000E+00 0. -1.
        -12    1    6    6    0    0 -0.15007046735E+02 -0.13428218821E+02 -0.42162245478E+02  0.46724548753E+02  0.00000000000E+00 0.  1.
</event>
<event>
12    1  0.8724767E-002  0.1820954E+03  0.7818608E-02  0.1166122E+00
         21   -1    0    0  501  502  0.00000000000E+00  0.00000000000E+00  0.55134257130E+03  0.55134257130E+03  0.00000000000E+00 0. -1.
         21   -1    0    0  502  503 -0.00000000000E+00 -0.00000000000E+00 -0.59713828582E+02  0.59713828582E+02  0.00000000000E+00 0.  1.
         -6    2    1    2    0  503 -0.54863137422E+02  0.16083912308E+02  0.24001772460E+03  0.30127602022E+03  0.17288746674E+03 0.  0.
        -24    2    3    3    0    0 -0.52750685600E+02 -0.10421640479E+02  0.25335191624E+03  0.27116128217E+03  0.80311904882E+02 0.  0.
          6    2    1    2  501    0  0.54863137422E+02 -0.16083912308E+02  0.25161101811E+03  0.30978037966E+03  0.17142672808E+03 0.  0.
         24    2    5    5    0    0  0.81819653065E+02 -0.38944791367E+02  0.10777712663E+03  0.16159282327E+03  0.79279121509E+02 0.  0.
          5    1    5    5  501    0 -0.26956515643E+02  0.22860879059E+02  0.14383389149E+03  0.14818755638E+03  0.47000000000E+01 0. -1.
        -13    1    6    6    0    0  0.34215549327E+02 -0.15908719865E+02  0.10156080469E+03  0.10834384261E+03  0.00000000000E+00 0.  1.
         14    1    6    6    0    0  0.47604103738E+02 -0.23036071501E+02  0.62163219398E+01  0.53248980660E+02  0.00000000000E+00 0. -1.
         -5    1    3    3    0  503 -0.21124518218E+01  0.26505552787E+02 -0.13334191636E+02  0.30114738050E+02  0.47000000000E+01 0.  1.
         13    1    4    4    0    0 -0.46293384985E+02 -0.37760574893E+02  0.11091217456E+03  0.12597797019E+03  0.00000000000E+00 0. -1.
        -14    1    4    4    0    0 -0.64573006155E+01  0.27338934414E+02  0.14243974168E+03  0.14518331198E+03  0.00000000000E+00 0.  1.
</event>
<event>
12    1  0.8724767E-002  0.1717898E+03  0.7818608E-02  0.1176084E+00
         21   -1    0    0  503  502  0.00000000000E+00  0.00000000000E+00  0.22982429908E+02  0.22982429908E+02  0.00000000000E+00 0.  1.
         21   -1    0    0  501  503 -0.00000000000E+00 -0.00000000000E+00 -0.13666472441E+04  0.13666472441E+04  0.00000000000E+00 0.  1.
          6    2    1    2  501    0 -0.50520796764E+01  0.18620504913E+01 -0.84590859896E+03  0.86317616891E+03  0.17170541641E+03 0.  0.
         24    2    3    3    0    0  0.32706117154E+01 -0.14168515409E+02 -0.83971683595E+03  0.84351213666E+03  0.78593360890E+02 0.  0.
         -6    2    1    2    0  502  0.50520796764E+01 -0.18620504913E+01 -0.49775621522E+03  0.52645350510E+03  0.17135650701E+03 0.  0.
        -24    2    5    5    0    0  0.14237346791E+02 -0.63145130609E+02 -0.37551816331E+03  0.38932503841E+03  0.79812812208E+02 0.  0.
          5    1    3    3  501    0 -0.83226913918E+01  0.16030565900E+02 -0.61917630107E+01  0.19664032248E+02  0.47000000000E+01 0. -1.
        -11    1    4    4    0    0 -0.67318845964E+01 -0.39167212351E+02 -0.24637411618E+03  0.24955879851E+03  0.00000000000E+00 0.  1.
         12    1    4    4    0    0  0.10002496312E+02  0.24998696942E+02 -0.59334271978E+03  0.59395333814E+03  0.00000000000E+00 0. -1.
         -5    1    5    5    0  502 -0.91852671143E+01  0.61283080118E+02 -0.12223805191E+03  0.13712846669E+03  0.47000000000E+01 0.  1.
         11    1    6    6    0    0 -0.21500001736E+02 -0.37460563765E+02 -0.28947862745E+03  0.29268313867E+03  0.00000000000E+00 0. -1.
        -12    1    6    6    0    0  0.35737348527E+02 -0.25684566844E+02 -0.86039535859E+02  0.96641899736E+02  0.00000000000E+00 0.  1.
</event>
<event>
12    1  0.8724767E-002  0.2101629E+03  0.7818608E-02  0.1141488E+00
         21   -1    0    0  501  502  0.00000000000E+00  0.00000000000E+00  0.56489537101E+02  0.56489537101E+02  0.00000000000E+00 0.  1.
         21   -1    0    0  502  503 -0.00000000000E+00 -0.00000000000E+00 -0.78479986142E+03  0.78479986142E+03  0.00000000000E+00 0.  1.
         -6    2    1    2    0  503  0.10955515793E+03 -0.47734270862E+02 -0.39394110076E+03  0.44649529759E+03  0.17288020897E+03 0.  0.
        -24    2    3    3    0    0  0.91019238611E+02 -0.25653561661E+02 -0.39798272374E+03  0.41700694836E+03  0.81005799533E+02 0.  0.
          6    2    1    2  501    0 -0.10955515793E+03  0.47734270862E+02 -0.33436922356E+03  0.39479410093E+03  0.17256509272E+03 0.  0.
         24    2    5    5    0    0 -0.27553603614E+02  0.41262146499E+02 -0.60802408359E+02  0.10908964580E+03  0.75775010084E+02 0.  0.
          5    1    5    5  501    0 -0.82001554320E+02  0.64721243631E+01 -0.27356681520E+03  0.28570445513E+03  0.47000000000E+01 0. -1.
        -11    1    6    6    0    0 -0.11401801700E+02 -0.35092154383E+01  0.15256021709E+02  0.19366514230E+02  0.00000000000E+00 0.  1.
         12    1    6    6    0    0 -0.16151801914E+02  0.44771361937E+02 -0.76058430069E+02  0.89723131573E+02  0.00000000000E+00 0. -1.
         -5    1    3    3    0  503  0.18535919323E+02 -0.22080709201E+02  0.40416229796E+01  0.29488349230E+02  0.47000000000E+01 0.  1.
         11    1    4    4    0    0 -0.23311063798E+01 -0.12863210343E+02 -0.69954932960E+01  0.14826771859E+02  0.00000000000E+00 0. -1.
        -12    1    4    4    0    0  0.93350344991E+02 -0.12790351317E+02 -0.39098723045E+03  0.40218017650E+03  0.00000000000E+00 0.  1.
</event>
<event>
12    1  0.8724767E-002  0.1841146E+03  0.7818608E-02  0.1165171E+00
         21   -1    0    0  501  502  0.00000000000E+00  0.00000000000E+00  0.34728148388E+03  0.34728148388E+03  0.00000000000E+00 0.  1.
         21   -1    0    0  502  503 -0.00000000000E+00 -0.00000000000E+00 -0.16959836351E+03  0.16959836351E+03  0.00000000000E+00 0.  1.
         -6    2    1    2    0  503 -0.54701109969E+02  0.15238210467E+02 -0.83561802212E+02  0.19727522856E+03  0.16944180866E+03 0.  0.
        -24    2    3    3    0    0 -0.77035041100E+02  0.55853629209E+02 -0.32723276901E+02  0.12831826825E+03  0.79628761522E+02 0.  0.
          6    2    1    2  501    0  0.54701109969E+02 -0.15238210467E+02  0.26124492258E+03  0.31960461883E+03  0.17513933972E+03 0.  0.
         24    2    5    5    0    0  0.23062788296E+02 -0.47251065382E+02  0.25609734383E+03  0.27405910484E+03  0.82206982945E+02 0.  0.
          5    1    5    5  501    0  0.31638321673E+02  0.32012854915E+02  0.51475787454E+01  0.45545513995E+02  0.47000000000E+01 0. -1.
        -11    1    6    6    0    0  0.51714832581E+02 -0.40486259700E+02  0.14597620684E+03  0.16007065345E+03  0.00000000000E+00 0.  1.
         12    1    6    6    0    0 -0.28652044285E+02 -0.67648056822E+01  0.11012113699E+03  0.11398845139E+03  0.00000000000E+00 0. -1.
         -5    1    3    3    0  503  0.22333931132E+02 -0.40615418742E+02 -0.50838525311E+02  0.68956960310E+02  0.47000000000E+01 0.  1.
         11    1    4    4    0    0 -0.28238112307E+02 -0.16837974329E+02  0.44980351629E+01  0.33183439943E+02  0.00000000000E+00 0. -1.
        -12    1    4    4    0    0 -0.48796928794E+02  0.72691603538E+02 -0.37221312064E+02  0.95134828304E+02  0.00000000000E+00 0.  1.
</event>
<event>
12    1  0.8724767E-002  0.1994566E+03  0.7818608E-02  0.1150656E+00
         21   -1    0    0  503  502  0.00000000000E+00  0.00000000000E+00  0.70349802294E+03  0.70349802294E+03  0.00000000000E+00 0.  1.
         21   -1    0    0  501  503 -0.00000000000E+00 -0.00000000000E+00 -0.15745120501E+03  0.15745120501E+03  0.00000000000E+00 0. -1.
          6    2    1    2  501    0  0.44127845419E+02 -0.91674142726E+02 -0.72091549443E+02  0.21208523346E+03  0.17155622858E+03 0.  0.
         24    2    3    3    0    0 -0.35664910706E+02 -0.43469510862E+02 -0.35334966265E+01  0.96271300490E+02  0.78064674913E+02 0.  0.
         -6    2    1    2    0  502 -0.44127845419E+02  0.91674142726E+02  0.61813836738E+03  0.64886399449E+03  0.16905036804E+03 0.  0.
        -24    2    5    5    0    0 -0.39914902131E+02  0.11118835207E+02  0.48454323719E+03  0.49273374352E+03  0.79294169897E+02 0.  0.
          5    1    3    3  501    0  0.79792756126E+02 -0.48204631864E+02 -0.68558052816E+02  0.11581393297E+03  0.47000000000E+01 0. -1.
        -11    1    4    4    0    0 -0.32709014891E+02 -0.44519843736E+02 -0.34509545146E+02  0.65136816375E+02  0.00000000000E+00 0.  1.
         12    1    4    4    0    0 -0.29558958160E+01  0.10503328735E+01  0.30976048519E+02  0.31134484115E+02  0.00000000000E+00 0. -1.
         -5    1    5    5    0  502 -0.42129432879E+01  0.80555307519E+02  0.13359513018E+03  0.15613025097E+03  0.47000000000E+01 0.  1.
         13    1    6    6    0    0  0.91786628752E+01 -0.22895699159E+02  0.22797087012E+03  0.22930150133E+03  0.00000000000E+00 0. -1.
        -14    1    6    6    0    0 -0.49093565007E+02  0.34014534366E+02  0.25657236708E+03  0.26343224218E+03  0.00000000000E+00 0.  1.
</event>
<event>
12    1  0.8724767E-002  0.1894137E+03  0.7818608E-02  0.1159287E+00
         21   -1    0    0  503  502  0.00000000000E+00  0.00000000000E+00  0.10766153486E+04  0.10766153486E+04  0.00000000000E+00 0. -1.
         21   -1    0    0  501  503 -0.00000000000E+00 -0.00000000000E+00 -0.34529071008E+02  0.34529071008E+02  0.00000000000E+00 0. -1.
          6    2    1    2  501    0  0.67450114077E+02  0.38442310084E+02  0.40612998976E+03  0.44757984057E+03  0.17134414495E+03 0.  0.
         24    2    3    3    0    0  0.97429292742E+02 -0.54278360552E+01  0.21429150511E+03  0.24846320372E+03  0.79316996633E+02 0.  0.
         -6    2    1    2    0  502 -0.67450114077E+02 -0.38442310084E+02  0.63595628779E+03  0.66356457900E+03  0.17277216623E+03 0.  0.
        -24    2    5    5    0    0 -0.67645201915E+02  0.31559765992E+02  0.26052952931E+03  0.28163831687E+03  0.76632980614E+02 0.  0.
          5    1    3    3  501    0 -0.29979178664E+02  0.43870146139E+02  0.19183848465E+03  0.19911663685E+03  0.47000000000E+01 0. -1.
        -13    1    4    4    0    0  0.53060095257E+01  0.22295817718E+02  0.15652439417E+02  0.27753487790E+02  0.00000000000E+00 0.  1.
         14    1    4    4    0    0  0.92123283216E+02 -0.27723653773E+02  0.19863906569E+03  0.22070971593E+03  0.00000000000E+00 0. -1.
         -5    1    5    5    0  502  0.19508783766E+00 -0.70002076075E+02  0.37542675848E+03  0.38192626212E+03  0.47000000000E+01 0.  1.
         13    1    6    6    0    0 -0.81380671786E+02  0.27330610255E+02  0.24845289156E+03  0.26286615477E+03  0.00000000000E+00 0. -1.
        -14    1    6    6    0    0  0.13735469871E+02  0.42291557367E+01  0.12076637746E+02  0.18772162104E+02  0.00000000000E+00 0.  1.
</event>
<event>
12    1  0.8724767E-002  0.2535013E+03  0.7818608E-02  0.1111421E+00
         21   -1    0    0  503  502  0.00000000000E+00  0.00000000000E+00  0.71852569808E+02  0.71852569808E+02  0.00000000000E+00 0.  1.
         21   -1    0    0  501  503 -0.00000000000E+00 -0.00000000000E+00 -0.90183468707E+03  0.90183468707E+03  0.00000000000E+00 0.  1.
          6    2    1    2  501    0  0.18513341679E+03 -0.75722703338E+01 -0.47823761034E+03  0.54127085653E+03  0.17300637821E+03 0.  0.
         24    2    3    3    0    0  0.51032379709E+02 -0.49017045696E+02 -0.14830813270E+03  0.18269547008E+03  0.79845839078E+02 0.  0.
         -6    2    1    2    0  502 -0.18513341679E+03  0.75722703338E+01 -0.35174450693E+03  0.43241640035E+03  0.17008240311E+03 0.  0.
        -24    2    5    5    0    0 -0.64878163070E+02 -0.26923764617E+02 -0.24914877723E+03  0.27055449555E+03  0.78680090999E+02 0.  0.
          5    1    3    3  501    0  0.13410103708E+03  0.41444775362E+02 -0.32992947764E+03  0.35857538645E+03  0.47000000000E+01 0. -1.
        -11    1    4    4    0    0 -0.16713550182E+01 -0.99197615777E+01  0.82054145019E+01  0.12981676490E+02  0.00000000000E+00 0.  1.
         12    1    4    4    0    0  0.52703734727E+02 -0.39097284118E+02 -0.15651354720E+03  0.16971379359E+03  0.00000000000E+00 0. -1.
         -5    1    5    5    0  502 -0.12025525372E+03  0.34496034950E+02 -0.10259572969E+03  0.16186190480E+03  0.47000000000E+01 0.  1.
         11    1    6    6    0    0 -0.30281520107E+02 -0.52415679438E+02 -0.17055760418E+03  0.18098140859E+03  0.00000000000E+00 0. -1.
        -12    1    6    6    0    0 -0.34596642963E+02  0.25491914821E+02 -0.78591173057E+02  0.89573086963E+02  0.00000000000E+00 0.  1.
</event>
<event>
12    1  0.8724767E-002  0.2377487E+03  0.7818608E-02  0.1121672E+00
         21   -1    0    0  501  502  0.00000000000E+00  0.00000000000E+00  0.10461106143E+03  0.10461106143E+03  0.00000000000E+00 0. -1.
         21   -1    0    0  502  503 -0.00000000000E+00 -0.00000000000E+00 -0.54176159869E+03  0.54176159869E+03  0.00000000000E+00 0.  1.
         -6    2    1    2    0  503  0.14365957446E+03 -0.81947733620E+02 -0.18247154760E+03  0.29796793443E+03  0.16773645961E+03 0.  0.
        -24    2    3    3    0    0  0.89008475018E+02 -0.75814358101E+02 -0.19499885722E+03  0.24136948523E+03  0.81020667493E+02 0.  0.
          6    2    1    2  501    0 -0.14365957446E+03  0.81947733620E+02 -0.25467898965E+03  0.34840472569E+03  0.17079508405E+03 0.  0.
         24    2    5    5    0    0 -0.50506755326E+02 -0.23715370986E+02 -0.96038264912E+02  0.13619937955E+03  0.78826210784E+02 0.  0.
          5    1    5    5  501    0 -0.93152819135E+02  0.10566310461E+03 -0.15864072474E+03  0.21220534615E+03  0.47000000000E+01 0. -1.
        -13    1    6    6    0    0 -0.41359172492E+01 -0.33466344494E+02 -0.78911068804E+02  0.85814094443E+02  0.00000000000E+00 0.  1.
         14    1    6    6    0    0 -0.46370838077E+02  0.97509735078E+01 -0.17127196108E+02  0.50385285102E+02  0.00000000000E+00 0. -1.
         -5    1    3    3    0  503  0.54651099443E+02 -0.61333755199E+01  0.12527309621E+02  0.56598449201E+02  0.47000000000E+01 0.  1.
         11    1    4    4    0    0  0.73712604265E+02 -0.91186940706E+02 -0.14231370578E+03  0.18439576197E+03  0.00000000000E+00 0. -1.
        -12    1    4    4    0    0  0.15295870753E+02  0.15372582605E+02 -0.52685151450E+02  0.56973723253E+02  0.00000000000E+00 0.  1.
</event>
<event>
12    1  0.8724767E-002  0.2034714E+03  0.7818608E-02  0.1146969E+00
         21   -1    0    0  501  502  0.00000000000E+00  0.00000000000E+00  0.24822202473E+03  0.24822202473E+03  0.00000000000E+00 0.  1.
         21   -1    0    0  502  503 -0.00000000000E+00 -0.00000000000E+00 -0.19599320282E+03  0.19599320282E+03  0.00000000000E+00 0. -1.
         -6    2    1    2    0  503  0.10859750752E+03  0.18970415748E+00 -0.60384484486E+02  0.21165905874E+03  0.17134706462E+03 0.  0.
        -24    2    3    3    0    0  0.10246611077E+02 -0.32418322342E+02  0.10348132730E+02  0.86114742415E+02  0.78439303593E+02 0.  0.
          6    2    1    2  501    0 -0.10859750752E+03 -0.18970415748E+00  0.11261330641E+03  0.23255616881E+03  0.17206731313E+03 0.  0.
         24    2    5    5    0    0 -0.35804489358E+02  0.22779625114E+02  0.12551197839E+03  0.15500051577E+03  0.80442714974E+02 0.  0.
          5    1    5    5  501    0 -0.72793018157E+02 -0.22969329272E+02 -0.12898671983E+02  0.77555653040E+02  0.47000000000E+01 0. -1.
        -13    1    6    6    0    0  0.11773953015E+02 -0.14018811484E+02  0.72659808980E+02  0.74930640502E+02  0.00000000000E+00 0.  1.
         14    1    6    6    0    0 -0.47578442373E+02  0.36798436598E+02  0.52852169408E+02  0.80069875271E+02  0.00000000000E+00 0. -1.
         -5    1    3    3    0  503  0.98350896438E+02  0.32608026500E+02 -0.70732617216E+02  0.12554431632E+03  0.47000000000E+01 0.  1.
         11    1    4    4    0    0 -0.29523394556E+01  0.19295477784E+02 -0.17232228094E+02  0.26038077046E+02  0.00000000000E+00 0. -1.
        -12    1    4    4    0    0  0.13198950533E+02 -0.51713800126E+02  0.27580360824E+02  0.60076665369E+02  0.00000000000E+00 0.  1.
</event>
<event>
12    1  0.8724767E-002  0.1881307E+03  0.7818608E-02  0.1160733E+00
         21   -1    0    0  501  502  0.00000000000E+00  0.00000000000E+00  0.23637605003E+03  0.23637605003E+03  0.00000000000E+00 0.  1.
         21   -1    0    0  502  503 -0.00000000000E+00 -0.00000000000E+00 -0.46199443313E+03  0.46199443313E+03  0.00000000000E+00 0.  1.
         -6    2    1    2    0  503  0.64077165884E+02 -0.31849023184E+02 -0.40103393300E+03  0.44296881796E+03  0.17399113427E+03 0.  0.
        -24    2    3    3    0    0 -0.22230377036E+02  0.19637987814E+02 -0.18867969002E+03  0.20798728938E+03  0.82333753021E+02 0.  0.
          6    2    1    2  501    0 -0.64077165884E+02  0.31849023184E+02  0.17541554990E+03  0.25540166519E+03  0.17128675363E+03 0.  0.
         24    2    5    5    0    0 -0.50337630932E+02  0.39042654934E+02  0.21142928537E+02  0.10028024545E+03  0.74504350268E+02 0.  0.
          5    1    5    5  501    0 -0.13739534952E+02 -0.71936317504E+01  0.15427262136E+03  0.15512141974E+03  0.47000000000E+01 0. -1.
        -11    1    6    6    0    0 -0.23257645315E+02  0.10535030479E+02  0.46813021096E+02  0.53323202051E+02  0.00000000000E+00 0.  1.
         12    1    6    6    0    0 -0.27079985617E+02  0.28507624455E+02 -0.25670092559E+02  0.46957043402E+02  0.00000000000E+00 0. -1.
         -5    1    3    3    0  503  0.86307542920E+02 -0.51487010998E+02 -0.21235424298E+03  0.23498152859E+03  0.47000000000E+01 0.  1.
         11    1    4    4    0    0  0.10612740468E+02  0.20391912091E+02 -0.79927249263E+01  0.24338118061E+02  0.00000000000E+00 0. -1.
        -12    1    4    4    0    0 -0.32843117504E+02 -0.75392427709E+00 -0.18068696510E+03  0.18364917132E+03  0.00000000000E+00 0.  1.
</event>
<event>
12    1  0.8724767E-002  0.3278330E+03  0.7818608E-02  0.1072137E+00
         21   -1    0    0  503  502  0.00000000000E+00  0.00000000000E+00  0.25455129190E+03  0.25455129190E+03  0.00000000000E+00 0. -1.
         21   -1    0    0  501  503 -0.00000000000E+00 -0.00000000000E+00 -0.44218124459E+03  0.44218124459E+03  0.00000000000E+00 0.  1.
          6    2    1    2  501    0 -0.74235983368E+02 -0.26839165401E+03 -0.19038880073E+02  0.32838536326E+03  0.17300117537E+03 0.  0.
         24    2    3    3    0    0 -0.97219714001E+02 -0.22822552954E+03 -0.59407556749E+02  0.26679567674E+03  0.78179985971E+02 0.  0.
         -6    2    1    2    0  502  0.74235983368E+02  0.26839165401E+03 -0.16859107262E+03  0.36834717322E+03  0.17237061550E+03 0.  0.
        -24    2    5    5    0    0  0.63921093281E+02  0.11545117399E+03 -0.17041674984E+02  0.15273989758E+03  0.74994519036E+02 0.  0.
          5    1    3    3  501    0  0.22983730633E+02 -0.40166124474E+02  0.40368676676E+02  0.61589686520E+02  0.47000000000E+01 0. -1.
        -11    1    4    4    0    0 -0.16899413884E+02  0.11821702991E+01 -0.56663274792E+01  0.17863229925E+02  0.00000000000E+00 0.  1.
         12    1    4    4    0    0 -0.80320300117E+02 -0.22940769984E+03 -0.53741229270E+02  0.24893244682E+03  0.00000000000E+00 0. -1.
         -5    1    5    5    0  502  0.10314890087E+02  0.15294048002E+03 -0.15154939763E+03  0.21560727564E+03  0.47000000000E+01 0.  1.
         13    1    6    6    0    0  0.18418443009E+02  0.30860890508E+02  0.29040149393E+02  0.46205669377E+02  0.00000000000E+00 0. -1.
        -14    1    6    6    0    0  0.45502650271E+02  0.84590283484E+02 -0.46081824378E+02  0.10653422821E+03  0.00000000000E+00 0.  1.
</event>
<event>
12    1  0.8724767E-002  0.2188390E+03  0.7818608E-02  0.1135235E+00
         21   -1    0    0  503  502  0.00000000000E+00  0.00000000000E+00  0.30992122624E+03  0.30992122624E+03  0.00000000000E+00 0. -1.
         21   -1    0    0  501  503 -0.00000000000E+00 -0.00000000000E+00 -0.15297892834E+03  0.15297892834E+03  0.00000000000E+00 0. -1.
          6    2    1    2  501    0  0.11729924438E+03  0.59479219409E+02  0.68541293779E+02  0.22688054782E+03  0.17169736094E+03 0.  0.
         24    2    3    3    0    0  0.11399669428E+02  0.67217463288E+02  0.57081466359E+02  0.11997863934E+03  0.80550855128E+02 0.  0.
         -6    2    1    2    0  502 -0.11729924438E+03 -0.59479219409E+02  0.88401004124E+02  0.23601960676E+03  0.17491033981E+03 0.  0.
        -24    2    5    5    0    0 -0.72389290620E+02 -0.99367851562E+02  0.75330887562E+02  0.17436796551E+03  0.98057459970E+02 0.  0.
          5    1    3    3  501    0  0.10589957495E+03 -0.77382438791E+01  0.11459827420E+02  0.10690190848E+03  0.47000000000E+01 0. -1.
        -13    1    4    4    0    0 -0.93809590522E+01  0.20366730664E+02  0.64412950436E+02  0.68204356859E+02  0.00000000000E+00 0.  1.
         14    1    4    4    0    0  0.20780628480E+02  0.46850732624E+02 -0.73314840772E+01  0.51774282479E+02  0.00000000000E+00 0. -1.
         -5    1    5    5    0  502 -0.44909953757E+02  0.39888632154E+02  0.13070116561E+02  0.61651641247E+02  0.47000000000E+01 0.  1.
         11    1    6    6    0    0 -0.38820039790E+02 -0.68416604762E+02 -0.82844957341E+01  0.79097788629E+02  0.00000000000E+00 0. -1.
        -12    1    6    6    0    0 -0.33569250831E+02 -0.30951246801E+02  0.83615383297E+02  0.95270176885E+02  0.00000000000E+00 0.  1.
</event>
<event>
12    1  0.8724767E-002  0.1834269E+03  0.7818608E-02  0.1164778E+00
         21   -1    0    0  501  502  0.00000000000E+00  0.00000000000E+00  0.34709527463E+03  0.34709527463E+03  0.00000000000E+00 0.  1.
         21   -1    0    0  502  503 -0.00000000000E+00 -0.00000000000E+00 -0.14175999285E+03  0.14175999285E+03  0.00000000000E+00 0.  1.
         -6    2    1    2    0  503 -0.27172328169E+02  0.57167194305E+02 -0.35431251268E+02  0.18681759070E+03  0.17215985335E+03 0.  0.
        -24    2    3    3    0    0 -0.68986436584E+02  0.17000682850E+02  0.17047987197E+02  0.10847265612E+03  0.80171887891E+02 0.  0.
          6    2    1    2  501    0  0.27172328169E+02 -0.57167194305E+02  0.24076653304E+03  0.30203767678E+03  0.17103160888E+03 0.  0.
         24    2    5    5    0    0 -0.43942926577E+02 -0.34932692796E+01  0.14196041283E+03  0.16890988450E+03  0.80215999305E+02 0.  0.
          5    1    5    5  501    0  0.71115254747E+02 -0.53673925025E+02  0.98806120214E+02  0.13312779228E+03  0.47000000000E+01 0. -1.
        -13    1    6    6    0    0 -0.33975302109E+02 -0.37199063548E+02  0.52356876152E+02  0.72659025335E+02  0.00000000000E+00 0.  1.
         14    1    6    6    0    0 -0.99676244685E+01  0.33705794269E+02  0.89603536677E+02  0.96250859164E+02  0.00000000000E+00 0. -1.
         -5    1    3    3    0  503  0.41814108415E+02  0.40166511455E+02 -0.52479238465E+02  0.78344934584E+02  0.47000000000E+01 0.  1.
         13    1    4    4    0    0 -0.61800227703E+01 -0.27885729630E+02  0.12392933557E+02  0.31135050997E+02  0.00000000000E+00 0. -1.
        -14    1    4    4    0    0 -0.62806413814E+02  0.44886412480E+02  0.46550536403E+01  0.77337605121E+02  0.00000000000E+00 0.  1.
</event>
<event>
12    1  0.8724767E-002  0.1777123E+03  0.7818608E-02  0.1170782E+00
         21   -1    0    0  501  502  0.00000000000E+00  0.00000000000E+00  0.23815569465E+03  0.23815569465E+03  0.00000000000E+00 0. -1.
         21   -1    0    0  502  503 -0.00000000000E+00 -0.00000000000E+00 -0.17480743994E+03  0.17480743994E+03  0.00000000000E+00 0. -1.
         -6    2    1    2    0  503  0.26303248644E+02  0.38083034259E+02 -0.72220527266E+02  0.19182665077E+03  0.17157937230E+03 0.  0.
        -24    2    3    3    0    0 -0.31973828454E+02  0.69158882052E+02 -0.31486122431E+02  0.11408793604E+03  0.78863201627E+02 0.  0.
          6    2    1    2  501    0 -0.26303248644E+02 -0.38083034259E+02  0.13556878198E+03  0.22113648381E+03  0.16846445156E+03 0.  0.
         24    2    5    5    0    0  0.33611576035E+02 -0.46826879819E+01  0.21881678754E+02  0.88274838530E+02  0.78498239739E+02 0.  0.
          5    1    5    5  501    0 -0.59914824679E+02 -0.33400346277E+02  0.11368710323E+03  0.13286164528E+03  0.47000000000E+01 0. -1.
        -11    1    6    6    0    0  0.45425857844E+02 -0.48220401435E+01  0.43856073885E+02  0.63325475510E+02  0.00000000000E+00 0.  1.
         12    1    6    6    0    0 -0.11814281809E+02  0.13935216158E+00 -0.21974395131E+02  0.24949363019E+02  0.00000000000E+00 0. -1.
         -5    1    3    3    0  503  0.58277077098E+02 -0.31075847793E+02 -0.40734404835E+02  0.77738714734E+02  0.47000000000E+01 0.  1.
         13    1    4    4    0    0 -0.69952325982E+01  0.27700227053E+02 -0.53703747644E+02  0.60830324418E+02  0.00000000000E+00 0. -1.
        -14    1    4    4    0    0 -0.24978595856E+02  0.41458654999E+02  0.22217625213E+02  0.53257611619E+02  0.00000000000E+00 0.  1.
</event>
<event>
12    1  0.8724767E-002  0.2315951E+03  0.7818608E-02  0.1126193E+00
         21   -1    0    0  503  502  0.00000000000E+00  0.00000000000E+00  0.57905045285E+02  0.57905045285E+02  0.00000000000E+00 0.  1.
         21   -1    0    0  501  503 -0.00000000000E+00 -0.00000000000E+00 -0.10101721645E+04  0.10101721645E+04  0.00000000000E+00 0. -1.
          6    2    1    2  501    0  0.82065042570E+02 -0.13382572747E+03 -0.64694343561E+03  0.68714781582E+03  0.17027129930E+03 0.  0.
         24    2    3    3    0    0  0.47403554640E+02 -0.90536458737E+02 -0.23779965130E+03  0.27423607492E+03  0.90624518081E+02 0.  0.
         -6    2    1    2    0  502 -0.82065042570E+02  0.13382572747E+03 -0.30532368356E+03  0.38092939392E+03  0.16504743217E+03 0.  0.
        -24    2    5    5    0    0 -0.25042261141E+02  0.13930436219E+03 -0.26391437416E+03  0.31008848805E+03  0.80444100832E+02 0.  0.
          5    1    3    3  501    0  0.34661487930E+02 -0.43289268730E+02 -0.40914378431E+03  0.41291174090E+03  0.47000000000E+01 0. -1.
        -13    1    4    4    0    0  0.15814420797E+02 -0.10072518370E+03 -0.19528218097E+03  0.22029704660E+03  0.00000000000E+00 0.  1.
         14    1    4    4    0    0  0.31589133843E+02  0.10188724959E+02 -0.42517470332E+02  0.53939028325E+02  0.00000000000E+00 0. -1.
         -5    1    5    5    0  502 -0.57022781428E+02 -0.54786347273E+01 -0.41409309396E+02  0.70840905874E+02  0.47000000000E+01 0.  1.
         13    1    6    6    0    0  0.28128791206E+01  0.77283161087E+02 -0.68946708529E+02  0.10360621552E+03  0.00000000000E+00 0. -1.
        -14    1    6    6    0    0 -0.27855140262E+02  0.62021201107E+02 -0.19496766564E+03  0.20648227253E+03  0.00000000000E+00 0.  1.
</event>
<event>
12    1  0.8724767E-002  0.2131549E+03  0.7818608E-02  0.1139286E+00
         21   -1    0    0  503  502  0.00000000000E+00  0.00000000000E+00  0.17876919690E+04  0.17876919690E+04  0.00000000000E+00 0. -1.
         21   -1    0    0  501  503 -0.00000000000E+00 -0.00000000000E+00 -0.62320582305E+02  0.62320582305E+02  0.00000000000E+00 0. -1.
          6    2    1    2  501    0 -0.70828308546E+02 -0.10306606731E+03  0.15053931184E+03  0.26095421917E+03  0.17261447382E+03 0.  0.
         24    2    3    3    0    0 -0.41130943310E+02 -0.13811510835E+03  0.13378865043E+03  0.21183148068E+03  0.78775856523E+02 0.  0.
         -6    2    1    2    0  502  0.70828308546E+02  0.10306606731E+03  0.15748320749E+04  0.15890583321E+04  0.17137985708E+03 0.  0.
        -24    2    5    5    0    0  0.24143053463E+01  0.11152011583E+03  0.85636577245E+03  0.86727729576E+03  0.79780990357E+02 0.  0.
          5    1    3    3  501    0 -0.29697365235E+02  0.35049041037E+02  0.16750661416E+02  0.49122738497E+02  0.47000000000E+01 0. -1.
        -11    1    4    4    0    0 -0.26296859441E+02 -0.48217389302E+02  0.10105692403E+03  0.11501714368E+03  0.00000000000E+00 0.  1.
         12    1    4    4    0    0 -0.14834083869E+02 -0.89897719047E+02  0.32731726399E+02  0.96814336991E+02  0.00000000000E+00 0. -1.
         -5    1    5    5    0  502  0.68414003199E+02 -0.84540485190E+01  0.71846630240E+03  0.72178103637E+03  0.47000000000E+01 0.  1.
         13    1    6    6    0    0  0.19539545298E+02  0.42786408506E+02  0.14603168557E+03  0.15342008921E+03  0.00000000000E+00 0. -1.
        -14    1    6    6    0    0 -0.17125239952E+02  0.68733707324E+02  0.71033408688E+03  0.71385720655E+03  0.00000000000E+00 0.  1.
</event>
<event>
12    1  0.8724767E-002  0.1741007E+03  0.7818608E-02  0.1173906E+00
         21   -1    0    0  501  502  0.00000000000E+00  0.00000000000E+00  0.19861451234E+03  0.19861451234E+03  0.00000000000E+00 0. -1.
         21   -1    0    0  502  503 -0.00000000000E+00 -0.00000000000E+00 -0.18301168390E+03  0.18301168390E+03  0.00000000000E+00 0. -1.
         -6    2    1    2    0  503  0.14895263834E+02 -0.19195040127E+02 -0.71163063958E+02  0.18710270742E+03  0.17132694769E+03 0.  0.
        -24    2    3    3    0    0 -0.49046005451E+02  0.13081894542E+02 -0.57225394819E+02  0.11398201917E+03  0.84501528194E+02 0.  0.
          6    2    1    2  501    0 -0.14895263834E+02  0.19195040127E+02  0.86765892399E+02  0.19452348882E+03  0.17239706832E+03 0.  0.
         24    2    5    5    0    0 -0.45078023139E+02 -0.39764231621E+02  0.15089176088E+02  0.96815575392E+02  0.74379769541E+02 0.  0.
          5    1    5    5  501    0  0.30182759305E+02  0.58959271748E+02  0.71676716311E+02  0.97707913423E+02  0.47000000000E+01 0. -1.
        -13    1    6    6    0    0 -0.51523876563E+02 -0.29789143126E+02 -0.17577445067E+02  0.62056985741E+02  0.00000000000E+00 0.  1.
         14    1    6    6    0    0  0.64458534238E+01 -0.99750884955E+01  0.32666621155E+02  0.34758589651E+02  0.00000000000E+00 0. -1.
         -5    1    3    3    0  503  0.63941269285E+02 -0.32276934669E+02 -0.13937669139E+02  0.73120688251E+02  0.47000000000E+01 0.  1.
         11    1    4    4    0    0 -0.50042011872E+02 -0.27804310042E+02 -0.28095413096E+02  0.63770172073E+02  0.00000000000E+00 0. -1.
        -12    1    4    4    0    0  0.99600642107E+00  0.40886204584E+02 -0.29129981723E+02  0.50211847100E+02  0.00000000000E+00 0.  1.
</event>
<event>
12    1  0.8724767E-002  0.1862319E+03  0.7818608E-02  0.1162076E+00
         21   -1    0    0  503  502  0.00000000000E+00  0.00000000000E+00  0.67677350373E+03  0.67677350373E+03  0.00000000000E+00 0.  1.
         21   -1    0    0  501  503 -0.00000000000E+00 -0.00000000000E+00 -0.52036505841E+02  0.52036505841E+02  0.00000000000E+00 0. -1.
          6    2    1    2  501    0 -0.39536403540E+02  0.58340224918E+02  0.26264323639E+03  0.32196862593E+03  0.17238218415E+03 0.  0.
         24    2    3    3    0    0 -0.66107056433E+02  0.85763984280E+02  0.24330359974E+03  0.27890850843E+03  0.82871650895E+02 0.  0.
         -6    2    1    2    0  502  0.39536403540E+02 -0.58340224918E+02  0.36209376150E+03  0.40684138364E+03  0.17158470293E+03 0.  0.
        -24    2    5    5    0    0 -0.22635591315E+02 -0.27120108367E+02  0.86069001337E+02  0.12214538640E+03  0.79143869984E+02 0.  0.
          5    1    3    3  501    0  0.26570652893E+02 -0.27423759363E+02  0.19339636648E+02  0.43060117492E+02  0.47000000000E+01 0. -1.
        -13    1    4    4    0    0 -0.21801575325E+02  0.49874578871E+02  0.39431436769E+02  0.67213246535E+02  0.00000000000E+00 0.  1.
         14    1    4    4    0    0 -0.44305481108E+02  0.35889405409E+02  0.20387216297E+03  0.21169526190E+03  0.00000000000E+00 0. -1.
         -5    1    5    5    0  502  0.62171994855E+02 -0.31220116550E+02  0.27602476016E+03  0.28469599724E+03  0.47000000000E+01 0.  1.
         11    1    6    6    0    0  0.16289241504E+02 -0.23022881392E+02  0.67713475096E+00  0.28210830683E+02  0.00000000000E+00 0. -1.
        -12    1    6    6    0    0 -0.38924832820E+02 -0.40972269756E+01  0.85391866586E+02  0.93934555718E+02  0.00000000000E+00 0.  1.
</event>
<event>
12    1  0.8724767E-002  0.3071680E+03  0.7818608E-02  0.1081994E+00
         21   -1    0    0  501  502  0.00000000000E+00  0.00000000000E+00  0.23513937197E+03  0.23513937197E+03  0.00000000000E+00 0. -1.
         21   -1    0    0  502  503 -0.00000000000E+00 -0.00000000000E+00 -0.45282098730E+03  0.45282098730E+03  0.00000000000E+00 0.  1.
         -6    2    1    2    0  503 -0.17964766210E+03  0.18050404913E+03 -0.22791203957E+03  0.38062205962E+03  0.16755375329E+03 0.  0.
        -24    2    3    3    0    0 -0.49162948888E+02  0.12178383550E+03 -0.73888763497E+02  0.17033752990E+03  0.79416790340E+02 0.  0.
          6    2    1    2  501    0  0.17964766210E+03 -0.18050404913E+03  0.10230424240E+02  0.30733829965E+03  0.17174741512E+03 0.  0.
         24    2    5    5    0    0  0.11769238908E+03 -0.66041332210E+02 -0.49555738754E+02  0.16403217729E+03  0.78979921090E+02 0.  0.
          5    1    5    5  501    0  0.61955273017E+02 -0.11446271692E+03  0.59786162994E+02  0.14330612236E+03  0.47000000000E+01 0. -1.
        -11    1    6    6    0    0  0.99834234992E+02 -0.84370256364E+02 -0.43201911814E+02  0.13766488230E+03  0.00000000000E+00 0.  1.
         12    1    6    6    0    0  0.17858154092E+02  0.18328924154E+02 -0.63538269403E+01  0.26367294988E+02  0.00000000000E+00 0. -1.
         -5    1    3    3    0  503 -0.13048471321E+03  0.58720213629E+02 -0.15402327607E+03  0.21028452973E+03  0.47000000000E+01 0.  1.
         13    1    4    4    0    0 -0.36824258079E+02  0.76461972283E+02 -0.25276139776E+01  0.84904935198E+02  0.00000000000E+00 0. -1.
        -14    1    4    4    0    0 -0.12338690809E+02  0.45321863216E+02 -0.71361149520E+02  0.85432594699E+02  0.00000000000E+00 0.  1.
</event>
<event>
12    1  0.8724767E-002  0.1831150E+03  0.7818608E-02  0.1164984E+00
         21   -1    0    0  503  502  0.00000000000E+00  0.00000000000E+00  0.60251587219E+02  0.60251587219E+02  0.00000000000E+00 0. -1.
         21   -1    0    0  501  503 -0.00000000000E+00 -0.00000000000E+00 -0.60890994678E+03  0.60890994678E+03  0.00000000000E+00 0. -1.
          6    2    1    2  501    0  0.51472823592E+02  0.34138211346E+02 -0.37485773059E+03  0.41719229521E+03  0.17238394345E+03 0.  0.
         24    2    3    3    0    0 -0.16917840398E+02 -0.15235715555E+02 -0.26718344941E+03  0.28033138623E+03  0.81733408815E+02 0.  0.
         -6    2    1    2    0  502 -0.51472823592E+02 -0.34138211346E+02 -0.17380062898E+03  0.25196923879E+03  0.17165945830E+03 0.  0.
        -24    2    5    5    0    0  0.37463585042E+02 -0.32874513607E+02 -0.81406087103E+02  0.12363326145E+03  0.78574668120E+02 0.  0.
          5    1    3    3  501    0  0.68390663990E+02  0.49373926902E+02 -0.10767428118E+03  0.13686090898E+03  0.47000000000E+01 0. -1.
        -13    1    4    4    0    0 -0.44177291108E+02  0.11239161173E+02 -0.12138102178E+03  0.12965841370E+03  0.00000000000E+00 0.  1.
         14    1    4    4    0    0  0.27259450710E+02 -0.26474876728E+02 -0.14580242763E+03  0.15067297254E+03  0.00000000000E+00 0. -1.
         -5    1    5    5    0  502 -0.88936408634E+02 -0.12636977388E+01 -0.92394541873E+02  0.12833597734E+03  0.47000000000E+01 0.  1.
         13    1    6    6    0    0 -0.15335956557E+02  0.93506095295E+01 -0.19346713372E+00  0.17962819702E+02  0.00000000000E+00 0. -1.
        -14    1    6    6    0    0  0.52799541599E+02 -0.42225123137E+02 -0.81212619969E+02  0.10567044175E+03  0.00000000000E+00 0.  1.
</event>
<event>
12    1  0.8724767E-002  0.1780026E+03  0.7818608E-02  0.1169755E+00
         21   -1    0    0  501  502  0.00000000000E+00  0.00000000000E+00  0.41714348363E+03  0.41714348363E+03  0.00000000000E+00 0. -1.
         21   -1    0    0  502  503 -0.00000000000E+00 -0.00000000000E+00 -0.16647212004E+03  0.16647212004E+03  0.00000000000E+00 0.  1.
         -6    2    1    2    0  503  0.46367596995E+02  0.18130350946E+02 -0.89843515799E+02  0.19939101578E+03  0.17089837964E+03 0.  0.
        -24    2    3    3    0    0 -0.38177672705E+02  0.24282253124E+02 -0.38050494767E+02  0.99940749026E+02  0.80580088446E+02 0.  0.
          6    2    1    2  501    0 -0.46367596995E+02 -0.18130350946E+02  0.34051487939E+03  0.38422458790E+03  0.17087857439E+03 0.  0.
         24    2    5    5    0    0  0.33083221344E+02 -0.16530423921E+02  0.10638555416E+03  0.13693200161E+03  0.77876392326E+02 0.  0.
          5    1    5    5  501    0 -0.79450818339E+02 -0.15999270251E+01  0.23412932523E+03  0.24729258629E+03  0.47000000000E+01 0. -1.
        -11    1    6    6    0    0 -0.16199856445E+02  0.98194356773E+01  0.26867284310E+01  0.19133091112E+02  0.00000000000E+00 0.  1.
         12    1    6    6    0    0  0.49283077788E+02 -0.26349859599E+02  0.10369882573E+03  0.11779891050E+03  0.00000000000E+00 0. -1.
         -5    1    3    3    0  503  0.84545269700E+02 -0.61519021775E+01 -0.51793021033E+02  0.99450266751E+02  0.47000000000E+01 0.  1.
         11    1    4    4    0    0 -0.36953175192E+02 -0.23973873311E+02 -0.20401691951E+02  0.48543926425E+02  0.00000000000E+00 0. -1.
        -12    1    4    4    0    0 -0.12244975125E+01  0.48256126434E+02 -0.17648802815E+02  0.51396822600E+02  0.00000000000E+00 0.  1.
</event>
<event>
12    1  0.8724767E-002  0.2156786E+03  0.7818608E-02  0.1139824E+00
         21   -1    0    0  501  502  0.00000000000E+00  0.00000000000E+00  0.46945543536E+03  0.46945543536E+03  0.00000000000E+00 0.  1.
         21   -1    0    0  502  503 -0.00000000000E+00 -0.00000000000E+00 -0.15098263377E+03  0.15098263377E+03  0.00000000000E+00 0.  1.
         -6    2    1    2    0  503 -0.64851475554E+01 -0.12940542179E+03 -0.29819948271E+02  0.21773033525E+03  0.17242229915E+03 0.  0.
        -24    2    3    3    0    0 -0.49882050888E+02 -0.13800140766E+03 -0.28957624612E+02  0.17323296685E+03  0.87398565569E+02 0.  0.
          6    2    1    2  501    0  0.64851475554E+01  0.12940542179E+03  0.34829274986E+03  0.40270773388E+03  0.15517041921E+03 0.  0.
         24    2    5    5    0    0 -0.62642430918E+00  0.13953312410E+03  0.21174919831E+03  0.26552400206E+03  0.78710784223E+02 0.  0.
          5    1    5    5  501    0  0.71115718646E+01 -0.10127702316E+02  0.13654355155E+03  0.13718373183E+03  0.47000000000E+01 0. -1.
        -13    1    6    6    0    0 -0.84203671788E+01  0.25781532681E+01  0.61284608324E+02  0.61914074935E+02  0.00000000000E+00 0.  1.
         14    1    6    6    0    0  0.77939428696E+01  0.13695497084E+03  0.15046458999E+03  0.20360992712E+03  0.00000000000E+00 0. -1.
         -5    1    3    3    0  503  0.43396903332E+02  0.85959858743E+01 -0.86232365967E+00  0.44497368395E+02  0.47000000000E+01 0.  1.
         13    1    4    4    0    0  0.24218668618E+02 -0.19780843455E+02 -0.55400215056E+01  0.31757164793E+02  0.00000000000E+00 0. -1.
        -14    1    4    4    0    0 -0.74100719506E+02 -0.11822056421E+03 -0.23417603106E+02  0.14147580206E+03  0.00000000000E+00 0.  1.
</event>
<event>
12    1  0.8724767E-002  0.1934992E+03  0.7818608E-02  0.1155915E+00
         21   -1    0    0  503  502  0.00000000000E+00  0.00000000000E+00  0.16115641479E+02  0.16115641479E+02  0.00000000000E+00 0.  1.
         21   -1    0    0  501  503 -0.00000000000E+00 -0.00000000000E+00 -0.23033213083E+04  0.23033213083E+04  0.00000000000E+00 0.  1.
          6    2    1    2  501    0 -0.84893065588E+02  0.22638226522E+02 -0.12309285531E+04  0.12460445612E+04  0.17240250536E+03 0.  0.
         24    2    3    3    0    0 -0.47412493399E+02 -0.32298133439E+02 -0.10387195838E+04  0.10426012649E+04  0.69194724335E+02 0.  0.
         -6    2    1    2    0  502  0.84893065588E+02 -0.22638226522E+02 -0.10562771137E+04  0.10733923886E+04  0.16950090541E+03 0.  0.
        -24    2    5    5    0    0  0.11323086268E+03 -0.43280280607E+02 -0.95823821208E+03  0.96916743292E+03  0.79816232619E+02 0.  0.
          5    1    3    3  501    0 -0.37480572189E+02  0.54936359961E+02 -0.19220896929E+03  0.20344329631E+03  0.47000000000E+01 0. -1.
        -11    1    4    4    0    0 -0.23985932995E+02 -0.69190984646E+01 -0.94240340050E+02  0.97490720573E+02  0.00000000000E+00 0.  1.
         12    1    4    4    0    0 -0.23426560404E+02 -0.25379034974E+02 -0.94447924371E+03  0.94511054430E+03  0.00000000000E+00 0. -1.
         -5    1    5    5    0  502 -0.28337797092E+02  0.20642054085E+02 -0.98038901662E+02  0.10422495565E+03  0.47000000000E+01 0.  1.
         11    1    6    6    0    0  0.64830220680E+02 -0.59360615388E+02 -0.45980892122E+03  0.46813554042E+03  0.00000000000E+00 0. -1.
        -12    1    6    6    0    0  0.48400641999E+02  0.16080334782E+02 -0.49842929086E+03  0.50103189250E+03  0.00000000000E+00 0.  1.
</event>
<event>
12    1  0.8724767E-002  0.2379849E+03  0.7818608E-02  0.1121407E+00
         21   -1    0    0  501  502  0.00000000000E+00  0.00000000000E+00  0.69569321076E+02  0.69569321076E+02  0.00000000000E+00 0.  1.
         21   -1    0    0  502  503 -0.00000000000E+00 -0.00000000000E+00 -0.11779130329E+04  0.11779130329E+04  0.00000000000E+00 0. -1.
         -6    2    1    2    0  503  0.10376700664E+03  0.12491535836E+03 -0.20373891443E+03  0.31209652912E+03  0.17182333897E+03 0.  0.
        -24    2    3    3    0    0  0.47831474510E+02  0.14753445688E+03 -0.14185216443E+03  0.22553749032E+03  0.81797659282E+02 0.  0.
          6    2    1    2  501    0 -0.10376700664E+03 -0.12491535836E+03 -0.90460479740E+03  0.93538582486E+03  0.17396943252E+03 0.  0.
         24    2    5    5    0    0 -0.87355612757E+02 -0.69450877866E+02 -0.31084333882E+03  0.33879517614E+03  0.75525906621E+02 0.  0.
          5    1    5    5  501    0 -0.16411393885E+02 -0.55464480499E+02 -0.59376145858E+03  0.59659064872E+03  0.47000000000E+01 0. -1.
        -13    1    6    6    0    0 -0.26036228238E+02  0.12650537539E+02 -0.41334222292E+02  0.50462255334E+02  0.00000000000E+00 0.  1.
         14    1    6    6    0    0 -0.61319384520E+02 -0.82101415405E+02 -0.26950911653E+03  0.28833292081E+03  0.00000000000E+00 0. -1.
         -5    1    3    3    0  503  0.55935532133E+02 -0.22619098519E+02 -0.61886750001E+02  0.86559038803E+02  0.47000000000E+01 0.  1.
         13    1    4    4    0    0 -0.16599926096E+02  0.30742167988E+02 -0.65593523772E+01  0.35548045553E+02  0.00000000000E+00 0. -1.
        -14    1    4    4    0    0  0.64431400605E+02  0.11679228890E+03 -0.13529281205E+03  0.18998944476E+03  0.00000000000E+00 0.  1.
</event>
<event>
12    1  0.8724767E-002  0.1830430E+03  0.7818608E-02  0.1165435E+00
         21   -1    0    0  501  502  0.00000000000E+00  0.00000000000E+00  0.84929416522E+03  0.84929416522E+03  0.00000000000E+00 0.  1.
         21   -1    0    0  502  503 -0.00000000000E+00 -0.00000000000E+00 -0.67460673973E+02  0.67460673973E+02  0.00000000000E+00 0.  1.
         -6    2    1    2    0  503 -0.41844044076E+02  0.46144359708E+02  0.94394602863E+02  0.20594921321E+03  0.17211772545E+03 0.  0.
        -24    2    3    3    0    0  0.39424217555E+02  0.43542151827E+02  0.60746534577E+02  0.11782666028E+03  0.82114508432E+02 0.  0.
          6    2    1    2  501    0  0.41844044076E+02 -0.46144359708E+02  0.68743888839E+03  0.71080562599E+03  0.16968260581E+03 0.  0.
         24    2    5    5    0    0  0.40204640414E+02 -0.93457733334E+02  0.43629794663E+03  0.45519829903E+03  0.80615334619E+02 0.  0.
          5    1    5    5  501    0  0.16394036619E+01  0.47313373626E+02  0.25114094176E+03  0.25560732696E+03  0.47000000000E+01 0. -1.
        -13    1    6    6    0    0  0.47575807327E+02 -0.15262346638E+02  0.13926013798E+03  0.14795196078E+03  0.00000000000E+00 0.  1.
         14    1    6    6    0    0 -0.73711669130E+01 -0.78195386696E+02  0.29703780865E+03  0.30724633825E+03  0.00000000000E+00 0. -1.
         -5    1    3    3    0  503 -0.81268261630E+02  0.26022078810E+01  0.33648068286E+02  0.88122552923E+02  0.47000000000E+01 0.  1.
         13    1    4    4    0    0  0.68716770993E+01 -0.15788814559E+02 -0.10009522709E+02  0.19917257748E+02  0.00000000000E+00 0. -1.
        -14    1    4    4    0    0  0.32552540455E+02  0.59330966386E+02  0.70756057286E+02  0.97909402536E+02  0.00000000000E+00 0.  1.
</event>
<event>
12    1  0.8724767E-002  0.2203364E+03  0.7818608E-02  0.1134180E+00
         21   -1    0    0  501  502  0.00000000000E+00  0.00000000000E+00  0.51871211651E+03  0.51871211651E+03  0.00000000000E+00 0.  1.
         21   -1    0    0  502  503 -0.00000000000E+00 -0.00000000000E+00 -0.47959713292E+03  0.47959713292E+03  0.00000000000E+00 0.  1.
         -6    2    1    2    0  503 -0.12862185821E+03  0.37135215964E+02 -0.42894055608E+03  0.48222208191E+03  0.17500151131E+03 0.  0.
        -24    2    3    3    0    0 -0.33472496022E+02  0.57428253010E+02 -0.32243654339E+03  0.33789466527E+03  0.76085925538E+02 0.  0.
          6    2    1    2  501    0  0.12862185821E+03 -0.37135215964E+02  0.46805553967E+03  0.51608716752E+03  0.17131073985E+03 0.  0.
         24    2    5    5    0    0  0.98038051364E+02 -0.39429440993E+02  0.46612259993E+03  0.48499924437E+03  0.82388400499E+02 0.  0.
          5    1    5    5  501    0  0.30583806848E+02  0.22942250284E+01  0.19329397357E+01  0.31087923151E+02  0.47000000000E+01 0. -1.
        -11    1    6    6    0    0  0.56775220771E+02  0.21089264025E+02  0.19852792725E+03  0.20756088420E+03  0.00000000000E+00 0.  1.
         12    1    6    6    0    0  0.41262830593E+02 -0.60518705018E+02  0.26759467268E+03  0.27743836017E+03  0.00000000000E+00 0. -1.
         -5    1    3    3    0  503 -0.95149362191E+02 -0.20293037046E+02 -0.10650401268E+03  0.14432741665E+03  0.47000000000E+01 0.  1.
         11    1    4    4    0    0 -0.46735655113E+02  0.69047235030E+02 -0.26341123606E+03  0.27629191340E+03  0.00000000000E+00 0. -1.
        -12    1    4    4    0    0  0.13263159091E+02 -0.11618982020E+02 -0.59025307330E+02  0.61602751867E+02  0.00000000000E+00 0.  1.
</event>
<event>
12    1  0.8724767E-002  0.1926420E+03  0.7818608E-02  0.1156469E+00
         21   -1    0    0  501  502  0.00000000000E+00  0.00000000000E+00  0.41112489907E+03  0.41112489907E+03  0.00000000000E+00 0.  1.
         21   -1    0    0  502  503 -0.00000000000E+00 -0.00000000000E+00 -0.27153736636E+03  0.27153736636E+03  0.00000000000E+00 0. -1.
         -6    2    1    2    0  503 -0.51301533892E+02 -0.68867560576E+02 -0.20958735652E+03  0.28467141960E+03  0.17244236384E+03 0.  0.
        -24    2    3    3    0    0  0.11591547678E+02  0.10238119437E+02 -0.13449582488E+03  0.15867905299E+03  0.82769148126E+02 0.  0.
          6    2    1    2  501    0  0.51301533892E+02  0.68867560576E+02  0.34917488923E+03  0.39799084583E+03  0.17058435396E+03 0.  0.
         24    2    5    5    0    0  0.78188629556E+02  0.45935695337E+02  0.34062742203E+03  0.36133111926E+03  0.79432910120E+02 0.  0.
          5    1    5    5  501    0 -0.26887095664E+02  0.22931865239E+02  0.85474671998E+01  0.36659726569E+02  0.47000000000E+01 0. -1.
        -13    1    6    6    0    0  0.17100689833E+01  0.48889575093E+01  0.16829301283E+03  0.16837269496E+03  0.00000000000E+00 0.  1.
         14    1    6    6    0    0  0.76478560573E+02  0.41046737828E+02  0.17233440920E+03  0.19295842429E+03  0.00000000000E+00 0. -1.
         -5    1    3    3    0  503 -0.62893081570E+02 -0.79105680013E+02 -0.75091531637E+02  0.12599236661E+03  0.47000000000E+01 0.  1.
         11    1    4    4    0    0 -0.11565389731E+02  0.42734559237E+02 -0.72726386979E+02  0.85141812030E+02  0.00000000000E+00 0. -1.
        -12    1    4    4    0    0  0.23156937409E+02 -0.32496439800E+02 -0.61769437900E+02  0.73537240962E+02  0.00000000000E+00 0.  1.
</event>
<event>
12    1  0.8724767E-002  0.1886857E+03  0.7818608E-02  0.1159951E+00
         21   -1    0    0  503  502  0.00000000000E+00  0.00000000000E+00  0.10888042507E+03  0.10888042507E+03  0.00000000000E+00 0. -1.
         21   -1    0    0  501  503 -0.00000000000E+00 -0.00000000000E+00 -0.59843037372E+03  0.59843037372E+03  0.00000000000E+00 0.  1.
          6    2    1    2  501    0  0.75098334631E+02  0.13340891853E+02 -0.48441414089E+03  0.51986474698E+03  0.17258202687E+03 0.  0.
         24    2    3    3    0    0  0.89964579141E+01 -0.37996335857E+02 -0.35199825414E+03  0.36314516902E+03  0.80293119665E+02 0.  0.
         -6    2    1    2    0  502 -0.75098334631E+02 -0.13340891853E+02 -0.51358077576E+01  0.18744605180E+03  0.17114878485E+03 0.  0.
        -24    2    5    5    0    0 -0.37478800272E+02  0.28623357165E+02 -0.58077831413E+02  0.10997879788E+03  0.80612309461E+02 0.  0.
          5    1    3    3  501    0  0.66101876717E+02  0.51337227710E+02 -0.13241588675E+03  0.15671957797E+03  0.47000000000E+01 0. -1.
        -13    1    4    4    0    0  0.28211530801E+02  0.63193387054E+01 -0.23193663855E+03  0.23373153149E+03  0.00000000000E+00 0.  1.
         14    1    4    4    0    0 -0.19215072887E+02 -0.44315674563E+02 -0.12006161559E+03  0.12941363752E+03  0.00000000000E+00 0. -1.
         -5    1    5    5    0  502 -0.37619534359E+02 -0.41964249017E+02  0.52942023656E+02  0.77467253919E+02  0.47000000000E+01 0.  1.
         11    1    6    6    0    0 -0.42981772706E+01  0.10311348061E+02  0.20158285296E+02  0.23046793546E+02  0.00000000000E+00 0. -1.
        -12    1    6    6    0    0 -0.33180623002E+02  0.18312009103E+02 -0.78236116709E+02  0.86932004336E+02  0.00000000000E+00 0.  1.
</event>
<event>
12    1  0.8724767E-002  0.2796708E+03  0.7818608E-02  0.1095980E+00
         21   -1    0    0  501  502  0.00000000000E+00  0.00000000000E+00  0.18478137775E+04  0.18478137775E+04  0.00000000000E+00 0.  1.
         21   -1    0    0  502  503 -0.00000000000E+00 -0.00000000000E+00 -0.10026986486E+03  0.10026986486E+03  0.00000000000E+00 0. -1.
         -6    2    1    2    0  503 -0.21999558823E+03 -0.68346472217E+01  0.13202172206E+03  0.30853258175E+03  0.17122455333E+03 0.  0.
        -24    2    3    3    0    0 -0.13518276333E+03 -0.20969205504E+02  0.98585156306E+01  0.15907041259E+03  0.80573685228E+02 0.  0.
          6    2    1    2  501    0  0.21999558823E+03  0.68346472217E+01  0.16155221906E+04  0.16395510606E+04  0.17254263477E+03 0.  0.
         24    2    5    5    0    0  0.29699726847E+02 -0.28361211761E+02  0.48911592143E+03  0.49663179988E+03  0.75646070260E+02 0.  0.
          5    1    5    5  501    0  0.19029586139E+03  0.35195858982E+02  0.11264062691E+04  0.11429192607E+04  0.47000000000E+01 0. -1.
        -11    1    6    6    0    0  0.39359235546E+01 -0.12118996679E+02  0.42947952535E+03  0.42966850510E+03  0.00000000000E+00 0.  1.
         12    1    6    6    0    0  0.25763803293E+02 -0.16242215082E+02  0.59636396082E+02  0.66963294785E+02  0.00000000000E+00 0. -1.
         -5    1    3    3    0  503 -0.84812824907E+02  0.14134558282E+02  0.12216320643E+03  0.14946216916E+03  0.47000000000E+01 0.  1.
         13    1    4    4    0    0 -0.89672264236E+02  0.58473637585E+01  0.39876979368E+02  0.98313173683E+02  0.00000000000E+00 0. -1.
        -14    1    4    4    0    0 -0.45510499092E+02 -0.26816569263E+02 -0.30018463738E+02  0.60757238909E+02  0.00000000000E+00 0.  1.
</event>
<event>
12    1  0.8724767E-002  0.1962150E+03  0.7818608E-02  0.1153993E+00
         21   -1    0    0  501  502  0.00000000000E+00  0.00000000000E+00  0.32473926134E+02  0.32473926134E+02  0.00000000000E+00 0. -1.
         21   -1    0    0  502  503 -0.00000000000E+00 -0.00000000000E+00 -0.11806238145E+04  0.11806238145E+04  0.00000000000E+00 0.  1.
         -6    2    1    2    0  503 -0.73956586048E+02  0.42523998873E+02 -0.49611115907E+03  0.53350409203E+03  0.17669880294E+03 0.  0.
        -24    2    3    3    0    0 -0.90459832664E+02  0.53538745769E+02 -0.21482427277E+03  0.25147912115E+03  0.77736102148E+02 0.  0.
          6    2    1    2  501    0  0.73956586048E+02 -0.42523998873E+02 -0.65203872931E+03  0.67959364862E+03  0.17150847099E+03 0.  0.
         24    2    5    5    0    0  0.60795307726E+02 -0.63354953419E+02 -0.24683775085E+03  0.27361696103E+03  0.78914172098E+02 0.  0.
          5    1    5    5  501    0  0.13161278322E+02  0.20830954546E+02 -0.40520097846E+03  0.40597668758E+03  0.47000000000E+01 0. -1.
        -13    1    6    6    0    0  0.25559732616E+02 -0.32212844972E+02 -0.20970441273E+03  0.21369817039E+03  0.00000000000E+00 0.  1.
         14    1    6    6    0    0  0.35235575111E+02 -0.31142108446E+02 -0.37133338122E+02  0.59918790642E+02  0.00000000000E+00 0. -1.
         -5    1    3    3    0  503  0.16503246616E+02 -0.11014746896E+02 -0.28128688630E+03  0.28202497088E+03  0.47000000000E+01 0.  1.
         11    1    4    4    0    0 -0.15460341261E+02  0.53420048217E+02 -0.86049668506E+02  0.10245618163E+03  0.00000000000E+00 0. -1.
        -12    1    4    4    0    0 -0.74999491403E+02  0.11869755190E+00 -0.12877460426E+03  0.14902293952E+03  0.00000000000E+00 0.  1.
</event>
<event>
12    1  0.8724767E-002  0.1879051E+03  0.7818608E-02  0.1160686E+00
         21   -1    0    0  501  502  0.00000000000E+00  0.00000000000E+00  0.44738897398E+03  0.44738897398E+03  0.00000000000E+00 0.  1.
         21   -1    0    0  502  503 -0.00000000000E+00 -0.00000000000E+00 -0.79024471180E+02  0.79024471180E+02  0.00000000000E+00 0.  1.
         -6    2    1    2    0  503 -0.27127963694E+02  0.71920196811E+02  0.20946385901E+03  0.28139549900E+03  0.17146392478E+03 0.  0.
        -24    2    3    3    0    0  0.11115313459E+02 -0.17995157631E+02  0.98536704724E+02  0.13349606435E+03  0.87546222802E+02 0.  0.
          6    2    1    2  501    0  0.27127963694E+02 -0.71920196811E+02  0.15890064379E+03  0.24501794616E+03  0.16992921533E+03 0.  0.
         24    2    5    5    0    0  0.37024174169E+02 -0.51313980577E+02  0.18366181577E+03  0.21099212116E+03  0.82353497453E+02 0.  0.
          5    1    5    5  501    0 -0.98962104751E+01 -0.20606216233E+02 -0.24761171982E+02  0.34025825003E+02  0.47000000000E+01 0. -1.
        -13    1    6    6    0    0  0.37825930420E+02 -0.46168039928E+02  0.51803379409E+02  0.79030873974E+02  0.00000000000E+00 0.  1.
         14    1    6    6    0    0 -0.80175625150E+00 -0.51459406491E+01  0.13185843637E+03  0.13196124719E+03  0.00000000000E+00 0. -1.
         -5    1    3    3    0  503 -0.38243277153E+02  0.89915354442E+02  0.11092715429E+03  0.14789943465E+03  0.47000000000E+01 0.  1.
         11    1    4    4    0    0 -0.25378860711E+01  0.39475920106E+01  0.10638386186E+03  0.10648732513E+03  0.00000000000E+00 0. -1.
        -12    1    4    4    0    0  0.13653199531E+02 -0.21942749642E+02 -0.78471571349E+01  0.27008739222E+02  0.00000000000E+00 0.  1.
</event>
<event>
12    1  0.8724767E-002  0.2186757E+03  0.7818608E-02  0.1135043E+00
         21   -1    0    0  501  502  0.00000000000E+00  0.00000000000E+00  0.22171262769E+02  0.22171262769E+02  0.00000000000E+00 0. -1.
         21   -1    0    0  502  503 -0.00000000000E+00 -0.00000000000E+00 -0.22000677753E+04  0.22000677753E+04  0.00000000000E+00 0. -1.
         -6    2    1    2    0  503  0.10485321232E+03 -0.82690171232E+02 -0.12577261691E+04  0.12764417351E+04  0.17203640898E+03 0.  0.
        -24    2    3    3    0    0  0.23651779893E+02 -0.98346906514E+02 -0.90201375432E+03  0.91121274112E+03  0.80301468743E+02 0.  0.
          6    2    1    2  501    0 -0.10485321232E+03  0.82690171232E+02 -0.92017034339E+03  0.94579730297E+03  0.17316817518E+03 0.  0.
         24    2    5    5    0    0  0.11374387584E+02  0.54775946761E+02 -0.35421997977E+03  0.36734249662E+03  0.79617427219E+02 0.  0.
          5    1    5    5  501    0 -0.11622759990E+03  0.27914224471E+02 -0.56595036362E+03  0.57845480635E+03  0.47000000000E+01 0. -1.
        -13    1    6    6    0    0  0.91046095136E+01 -0.40297005845E+01 -0.18934856204E+01  0.10134973556E+02  0.00000000000E+00 0.  1.
         14    1    6    6    0    0  0.22697780708E+01  0.58805647345E+02 -0.35232649415E+03  0.35720752306E+03  0.00000000000E+00 0. -1.
         -5    1    3    3    0  503  0.81201432422E+02  0.15656735282E+02 -0.35571241478E+03  0.36522899394E+03  0.47000000000E+01 0.  1.
         13    1    4    4    0    0 -0.26360812894E+02 -0.61712190250E+02 -0.45629942044E+03  0.46120759749E+03  0.00000000000E+00 0. -1.
        -14    1    4    4    0    0  0.50012592787E+02 -0.36634716263E+02 -0.44571433388E+03  0.45000514363E+03  0.00000000000E+00 0.  1.
</event>
<event>
12    1  0.8724767E-002  0.2058819E+03  0.7818608E-02  0.1145011E+00
         21   -1    0    0  501  502  0.00000000000E+00  0.00000000000E+00  0.22441974473E+03  0.22441974473E+03  0.00000000000E+00 0.  1.
         21   -1    0    0  502  503 -0.00000000000E+00 -0.00000000000E+00 -0.18881069002E+03  0.18881069002E+03  0.00000000000E+00 0. -1.
         -6    2    1    2    0  503  0.45235597898E+02  0.10109061719E+03  0.63920058564E+01  0.20528577989E+03  0.17273048801E+03 0.  0.
        -24    2    3    3    0    0  0.13002728406E+02 -0.78059291244E+01 -0.23114528833E+02  0.87854347712E+02  0.83391255496E+02 0.  0.
          6    2    1    2  501    0 -0.45235597898E+02 -0.10109061719E+03  0.29217048851E+02  0.20794465486E+03  0.17355624835E+03 0.  0.
         24    2    5    5    0    0 -0.63385436848E+01 -0.12995243677E+03  0.38736853643E+01  0.15307789325E+03  0.80560679025E+02 0.  0.
          5    1    5    5  501    0 -0.38897054214E+02  0.28861819585E+02  0.25343363486E+02  0.54866761605E+02  0.47000000000E+01 0. -1.
        -11    1    6    6    0    0 -0.95621874971E+00 -0.15863752805E+02  0.31753751987E+02  0.35508784443E+02  0.00000000000E+00 0.  1.
         12    1    6    6    0    0 -0.53823249351E+01 -0.11408868397E+03 -0.27880066623E+02  0.11756910881E+03  0.00000000000E+00 0. -1.
         -5    1    3    3    0  503  0.32232869492E+02  0.10889654631E+03  0.29506534689E+02  0.11743143218E+03  0.47000000000E+01 0.  1.
         13    1    4    4    0    0 -0.10724602427E+02  0.34365230074E+02 -0.13938819179E+02  0.38604103608E+02  0.00000000000E+00 0. -1.
        -14    1    4    4    0    0  0.23727330833E+02 -0.42171159199E+02 -0.91757096539E+01  0.49250244104E+02  0.00000000000E+00 0.  1.
</event>
<event>
12    1  0.8724767E-002  0.2201966E+03  0.7818608E-02  0.1133789E+00
         21   -1    0    0  501  502  0.00000000000E+00  0.00000000000E+00  0.36864855257E+02  0.36864855257E+02  0.00000000000E+00 0. -1.
         21   -1    0    0  502  503 -0.00000000000E+00 -0.00000000000E+00 -0.13177861312E+04  0.13177861312E+04  0.00000000000E+00 0. -1.
         -6    2    1    2    0  503  0.86215009337E+02 -0.10621386629E+03 -0.60252262256E+03  0.64149828299E+03  0.17254600304E+03 0.  0.
        -24    2    3    3    0    0  0.13038639770E+02 -0.10475748719E+03 -0.26915187560E+03  0.30015527804E+03  0.80661772543E+02 0.  0.
          6    2    1    2  501    0 -0.86215009337E+02  0.10621386629E+03 -0.67839865343E+03  0.71315270351E+03  0.17218487830E+03 0.  0.
         24    2    5    5    0    0  0.14459695955E+02  0.10881741346E+02 -0.23722934632E+03  0.25068534480E+03  0.78980277542E+02 0.  0.
          5    1    5    5  501    0 -0.10067470529E+03  0.95332124939E+02 -0.44116930711E+03  0.46246735870E+03  0.47000000000E+01 0. -1.
        -13    1    6    6    0    0 -0.29090128132E+02  0.15991595981E+02 -0.65310662880E+02  0.73262878612E+02  0.00000000000E+00 0.  1.
         14    1    6    6    0    0  0.43549824088E+02 -0.51098546349E+01 -0.17191868344E+03  0.17742246619E+03  0.00000000000E+00 0. -1.
         -5    1    3    3    0  503  0.73176369567E+02 -0.14563791005E+01 -0.33337074696E+03  0.34134300495E+03  0.47000000000E+01 0.  1.
         11    1    4    4    0    0  0.19918989651E+02 -0.22116000414E+01 -0.12326546611E+02  0.23528728712E+02  0.00000000000E+00 0. -1.
        -12    1    4    4    0    0 -0.68803498811E+01 -0.10254588714E+03 -0.25682532899E+03  0.27662654933E+03  0.00000000000E+00 0.  1.
</event>
<event>
12    1  0.8724767E-002  0.1750913E+03  0.7818608E-02  0.1172774E+00
         21   -1    0    0  501  502  0.00000000000E+00  0.00000000000E+00  0.69579021765E+02  0.69579021765E+02  0.00000000000E+00 0. -1.
         21   -1    0    0  502  503 -0.00000000000E+00 -0.00000000000E+00 -0.72934618154E+03  0.72934618154E+03  0.00000000000E+00 0. -1.
         -6    2    1    2    0  503 -0.13656713646E+01  0.32591533913E+02 -0.58210988508E+03  0.60787242515E+03  0.17202585213E+03 0.  0.
        -24    2    3    3    0    0 -0.27006038984E+02 -0.35807907631E+02 -0.42370709654E+03  0.43337473039E+03  0.79211242232E+02 0.  0.
          6    2    1    2  501    0  0.13656713646E+01 -0.32591533913E+02 -0.77657274689E+02  0.19105277816E+03  0.17148305627E+03 0.  0.
         24    2    5    5    0    0  0.51786958898E+02 -0.46930533678E+01  0.83945372777E+01  0.87381973220E+02  0.69722500859E+02 0.  0.
          5    1    5    5  501    0 -0.50421287533E+02 -0.27898480546E+02 -0.86051811967E+02  0.10367080494E+03  0.47000000000E+01 0. -1.
        -11    1    6    6    0    0 -0.34440877207E+00  0.26112748193E+02 -0.84139636483E+00  0.26128570252E+02  0.00000000000E+00 0.  1.
         12    1    6    6    0    0  0.52131367670E+02 -0.30805801561E+02  0.92359336425E+01  0.61253402968E+02  0.00000000000E+00 0. -1.
         -5    1    3    3    0  503  0.25640367620E+02  0.68399441544E+02 -0.15840278854E+03  0.17449769475E+03  0.47000000000E+01 0.  1.
         11    1    4    4    0    0 -0.43945537233E+02  0.60837632835E+01 -0.24882758457E+03  0.25275163553E+03  0.00000000000E+00 0. -1.
        -12    1    4    4    0    0  0.16939498249E+02 -0.41891670914E+02 -0.17487951197E+03  0.18062309486E+03  0.00000000000E+00 0.  1.
</event>
<event>
12    1  0.8724767E-002  0.1767920E+03  0.7818608E-02  0.1171566E+00
         21   -1    0    0  501  502  0.00000000000E+00  0.00000000000E+00  0.58530571848E+03  0.58530571848E+03  0.00000000000E+00 0.  1.
         21   -1    0    0  502  503 -0.00000000000E+00 -0.00000000000E+00 -0.64841731739E+02  0.64841731739E+02  0.00000000000E+00 0.  1.
         -6    2    1    2    0  503  0.55827412003E+01  0.32392359399E+02  0.39968241139E+03  0.43603622323E+03  0.17117571690E+03 0.  0.
        -24    2    3    3    0    0  0.24388253054E+02  0.58810691243E+02  0.13587294976E+03  0.17019962384E+03  0.80330375252E+02 0.  0.
          6    2    1    2  501    0 -0.55827412003E+01 -0.32392359399E+02  0.12078157535E+03  0.21411122698E+03  0.17370951796E+03 0.  0.
         24    2    5    5    0    0  0.56876235144E+02  0.14125041618E+02  0.60980603720E+02  0.11580945420E+03  0.79112405651E+02 0.  0.
          5    1    5    5  501    0 -0.62458976344E+02 -0.46517401017E+02  0.59800971634E+02  0.98301772780E+02  0.47000000000E+01 0. -1.
        -11    1    6    6    0    0  0.24258192933E+00 -0.27792218997E+02  0.20645973708E+02  0.34622572306E+02  0.00000000000E+00 0.  1.
         12    1    6    6    0    0  0.56633653215E+02  0.41917260615E+02  0.40334630013E+02  0.81186881897E+02  0.00000000000E+00 0. -1.
         -5    1    3    3    0  503 -0.18805511854E+02 -0.26418331844E+02  0.26380946162E+03  0.26583659939E+03  0.47000000000E+01 0.  1.
         11    1    4    4    0    0  0.46288424867E+02  0.44079801603E+02  0.12730422255E+03  0.14245003428E+03  0.00000000000E+00 0. -1.
        -12    1    4    4    0    0 -0.21900171813E+02  0.14730889639E+02  0.85687272076E+01  0.27749589564E+02  0.00000000000E+00 0.  1.
</event>
<event>
12    1  0.8724767E-002  0.1801048E+03  0.7818608E-02  0.1167945E+00
         21   -1    0    0  501  502  0.00000000000E+00  0.00000000000E+00  0.19635743520E+02  0.19635743520E+02  0.00000000000E+00 0.  1.
         21   -1    0    0  502  503 -0.00000000000E+00 -0.00000000000E+00 -0.19840923448E+04  0.19840923448E+04  0.00000000000E+00 0.  1.
         -6    2    1    2    0  503  0.30561365715E+02  0.40778609387E+02 -0.13954899834E+04  0.14069360495E+04  0.17169700498E+03 0.  0.
        -24    2    3    3    0    0 -0.12640258372E+02  0.60976519061E+02 -0.48316351769E+03  0.49335189578E+03  0.77917881321E+02 0.  0.
          6    2    1    2  501    0 -0.30561365715E+02 -0.40778609387E+02 -0.56896661791E+03  0.59679203886E+03  0.17274499500E+03 0.  0.
         24    2    5    5    0    0 -0.55202330226E+02  0.71003289264E+01 -0.49979040698E+03  0.50900247214E+03  0.78710569847E+02 0.  0.
          5    1    5    5  501    0  0.24640964510E+02 -0.47878938313E+02 -0.69176210924E+02  0.87789566714E+02  0.47000000000E+01 0. -1.
        -13    1    6    6    0    0 -0.75496009587E+02  0.40555569654E+01 -0.40804115608E+03  0.41498636129E+03  0.00000000000E+00 0.  1.
         14    1    6    6    0    0  0.20293679362E+02  0.30447719610E+01 -0.91749250904E+02  0.94016110852E+02  0.00000000000E+00 0. -1.
         -5    1    3    3    0  503  0.43201624088E+02 -0.20197909674E+02 -0.91232646572E+03  0.91358415372E+03  0.47000000000E+01 0.  1.
         11    1    4    4    0    0  0.13359896915E+02  0.57446181116E+01 -0.13842665309E+02  0.20077521403E+02  0.00000000000E+00 0. -1.
        -12    1    4    4    0    0 -0.26000155287E+02  0.55231900949E+02 -0.46932085238E+03  0.47327437437E+03  0.00000000000E+00 0.  1.
</event>
<event>
12    1  0.8724767E-002  0.1798838E+03  0.7818608E-02  0.1168229E+00
         21   -1    0    0  503  502  0.00000000000E+00  0.00000000000E+00  0.48073381485E+02  0.48073381485E+02  0.00000000000E+00 0. -1.
         21   -1    0    0  501  503 -0.00000000000E+00 -0.00000000000E+00 -0.98504681847E+03  0.98504681847E+03  0.00000000000E+00 0. -1.
          6    2    1    2  501    0  0.35903682659E+02 -0.39563846924E+02 -0.76026943525E+03  0.78096452538E+03  0.17041597141E+03 0.  0.
         24    2    3    3    0    0 -0.25306230003E+02  0.15898668450E+02 -0.50718693460E+03  0.51470227466E+03  0.82381259890E+02 0.  0.
         -6    2    1    2    0  502 -0.35903682659E+02  0.39563846924E+02 -0.17670400174E+03  0.25215567458E+03  0.17176672431E+03 0.  0.
        -24    2    5    5    0    0 -0.12450764882E+02  0.75396711487E+02 -0.55972792786E+02  0.12396773306E+03  0.79970992611E+02 0.  0.
          5    1    3    3  501    0  0.61209912662E+02 -0.55462515374E+02 -0.25308250065E+03  0.26626225071E+03  0.47000000000E+01 0. -1.
        -11    1    4    4    0    0 -0.18408347139E+02 -0.23605613790E+02 -0.38372391571E+03  0.38488977089E+03  0.00000000000E+00 0.  1.
         12    1    4    4    0    0 -0.68978828638E+01  0.39504282240E+02 -0.12346301889E+03  0.12981250378E+03  0.00000000000E+00 0. -1.
         -5    1    5    5    0  502 -0.23452917777E+02 -0.35832864563E+02 -0.12073120895E+03  0.12818794152E+03  0.47000000000E+01 0.  1.
         13    1    6    6    0    0 -0.43824489365E+02  0.29479952431E+02 -0.39543840312E+02  0.65980063429E+02  0.00000000000E+00 0. -1.
        -14    1    6    6    0    0  0.31373724483E+02  0.45916759056E+02 -0.16428952474E+02  0.57987669634E+02  0.00000000000E+00 0.  1.
</event>
<event>
12    1  0.8724767E-002  0.2139470E+03  0.7818608E-02  0.1138688E+00
         21   -1    0    0  503  502  0.00000000000E+00  0.00000000000E+00  0.64174298355E+03  0.64174298355E+03  0.00000000000E+00 0.  1.
         21   -1    0    0  501  503 -0.00000000000E+00 -0.00000000000E+00 -0.10634776963E+03  0.10634776963E+03  0.00000000000E+00 0.  1.
          6    2    1    2  501    0  0.62464573907E+02  0.10997035894E+03  0.52400066361E+02  0.22027052568E+03  0.17256313248E+03 0.  0.
         24    2    3    3    0    0  0.27491293270E+02  0.70525015949E+02  0.10023004964E+03  0.14893426042E+03  0.80036254254E+02 0.  0.
         -6    2    1    2    0  502 -0.62464573907E+02 -0.10997035894E+03  0.48299514756E+03  0.52782022750E+03  0.17121500271E+03 0.  0.
        -24    2    5    5    0    0 -0.45190016712E+02 -0.10366529873E+03  0.48866831642E+03  0.50801015543E+03  0.80554098470E+02 0.  0.
          5    1    3    3  501    0  0.34973280637E+02  0.39445342988E+02 -0.47829983278E+02  0.71336265268E+02  0.47000000000E+01 0. -1.
        -11    1    4    4    0    0  0.21762065434E+02  0.21795715597E+02 -0.64893210844E+01  0.31476213217E+02  0.00000000000E+00 0.  1.
         12    1    4    4    0    0  0.57292278364E+01  0.48729300352E+02  0.10671937072E+03  0.11745804720E+03  0.00000000000E+00 0. -1.
         -5    1    5    5    0  502 -0.17274557195E+02 -0.63050602038E+01 -0.56731688568E+01  0.19810072068E+02  0.47000000000E+01 0.  1.
         11    1    6    6    0    0 -0.49433776430E+02 -0.30137405724E+02  0.29880614459E+03  0.30436339057E+03  0.00000000000E+00 0. -1.
        -12    1    6    6    0    0  0.42437597178E+01 -0.73527893009E+02  0.18986217182E+03  0.20364676486E+03  0.00000000000E+00 0.  1.
</event>
<event>
12    1  0.8724767E-002  0.1811074E+03  0.7818608E-02  0.1168100E+00
         21   -1    0    0  501  502  0.00000000000E+00  0.00000000000E+00  0.11069811717E+03  0.11069811717E+03  0.00000000000E+00 0.  1.
         21   -1    0    0  502  503 -0.00000000000E+00 -0.00000000000E+00 -0.38447306485E+03  0.38447306485E+03  0.00000000000E+00 0.  1.
         -6    2    1    2    0  503 -0.49710251448E+02 -0.29316752455E+02 -0.25978973194E+03  0.31352459646E+03  0.16576002741E+03 0.  0.
        -24    2    3    3    0    0 -0.22724044117E+02 -0.59741248918E+02 -0.69902151915E+02  0.11927401494E+03  0.72488487325E+02 0.  0.
          6    2    1    2  501    0  0.49710251448E+02  0.29316752455E+02 -0.13985215739E+02  0.18164658556E+03  0.17166628881E+03 0.  0.
         24    2    5    5    0    0 -0.50525211109E+01  0.71079558834E+02  0.97122787602E+01  0.10866196732E+03  0.81457124481E+02 0.  0.
          5    1    5    5  501    0  0.54762772559E+02 -0.41762806379E+02 -0.23697494500E+02  0.72984618246E+02  0.47000000000E+01 0. -1.
        -11    1    6    6    0    0 -0.34996027658E+00  0.88266610601E+02 -0.20857796888E+00  0.88267550799E+02  0.00000000000E+00 0.  1.
         12    1    6    6    0    0 -0.47025608343E+01 -0.17187051767E+02  0.99208567291E+01  0.20394416518E+02  0.00000000000E+00 0. -1.
         -5    1    3    3    0  503 -0.26986207330E+02  0.30424496463E+02 -0.18988758003E+03  0.19425058152E+03  0.47000000000E+01 0.  1.
         13    1    4    4    0    0  0.19872035092E+02 -0.47337003605E+02 -0.29176247263E+02  0.59050343719E+02  0.00000000000E+00 0. -1.
        -14    1    4    4    0    0 -0.42596079209E+02 -0.12404245313E+02 -0.40725904653E+02  0.60223671223E+02  0.00000000000E+00 0.  1.
</event>
<event>
12    1  0.8724767E-002  0.2037258E+03  0.7818608E-02  0.1147080E+00
         21   -1    0    0  503  502  0.00000000000E+00  0.00000000000E+00  0.12242269101E+03  0.12242269101E+03  0.00000000000E+00 0.  1.
         21   -1    0    0  501  503 -0.00000000000E+00 -0.00000000000E+00 -0.33548647746E+03  0.33548647746E+03  0.00000000000E+00 0.  1.
          6    2    1    2  501    0 -0.94260733538E+02  0.46463980280E+02 -0.10868710487E+03  0.22900152637E+03  0.17200239814E+03 0.  0.
         24    2    3    3    0    0 -0.94274483670E+02  0.74253132622E+02 -0.32451166568E+02  0.14772271323E+03  0.79797968754E+02 0.  0.
         -6    2    1    2    0  502  0.94260733538E+02 -0.46463980280E+02 -0.10437668157E+03  0.22890764210E+03  0.17452859251E+03 0.  0.
        -24    2    5    5    0    0  0.62097171464E+02 -0.83902026432E+02 -0.23118193948E+02  0.13371765399E+03  0.80314079425E+02 0.  0.
          5    1    3    3  501    0  0.13750132078E-01 -0.27789152342E+02 -0.76235938299E+02  0.81278813139E+02  0.47000000000E+01 0. -1.
        -13    1    4    4    0    0 -0.42450505961E+02 -0.70236319297E+01 -0.27780405313E+02  0.51216479586E+02  0.00000000000E+00 0.  1.
         14    1    4    4    0    0 -0.51823977709E+02  0.81276764552E+02 -0.46707612549E+01  0.96506233645E+02  0.00000000000E+00 0. -1.
         -5    1    5    5    0  502  0.32163562074E+02  0.37438046152E+02 -0.81258487626E+02  0.95189988109E+02  0.47000000000E+01 0.  1.
         13    1    6    6    0    0  0.77402754849E+02 -0.70768932312E+02 -0.34689346248E+02  0.11046618932E+03  0.00000000000E+00 0. -1.
        -14    1    6    6    0    0 -0.15305583386E+02 -0.13133094120E+02  0.11571152300E+02  0.23251464674E+02  0.00000000000E+00 0.  1.
</event>
<event>
12    1  0.8724767E-002  0.1843275E+03  0.7818608E-02  0.1163709E+00
         21   -1    0    0  501  502  0.00000000000E+00  0.00000000000E+00  0.13253822299E+04  0.13253822299E+04  0.00000000000E+00 0.  1.
         21   -1    0    0  502  503 -0.00000000000E+00 -0.00000000000E+00 -0.25617680546E+02  0.25617680546E+02  0.00000000000E+00 0. -1.
         -6    2    1    2    0  503 -0.70647011091E+01  0.65025209419E+02  0.65044839525E+03  0.67602724047E+03  0.17219618785E+03 0.  0.
        -24    2    3    3    0    0 -0.69477635573E+02  0.52713291336E+02  0.37276060273E+03  0.39110697472E+03  0.80052269195E+02 0.  0.
          6    2    1    2  501    0  0.70647011091E+01 -0.65025209419E+02  0.64931615413E+03  0.67497267000E+03  0.17233238052E+03 0.  0.
         24    2    5    5    0    0 -0.40727747935E+02 -0.68737523042E+02  0.57822546154E+03  0.58910139407E+03  0.79449176164E+02 0.  0.
          5    1    5    5  501    0  0.47792449044E+02  0.37123136224E+01  0.71090692587E+02  0.85871275934E+02  0.47000000000E+01 0. -1.
        -13    1    6    6    0    0 -0.30208131282E+02 -0.23066474247E+02  0.46512056729E+03  0.46667090711E+03  0.00000000000E+00 0.  1.
         14    1    6    6    0    0 -0.10519616653E+02 -0.45671048795E+02  0.11310489425E+03  0.12243048695E+03  0.00000000000E+00 0. -1.
         -5    1    3    3    0  503  0.62412934464E+02  0.12311918083E+02  0.27768779253E+03  0.28492026575E+03  0.47000000000E+01 0.  1.
         11    1    4    4    0    0 -0.55755654355E+02  0.59741640320E+01  0.28745379795E+03  0.29287210449E+03  0.00000000000E+00 0. -1.
        -12    1    4    4    0    0 -0.13721981218E+02  0.46739127304E+02  0.85306804772E+02  0.98234870235E+02  0.00000000000E+00 0.  1.
</event>
<event>
12    1  0.8724767E-002  0.3408577E+03  0.7818608E-02  0.1066941E+00
         21   -1    0    0  503  502  0.00000000000E+00  0.00000000000E+00  0.19267434394E+04  0.19267434394E+04  0.00000000000E+00 0. -1.
         21   -1    0    0  501  503 -0.00000000000E+00 -0.00000000000E+00 -0.94459561768E+02  0.94459561768E+02  0.00000000000E+00 0.  1.
          6    2    1    2  501    0 -0.28632868198E+03 -0.67641602838E+02  0.29694154757E+03  0.44847922515E+03  0.16248025160E+03 0.  0.
         24    2    3    3    0    0 -0.23298968316E+03 -0.15604640155E+02  0.16472182025E+03  0.29663377552E+03  0.79565202565E+02 0.  0.
         -6    2    1    2    0  502  0.28632868198E+03  0.67641602838E+02  0.15353423301E+04  0.15727237760E+04  0.17211770571E+03 0.  0.
        -24    2    5    5    0    0  0.16413025255E+03  0.16021930204E+02  0.57902204924E+03  0.60723549734E+03  0.79202106493E+02 0.  0.
          5    1    3    3  501    0 -0.53338998817E+02 -0.52036962684E+02  0.13221972732E+03  0.15184544963E+03  0.47000000000E+01 0. -1.
        -13    1    4    4    0    0 -0.41364684837E+02  0.79921654168E+01 -0.10744440474E+01  0.42143401497E+02  0.00000000000E+00 0.  1.
         14    1    4    4    0    0 -0.19162499832E+03 -0.23596805571E+02  0.16579626429E+03  0.25449037402E+03  0.00000000000E+00 0. -1.
         -5    1    5    5    0  502  0.12219842943E+03  0.51619672634E+02  0.95632028083E+03  0.96548827869E+03  0.47000000000E+01 0.  1.
         11    1    6    6    0    0  0.45928545682E+02 -0.31279019994E+02  0.18322284499E+03  0.19146388518E+03  0.00000000000E+00 0. -1.
        -12    1    6    6    0    0  0.11820170687E+03  0.47300950198E+02  0.39579920425E+03  0.41577161216E+03  0.00000000000E+00 0.  1.
</event>
<event>
12    1  0.8724767E-002  0.2218997E+03  0.7818608E-02  0.1134255E+00
         21   -1    0    0  503  502  0.00000000000E+00  0.00000000000E+00  0.12220199330E+04  0.12220199330E+04  0.00000000000E+00 0. -1.
         21   -1    0    0  501  503 -0.00000000000E+00 -0.00000000000E+00 -0.94936489912E+02  0.94936489912E+02  0.00000000000E+00 0.  1.
          6    2    1    2  501    0 -0.15382085910E+02 -0.12568735950E+03  0.51353857226E+02  0.21857869357E+03  0.17060335789E+03 0.  0.
         24    2    3    3    0    0  0.11030026761E+02 -0.14528963032E+03  0.11888196959E+02  0.16698918826E+03  0.80705152262E+02 0.  0.
         -6    2    1    2    0  502  0.15382085910E+02  0.12568735950E+03  0.10757295858E+04  0.10983777293E+04  0.18222396527E+03 0.  0.
        -24    2    5    5    0    0 -0.23286415575E+02  0.63909115381E+02  0.92091019179E+03  0.92719671628E+03  0.83615412193E+02 0.  0.
          5    1    3    3  501    0 -0.26412112671E+02  0.19602270819E+02  0.39465660267E+02  0.51589505302E+02  0.47000000000E+01 0. -1.
        -11    1    4    4    0    0 -0.11594575880E+02 -0.27535956662E+02 -0.27672865228E+02  0.40724078493E+02  0.00000000000E+00 0.  1.
         12    1    4    4    0    0  0.22624602641E+02 -0.11775367366E+03  0.39561062187E+02  0.12626510977E+03  0.00000000000E+00 0. -1.
         -5    1    5    5    0  502  0.38668501485E+02  0.61778244118E+02  0.15481939406E+03  0.17118101305E+03  0.47000000000E+01 0.  1.
         11    1    6    6    0    0  0.10034518492E+02  0.59776222875E+02  0.77958343848E+03  0.78193620324E+03  0.00000000000E+00 0. -1.
        -12    1    6    6    0    0 -0.33320934067E+02  0.41328925058E+01  0.14132675331E+03  0.14526051304E+03  0.00000000000E+00 0.  1.
</event>
<event>
12    1  0.8724767E-002  0.1749383E+03  0.7818608E-02  0.1173269E+00
         21   -1    0    0  501  502  0.00000000000E+00  0.00000000000E+00  0.11200624448E+03  0.11200624448E+03  0.00000000000E+00 0. -1.
         21   -1    0    0  502  503 -0.00000000000E+00 -0.00000000000E+00 -0.49148374699E+03  0.49148374699E+03  0.00000000000E+00 0. -1.
         -6    2    1    2    0  503  0.17799444721E+01 -0.21008798684E+02 -0.39159736222E+03  0.42813239157E+03  0.17176819494E+03 0.  0.
        -24    2    3    3    0    0 -0.49417926713E+02 -0.32530593994E+02 -0.30888005770E+03  0.33005988652E+03  0.10016120814E+03 0.  0.
          6    2    1    2  501    0 -0.17799444721E+01  0.21008798684E+02  0.12119859707E+02  0.17535759989E+03  0.17366306175E+03 0.  0.
         24    2    5    5    0    0  0.19986938389E+02  0.30574922313E+02 -0.54525652328E+02  0.10444200086E+03  0.81245191870E+02 0.  0.
          5    1    5    5  501    0 -0.21766882861E+02 -0.95661236289E+01  0.66645512035E+02  0.70915599026E+02  0.47000000000E+01 0. -1.
        -11    1    6    6    0    0  0.38185676664E+02  0.16322914687E+00  0.14232217943E+01  0.38212538601E+02  0.00000000000E+00 0.  1.
         12    1    6    6    0    0 -0.18198738275E+02  0.30411693166E+02 -0.55948874123E+02  0.66229462263E+02  0.00000000000E+00 0. -1.
         -5    1    3    3    0  503  0.51197871185E+02  0.11521795310E+02 -0.82717304518E+02  0.98072505055E+02  0.47000000000E+01 0.  1.
         13    1    4    4    0    0  0.24842029061E+02 -0.44053124004E+01 -0.15355418525E+03  0.15561304892E+03  0.00000000000E+00 0. -1.
        -14    1    4    4    0    0 -0.74259955774E+02 -0.28125281593E+02 -0.15532587245E+03  0.17444683760E+03  0.00000000000E+00 0.  1.
</event>
<event>
12    1  0.8724767E-002  0.2432312E+03  0.7818608E-02  0.1118064E+00
         21   -1    0    0  503  502  0.00000000000E+00  0.00000000000E+00  0.24444321636E+03  0.24444321636E+03  0.00000000000E+00 0.  1.
         21   -1    0    0  501  503 -0.00000000000E+00 -0.00000000000E+00 -0.24443008901E+03  0.24443008901E+03  0.00000000000E+00 0.  1.
          6    2    1    2  501    0 -0.13584091369E+03  0.99293519173E+02 -0.34409437600E+02  0.24565310150E+03  0.17564020069E+03 0.  0.
         24    2    3    3    0    0 -0.88361377706E+02  0.12958652137E+02  0.35557354136E+02  0.12471734355E+03  0.79463391664E+02 0.  0.
         -6    2    1    2    0  502  0.13584091369E+03 -0.99293519173E+02  0.34422564948E+02  0.24322020387E+03  0.17221845956E+03 0.  0.
        -24    2    5    5    0    0  0.44737379607E+02  0.12397551327E+02  0.12130529093E+02  0.97296340117E+02  0.84642162373E+02 0.  0.
          5    1    3    3  501    0 -0.47479535980E+02  0.86334867036E+02 -0.69966791737E+02  0.12093575794E+03  0.47000000000E+01 0. -1.
        -11    1    4    4    0    0 -0.49350761890E+02 -0.70357880884E+01 -0.20203805234E+02  0.53788416588E+02  0.00000000000E+00 0.  1.
         12    1    4    4    0    0 -0.39010615816E+02  0.19994440225E+02  0.55761159370E+02  0.70928926966E+02  0.00000000000E+00 0. -1.
         -5    1    5    5    0  502  0.91103534079E+02 -0.11169107050E+03  0.22292035856E+02  0.14592386376E+03  0.47000000000E+01 0.  1.
         13    1    6    6    0    0 -0.20864839703E+02  0.62210327663E+01  0.21668185400E+02  0.30717308525E+02  0.00000000000E+00 0. -1.
        -14    1    6    6    0    0  0.65602219310E+02  0.61765185604E+01 -0.95376563077E+01  0.66579031592E+02  0.00000000000E+00 0.  1.
</event>
<event>
12    1  0.8724767E-002  0.2025940E+03  0.7818608E-02  0.1147895E+00
         21   -1    0    0  503  502  0.00000000000E+00  0.00000000000E+00  0.87305137701E+03  0.87305137701E+03  0.00000000000E+00 0. -1.
         21   -1    0    0  501  503 -0.00000000000E+00 -0.00000000000E+00 -0.76089532717E+02  0.76089532717E+02  0.00000000000E+00 0. -1.
          6    2    1    2  501    0 -0.84645300547E+02 -0.60961600090E+02  0.10423801658E+03  0.22783738335E+03  0.17367546045E+03 0.  0.
         24    2    3    3    0    0 -0.10247546977E+03 -0.39186233521E+02  0.13250318081E+03  0.18767407879E+03  0.75017892000E+02 0.  0.
         -6    2    1    2    0  502  0.84645300547E+02  0.60961600090E+02  0.69272382772E+03  0.72130352638E+03  0.17184682740E+03 0.  0.
        -24    2    5    5    0    0  0.18540050589E+02  0.95087777369E+02  0.47554232946E+03  0.49168559757E+03  0.78922752504E+02 0.  0.
          5    1    3    3  501    0  0.17830169224E+02 -0.21775366569E+02 -0.28265164239E+02  0.40163304561E+02  0.47000000000E+01 0. -1.
        -11    1    4    4    0    0  0.12000578956E+02 -0.36221315969E+00  0.11025354667E+02  0.16300415307E+02  0.00000000000E+00 0.  1.
         12    1    4    4    0    0 -0.11447604873E+03 -0.38824020362E+02  0.12147782615E+03  0.17137366348E+03  0.00000000000E+00 0. -1.
         -5    1    5    5    0  502  0.66105249958E+02 -0.34126177279E+02  0.21718149826E+03  0.22961792881E+03  0.47000000000E+01 0.  1.
         11    1    6    6    0    0  0.47360529199E+02  0.75525127688E+02  0.31266724692E+03  0.32512747029E+03  0.00000000000E+00 0. -1.
        -12    1    6    6    0    0 -0.28820478610E+02  0.19562649682E+02  0.16287508254E+03  0.16655812728E+03  0.00000000000E+00 0.  1.
</event>
<event>
12    1  0.8724767E-002  0.2497630E+03  0.7818608E-02  0.1114962E+00
         21   -1    0    0  503  502  0.00000000000E+00  0.00000000000E+00  0.26903324475E+03  0.26903324475E+03  0.00000000000E+00 0. -1.
         21   -1    0    0  501  503 -0.00000000000E+00 -0.00000000000E+00 -0.33439020568E+03  0.33439020568E+03  0.00000000000E+00 0. -1.
          6    2    1    2  501    0  0.16115604446E+03  0.89835986967E+02 -0.20698727526E+03  0.32438446972E+03  0.16834422134E+03 0.  0.
         24    2    3    3    0    0  0.70935927517E+02  0.85423668945E+02 -0.18808255723E+03  0.23197983556E+03  0.78169602433E+02 0.  0.
         -6    2    1    2    0  502 -0.16115604446E+03 -0.89835986967E+02  0.14163031432E+03  0.27903898071E+03  0.15414873207E+03 0.  0.
        -24    2    5    5    0    0 -0.15632890410E+03 -0.10982193209E+03  0.15016000699E+03  0.25628848745E+03  0.81462740394E+02 0.  0.
          5    1    3    3  501    0  0.90220116940E+02  0.44123180228E+01 -0.18904718032E+02  0.92404634163E+02  0.47000000000E+01 0. -1.
        -11    1    4    4    0    0  0.45242718084E+02 -0.11094141064E+01 -0.69819395023E+02  0.83203859650E+02  0.00000000000E+00 0.  1.
         12    1    4    4    0    0  0.25693209433E+02  0.86533083051E+02 -0.11826316220E+03  0.14877597591E+03  0.00000000000E+00 0. -1.
         -5    1    5    5    0  502 -0.48271403522E+01  0.19985945120E+02 -0.85296926738E+01  0.22750493257E+02  0.47000000000E+01 0.  1.
         13    1    6    6    0    0 -0.60975021753E+02 -0.77181697621E+02  0.11061475001E+03  0.14802226402E+03  0.00000000000E+00 0. -1.
        -14    1    6    6    0    0 -0.95353882352E+02 -0.32640234467E+02  0.39545256980E+02  0.10826622343E+03  0.00000000000E+00 0.  1.
</event>
<event>
12    1  0.8724767E-002  0.2400482E+03  0.7818608E-02  0.1120150E+00
         21   -1    0    0  503  502  0.00000000000E+00  0.00000000000E+00  0.46731668754E+03  0.46731668754E+03  0.00000000000E+00 0.  1.
         21   -1    0    0  501  503 -0.00000000000E+00 -0.00000000000E+00 -0.17137883647E+03  0.17137883647E+03  0.00000000000E+00 0. -1.
          6    2    1    2  501    0 -0.16287128675E+03  0.21681951369E+02 -0.22735846330E+02  0.24112248331E+03  0.17500277194E+03 0.  0.
         24    2    3    3    0    0 -0.51406533208E+02 -0.70503151298E+01  0.49789978551E+02  0.10499012237E+03  0.76495393527E+02 0.  0.
         -6    2    1    2    0  502  0.16287128675E+03 -0.21681951369E+02  0.31867369740E+03  0.39757304070E+03  0.17179707278E+03 0.  0.
        -24    2    5    5    0    0  0.93179085707E+02  0.52415137775E+02  0.15288892339E+03  0.20301183491E+03  0.80056814431E+02 0.  0.
          5    1    3    3  501    0 -0.11146475354E+03  0.28732266499E+02 -0.72525824881E+02  0.13613236094E+03  0.47000000000E+01 0. -1.
        -11    1    4    4    0    0  0.16822878745E+02  0.79143636380E+01 -0.10112773159E+01  0.18619051611E+02  0.00000000000E+00 0.  1.
         12    1    4    4    0    0 -0.68229411954E+02 -0.14964678768E+02  0.50801255867E+02  0.86371070758E+02  0.00000000000E+00 0. -1.
         -5    1    5    5    0  502  0.69692201040E+02 -0.74097089144E+02  0.16578477401E+03  0.19456120579E+03  0.47000000000E+01 0.  1.
         11    1    6    6    0    0  0.88023931330E+02  0.44067532086E+02  0.16203879815E+03  0.18959623408E+03  0.00000000000E+00 0. -1.
        -12    1    6    6    0    0  0.51551543775E+01  0.83476056889E+01 -0.91498747639E+01  0.13415600828E+02  0.00000000000E+00 0.  1.
</event>
<event>
12    1  0.8724767E-002  0.1797637E+03  0.7818608E-02  0.1168462E+00
         21   -1    0    0  503  502  0.00000000000E+00  0.00000000000E+00  0.22398543528E+03  0.22398543528E+03  0.00000000000E+00 0. -1.
         21   -1    0    0  501  503 -0.00000000000E+00 -0.00000000000E+00 -0.15317728139E+03  0.15317728139E+03  0.00000000000E+00 0. -1.
          6    2    1    2  501    0 -0.43093739432E+02 -0.28147286417E+02 -0.13375312523E+02  0.18026060145E+03  0.17223717758E+03 0.  0.
         24    2    3    3    0    0 -0.32733169721E+02  0.23019290098E+00  0.55927829742E+02  0.10451340173E+03  0.81997656146E+02 0.  0.
         -6    2    1    2    0  502  0.43093739432E+02  0.28147286417E+02  0.84183466415E+02  0.19690211522E+03  0.17039438620E+03 0.  0.
        -24    2    5    5    0    0  0.79166351504E+02  0.54048025628E+02  0.88686916487E+02  0.15201946048E+03  0.77820607323E+02 0.  0.
          5    1    3    3  501    0 -0.10360569711E+02 -0.28377479318E+02 -0.69303142265E+02  0.75747199717E+02  0.47000000000E+01 0. -1.
        -13    1    4    4    0    0  0.19232941326E+02  0.19782654578E+02  0.36360288323E+02  0.45643510175E+02  0.00000000000E+00 0.  1.
         14    1    4    4    0    0 -0.51966111047E+02 -0.19552461677E+02  0.19567541419E+02  0.58869891559E+02  0.00000000000E+00 0. -1.
         -5    1    5    5    0  502 -0.36072612073E+02 -0.25900739212E+02 -0.45034500718E+01  0.44882654734E+02  0.47000000000E+01 0.  1.
         13    1    6    6    0    0  0.41874808271E+02 -0.15419468376E+02  0.31734034485E+02  0.54756812520E+02  0.00000000000E+00 0. -1.
        -14    1    6    6    0    0  0.37291543234E+02  0.69467494004E+02  0.56952882002E+02  0.97262647961E+02  0.00000000000E+00 0.  1.
</event>
<event>
12    1  0.8724767E-002  0.1800851E+03  0.7818608E-02  0.1167949E+00
         21   -1    0    0  503  502  0.00000000000E+00  0.00000000000E+00  0.23829952269E+02  0.23829952269E+02  0.00000000000E+00 0. -1.
         21   -1    0    0  501  503 -0.00000000000E+00 -0.00000000000E+00 -0.16518758322E+04  0.16518758322E+04  0.00000000000E+00 0. -1.
          6    2    1    2  501    0 -0.42130304493E+02 -0.19637573165E+02 -0.11681809763E+04  0.11818370078E+04  0.17300671262E+03 0.  0.
         24    2    3    3    0    0 -0.13368962398E+02  0.52966389930E+02 -0.80397009815E+03  0.80931827797E+03  0.75126484835E+02 0.  0.
         -6    2    1    2    0  502  0.42130304493E+02  0.19637573165E+02 -0.45986490359E+03  0.49386877670E+03  0.17398287907E+03 0.  0.
        -24    2    5    5    0    0  0.69793372572E+02  0.58262101777E+02 -0.39191996212E+03  0.41082839726E+03  0.83145221928E+02 0.  0.
          5    1    3    3  501    0 -0.28761342096E+02 -0.72603963096E+02 -0.36421087820E+03  0.37251872980E+03  0.47000000000E+01 0. -1.
        -11    1    4    4    0    0  0.23972915623E+02 -0.19003295397E+01 -0.30624918213E+03  0.30719191638E+03  0.00000000000E+00 0.  1.
         12    1    4    4    0    0 -0.37341878021E+02  0.54866719470E+02 -0.49772091602E+03  0.50212636159E+03  0.00000000000E+00 0. -1.
         -5    1    5    5    0  502 -0.27663068078E+02 -0.38624528612E+02 -0.67944941473E+02  0.83040379442E+02  0.47000000000E+01 0.  1.
         11    1    6    6    0    0  0.66907988271E+02  0.35160701853E+02 -0.15174052750E+03  0.16952327726E+03  0.00000000000E+00 0. -1.
        -12    1    6    6    0    0  0.28853843009E+01  0.23101399924E+02 -0.24017943462E+03  0.24130511999E+03  0.00000000000E+00 0.  1.
</event>
<event>
12    1  0.8724767E-002  0.2508011E+03  0.7818608E-02  0.1113018E+00
         21   -1    0    0  503  502  0.00000000000E+00  0.00000000000E+00  0.48076670942E+03  0.48076670942E+03  0.00000000000E+00 0. -1.
         21   -1    0    0  501  503 -0.00000000000E+00 -0.00000000000E+00 -0.27656231632E+03  0.27656231632E+03  0.00000000000E+00 0.  1.
          6    2    1    2  501    0  0.88668288339E+02  0.15726852632E+03 -0.17357934138E+03  0.30387367613E+03  0.17208709586E+03 0.  0.
         24    2    3    3    0    0  0.28550794873E+02  0.25542500383E+02 -0.12074082253E+03  0.14966648432E+03  0.79712879080E+02 0.  0.
         -6    2    1    2    0  502 -0.88668288339E+02 -0.15726852632E+03  0.37778373449E+03  0.45345534961E+03  0.17408546557E+03 0.  0.
        -24    2    5    5    0    0 -0.94208602893E+02 -0.12222273147E+03  0.17184485974E+03  0.24442948290E+03  0.80009120396E+02 0.  0.
          5    1    3    3  501    0  0.60117493466E+02  0.13172602594E+03 -0.52838518854E+02  0.15420719181E+03  0.47000000000E+01 0. -1.
        -13    1    4    4    0    0  0.55601851113E+02  0.25086140229E+02 -0.76986423271E+02  0.98223162477E+02  0.00000000000E+00 0.  1.
         14    1    4    4    0    0 -0.27051056240E+02  0.45636015365E+00 -0.43754399258E+02  0.51443321848E+02  0.00000000000E+00 0. -1.
         -5    1    5    5    0  502  0.55403145537E+01 -0.35045794856E+02  0.20593887475E+03  0.20902586671E+03  0.47000000000E+01 0.  1.
         13    1    6    6    0    0 -0.45185642673E+02 -0.10537586657E+03  0.14841290020E+03  0.18754254052E+03  0.00000000000E+00 0. -1.
        -14    1    6    6    0    0 -0.49022960220E+02 -0.16846864899E+02  0.23431959537E+02  0.56886942381E+02  0.00000000000E+00 0.  1.
</event>
<event>
12    1  0.8724767E-002  0.2066883E+03  0.7818608E-02  0.1144642E+00
         21   -1    0    0  503  502  0.00000000000E+00  0.00000000000E+00  0.49986589265E+03  0.49986589265E+03  0.00000000000E+00 0. -1.
         21   -1    0    0  501  503 -0.00000000000E+00 -0.00000000000E+00 -0.14630670521E+03  0.14630670521E+03  0.00000000000E+00 0.  1.
          6    2    1    2  501    0  0.51110429548E+02  0.10211101339E+03 -0.32523032638E+02  0.20923148224E+03  0.17228212456E+03 0.  0.
         24    2    3    3    0    0  0.71323712264E+02  0.80335120976E+02 -0.77807611928E+02  0.15486651732E+03  0.79930032655E+02 0.  0.
         -6    2    1    2    0  502 -0.51110429548E+02 -0.10211101339E+03  0.38608222008E+03  0.43694111562E+03  0.16976195921E+03 0.  0.
        -24    2    5    5    0    0 -0.31962958908E+02 -0.49974121826E+02  0.89160119427E+02  0.13483235218E+03  0.81921869505E+02 0.  0.
          5    1    3    3  501    0 -0.20213282716E+02  0.21775892413E+02  0.45284579290E+02  0.54364964913E+02  0.47000000000E+01 0. -1.
        -13    1    4    4    0    0 -0.12003465758E+02  0.38554099866E+02 -0.18774063286E+02  0.44530520533E+02  0.00000000000E+00 0.  1.
         14    1    4    4    0    0  0.83327178023E+02  0.41781021110E+02 -0.59033548641E+02  0.11033599679E+03  0.00000000000E+00 0. -1.
         -5    1    5    5    0  502 -0.19147470641E+02 -0.52136891564E+02  0.29692210065E+03  0.30210876344E+03  0.47000000000E+01 0.  1.
         13    1    6    6    0    0  0.26355494725E+02 -0.40227344298E+01  0.27727263815E+02  0.38465512517E+02  0.00000000000E+00 0. -1.
        -14    1    6    6    0    0 -0.58318453632E+02 -0.45951387396E+02  0.61432855611E+02  0.96366839661E+02  0.00000000000E+00 0.  1.
</event>
<event>
12    1  0.8724767E-002  0.1937298E+03  0.7818608E-02  0.1155485E+00
         21   -1    0    0  503  502  0.00000000000E+00  0.00000000000E+00  0.47789470756E+03  0.47789470756E+03  0.00000000000E+00 0. -1.
         21   -1    0    0  501  503 -0.00000000000E+00 -0.00000000000E+00 -0.81749305698E+02  0.81749305698E+02  0.00000000000E+00 0. -1.
          6    2    1    2  501    0  0.81707330077E+02 -0.34047386270E+02  0.13659549897E+03  0.23576536173E+03  0.17056278361E+03 0.  0.
         24    2    3    3    0    0 -0.15563217027E+01  0.95556937840E+01  0.15776959934E+02  0.82620744872E+02  0.80520442110E+02 0.  0.
         -6    2    1    2    0  502 -0.81707330077E+02  0.34047386270E+02  0.25954990289E+03  0.32387865153E+03  0.17232503163E+03 0.  0.
        -24    2    5    5    0    0 -0.11167856607E+03  0.26031316460E+01  0.23789611701E+03  0.27511398626E+03  0.81328128801E+02 0.  0.
          5    1    3    3  501    0  0.83263651780E+02 -0.43603080054E+02  0.12081853904E+03  0.15314461686E+03  0.47000000000E+01 0. -1.
        -13    1    4    4    0    0  0.12888781059E+02 -0.11255909967E+02  0.42489455054E+02  0.45805785412E+02  0.00000000000E+00 0.  1.
         14    1    4    4    0    0 -0.14445102762E+02  0.20811603751E+02 -0.26712495121E+02  0.36814959460E+02  0.00000000000E+00 0. -1.
         -5    1    5    5    0  502  0.29971235993E+02  0.31444254624E+02  0.21653785886E+02  0.48764665271E+02  0.47000000000E+01 0.  1.
         13    1    6    6    0    0 -0.48254079013E+02  0.19763707722E+02  0.18046421661E+03  0.18784672944E+03  0.00000000000E+00 0. -1.
        -14    1    6    6    0    0 -0.63424487057E+02 -0.17160576076E+02  0.57431900400E+02  0.87267256822E+02  0.00000000000E+00 0.  1.
</event>
<event>
12    1  0.8724767E-002  0.2741690E+03  0.7818608E-02  0.1098932E+00
         21   -1    0    0  501  502  0.00000000000E+00  0.00000000000E+00  0.74851690777E+02  0.74851690777E+02  0.00000000000E+00 0. -1.
         21   -1    0    0  502  503 -0.00000000000E+00 -0.00000000000E+00 -0.10604515337E+04  0.10604515337E+04  0.00000000000E+00 0. -1.
         -6    2    1    2    0  503  0.19244382523E+03  0.92449740326E+02 -0.62404210805E+03  0.68161368556E+03  0.17200896303E+03 0.  0.
        -24    2    3    3    0    0  0.13347558381E+03  0.77727453588E+02 -0.26302650255E+03  0.31548753703E+03  0.80573919230E+02 0.  0.
          6    2    1    2  501    0 -0.19244382523E+03 -0.92449740326E+02 -0.36155773488E+03  0.45368953892E+03  0.17183894123E+03 0.  0.
         24    2    5    5    0    0 -0.15656160551E+03 -0.62198142083E+01 -0.17277014751E+03  0.24300974161E+03  0.68220145402E+02 0.  0.
          5    1    5    5  501    0 -0.35882219717E+02 -0.86229926118E+02 -0.18878758737E+03  0.21067979731E+03  0.47000000000E+01 0. -1.
        -11    1    6    6    0    0 -0.23301947430E+02  0.35115442670E+00  0.17052503562E+01  0.23366898430E+02  0.00000000000E+00 0.  1.
         12    1    6    6    0    0 -0.13325965808E+03 -0.65709686350E+01 -0.17447539786E+03  0.21964284318E+03  0.00000000000E+00 0. -1.
         -5    1    3    3    0  503  0.58968241418E+02  0.14722286738E+02 -0.36101560550E+03  0.36612614853E+03  0.47000000000E+01 0.  1.
         11    1    4    4    0    0  0.12052600087E+03  0.81265830779E+02 -0.26467132215E+03  0.30196284690E+03  0.00000000000E+00 0. -1.
        -12    1    4    4    0    0  0.12949582942E+02 -0.35383771913E+01  0.16448196012E+01  0.13524690128E+02  0.00000000000E+00 0.  1.
</event>
<event>
12    1  0.8724767E-002  0.1747526E+03  0.7818608E-02  0.1173395E+00
         21   -1    0    0  501  502  0.00000000000E+00  0.00000000000E+00  0.19138547249E+03  0.19138547249E+03  0.00000000000E+00 0.  1.
         21   -1    0    0  502  503 -0.00000000000E+00 -0.00000000000E+00 -0.18879567293E+03  0.18879567293E+03  0.00000000000E+00 0.  1.
         -6    2    1    2    0  503  0.15084987176E+02 -0.93530701282E+01 -0.75385497474E+02  0.19031936557E+03  0.17384893132E+03 0.  0.
        -24    2    3    3    0    0 -0.45017370094E+01  0.41013549625E+02  0.86061899383E+01  0.90333718078E+02  0.79898293021E+02 0.  0.
          6    2    1    2  501    0 -0.15084987176E+02  0.93530701282E+01  0.77975297034E+02  0.18986177985E+03  0.17219846614E+03 0.  0.
         24    2    5    5    0    0 -0.36763072196E+02 -0.55889317524E+02  0.38213793539E+02  0.11030314941E+03  0.78938909692E+02 0.  0.
          5    1    5    5  501    0  0.21678085020E+02  0.65242387652E+02  0.39761503495E+02  0.79558630436E+02  0.47000000000E+01 0. -1.
        -13    1    6    6    0    0 -0.44906183022E+02 -0.22278051059E+02  0.52767075891E+02  0.72782148434E+02  0.00000000000E+00 0.  1.
         14    1    6    6    0    0  0.81431108257E+01 -0.33611266465E+02 -0.14553282352E+02  0.37521000979E+02  0.00000000000E+00 0. -1.
         -5    1    3    3    0  503  0.19586724186E+02 -0.50366619753E+02 -0.83991687413E+02  0.99985647490E+02  0.47000000000E+01 0.  1.
         13    1    4    4    0    0  0.28675954788E+02  0.38251052115E+02  0.24185835111E+02  0.53576188656E+02  0.00000000000E+00 0. -1.
        -14    1    4    4    0    0 -0.33177691797E+02  0.27624975093E+01 -0.15579645173E+02  0.36757529422E+02  0.00000000000E+00 0.  1.
</event>
<event>
12    1  0.8724767E-002  0.2655285E+03  0.7818608E-02  0.1103960E+00
         21   -1    0    0  503  502  0.00000000000E+00  0.00000000000E+00  0.24229237247E+03  0.24229237247E+03  0.00000000000E+00 0.  1.
         21   -1    0    0  501  503 -0.00000000000E+00 -0.00000000000E+00 -0.29695526145E+03  0.29695526145E+03  0.00000000000E+00 0. -1.
          6    2    1    2  501    0  0.18748365225E+02 -0.20050468542E+03 -0.67695822415E+02  0.27339947758E+03  0.17207823772E+03 0.  0.
         24    2    3    3    0    0 -0.27993685727E+02 -0.48548150756E+02 -0.58579431482E+02  0.11408593033E+03  0.80271292031E+02 0.  0.
         -6    2    1    2    0  502 -0.18748365225E+02  0.20050468542E+03  0.13032933433E+02  0.26584815635E+03  0.17306575285E+03 0.  0.
        -24    2    5    5    0    0  0.15287907108E+02  0.14061817509E+03 -0.53105340747E+02  0.17023841174E+03  0.78445830645E+02 0.  0.
          5    1    3    3  501    0  0.46742050952E+02 -0.15195653466E+03 -0.91163909333E+01  0.15931354725E+03  0.47000000000E+01 0. -1.
        -11    1    4    4    0    0 -0.55088751473E+02 -0.42181004658E+02 -0.35548286331E+02  0.77959530231E+02  0.00000000000E+00 0.  1.
         12    1    4    4    0    0  0.27095065746E+02 -0.63671460983E+01 -0.23031145150E+02  0.36126400099E+02  0.00000000000E+00 0. -1.
         -5    1    5    5    0  502 -0.34036272333E+02  0.59886510323E+02  0.66138274179E+02  0.95609744610E+02  0.47000000000E+01 0.  1.
         11    1    6    6    0    0  0.20063085596E+02  0.14988542028E+03 -0.48209581361E+02  0.15872091970E+03  0.00000000000E+00 0. -1.
        -12    1    6    6    0    0 -0.47751784876E+01 -0.92672451852E+01 -0.48957593852E+01  0.11517492039E+02  0.00000000000E+00 0.  1.
</event>
<event>
12    1  0.8724767E-002  0.2062658E+03  0.7818608E-02  0.1145074E+00
         21   -1    0    0  503  502  0.00000000000E+00  0.00000000000E+00  0.68580731900E+03  0.68580731900E+03  0.00000000000E+00 0.  1.
         21   -1    0    0  501  503 -0.00000000000E+00 -0.00000000000E+00 -0.24426853278E+03  0.24426853278E+03  0.00000000000E+00 0.  1.
          6    2    1    2  501    0  0.31450379402E+02 -0.10789902924E+03 -0.18207415936E+03  0.27323591847E+03  0.16992804583E+03 0.  0.
         24    2    3    3    0    0 -0.34643347402E+02 -0.13956925793E+02 -0.85312895576E+02  0.12297503969E+03  0.80309482241E+02 0.  0.
         -6    2    1    2    0  502 -0.31450379402E+02  0.10789902924E+03  0.62361294558E+03  0.65683993331E+03  0.17295740869E+03 0.  0.
        -24    2    5    5    0    0  0.27666127060E+02  0.85389280723E+02  0.53274653193E+03  0.54602366536E+03  0.79159535060E+02 0.  0.
          5    1    3    3  501    0  0.66093726803E+02 -0.93942103449E+02 -0.96761263786E+02  0.15026087878E+03  0.47000000000E+01 0. -1.
        -11    1    4    4    0    0  0.17502116910E+02 -0.24847365478E+01 -0.62431805862E+02  0.64886272780E+02  0.00000000000E+00 0.  1.
         12    1    4    4    0    0 -0.52145464312E+02 -0.11472189245E+02 -0.22881089714E+02  0.58088766907E+02  0.00000000000E+00 0. -1.
         -5    1    5    5    0  502 -0.59116506461E+02  0.22509748519E+02  0.90866413649E+02  0.11081626796E+03  0.47000000000E+01 0.  1.
         11    1    6    6    0    0  0.32828204337E+02  0.24457438173E+02  0.87561948998E+02  0.96658947824E+02  0.00000000000E+00 0. -1.
        -12    1    6    6    0    0 -0.51620772774E+01  0.60931842550E+02  0.44518458294E+03  0.44936471753E+03  0.00000000000E+00 0.  1.
</event>
<event>
12    1  0.8724767E-002  0.2398565E+03  0.7818608E-02  0.1120371E+00
         21   -1    0    0  503  502  0.00000000000E+00  0.00000000000E+00  0.92003238572E+03  0.92003238572E+03  0.00000000000E+00 0.  1.
         21   -1    0    0  501  503 -0.00000000000E+00 -0.00000000000E+00 -0.21676285786E+03  0.21676285786E+03  0.00000000000E+00 0.  1.
          6    2    1    2  501    0 -0.14020940500E+03 -0.93551099007E+02 -0.12958151851E+03  0.27009345314E+03  0.16657916471E+03 0.  0.
         24    2    3    3    0    0 -0.60865888769E+02  0.68415231713E+01 -0.62878215253E+02  0.12571377029E+03  0.89993439935E+02 0.  0.
         -6    2    1    2    0  502  0.14020940500E+03  0.93551099007E+02  0.83285104637E+03  0.86670179045E+03  0.17064771533E+03 0.  0.
        -24    2    5    5    0    0  0.11973146227E+03  0.12071845758E+03  0.78972756083E+03  0.81157342646E+03  0.77930976825E+02 0.  0.
          5    1    3    3  501    0 -0.79343516228E+02 -0.10039262218E+03 -0.66703303259E+02  0.14437968285E+03  0.47000000000E+01 0. -1.
        -11    1    4    4    0    0 -0.50482173430E+02  0.64035511598E+01 -0.86245999752E+02  0.10013904221E+03  0.00000000000E+00 0.  1.
         12    1    4    4    0    0 -0.10383715339E+02  0.43797201143E+00  0.23367784499E+02  0.25574728075E+02  0.00000000000E+00 0. -1.
         -5    1    5    5    0  502  0.20477942730E+02 -0.27167358575E+02  0.43123485540E+02  0.55128363983E+02  0.47000000000E+01 0.  1.
         13    1    6    6    0    0  0.49077304622E+02  0.34108094118E+01  0.17545602656E+03  0.18222248134E+03  0.00000000000E+00 0. -1.
        -14    1    6    6    0    0  0.70654157644E+02  0.11730764817E+03  0.61427153427E+03  0.62935094512E+03  0.00000000000E+00 0.  1.
</event>
<event>
12    1  0.8724767E-002  0.2017802E+03  0.7818608E-02  0.1148464E+00
         21   -1    0    0  503  502  0.00000000000E+00  0.00000000000E+00  0.13503798643E+03  0.13503798643E+03  0.00000000000E+00 0.  1.
         21   -1    0    0  501  503 -0.00000000000E+00 -0.00000000000E+00 -0.31344727573E+03  0.31344727573E+03  0.00000000000E+00 0.  1.
          6    2    1    2  501    0 -0.63419782389E+02 -0.80995225692E+02 -0.13595327336E+03  0.24330754328E+03  0.17358851546E+03 0.  0.
         24    2    3    3    0    0 -0.10854793949E+03 -0.71694370904E+02 -0.12091981860E+03  0.19461307517E+03  0.79560722148E+02 0.  0.
         -6    2    1    2    0  502  0.63419782389E+02  0.80995225692E+02 -0.42456015942E+02  0.20517771887E+03  0.17237484633E+03 0.  0.
        -24    2    5    5    0    0  0.89023778513E+02  0.55276672167E+02  0.20723346860E+02  0.13216586711E+03  0.77830686098E+02 0.  0.
          5    1    3    3  501    0  0.45128157101E+02 -0.93008547879E+01 -0.15033454753E+02  0.48694468115E+02  0.47000000000E+01 0. -1.
        -13    1    4    4    0    0 -0.10511612207E+03 -0.47988078025E+02 -0.12509684800E+03  0.17029819768E+03  0.00000000000E+00 0.  1.
         14    1    4    4    0    0 -0.34318174190E+01 -0.23706292879E+02  0.41770293989E+01  0.24314877492E+02  0.00000000000E+00 0. -1.
         -5    1    5    5    0  502 -0.25603996123E+02  0.25718553525E+02 -0.63179362802E+02  0.73011851757E+02  0.47000000000E+01 0.  1.
         13    1    6    6    0    0  0.48386020195E+01  0.33707809639E+02 -0.16239689391E+02  0.37727390735E+02  0.00000000000E+00 0. -1.
        -14    1    6    6    0    0  0.84185176493E+02  0.21568862528E+02  0.36963036251E+02  0.94438476380E+02  0.00000000000E+00 0.  1.
</event>
<event>
12    1  0.8724767E-002  0.2036396E+03  0.7818608E-02  0.1147238E+00
         21   -1    0    0  501  502  0.00000000000E+00  0.00000000000E+00  0.37668444561E+03  0.37668444561E+03  0.00000000000E+00 0. -1.
         21   -1    0    0  502  503 -0.00000000000E+00 -0.00000000000E+00 -0.15998633053E+03  0.15998633053E+03  0.00000000000E+00 0. -1.
         -6    2    1    2    0  503  0.10063637752E+03  0.37943688217E+02 -0.43104407086E+02  0.20815152313E+03  0.17292097245E+03 0.  0.
        -24    2    3    3    0    0  0.11599451695E+03  0.63059569366E+02 -0.68818596627E+02  0.16878161741E+03  0.79498414347E+02 0.  0.
          6    2    1    2  501    0 -0.10063637752E+03 -0.37943688217E+02  0.25980252216E+03  0.32851925302E+03  0.16988273934E+03 0.  0.
         24    2    5    5    0    0  0.50417294996E+01 -0.12378312380E+02  0.16729963834E+03  0.18568954931E+03  0.79453118764E+02 0.  0.
          5    1    5    5  501    0 -0.10567810702E+03 -0.25565375837E+02  0.92502883820E+02  0.14282970370E+03  0.47000000000E+01 0. -1.
        -13    1    6    6    0    0  0.32855506076E+02 -0.19517611707E+01  0.27861210338E+02  0.43122392010E+02  0.00000000000E+00 0.  1.
         14    1    6    6    0    0 -0.27813776576E+02 -0.10426551209E+02  0.13943842800E+03  0.14256715730E+03  0.00000000000E+00 0. -1.
         -5    1    3    3    0  503 -0.15358139425E+02 -0.25115881149E+02  0.25714189541E+02  0.39369905718E+02  0.47000000000E+01 0.  1.
         13    1    4    4    0    0  0.59572927386E+02 -0.76436264520E+01 -0.10011565603E+02  0.60889983975E+02  0.00000000000E+00 0. -1.
        -14    1    4    4    0    0  0.56421589559E+02  0.70703195818E+02 -0.58807031024E+02  0.10789163343E+03  0.00000000000E+00 0.  1.
</event>
<event>
12    1  0.8724767E-002  0.2155462E+03  0.7818608E-02  0.1138197E+00
         21   -1    0    0  503  502  0.00000000000E+00  0.00000000000E+00  0.93960285672E+02  0.93960285672E+02  0.00000000000E+00 0.  1.
         21   -1    0    0  501  503 -0.00000000000E+00 -0.00000000000E+00 -0.79573048909E+03  0.79573048909E+03  0.00000000000E+00 0. -1.
          6    2    1    2  501    0  0.16454090762E+01 -0.12069241460E+03 -0.63206705231E+03  0.66780904867E+03  0.17857995562E+03 0.  0.
         24    2    3    3    0    0 -0.46338914446E+02 -0.22641581405E+02 -0.19023920734E+03  0.21267127195E+03  0.79863494201E+02 0.  0.
         -6    2    1    2    0  502 -0.16454090762E+01  0.12069241460E+03 -0.69703151101E+02  0.22188172609E+03  0.17263720568E+03 0.  0.
        -24    2    5    5    0    0  0.42092137740E+02  0.11513687316E+03 -0.92572580910E+02  0.17199247011E+03  0.77352953528E+02 0.  0.
          5    1    3    3  501    0  0.47984323522E+02 -0.98050833200E+02 -0.44182784498E+03  0.45513777671E+03  0.47000000000E+01 0. -1.
        -13    1    4    4    0    0 -0.94242009134E+01 -0.44543341339E+02 -0.58584171267E+02  0.74195888993E+02  0.00000000000E+00 0.  1.
         14    1    4    4    0    0 -0.36914713533E+02  0.21901759935E+02 -0.13165503607E+03  0.13847538296E+03  0.00000000000E+00 0. -1.
         -5    1    5    5    0  502 -0.43737546816E+02  0.55555414492E+01  0.22869429808E+02  0.49889255978E+02  0.47000000000E+01 0.  1.
         11    1    6    6    0    0  0.52474501457E+01  0.86392992704E+02 -0.25470966788E+02  0.90222253744E+02  0.00000000000E+00 0. -1.
        -12    1    6    6    0    0  0.36844687594E+02  0.28743880451E+02 -0.67101614121E+02  0.81770216369E+02  0.00000000000E+00 0.  1.
</event>
<event>
12    1  0.8724767E-002  0.2455761E+03  0.7818608E-02  0.1117483E+00
         21   -1    0    0  501  502  0.00000000000E+00  0.00000000000E+00  0.10924722809E+04  0.10924722809E+04  0.00000000000E+00 0. -1.
         21   -1    0    0  502  503 -0.00000000000E+00 -0.00000000000E+00 -0.62138453669E+02  0.62138453669E+02  0.00000000000E+00 0.  1.
         -6    2    1    2    0  503 -0.15140123029E+03 -0.63692327728E+02  0.29088740649E+03  0.37545179430E+03  0.17137538169E+03 0.  0.
        -24    2    3    3    0    0 -0.23660381303E+02 -0.99892266734E+01  0.17679016009E+03  0.19589116611E+03  0.80367841585E+02 0.  0.
          6    2    1    2  501    0  0.15140123029E+03  0.63692327728E+02  0.73944642074E+03  0.77915894026E+03  0.18256122234E+03 0.  0.
         24    2    5    5    0    0  0.10684555528E+03  0.11492314283E+03  0.57047495573E+03  0.59699623668E+03  0.79621165834E+02 0.  0.
          5    1    5    5  501    0  0.44555675012E+02 -0.51230815097E+02  0.16897146501E+03  0.18216270358E+03  0.47000000000E+01 0. -1.
        -11    1    6    6    0    0  0.40328037288E+02  0.17088377741E+02  0.68785144694E+02  0.81546056777E+02  0.00000000000E+00 0.  1.
         12    1    6    6    0    0  0.66517517988E+02  0.97834765084E+02  0.50168981104E+03  0.51545017990E+03  0.00000000000E+00 0. -1.
         -5    1    3    3    0  503 -0.12774084898E+03 -0.53703101055E+02  0.11409724639E+03  0.17956062819E+03  0.47000000000E+01 0.  1.
         13    1    4    4    0    0 -0.59714452793E+01 -0.43842515166E+02  0.11535689064E+03  0.12355175641E+03  0.00000000000E+00 0. -1.
        -14    1    4    4    0    0 -0.17688936023E+02  0.33853288493E+02  0.61433269456E+02  0.72339409698E+02  0.00000000000E+00 0.  1.
</event>
<event>
12    1  0.8724767E-002  0.3422578E+03  0.7818608E-02  0.1065881E+00
         21   -1    0    0  501  502  0.00000000000E+00  0.00000000000E+00  0.10225222555E+03  0.10225222555E+03  0.00000000000E+00 0. -1.
         21   -1    0    0  502  503 -0.00000000000E+00 -0.00000000000E+00 -0.12559828551E+04  0.12559828551E+04  0.00000000000E+00 0.  1.
         -6    2    1    2    0  503 -0.36179181233E+02 -0.29365936320E+03 -0.77973457036E+03  0.85154355536E+03  0.17203392604E+03 0.  0.
        -24    2    3    3    0    0  0.21946327744E+02 -0.26058448946E+03 -0.65596534283E+03  0.71078335590E+03  0.80848813173E+02 0.  0.
          6    2    1    2  501    0  0.36179181233E+02  0.29365936320E+03 -0.37399605922E+03  0.50669152533E+03  0.17122644298E+03 0.  0.
         24    2    5    5    0    0  0.55868329508E+02  0.14935064277E+03 -0.28576406706E+03  0.33633999527E+03  0.77695596129E+02 0.  0.
          5    1    5    5  501    0 -0.19689148275E+02  0.14430872043E+03 -0.88231992162E+02  0.17035153006E+03  0.47000000000E+01 0. -1.
        -11    1    6    6    0    0 -0.11130017132E+02  0.56074811803E+02 -0.13665254591E+03  0.14812893068E+03  0.00000000000E+00 0.  1.
         12    1    6    6    0    0  0.66998346640E+02  0.93275830970E+02 -0.14911152115E+03  0.18821106459E+03  0.00000000000E+00 0. -1.
         -5    1    3    3    0  503 -0.58125508977E+02 -0.33074873742E+02 -0.12376922753E+03  0.14076019946E+03  0.47000000000E+01 0.  1.
         11    1    4    4    0    0  0.24976897112E+02 -0.72995119243E+02 -0.11745436094E+03  0.14052636666E+03  0.00000000000E+00 0. -1.
        -12    1    4    4    0    0 -0.30305693680E+01 -0.18758937022E+03 -0.53851098189E+03  0.57025698925E+03  0.00000000000E+00 0.  1.
</event>
<event>
12    1  0.8724767E-002  0.1846865E+03  0.7818608E-02  0.1163415E+00
         21   -1    0    0  501  502  0.00000000000E+00  0.00000000000E+00  0.17778715733E+03  0.17778715733E+03  0.00000000000E+00 0.  1.
         21   -1    0    0  502  503 -0.00000000000E+00 -0.00000000000E+00 -0.24843273031E+03  0.24843273031E+03  0.00000000000E+00 0.  1.
         -6    2    1    2    0  503  0.66009162396E+02 -0.10044522962E+02 -0.13733191968E+03  0.23015025916E+03  0.17219460986E+03 0.  0.
        -24    2    3    3    0    0 -0.10625356130E+01 -0.62496455125E+02 -0.87561256799E+02  0.13141309926E+03  0.75468490641E+02 0.  0.
          6    2    1    2  501    0 -0.66009162396E+02  0.10044522962E+02  0.66686346705E+02  0.19606962848E+03  0.17186660063E+03 0.  0.
         24    2    5    5    0    0 -0.52928792589E+02  0.13401909903E+02 -0.27208402452E+02  0.10109235730E+03  0.80612029290E+02 0.  0.
          5    1    5    5  501    0 -0.13080369806E+02 -0.33573869412E+01  0.93894749157E+02  0.94977271179E+02  0.47000000000E+01 0. -1.
        -13    1    6    6    0    0 -0.36526846901E+02  0.35314544311E+02  0.13007670314E+02  0.52445467596E+02  0.00000000000E+00 0.  1.
         14    1    6    6    0    0 -0.16401945689E+02 -0.21912634407E+02 -0.40216072766E+02  0.48646889703E+02  0.00000000000E+00 0. -1.
         -5    1    3    3    0  503  0.67071698009E+02  0.52451932163E+02 -0.49770662880E+02  0.98737159899E+02  0.47000000000E+01 0.  1.
         11    1    4    4    0    0 -0.12293287179E+02 -0.60095802347E+01 -0.69822463745E+02  0.71150659925E+02  0.00000000000E+00 0. -1.
        -12    1    4    4    0    0  0.11230751566E+02 -0.56486874890E+02 -0.17738793054E+02  0.60262439335E+02  0.00000000000E+00 0.  1.
</event>
<event>
12    1  0.8724767E-002  0.1872037E+03  0.7818608E-02  0.1161298E+00
         21   -1    0    0  501  502  0.00000000000E+00  0.00000000000E+00  0.64944684169E+03  0.64944684169E+03  0.00000000000E+00 0. -1.
         21   -1    0    0  502  503 -0.00000000000E+00 -0.00000000000E+00 -0.84044693310E+02  0.84044693310E+02  0.00000000000E+00 0. -1.
         -6    2    1    2    0  503 -0.20435737061E+02 -0.70254954366E+02  0.62576459881E+02  0.19738547089E+03  0.17231318239E+03 0.  0.
        -24    2    3    3    0    0 -0.80893855393E+01  0.18283958901E+02 -0.86601900217E+01  0.82981267091E+02  0.80069660205E+02 0.  0.
          6    2    1    2  501    0  0.20435737061E+02  0.70254954366E+02  0.50282568850E+03  0.53610606410E+03  0.17094636877E+03 0.  0.
         24    2    5    5    0    0  0.31191991589E+02  0.11037457851E+03  0.42667614591E+03  0.44923763434E+03  0.81279952659E+02 0.  0.
          5    1    5    5  501    0 -0.10756254528E+02 -0.40119624140E+02  0.76149542589E+02  0.86868429761E+02  0.47000000000E+01 0. -1.
        -13    1    6    6    0    0  0.12881351637E+02  0.92305846762E+02  0.19489423748E+03  0.21603254932E+03  0.00000000000E+00 0.  1.
         14    1    6    6    0    0  0.18310639952E+02  0.18068731744E+02  0.23178190843E+03  0.23320508502E+03  0.00000000000E+00 0. -1.
         -5    1    3    3    0  503 -0.12346351522E+02 -0.88538913267E+02  0.71236649903E+02  0.11440420380E+03  0.47000000000E+01 0.  1.
         13    1    4    4    0    0 -0.34850302426E+02 -0.60818834159E+01  0.16366343256E+02  0.38979354493E+02  0.00000000000E+00 0. -1.
        -14    1    4    4    0    0  0.26760916887E+02  0.24365842317E+02 -0.25026533278E+02  0.44001912599E+02  0.00000000000E+00 0.  1.
</event>
<event>
12    1  0.8724767E-002  0.2008159E+03  0.7818608E-02  0.1149567E+00
         21   -1    0    0  503  502  0.00000000000E+00  0.00000000000E+00  0.94360944404E+02  0.94360944404E+02  0.00000000000E+00 0. -1.
         21   -1    0    0  501  503 -0.00000000000E+00 -0.00000000000E+00 -0.45481962179E+03  0.45481962179E+03  0.00000000000E+00 0. -1.
          6    2    1    2  501    0  0.73102037125E+02  0.68463879720E+02 -0.25274188740E+03  0.32129914963E+03  0.17124097421E+03 0.  0.
         24    2    3    3    0    0  0.68554457695E+02  0.17583291330E+01 -0.69705508049E+02  0.12637681350E+03  0.80058951694E+02 0.  0.
         -6    2    1    2    0  502 -0.73102037125E+02 -0.68463879720E+02 -0.10771678999E+03  0.22788141656E+03  0.17405695192E+03 0.  0.
        -24    2    5    5    0    0 -0.11153252606E+03 -0.24472436186E+02 -0.92881096817E+02  0.16743030098E+03  0.79797262085E+02 0.  0.
          5    1    3    3  501    0  0.45475794305E+01  0.66705550587E+02 -0.18303637935E+03  0.19492233613E+03  0.47000000000E+01 0. -1.
        -11    1    4    4    0    0 -0.59218455990E+01  0.26255714616E+02 -0.20217517300E+02  0.33662721386E+02  0.00000000000E+00 0.  1.
         12    1    4    4    0    0  0.74476303294E+02 -0.24497385483E+02 -0.49487990749E+02  0.92714092112E+02  0.00000000000E+00 0. -1.
         -5    1    5    5    0  502  0.38430488936E+02 -0.43991443534E+02 -0.14835693170E+02  0.60451115589E+02  0.47000000000E+01 0.  1.
         13    1    6    6    0    0 -0.92186051884E+02  0.19508798215E+01 -0.30753867976E+02  0.97200177415E+02  0.00000000000E+00 0. -1.
        -14    1    6    6    0    0 -0.19346474178E+02 -0.26423316008E+02 -0.62127228841E+02  0.70230123561E+02  0.00000000000E+00 0.  1.
</event>
<event>
12    1  0.8724767E-002  0.2098574E+03  0.7818608E-02  0.1142461E+00
         21   -1    0    0  501  502  0.00000000000E+00  0.00000000000E+00  0.36190134984E+03  0.36190134984E+03  0.00000000000E+00 0.  1.
         21   -1    0    0  502  503 -0.00000000000E+00 -0.00000000000E+00 -0.15768578629E+03  0.15768578629E+03  0.00000000000E+00 0. -1.
         -6    2    1    2    0  503 -0.88748623612E+02 -0.74127268179E+02 -0.25111620960E+02  0.21135448899E+03  0.17512554476E+03 0.  0.
        -24    2    3    3    0    0 -0.93119267120E+02 -0.10858765052E+03  0.67253476655E+01  0.16400152659E+03  0.79929935996E+02 0.  0.
          6    2    1    2  501    0  0.88748623612E+02  0.74127268179E+02  0.22932718451E+03  0.30823264714E+03  0.17042663268E+03 0.  0.
         24    2    5    5    0    0  0.11682084992E+03  0.82825737063E+02  0.22532640326E+03  0.27820250393E+03  0.78214010828E+02 0.  0.
          5    1    5    5  501    0 -0.28072226306E+02 -0.86984688843E+01  0.40007812516E+01  0.30030143212E+02  0.47000000000E+01 0. -1.
        -13    1    6    6    0    0  0.12319420918E+03  0.64764308330E+02  0.17030732336E+03  0.21994502313E+03  0.00000000000E+00 0.  1.
         14    1    6    6    0    0 -0.63733592598E+01  0.18061428734E+02  0.55019079900E+02  0.58257480800E+02  0.00000000000E+00 0. -1.
         -5    1    3    3    0  503  0.43706435076E+01  0.34460382345E+02 -0.31836968625E+02  0.47352962392E+02  0.47000000000E+01 0.  1.
         13    1    4    4    0    0 -0.12463668869E+02  0.59597540582E+01 -0.17007034200E+02  0.21911205407E+02  0.00000000000E+00 0. -1.
        -14    1    4    4    0    0 -0.80655598251E+02 -0.11454740458E+03  0.23732381865E+02  0.14209032119E+03  0.00000000000E+00 0.  1.
</event>
<event>
12    1  0.8724767E-002  0.1886255E+03  0.7818608E-02  0.1159928E+00
         21   -1    0    0  503  502  0.00000000000E+00  0.00000000000E+00  0.17917358121E+04  0.17917358121E+04  0.00000000000E+00 0.  1.
         21   -1    0    0  501  503 -0.00000000000E+00 -0.00000000000E+00 -0.20783681686E+02  0.20783681686E+02  0.00000000000E+00 0. -1.
          6    2    1    2  501    0  0.68899299878E+02  0.36787869115E+02  0.68609610961E+03  0.71155283698E+03  0.17169480879E+03 0.  0.
         24    2    3    3    0    0  0.67661641303E+02  0.49242389038E+02  0.25721274862E+03  0.28246115191E+03  0.81381777479E+02 0.  0.
         -6    2    1    2    0  502 -0.68899299878E+02 -0.36787869115E+02  0.10848560208E+04  0.11009666568E+04  0.17062981179E+03 0.  0.
        -24    2    5    5    0    0 -0.42610157928E+02  0.33868092210E+02  0.37702205460E+03  0.38911386473E+03  0.79380708275E+02 0.  0.
          5    1    3    3  501    0  0.12376585754E+01 -0.12454519923E+02  0.42888336099E+03  0.42909168507E+03  0.47000000000E+01 0. -1.
        -13    1    4    4    0    0  0.45691132219E+02 -0.77194827125E+01  0.16860486127E+03  0.17485671054E+03  0.00000000000E+00 0.  1.
         14    1    4    4    0    0  0.21970509084E+02  0.56961871751E+02  0.88607887350E+02  0.10760444137E+03  0.00000000000E+00 0. -1.
         -5    1    5    5    0  502 -0.26289141950E+02 -0.70655961325E+02  0.70783396625E+03  0.71185279211E+03  0.47000000000E+01 0.  1.
         13    1    6    6    0    0 -0.68458509763E+01 -0.23901513634E+02  0.61035521004E+02  0.65905104915E+02  0.00000000000E+00 0. -1.
        -14    1    6    6    0    0 -0.35764306952E+02  0.57769605844E+02  0.31598653359E+03  0.32320875982E+03  0.00000000000E+00 0.  1.
</event>
<event>
12    1  0.8724767E-002  0.1792226E+03  0.7818608E-02  0.1168767E+00
         21   -1    0    0  501  502  0.00000000000E+00  0.00000000000E+00  0.92306571695E+03  0.92306571695E+03  0.00000000000E+00 0.  1.
         21   -1    0    0  502  503 -0.00000000000E+00 -0.00000000000E+00 -0.38995855075E+02  0.38995855075E+02  0.00000000000E+00 0. -1.
         -6    2    1    2    0  503 -0.44569918303E+02 -0.20104316403E+02  0.28204599647E+03  0.33417163513E+03  0.17242411794E+03 0.  0.
        -24    2    3    3    0    0 -0.78989754050E+02 -0.47476112642E+01  0.10720599321E+03  0.15525358064E+03  0.79678279737E+02 0.  0.
          6    2    1    2  501    0  0.44569918303E+02  0.20104316403E+02  0.60202386540E+03  0.62788993689E+03  0.17152952276E+03 0.  0.
         24    2    5    5    0    0  0.57642963280E+02 -0.13688442745E+01  0.59273901875E+03  0.60068149129E+03  0.78448229338E+02 0.  0.
          5    1    5    5  501    0 -0.13073044978E+02  0.21473160677E+02  0.92848466573E+01  0.27208445599E+02  0.47000000000E+01 0. -1.
        -13    1    6    6    0    0  0.10400303639E+02  0.21393702709E+02  0.40663638821E+03  0.40733157138E+03  0.00000000000E+00 0.  1.
         14    1    6    6    0    0  0.47242659642E+02 -0.22762546983E+02  0.18610263054E+03  0.19334991991E+03  0.00000000000E+00 0. -1.
         -5    1    3    3    0  503  0.34419835748E+02 -0.15356705138E+02  0.17484000326E+03  0.17891805450E+03  0.47000000000E+01 0.  1.
         11    1    4    4    0    0  0.39329993705E+01  0.85833623329E+01 -0.82110733307E+01  0.12512566413E+02  0.00000000000E+00 0. -1.
        -12    1    4    4    0    0 -0.82922753421E+02 -0.13330973597E+02  0.11541706654E+03  0.14274101422E+03  0.00000000000E+00 0.  1.
</event>
<event>
12    1  0.8724767E-002  0.2010809E+03  0.7818608E-02  0.1149601E+00
         21   -1    0    0  503  502  0.00000000000E+00  0.00000000000E+00  0.26040721529E+03  0.26040721529E+03  0.00000000000E+00 0. -1.
         21   -1    0    0  501  503 -0.00000000000E+00 -0.00000000000E+00 -0.28854771526E+03  0.28854771526E+03  0.00000000000E+00 0. -1.
          6    2    1    2  501    0  0.84255689181E+02 -0.61512219605E+02 -0.20262668654E+03  0.28546647020E+03  0.17190333676E+03 0.  0.
         24    2    3    3    0    0 -0.18866448809E+02 -0.11391708257E+02 -0.11288469435E+03  0.13978889415E+03  0.79449775337E+02 0.  0.
         -6    2    1    2    0  502 -0.84255689181E+02  0.61512219605E+02  0.17448618657E+03  0.26348846034E+03  0.16762447647E+03 0.  0.
        -24    2    5    5    0    0 -0.15358558374E+02 -0.18893454737E+02  0.40184061215E+02  0.92400652555E+02  0.79563018229E+02 0.  0.
          5    1    3    3  501    0  0.10312213799E+03 -0.50120511348E+02 -0.89741992183E+02  0.14567757605E+03  0.47000000000E+01 0. -1.
        -13    1    4    4    0    0 -0.64990087592E-01  0.33624188881E+02 -0.48239215227E+02  0.58801464160E+02  0.00000000000E+00 0.  1.
         14    1    4    4    0    0 -0.18801458721E+02 -0.45015897137E+02 -0.64645479127E+02  0.80987429992E+02  0.00000000000E+00 0. -1.
         -5    1    5    5    0  502 -0.68897130807E+02  0.80405674341E+02  0.13430212535E+03  0.17108780779E+03  0.47000000000E+01 0.  1.
         11    1    6    6    0    0 -0.41757653066E+02  0.10034675542E+02  0.28459060221E+02  0.51520038931E+02  0.00000000000E+00 0. -1.
        -12    1    6    6    0    0  0.26399094692E+02 -0.28928130279E+02  0.11725000994E+02  0.40880613624E+02  0.00000000000E+00 0.  1.
</event>
<event>
12    1  0.8724767E-002  0.1782704E+03  0.7818608E-02  0.1169783E+00
         21   -1    0    0  501  502  0.00000000000E+00  0.00000000000E+00  0.65812124793E+02  0.65812124793E+02  0.00000000000E+00 0. -1.
         21   -1    0    0  502  503 -0.00000000000E+00 -0.00000000000E+00 -0.72044652089E+03  0.72044652089E+03  0.00000000000E+00 0. -1.
         -6    2    1    2    0  503  0.31656219489E+02 -0.31810501556E+02 -0.55533726297E+03  0.58324935787E+03  0.17252916728E+03 0.  0.
        -24    2    3    3    0    0  0.76464649889E+02 -0.85368422245E+01 -0.47497271498E+03  0.48822299717E+03  0.82721790526E+02 0.  0.
          6    2    1    2  501    0 -0.31656219489E+02  0.31810501556E+02 -0.99297133123E+02  0.20300928782E+03  0.17128580225E+03 0.  0.
         24    2    5    5    0    0 -0.15221776534E+02 -0.46557181303E+02 -0.31755039313E+02  0.98149338035E+02  0.78902702256E+02 0.  0.
          5    1    5    5  501    0 -0.16434442956E+02  0.78367682859E+02 -0.67542093810E+02  0.10485994978E+03  0.47000000000E+01 0. -1.
        -13    1    6    6    0    0  0.22263586841E+02  0.27471388907E+01 -0.28306401798E+02  0.36117398215E+02  0.00000000000E+00 0.  1.
         14    1    6    6    0    0 -0.37485363375E+02 -0.49304320194E+02 -0.34486375149E+01  0.62031939820E+02  0.00000000000E+00 0. -1.
         -5    1    3    3    0  503 -0.44808430399E+02 -0.23273659331E+02 -0.80364547991E+02  0.95026360697E+02  0.47000000000E+01 0.  1.
         13    1    4    4    0    0  0.41313924013E+02  0.16654371794E+02 -0.85979213373E+02  0.96833018901E+02  0.00000000000E+00 0. -1.
        -14    1    4    4    0    0  0.35150725875E+02 -0.25191214018E+02 -0.38899350161E+03  0.39138997827E+03  0.00000000000E+00 0.  1.
</event>
<event>
12    1  0.8724767E-002  0.1763681E+03  0.7818608E-02  0.1171627E+00
         21   -1    0    0  501  502  0.00000000000E+00  0.00000000000E+00  0.92921413087E+02  0.92921413087E+02  0.00000000000E+00 0.  1.
         21   -1    0    0  502  503 -0.00000000000E+00 -0.00000000000E+00 -0.91834010565E+03  0.91834010565E+03  0.00000000000E+00 0.  1.
         -6    2    1    2    0  503  0.34217584828E+02 -0.20061585419E+02 -0.81691496173E+03  0.83573665444E+03  0.17184990704E+03 0.  0.
        -24    2    3    3    0    0  0.61415290065E+02 -0.17984443040E+02 -0.27484815576E+03  0.29296364311E+03  0.78682332289E+02 0.  0.
          6    2    1    2  501    0 -0.34217584828E+02  0.20061585419E+02 -0.85037308279E+01  0.17552486430E+03  0.17077281466E+03 0.  0.
         24    2    5    5    0    0  0.42683299677E+02  0.27361609445E+02  0.23861074083E+02  0.91640378332E+02  0.72512663319E+02 0.  0.
          5    1    5    5  501    0 -0.76900884505E+02 -0.73000240261E+01 -0.32364804911E+02  0.83884485964E+02  0.47000000000E+01 0. -1.
        -11    1    6    6    0    0 -0.23108523458E+01 -0.14787316911E+02  0.25945495726E+02  0.29952855097E+02  0.00000000000E+00 0.  1.
         12    1    6    6    0    0  0.44994152023E+02  0.42148926356E+02 -0.20844216431E+01  0.61687523234E+02  0.00000000000E+00 0. -1.
         -5    1    3    3    0  503 -0.27197705236E+02 -0.20771423786E+01 -0.54206680598E+03  0.54277301133E+03  0.47000000000E+01 0.  1.
         11    1    4    4    0    0  0.74364310676E+02  0.29885901700E+00 -0.24226122980E+03  0.25341792258E+03  0.00000000000E+00 0. -1.
        -12    1    4    4    0    0 -0.12949020612E+02 -0.18283302057E+02 -0.32586925956E+02  0.39545720530E+02  0.00000000000E+00 0.  1.
</event>
<event>
12    1  0.8724767E-002  0.1814100E+03  0.7818608E-02  0.1167607E+00
         21   -1    0    0  501  502  0.00000000000E+00  0.00000000000E+00  0.54049769397E+02  0.54049769397E+02  0.00000000000E+00 0. -1.
         21   -1    0    0  502  503 -0.00000000000E+00 -0.00000000000E+00 -0.72470670749E+03  0.72470670749E+03  0.00000000000E+00 0.  1.
         -6    2    1    2    0  503 -0.36178259894E+02 -0.44838110958E+02 -0.50501817538E+03  0.53661245746E+03  0.17201816576E+03 0.  0.
        -24    2    3    3    0    0 -0.35260240298E+02  0.22118040752E+02 -0.15712571889E+03  0.18230295957E+03  0.82543232663E+02 0.  0.
          6    2    1    2  501    0  0.36178259894E+02  0.44838110958E+02 -0.16563876272E+03  0.24214401943E+03  0.16696767277E+03 0.  0.
         24    2    5    5    0    0  0.40106497183E+02  0.30447595063E+01 -0.21418211611E+02  0.91865036756E+02  0.79766180257E+02 0.  0.
          5    1    5    5  501    0 -0.39282372895E+01  0.41793351451E+02 -0.14422055110E+03  0.15027898268E+03  0.47000000000E+01 0. -1.
        -11    1    6    6    0    0  0.20290022768E+02 -0.12017853260E+02 -0.49202362626E+02  0.54561765998E+02  0.00000000000E+00 0.  1.
         12    1    6    6    0    0  0.19816474415E+02  0.15062612766E+02  0.27784151014E+02  0.37303270757E+02  0.00000000000E+00 0. -1.
         -5    1    3    3    0  503 -0.91801959598E+00 -0.66956151709E+02 -0.34789245648E+03  0.35430949788E+03  0.47000000000E+01 0.  1.
         13    1    4    4    0    0 -0.37704833011E+02  0.27875742722E+02 -0.16540690091E+03  0.17192485083E+03  0.00000000000E+00 0. -1.
        -14    1    4    4    0    0  0.24445927137E+01 -0.57577019706E+01  0.82811820144E+01  0.10378108743E+02  0.00000000000E+00 0.  1.
</event>
<event>
12    1  0.8724767E-002  0.2026380E+03  0.7818608E-02  0.1147537E+00
         21   -1    0    0  501  502  0.00000000000E+00  0.00000000000E+00  0.44526792200E+03  0.44526792200E+03  0.00000000000E+00 0. -1.
         21   -1    0    0  502  503 -0.00000000000E+00 -0.00000000000E+00 -0.15609741104E+03  0.15609741104E+03  0.00000000000E+00 0. -1.
         -6    2    1    2    0  503 -0.10332662365E+03 -0.25925320160E+02 -0.47782228737E+02  0.20817412721E+03  0.17235084124E+03 0.  0.
        -24    2    3    3    0    0 -0.14014712510E+03 -0.39069438667E+02 -0.38882582305E+02  0.16780321089E+03  0.74016381072E+02 0.  0.
          6    2    1    2  501    0  0.10332662365E+03  0.25925320160E+02  0.33695273969E+03  0.39319120583E+03  0.17237651282E+03 0.  0.
         24    2    5    5    0    0 -0.74227831219E+00 -0.21376191573E+02  0.39142665696E+02  0.74160330297E+02  0.59246213117E+02 0.  0.
          5    1    5    5  501    0  0.10406890196E+03  0.47301511733E+02  0.29781007400E+03  0.31903087553E+03  0.47000000000E+01 0. -1.
        -13    1    6    6    0    0  0.16732838286E+02 -0.17266317807E+02 -0.66732920131E+01  0.24952884283E+02  0.00000000000E+00 0.  1.
         14    1    6    6    0    0 -0.17475116598E+02 -0.41098737656E+01  0.45815957709E+02  0.49207446014E+02  0.00000000000E+00 0. -1.
         -5    1    3    3    0  503  0.36820501446E+02  0.13144118507E+02 -0.88996464320E+01  0.40370916322E+02  0.47000000000E+01 0.  1.
         13    1    4    4    0    0 -0.11929336676E+03 -0.16311585506E+02 -0.29590641952E+01  0.12043974110E+03  0.00000000000E+00 0. -1.
        -14    1    4    4    0    0 -0.20853758337E+02 -0.22757853161E+02 -0.35923518110E+02  0.47363469791E+02  0.00000000000E+00 0.  1.
</event>
<event>
12    1  0.8724767E-002  0.2012836E+03  0.7818608E-02  0.1148804E+00
         21   -1    0    0  501  502  0.00000000000E+00  0.00000000000E+00  0.13565954716E+03  0.13565954716E+03  0.00000000000E+00 0.  1.
         21   -1    0    0  502  503 -0.00000000000E+00 -0.00000000000E+00 -0.36311927710E+03  0.36311927710E+03  0.00000000000E+00 0.  1.
         -6    2    1    2    0  503  0.67729145575E+02  0.79889088574E+02 -0.21979394862E+03  0.29803433953E+03  0.17188828946E+03 0.  0.
        -24    2    3    3    0    0  0.10914204525E+03  0.84105936954E+02 -0.17059838774E+03  0.23341930041E+03  0.79968526496E+02 0.  0.
          6    2    1    2  501    0 -0.67729145575E+02 -0.79889088574E+02 -0.76657813209E+01  0.20074448473E+03  0.17108500902E+03 0.  0.
         24    2    5    5    0    0  0.12113051114E+02 -0.88110914017E+02 -0.12003236674E+02  0.12022567758E+03  0.79999229262E+02 0.  0.
          5    1    5    5  501    0 -0.79842196689E+02  0.82218254429E+01  0.43374553529E+01  0.80518807149E+02  0.47000000000E+01 0. -1.
        -11    1    6    6    0    0  0.45033644718E+02 -0.35437810051E+02 -0.92786852796E+01  0.58051369823E+02  0.00000000000E+00 0.  1.
         12    1    6    6    0    0 -0.32920593604E+02 -0.52673103967E+02 -0.27245513942E+01  0.62174307757E+02  0.00000000000E+00 0. -1.
         -5    1    3    3    0  503 -0.41412899677E+02 -0.42168483797E+01 -0.49195560886E+02  0.64615039122E+02  0.47000000000E+01 0.  1.
         11    1    4    4    0    0  0.38069388316E+02 -0.47245681961E+01 -0.16215267864E+02  0.41647746437E+02  0.00000000000E+00 0. -1.
        -12    1    4    4    0    0  0.71072656937E+02  0.88830505150E+02 -0.15438311987E+03  0.19177155397E+03  0.00000000000E+00 0.  1.
</event>
<event>
12    1  0.8724767E-002  0.1998460E+03  0.7818608E-02  0.1151174E+00
         21   -1    0    0  503  502  0.00000000000E+00  0.00000000000E+00  0.10756953781E+03  0.10756953781E+03  0.00000000000E+00 0.  1.
         21   -1    0    0  501  503 -0.00000000000E+00 -0.00000000000E+00 -0.10003558974E+04  0.10003558974E+04  0.00000000000E+00 0. -1.
          6    2    1    2  501    0 -0.77966653241E+02 -0.57463458773E+02 -0.89204667880E+03  0.91415847117E+03  0.17480728001E+03 0.  0.
         24    2    3    3    0    0 -0.61438332546E+02  0.34494830211E+02 -0.46258068554E+03  0.47462162213E+03  0.79499883913E+02 0.  0.
         -6    2    1    2    0  502  0.77966653241E+02  0.57463458773E+02 -0.73968083308E+00  0.19376696408E+03  0.16782205197E+03 0.  0.
        -24    2    5    5    0    0  0.69669171198E+02 -0.27735908423E+02 -0.21973979393E+02  0.10544501995E+03  0.70800582133E+02 0.  0.
          5    1    3    3  501    0 -0.16528320695E+02 -0.91958288984E+02 -0.42946599326E+03  0.43953684904E+03  0.47000000000E+01 0. -1.
        -11    1    4    4    0    0 -0.75521038128E+02  0.10524071370E+02 -0.37715792637E+03  0.38478862340E+03  0.00000000000E+00 0.  1.
         12    1    4    4    0    0  0.14082705582E+02  0.23970758841E+02 -0.85422759176E+02  0.89832998732E+02  0.00000000000E+00 0. -1.
         -5    1    5    5    0  502  0.82974820434E+01  0.85199367196E+02  0.21234298560E+02  0.88321944126E+02  0.47000000000E+01 0.  1.
         11    1    6    6    0    0  0.21290688586E+02 -0.16470855362E+02  0.25249696516E+02  0.36907040941E+02  0.00000000000E+00 0. -1.
        -12    1    6    6    0    0  0.48378482612E+02 -0.11265053061E+02 -0.47223675909E+02  0.68537979009E+02  0.00000000000E+00 0.  1.
</event>
<event>
12    1  0.8724767E-002  0.2372118E+03  0.7818608E-02  0.1121799E+00
         21   -1    0    0  501  502  0.00000000000E+00  0.00000000000E+00  0.16104715063E+03  0.16104715063E+03  0.00000000000E+00 0.  1.
         21   -1    0    0  502  503 -0.00000000000E+00 -0.00000000000E+00 -0.37844614683E+03  0.37844614683E+03  0.00000000000E+00 0.  1.
         -6    2    1    2    0  503 -0.15778105232E+03  0.37314720580E+02 -0.18476076261E+03  0.30004664772E+03  0.17205871836E+03 0.  0.
        -24    2    3    3    0    0 -0.19454093601E+02 -0.10197569910E+02 -0.10194751994E+03  0.13190418307E+03  0.80764871698E+02 0.  0.
          6    2    1    2  501    0  0.15778105232E+03 -0.37314720580E+02 -0.32638233601E+02  0.23944664974E+03  0.17315367434E+03 0.  0.
         24    2    5    5    0    0  0.16446562173E+03 -0.29375191195E+02  0.20877950390E+02  0.18473109853E+03  0.76012152731E+02 0.  0.
          5    1    5    5  501    0 -0.66845694134E+01 -0.79395293854E+01 -0.53516183992E+02  0.54715551209E+02  0.47000000000E+01 0. -1.
        -11    1    6    6    0    0  0.95389457413E+02  0.20614231023E+02  0.31593626665E+01  0.97642596641E+02  0.00000000000E+00 0.  1.
         12    1    6    6    0    0  0.69076164319E+02 -0.49989422218E+02  0.17718587724E+02  0.87088501891E+02  0.00000000000E+00 0. -1.
         -5    1    3    3    0  503 -0.13832695872E+03  0.47512290490E+02 -0.82813242669E+02  0.16814246465E+03  0.47000000000E+01 0.  1.
         11    1    4    4    0    0 -0.12448693164E+02 -0.87381603506E+01  0.10974664232E+02  0.18755496869E+02  0.00000000000E+00 0. -1.
        -12    1    4    4    0    0 -0.70054004364E+01 -0.14594095591E+01 -0.11292218417E+03  0.11314868620E+03  0.00000000000E+00 0.  1.
</event>
<event>
12    1  0.8724767E-002  0.2195359E+03  0.7818608E-02  0.1134254E+00
         21   -1    0    0  501  502  0.00000000000E+00  0.00000000000E+00  0.13480170966E+04  0.13480170966E+04  0.00000000000E+00 0. -1.
         21   -1    0    0  502  503 -0.00000000000E+00 -0.00000000000E+00 -0.45140590350E+02  0.45140590350E+02  0.00000000000E+00 0. -1.
         -6    2    1    2    0  503 -0.12646508010E+03 -0.49796908354E+02  0.33327775959E+03  0.39901596933E+03  0.17223974621E+03 0.  0.
        -24    2    3    3    0    0 -0.15213342400E+03 -0.68299389394E+02  0.26716295965E+03  0.32556896493E+03  0.82521019306E+02 0.  0.
          6    2    1    2  501    0  0.12646508010E+03  0.49796908354E+02  0.96959874670E+03  0.99414171766E+03  0.17240323845E+03 0.  0.
         24    2    5    5    0    0  0.14957267861E+03  0.88418322608E+01  0.81245935410E+03  0.83004979808E+03  0.80263946054E+02 0.  0.
          5    1    5    5  501    0 -0.23107598514E+02  0.40955076093E+02  0.15713939260E+03  0.16409191959E+03  0.47000000000E+01 0. -1.
        -11    1    6    6    0    0  0.17965910313E+02 -0.24153881885E+02  0.88322804647E+02  0.93311852217E+02  0.00000000000E+00 0.  1.
         12    1    6    6    0    0  0.13160676830E+03  0.32995714146E+02  0.72413654945E+03  0.73673794586E+03  0.00000000000E+00 0. -1.
         -5    1    3    3    0  503  0.25668343904E+02  0.18502481039E+02  0.66114799942E+02  0.73447004396E+02  0.47000000000E+01 0.  1.
         13    1    4    4    0    0 -0.11492422731E+03 -0.49443154590E+02  0.25170453536E+03  0.28108250867E+03  0.00000000000E+00 0. -1.
        -14    1    4    4    0    0 -0.37209196690E+02 -0.18856234804E+02  0.15458424291E+02  0.44486456264E+02  0.00000000000E+00 0.  1.
</event>
<event>
12    1  0.8724767E-002  0.1722470E+03  0.7818608E-02  0.1175594E+00
         21   -1    0    0  503  502  0.00000000000E+00  0.00000000000E+00  0.41981200152E+02  0.41981200152E+02  0.00000000000E+00 0.  1.
         21   -1    0    0  501  503 -0.00000000000E+00 -0.00000000000E+00 -0.10205264235E+04  0.10205264235E+04  0.00000000000E+00 0.  1.
          6    2    1    2  501    0 -0.49961833080E+01  0.86475604792E+01 -0.78464741294E+03  0.80333092507E+03  0.17195717604E+03 0.  0.
         24    2    3    3    0    0  0.11708130422E+02 -0.12087809571E+02 -0.76628062478E+03  0.77064425232E+03  0.80145943531E+02 0.  0.
         -6    2    1    2    0  502  0.49961833080E+01 -0.86475604792E+01 -0.19389781043E+03  0.25917669860E+03  0.17168709346E+03 0.  0.
        -24    2    5    5    0    0  0.35590830381E+02 -0.33829098162E+02 -0.43928144344E+02  0.10398928605E+03  0.80454798849E+02 0.  0.
          5    1    3    3  501    0 -0.16704313730E+02  0.20735370050E+02 -0.18366788167E+02  0.32686672756E+02  0.47000000000E+01 0. -1.
        -13    1    4    4    0    0  0.39150649444E+02 -0.29756676615E+02 -0.44381240880E+03  0.44652848438E+03  0.00000000000E+00 0.  1.
         14    1    4    4    0    0 -0.27442519022E+02  0.17668867045E+02 -0.32246821597E+03  0.32411576794E+03  0.00000000000E+00 0. -1.
         -5    1    5    5    0  502 -0.30594647073E+02  0.25181537683E+02 -0.14996966608E+03  0.15518741255E+03  0.47000000000E+01 0.  1.
         13    1    6    6    0    0  0.10364375719E+02 -0.37028755049E+02 -0.61886018990E+02  0.72858961913E+02  0.00000000000E+00 0. -1.
        -14    1    6    6    0    0  0.25226454662E+02  0.31996568873E+01  0.17957874647E+02  0.31130324136E+02  0.00000000000E+00 0.  1.
</event>
<event>
12    1  0.8724767E-002  0.1839224E+03  0.7818608E-02  0.1165127E+00
         21   -1    0    0  501  502  0.00000000000E+00  0.00000000000E+00  0.57551647024E+03  0.57551647024E+03  0.00000000000E+00 0.  1.
         21   -1    0    0  502  503 -0.00000000000E+00 -0.00000000000E+00 -0.76967226027E+02  0.76967226027E+02  0.00000000000E+00 0.  1.
         -6    2    1    2    0  503  0.57690618930E+02  0.64908034190E+01  0.41165669308E+03  0.44906848178E+03  0.16979673237E+03 0.  0.
        -24    2    3    3    0    0  0.42538877894E+02 -0.53057654690E+02  0.17635563944E+03  0.20583141641E+03  0.81489812667E+02 0.  0.
          6    2    1    2  501    0 -0.57690618930E+02 -0.64908034190E+01  0.86892551126E+02  0.20341521448E+03  0.17451961495E+03 0.  0.
         24    2    5    5    0    0 -0.53064604802E+02  0.32144035666E+02 -0.76785504218E+01  0.10104415390E+03  0.79384315759E+02 0.  0.
          5    1    5    5  501    0 -0.46260141274E+01 -0.38634839085E+02  0.94571101548E+02  0.10237106059E+03  0.47000000000E+01 0. -1.
        -13    1    6    6    0    0 -0.41936968657E+02  0.53917136932E+02  0.12378001235E+02  0.69418887269E+02  0.00000000000E+00 0.  1.
         14    1    6    6    0    0 -0.11127636146E+02 -0.21773101266E+02 -0.20056551657E+02  0.31625266628E+02  0.00000000000E+00 0. -1.
         -5    1    3    3    0  503  0.15151741036E+02  0.59548458109E+02  0.23530105365E+03  0.24323706536E+03  0.47000000000E+01 0.  1.
         13    1    4    4    0    0  0.25389404899E+02  0.19195483531E+02  0.50094241751E+02  0.59350834246E+02  0.00000000000E+00 0. -1.
        -14    1    4    4    0    0  0.17149472995E+02 -0.72253138221E+02  0.12626139768E+03  0.14648058217E+03  0.00000000000E+00 0.  1.
</event>
<event>
12    1  0.8724767E-002  0.2256707E+03  0.7818608E-02  0.1131071E+00
         21   -1    0    0  503  502  0.00000000000E+00  0.00000000000E+00  0.74719689355E+03  0.74719689355E+03  0.00000000000E+00 0.  1.
         21   -1    0    0  501  503 -0.00000000000E+00 -0.00000000000E+00 -0.92256407148E+02  0.92256407148E+02  0.00000000000E+00 0.  1.
          6    2    1    2  501    0 -0.38940905515E+01  0.13379091206E+03  0.99539998055E+02  0.23995603020E+03  0.17249786412E+03 0.  0.
         24    2    3    3    0    0 -0.25766106114E+02  0.12998706888E+03  0.13033693105E+03  0.20170167921E+03  0.78328293111E+02 0.  0.
         -6    2    1    2    0  502  0.38940905515E+01 -0.13379091206E+03  0.55540048835E+03  0.59949727050E+03  0.18169233002E+03 0.  0.
        -24    2    5    5    0    0 -0.64105894112E+02 -0.11590966839E+03  0.36344547552E+03  0.39501608863E+03  0.80002998158E+02 0.  0.
          5    1    3    3  501    0  0.21872015563E+02  0.38038431762E+01 -0.30796932991E+02  0.38254350986E+02  0.47000000000E+01 0. -1.
        -11    1    4    4    0    0 -0.35757168277E+02  0.53426866481E+02  0.20568082453E+02  0.67498527102E+02  0.00000000000E+00 0.  1.
         12    1    4    4    0    0  0.99910621628E+01  0.76560202403E+02  0.10976884859E+03  0.13420315211E+03  0.00000000000E+00 0. -1.
         -5    1    5    5    0  502  0.67999984664E+02 -0.17881243670E+02  0.19195501283E+03  0.20448118188E+03  0.47000000000E+01 0.  1.
         13    1    6    6    0    0 -0.56494024347E+02 -0.22252664272E+02  0.14795363489E+03  0.15992821494E+03  0.00000000000E+00 0. -1.
        -14    1    6    6    0    0 -0.76118697651E+01 -0.93657004118E+02  0.21549184062E+03  0.23508787369E+03  0.00000000000E+00 0.  1.
</event>
<event>
12    1  0.8724767E-002  0.2568306E+03  0.7818608E-02  0.1109365E+00
         21   -1    0    0  503  502  0.00000000000E+00  0.00000000000E+00  0.18130662357E+03  0.18130662357E+03  0.00000000000E+00 0.  1.
         21   -1    0    0  501  503 -0.00000000000E+00 -0.00000000000E+00 -0.53287880581E+03  0.53287880581E+03  0.00000000000E+00 0. -1.
          6    2    1    2  501    0  0.13718617229E+03 -0.13267135448E+03 -0.37903758255E+03  0.45785527929E+03  0.17187272506E+03 0.  0.
         24    2    3    3    0    0  0.68457703598E+02 -0.14717535358E+03 -0.23132020519E+03  0.29422006922E+03  0.81910743616E+02 0.  0.
         -6    2    1    2    0  502 -0.13718617229E+03  0.13267135448E+03  0.27465400306E+02  0.25633015009E+03  0.16890548677E+03 0.  0.
        -24    2    5    5    0    0 -0.54053229370E+02  0.13002408177E+03  0.51268650409E+02  0.16968848017E+03  0.79609624669E+02 0.  0.
          5    1    3    3  501    0  0.68728468692E+02  0.14503999102E+02 -0.14771737736E+03  0.16363521007E+03  0.47000000000E+01 0. -1.
        -11    1    4    4    0    0  0.29625334289E+02 -0.74286947184E+00 -0.47904612322E+02  0.56329958002E+02  0.00000000000E+00 0.  1.
         12    1    4    4    0    0  0.38832369308E+02 -0.14643248411E+03 -0.18341559286E+03  0.23789011122E+03  0.00000000000E+00 0. -1.
         -5    1    5    5    0  502 -0.83132942919E+02  0.26472727078E+01 -0.23803250104E+02  0.86641669921E+02  0.47000000000E+01 0.  1.
         11    1    6    6    0    0 -0.76431759091E+01  0.63100063641E+02  0.60467815965E+02  0.87729088318E+02  0.00000000000E+00 0. -1.
        -12    1    6    6    0    0 -0.46410053461E+02  0.66924018133E+02 -0.91991655554E+01  0.81959391849E+02  0.00000000000E+00 0.  1.
</event>
<event>
12    1  0.8724767E-002  0.1891853E+03  0.7818608E-02  0.1159558E+00
         21   -1    0    0  501  502  0.00000000000E+00  0.00000000000E+00  0.21269607936E+03  0.21269607936E+03  0.00000000000E+00 0. -1.
         21   -1    0    0  502  503 -0.00000000000E+00 -0.00000000000E+00 -0.19326316718E+03  0.19326316718E+03  0.00000000000E+00 0. -1.
         -6    2    1    2    0  503 -0.37830943788E+02  0.64691071552E+02 -0.65256432777E+02  0.20012364104E+03  0.17370939709E+03 0.  0.
        -24    2    3    3    0    0 -0.81304867892E+02  0.73206667615E+02 -0.16739217470E+02  0.13425629227E+03  0.75992452821E+02 0.  0.
          6    2    1    2  501    0  0.37830943788E+02 -0.64691071552E+02  0.84689344954E+02  0.20583560550E+03  0.17198807021E+03 0.  0.
         24    2    5    5    0    0 -0.42004925399E+01 -0.48346725369E+02  0.11806560834E+03  0.14953423563E+03  0.77884207389E+02 0.  0.
          5    1    5    5  501    0  0.42031436328E+02 -0.16344346184E+02 -0.33376263382E+02  0.56301369871E+02  0.47000000000E+01 0. -1.
        -13    1    6    6    0    0  0.23972663319E+02 -0.38931490599E+01  0.49663080857E+01  0.24789300358E+02  0.00000000000E+00 0.  1.
         14    1    6    6    0    0 -0.28173155859E+02 -0.44453576309E+02  0.11309930025E+03  0.12474493527E+03  0.00000000000E+00 0. -1.
         -5    1    3    3    0  503  0.43473924104E+02 -0.85155960627E+01 -0.48517215307E+02  0.65867348773E+02  0.47000000000E+01 0.  1.
         13    1    4    4    0    0 -0.51572503328E+02  0.27807700219E+02 -0.44239634193E+02  0.73417549159E+02  0.00000000000E+00 0. -1.
        -14    1    4    4    0    0 -0.29732364564E+02  0.45398967395E+02  0.27500416723E+02  0.60838743109E+02  0.00000000000E+00 0.  1.
</event>
<event>
12    1  0.8724767E-002  0.1748465E+03  0.7818608E-02  0.1173004E+00
         21   -1    0    0  503  502  0.00000000000E+00  0.00000000000E+00  0.11048954751E+03  0.11048954751E+03  0.00000000000E+00 0.  1.
         21   -1    0    0  501  503 -0.00000000000E+00 -0.00000000000E+00 -0.54923867690E+03  0.54923867690E+03  0.00000000000E+00 0.  1.
          6    2    1    2  501    0  0.15863898308E+01  0.24679832961E+01 -0.45220684731E+03  0.48483226839E+03  0.17482187547E+03 0.  0.
         24    2    3    3    0    0  0.62422487798E+02 -0.30474183518E+00 -0.35682413508E+03  0.37156854687E+03  0.82722800935E+02 0.  0.
         -6    2    1    2    0  502 -0.15863898308E+01 -0.24679832961E+01  0.13457717922E+02  0.17489595602E+03  0.17435273926E+03 0.  0.
        -24    2    5    5    0    0 -0.15349820507E+02  0.51960557549E+02 -0.30898660496E+02  0.10319186696E+03  0.82208987678E+02 0.  0.
          5    1    3    3  501    0 -0.60836097967E+02  0.27727251313E+01 -0.95382712232E+02  0.11326372152E+03  0.47000000000E+01 0. -1.
        -13    1    4    4    0    0  0.13833921270E+02  0.10157950897E+01 -0.28201123172E+03  0.28235216314E+03  0.00000000000E+00 0.  1.
         14    1    4    4    0    0  0.48588566528E+02 -0.13205369249E+01 -0.74812903364E+02  0.89216383724E+02  0.00000000000E+00 0. -1.
         -5    1    5    5    0  502  0.13763430676E+02 -0.54428540845E+02  0.44356378418E+02  0.71704089066E+02  0.47000000000E+01 0.  1.
         11    1    6    6    0    0  0.17772706886E+02 -0.10148716007E+02 -0.25355221649E+02  0.32584548662E+02  0.00000000000E+00 0. -1.
        -12    1    6    6    0    0 -0.33122527392E+02  0.62109273556E+02 -0.55434388468E+01  0.70607318294E+02  0.00000000000E+00 0.  1.
</event>
<event>
12    1  0.8724767E-002  0.1907493E+03  0.7818608E-02  0.1158842E+00
         21   -1    0    0  501  502  0.00000000000E+00  0.00000000000E+00  0.80655519559E+02  0.80655519559E+02  0.00000000000E+00 0. -1.
         21   -1    0    0  502  503 -0.00000000000E+00 -0.00000000000E+00 -0.52462781689E+03  0.52462781689E+03  0.00000000000E+00 0. -1.
         -6    2    1    2    0  503 -0.64688462686E+02  0.42275043988E+02 -0.10288879227E+03  0.21672882346E+03  0.17439467536E+03 0.  0.
        -24    2    3    3    0    0 -0.60450846880E+02  0.94519183977E+02 -0.82763299783E+02  0.16038582923E+03  0.79282213635E+02 0.  0.
          6    2    1    2  501    0  0.64688462686E+02 -0.42275043988E+02 -0.34108350506E+03  0.38855451299E+03  0.16930704531E+03 0.  0.
         24    2    5    5    0    0  0.73136531931E+02 -0.45350249187E+01 -0.12088699891E+03  0.16493816691E+03  0.84978901171E+02 0.  0.
          5    1    5    5  501    0 -0.84480692446E+01 -0.37740019070E+02 -0.22019650615E+03  0.22361634608E+03  0.47000000000E+01 0. -1.
        -13    1    6    6    0    0  0.48570306968E+01  0.33464829064E+02 -0.41699524912E+02  0.53687390599E+02  0.00000000000E+00 0.  1.
         14    1    6    6    0    0  0.68279501234E+02 -0.37999853983E+02 -0.79187473996E+02  0.11125077631E+03  0.00000000000E+00 0. -1.
         -5    1    3    3    0  503 -0.42376158063E+01 -0.52244139989E+02 -0.20125492490E+02  0.56342994231E+02  0.47000000000E+01 0.  1.
         11    1    4    4    0    0 -0.24878690195E+02  0.85981507710E+02 -0.85394048173E+02  0.12370898252E+03  0.00000000000E+00 0. -1.
        -12    1    4    4    0    0 -0.35572156685E+02  0.85376762673E+01  0.26307483891E+01  0.36676846707E+02  0.00000000000E+00 0.  1.
</event>
<event>
12    1  0.8724767E-002  0.2170461E+03  0.7818608E-02  0.1137145E+00
         21   -1    0    0  501  502  0.00000000000E+00  0.00000000000E+00  0.41359740119E+03  0.41359740119E+03  0.00000000000E+00 0. -1.
         21   -1    0    0  502  503 -0.00000000000E+00 -0.00000000000E+00 -0.14419206635E+03  0.14419206635E+03  0.00000000000E+00 0. -1.
         -6    2    1    2    0  503 -0.81240721383E+02 -0.88350516216E+02  0.23682884540E+01  0.21705898397E+03  0.18084005420E+03 0.  0.
        -24    2    3    3    0    0 -0.80157420344E+02 -0.59148751971E+02  0.66867201997E+02  0.14609338368E+03  0.83356266443E+02 0.  0.
          6    2    1    2  501    0  0.81240721383E+02  0.88350516216E+02  0.26703704639E+03  0.34073048357E+03  0.17430608068E+03 0.  0.
         24    2    5    5    0    0 -0.17281324895E+02  0.20686719477E+02  0.63470363839E+02  0.10462358567E+03  0.78683054331E+02 0.  0.
          5    1    5    5  501    0  0.98522046279E+02  0.67663796739E+02  0.20356668255E+03  0.23610689790E+03  0.47000000000E+01 0. -1.
        -13    1    6    6    0    0  0.96108870917E+01  0.18735673593E+02  0.73038544953E+02  0.76013312416E+02  0.00000000000E+00 0.  1.
         14    1    6    6    0    0 -0.26892211987E+02  0.19510458841E+01 -0.95681811140E+01  0.28610273250E+02  0.00000000000E+00 0. -1.
         -5    1    3    3    0  503 -0.10833010389E+01 -0.29201764245E+02 -0.64498913543E+02  0.70965600289E+02  0.47000000000E+01 0.  1.
         11    1    4    4    0    0 -0.14830509288E+02 -0.42600635578E+01 -0.19379460592E+02  0.24772073795E+02  0.00000000000E+00 0. -1.
        -12    1    4    4    0    0 -0.65326911056E+02 -0.54888688413E+02  0.86246662589E+02  0.12132130988E+03  0.00000000000E+00 0.  1.
</event>
<event>
12    1  0.8724767E-002  0.1749327E+03  0.7818608E-02  0.1176257E+00
         21   -1    0    0  501  502  0.00000000000E+00  0.00000000000E+00  0.33457451347E+02  0.33457451347E+02  0.00000000000E+00 0. -1.
         21   -1    0    0  502  503 -0.00000000000E+00 -0.00000000000E+00 -0.84888108429E+03  0.84888108429E+03  0.00000000000E+00 0. -1.
         -6    2    1    2    0  503  0.18016119984E+02  0.14545607318E+01 -0.41293418955E+03  0.44347727537E+03  0.16071948403E+03 0.  0.
        -24    2    3    3    0    0  0.46165153869E+02 -0.16758432352E+02 -0.13018698982E+03  0.15871044061E+03  0.76343206335E+02 0.  0.
          6    2    1    2  501    0 -0.18016119984E+02 -0.14545607318E+01 -0.40248944339E+03  0.43886126027E+03  0.17399642925E+03 0.  0.
         24    2    5    5    0    0  0.42521933570E+01 -0.14665177227E+02 -0.80854185811E+02  0.11615128662E+03  0.81979103739E+02 0.  0.
          5    1    5    5  501    0 -0.22268313341E+02  0.13210616495E+02 -0.32163525758E+03  0.32270997364E+03  0.47000000000E+01 0. -1.
        -11    1    6    6    0    0  0.14233010736E+02 -0.47022333950E+02 -0.53366880405E+02  0.72537593073E+02  0.00000000000E+00 0.  1.
         12    1    6    6    0    0 -0.99808173789E+01  0.32357156722E+02 -0.27487305406E+02  0.43613693552E+02  0.00000000000E+00 0. -1.
         -5    1    3    3    0  503 -0.28149033885E+02  0.18212993083E+02 -0.28274719973E+03  0.28476683477E+03  0.47000000000E+01 0.  1.
         13    1    4    4    0    0  0.12136359987E+02 -0.90880076858E+01 -0.12192325969E+03  0.12286237981E+03  0.00000000000E+00 0. -1.
        -14    1    4    4    0    0  0.34028793881E+02 -0.76704246658E+01 -0.82637301231E+01  0.35848060800E+02  0.00000000000E+00 0.  1.
</event>
<event>
12    1  0.8724767E-002  0.1746010E+03  0.7818608E-02  0.1176531E+00
         21   -1    0    0  503  502  0.00000000000E+00  0.00000000000E+00  0.65665841924E+03  0.65665841924E+03  0.00000000000E+00 0.  1.
         21   -1    0    0  501  503 -0.00000000000E+00 -0.00000000000E+00 -0.43117561843E+02  0.43117561843E+02  0.00000000000E+00 0.  1.
          6    2    1    2  501    0  0.28457750988E+02 -0.77649873606E+01  0.33285179568E+03  0.37586677025E+03  0.17209117489E+03 0.  0.
         24    2    3    3    0    0  0.81178711662E+02 -0.15514609434E+02  0.27464048834E+03  0.29680854716E+03  0.76401763722E+02 0.  0.
         -6    2    1    2    0  502 -0.28457750988E+02  0.77649873606E+01  0.28068906172E+03  0.32390921083E+03  0.15893611569E+03 0.  0.
        -24    2    5    5    0    0 -0.28799728082E+02 -0.38852225914E+02  0.15675303890E+03  0.19141200605E+03  0.98631237746E+02 0.  0.
          5    1    3    3  501    0 -0.52720960674E+02  0.77496220730E+01  0.58211307338E+02  0.79058223094E+02  0.47000000000E+01 0. -1.
        -11    1    4    4    0    0  0.53599642848E+02 -0.45788318479E+02  0.15299488974E+03  0.16845452831E+03  0.00000000000E+00 0.  1.
         12    1    4    4    0    0  0.27579068814E+02  0.30273709045E+02  0.12164559860E+03  0.12835401885E+03  0.00000000000E+00 0. -1.
         -5    1    5    5    0  502  0.34197709350E+00  0.46617213275E+02  0.12393602282E+03  0.13249720478E+03  0.47000000000E+01 0.  1.
         13    1    6    6    0    0 -0.12017354023E+02 -0.15445120901E+02 -0.10147852592E+02  0.22044216239E+02  0.00000000000E+00 0. -1.
        -14    1    6    6    0    0 -0.16782374059E+02 -0.23407105013E+02  0.16690089150E+03  0.16936778981E+03  0.00000000000E+00 0.  1.
</event>
<event>
12    1  0.8724767E-002  0.2033540E+03  0.7818608E-02  0.1147143E+00
         21   -1    0    0  501  502  0.00000000000E+00  0.00000000000E+00  0.43647392122E+03  0.43647392122E+03  0.00000000000E+00 0.  1.
         21   -1    0    0  502  503 -0.00000000000E+00 -0.00000000000E+00 -0.96716862087E+02  0.96716862087E+02  0.00000000000E+00 0. -1.
         -6    2    1    2    0  503  0.43474065301E+01 -0.10672205730E+03  0.12801101919E+03  0.24029079470E+03  0.17304435133E+03 0.  0.
        -24    2    3    3    0    0 -0.20755611446E+02 -0.12523420132E+03  0.52009365980E+02  0.15800347928E+03  0.78394672841E+02 0.  0.
          6    2    1    2  501    0 -0.43474065301E+01  0.10672205730E+03  0.21174603994E+03  0.29289998861E+03  0.17188810441E+03 0.  0.
         24    2    5    5    0    0  0.55009495214E+02  0.10728680754E+03  0.16794112121E+03  0.21897758583E+03  0.72183511032E+02 0.  0.
          5    1    5    5  501    0 -0.59356901745E+02 -0.56475024893E+00  0.43804918734E+02  0.73922402781E+02  0.47000000000E+01 0. -1.
        -11    1    6    6    0    0  0.27175518438E+02  0.39112685540E+02  0.12492711818E+03  0.13369777796E+03  0.00000000000E+00 0.  1.
         12    1    6    6    0    0  0.27833976777E+02  0.68174122005E+02  0.43014003023E+02  0.85279807870E+02  0.00000000000E+00 0. -1.
         -5    1    3    3    0  503  0.25103017976E+02  0.18512144021E+02  0.76001653212E+02  0.82287315419E+02  0.47000000000E+01 0.  1.
         11    1    4    4    0    0 -0.65825453608E+01 -0.83692431247E+02 -0.72449455298E+01  0.84262934836E+02  0.00000000000E+00 0. -1.
        -12    1    4    4    0    0 -0.14173066086E+02 -0.41541770070E+02  0.59254311510E+02  0.73740544446E+02  0.00000000000E+00 0.  1.
</event>
<event>
12    1  0.8724767E-002  0.2227179E+03  0.7818608E-02  0.1131879E+00
         21   -1    0    0  501  502  0.00000000000E+00  0.00000000000E+00  0.59095635005E+02  0.59095635005E+02  0.00000000000E+00 0. -1.
         21   -1    0    0  502  503 -0.00000000000E+00 -0.00000000000E+00 -0.98441039722E+03  0.98441039722E+03  0.00000000000E+00 0. -1.
         -6    2    1    2    0  503 -0.25467960465E+02 -0.13944751305E+03 -0.66298868579E+03  0.69938652775E+03  0.17173611094E+03 0.  0.
        -24    2    3    3    0    0 -0.48795960939E+01 -0.15388641958E+03 -0.39523236997E+03  0.43041088306E+03  0.73075723741E+02 0.  0.
          6    2    1    2  501    0  0.25467960465E+02  0.13944751305E+03 -0.26232607642E+03  0.34411950447E+03  0.17178194633E+03 0.  0.
         24    2    5    5    0    0  0.28587490190E+01  0.76858605295E+02 -0.51298200745E+02  0.12279756221E+03  0.80822758124E+02 0.  0.
          5    1    5    5  501    0  0.22609211446E+02  0.62588907753E+02 -0.21102787568E+03  0.22132194227E+03  0.47000000000E+01 0. -1.
        -13    1    6    6    0    0  0.23621185425E+02  0.37784510246E+01  0.92512660742E+01  0.25648060687E+02  0.00000000000E+00 0.  1.
         14    1    6    6    0    0 -0.20762436406E+02  0.73080154271E+02 -0.60549466819E+02  0.97149501521E+02  0.00000000000E+00 0. -1.
         -5    1    3    3    0  503 -0.20588364371E+02  0.14438906534E+02 -0.26775631582E+03  0.26897564468E+03  0.47000000000E+01 0.  1.
         11    1    4    4    0    0  0.34116123230E+02 -0.67104590514E+02 -0.17280802082E+03  0.18849283273E+03  0.00000000000E+00 0. -1.
        -12    1    4    4    0    0 -0.38995719324E+02 -0.86781829068E+02 -0.22242434915E+03  0.24191805033E+03  0.00000000000E+00 0.  1.
</event>
<event>
12    1  0.8724767E-002  0.1761569E+03  0.7818608E-02  0.1171615E+00
         21   -1    0    0  503  502  0.00000000000E+00  0.00000000000E+00  0.54105341733E+03  0.54105341733E+03  0.00000000000E+00 0.  1.
         21   -1    0    0  501  503 -0.00000000000E+00 -0.00000000000E+00 -0.77443974660E+02  0.77443974660E+02  0.00000000000E+00 0.  1.
          6    2    1    2  501    0 -0.29455898966E+02  0.21507892171E+02  0.74166388626E+02  0.19113325472E+03  0.17233986320E+03 0.  0.
         24    2    3    3    0    0 -0.19340440908E+02  0.66543281822E+02  0.57778519252E+02  0.14192795953E+03  0.10955878513E+03 0.  0.
         -6    2    1    2    0  502  0.29455898966E+02 -0.21507892171E+02  0.38944305404E+03  0.42736413727E+03  0.17217425496E+03 0.  0.
        -24    2    5    5    0    0 -0.10732790614E+02 -0.51905317624E+02  0.10058509454E+03  0.13410632405E+03  0.71118141951E+02 0.  0.
          5    1    3    3  501    0 -0.10115458058E+02 -0.45035389651E+02  0.16387869374E+02  0.49205295196E+02  0.47000000000E+01 0. -1.
        -13    1    4    4    0    0  0.26505594940E+02 -0.18977680365E+02  0.14801938786E+02  0.35802182992E+02  0.00000000000E+00 0.  1.
         14    1    4    4    0    0 -0.45846035849E+02  0.85520962187E+02  0.42976580467E+02  0.10612577653E+03  0.00000000000E+00 0. -1.
         -5    1    5    5    0  502  0.40188689580E+02  0.30397425453E+02  0.28885795950E+03  0.29325781322E+03  0.47000000000E+01 0.  1.
         11    1    6    6    0    0  0.59959259433E+01 -0.64409901648E+02  0.89590081487E+02  0.11050325452E+03  0.00000000000E+00 0. -1.
        -12    1    6    6    0    0 -0.16728716557E+02  0.12504584024E+02  0.10995013051E+02  0.23603069530E+02  0.00000000000E+00 0.  1.
</event>
<event>
12    1  0.8724767E-002  0.1949180E+03  0.7818608E-02  0.1154130E+00
         21   -1    0    0  501  502  0.00000000000E+00  0.00000000000E+00  0.49757219619E+02  0.49757219619E+02  0.00000000000E+00 0. -1.
         21   -1    0    0  502  503 -0.00000000000E+00 -0.00000000000E+00 -0.79750666261E+03  0.79750666261E+03  0.00000000000E+00 0. -1.
         -6    2    1    2    0  503  0.52424052852E+02  0.74266199429E+02 -0.46185849914E+03  0.50124850214E+03  0.17225863687E+03 0.  0.
        -24    2    3    3    0    0  0.88780969719E+02  0.67503836970E+02 -0.24451259882E+03  0.28072892175E+03  0.81138695669E+02 0.  0.
          6    2    1    2  501    0 -0.52424052852E+02 -0.74266199429E+02 -0.28589094385E+03  0.34601538009E+03  0.17242175555E+03 0.  0.
         24    2    5    5    0    0 -0.51745780846E+02  0.11326644857E+02 -0.85536792087E+02  0.12809229463E+03  0.79279091975E+02 0.  0.
          5    1    5    5  501    0 -0.67827200631E+00 -0.85592844285E+02 -0.20035415176E+03  0.21792308546E+03  0.47000000000E+01 0. -1.
        -13    1    6    6    0    0 -0.71489455339E+02  0.16497597246E+02 -0.75755212207E+02  0.10545977961E+03  0.00000000000E+00 0.  1.
         14    1    6    6    0    0  0.19743674493E+02 -0.51709523891E+01 -0.97815798802E+01  0.22632515019E+02  0.00000000000E+00 0. -1.
         -5    1    3    3    0  503 -0.36356916867E+02  0.67623624591E+01 -0.21734590033E+03  0.22051958040E+03  0.47000000000E+01 0.  1.
         11    1    4    4    0    0  0.17662541189E+02  0.43795130858E+02 -0.16424174176E+03  0.17089566579E+03  0.00000000000E+00 0. -1.
        -12    1    4    4    0    0  0.71118428530E+02  0.23708706111E+02 -0.80270857055E+02  0.10983325596E+03  0.00000000000E+00 0.  1.
</event>
<event>
12    1  0.8724767E-002  0.1921981E+03  0.7818608E-02  0.1159402E+00
         21   -1    0    0  503  502  0.00000000000E+00  0.00000000000E+00  0.10551670473E+03  0.10551670473E+03  0.00000000000E+00 0. -1.
         21   -1    0    0  501  503 -0.00000000000E+00 -0.00000000000E+00 -0.33095958924E+03  0.33095958924E+03  0.00000000000E+00 0.  1.
          6    2    1    2  501    0  0.14220356557E+02 -0.51903878348E+02 -0.94111045936E+02  0.21400236241E+03  0.18450986700E+03 0.  0.
         24    2    3    3    0    0  0.20913487317E+02  0.42079512327E+02 -0.20718903531E+02  0.94477585522E+02  0.79301209909E+02 0.  0.
         -6    2    1    2    0  502 -0.14220356557E+02  0.51903878348E+02 -0.13133183858E+03  0.22247393156E+03  0.17131948888E+03 0.  0.
        -24    2    5    5    0    0  0.42926960757E+02  0.76605689328E+02 -0.10043260022E+03  0.15281154377E+03  0.74521843271E+02 0.  0.
          5    1    3    3  501    0 -0.66931307603E+01 -0.93983390675E+02 -0.73392142406E+02  0.11952477688E+03  0.47000000000E+01 0. -1.
        -11    1    4    4    0    0  0.17750665512E+01  0.49529943851E+02 -0.41954863835E+02  0.64935173816E+02  0.00000000000E+00 0.  1.
         12    1    4    4    0    0  0.19138420766E+02 -0.74504315244E+01  0.21235960304E+02  0.29542411705E+02  0.00000000000E+00 0. -1.
         -5    1    5    5    0  502 -0.57147317314E+02 -0.24701810980E+02 -0.30899238357E+02  0.69662387792E+02  0.47000000000E+01 0.  1.
         11    1    6    6    0    0 -0.12704878006E+02  0.53073233351E+01  0.43124823505E+01  0.14428413293E+02  0.00000000000E+00 0. -1.
        -12    1    6    6    0    0  0.55631838763E+02  0.71298365993E+02 -0.10474508257E+03  0.13838313047E+03  0.00000000000E+00 0.  1.
</event>
<event>
12    1  0.8724767E-002  0.2213352E+03  0.7818608E-02  0.1132914E+00
         21   -1    0    0  503  502  0.00000000000E+00  0.00000000000E+00  0.20046167851E+03  0.20046167851E+03  0.00000000000E+00 0.  1.
         21   -1    0    0  501  503 -0.00000000000E+00 -0.00000000000E+00 -0.27958019349E+03  0.27958019349E+03  0.00000000000E+00 0.  1.
          6    2    1    2  501    0 -0.16221169739E+02  0.13828960330E+03 -0.12489340727E+03  0.25414100157E+03  0.17205273834E+03 0.  0.
         24    2    3    3    0    0 -0.48392137569E+02  0.15713072664E+03 -0.94702713817E+02  0.20593802375E+03  0.80062484282E+02 0.  0.
         -6    2    1    2    0  502  0.16221169739E+02 -0.13828960330E+03  0.45774892284E+02  0.22590087043E+03  0.17189741641E+03 0.  0.
        -24    2    5    5    0    0 -0.47338312153E+02 -0.73619991823E+02 -0.11414146396E+02  0.11859456804E+03  0.79205869973E+02 0.  0.
          5    1    3    3  501    0  0.32170967830E+02 -0.18841123336E+02 -0.30190693450E+02  0.48202977820E+02  0.47000000000E+01 0. -1.
        -13    1    4    4    0    0  0.67367306638E+00  0.10176050899E+03 -0.26129442377E+02  0.10506380340E+03  0.00000000000E+00 0.  1.
         14    1    4    4    0    0 -0.49065810635E+02  0.55370217647E+02 -0.68573271440E+02  0.10087422035E+03  0.00000000000E+00 0. -1.
         -5    1    5    5    0  502  0.63559481892E+02 -0.64669611480E+02  0.57189038680E+02  0.10730630239E+03  0.47000000000E+01 0.  1.
         13    1    6    6    0    0  0.99359056017E+01  0.60975955520E+01 -0.16615978173E+02  0.20297626026E+02  0.00000000000E+00 0. -1.
        -14    1    6    6    0    0 -0.57274217754E+02 -0.79717587375E+02  0.52018317773E+01  0.98296942018E+02  0.00000000000E+00 0.  1.
</event>
<event>
12    1  0.8724767E-002  0.2238244E+03  0.7818608E-02  0.1131126E+00
         21   -1    0    0  503  502  0.00000000000E+00  0.00000000000E+00  0.14001861355E+03  0.14001861355E+03  0.00000000000E+00 0.  1.
         21   -1    0    0  501  503 -0.00000000000E+00 -0.00000000000E+00 -0.38796219360E+03  0.38796219360E+03  0.00000000000E+00 0. -1.
          6    2    1    2  501    0  0.14726943750E+03 -0.39668970828E+01 -0.19816645360E+03  0.29868810992E+03  0.16804945756E+03 0.  0.
         24    2    3    3    0    0  0.17433981679E+03  0.67949242697E+01 -0.18244906615E+03  0.26525536397E+03  0.81438342694E+02 0.  0.
         -6    2    1    2    0  502 -0.14726943750E+03  0.39668970828E+01 -0.49777126457E+02  0.22929269723E+03  0.16850327947E+03 0.  0.
        -24    2    5    5    0    0 -0.12003734732E+03 -0.10818647889E+02  0.26370315541E+02  0.14694755774E+03  0.79825956237E+02 0.  0.
          5    1    3    3  501    0 -0.27070379293E+02 -0.10761821353E+02 -0.15717387447E+02  0.33432745955E+02  0.47000000000E+01 0. -1.
        -11    1    4    4    0    0  0.23990567591E+02  0.10211403376E+02  0.32751614975E+01  0.26278256698E+02  0.00000000000E+00 0.  1.
         12    1    4    4    0    0  0.15034924920E+03 -0.34164791062E+01 -0.18572422765E+03  0.23897710727E+03  0.00000000000E+00 0. -1.
         -5    1    5    5    0  502 -0.27232090177E+02  0.14785544972E+02 -0.76147441998E+02  0.82345139495E+02  0.47000000000E+01 0.  1.
         11    1    6    6    0    0 -0.50090924800E+02 -0.29889082306E+02 -0.19088925998E+02  0.61374628994E+02  0.00000000000E+00 0. -1.
        -12    1    6    6    0    0 -0.69946422523E+02  0.19070434417E+02  0.45459241539E+02  0.85572928744E+02  0.00000000000E+00 0.  1.
</event>
<event>
12    1  0.8724767E-002  0.2188072E+03  0.7818608E-02  0.1135216E+00
         21   -1    0    0  501  502  0.00000000000E+00  0.00000000000E+00  0.75587465040E+02  0.75587465040E+02  0.00000000000E+00 0.  1.
         21   -1    0    0  502  503 -0.00000000000E+00 -0.00000000000E+00 -0.64245944151E+03  0.64245944151E+03  0.00000000000E+00 0.  1.
         -6    2    1    2    0  503  0.91725347453E+02  0.95567305221E+02 -0.22564862519E+03  0.31269527322E+03  0.17121443471E+03 0.  0.
        -24    2    3    3    0    0  0.60776895053E+02  0.11803994837E+03 -0.22596482211E+03  0.27415936300E+03  0.80473567749E+02 0.  0.
          6    2    1    2  501    0 -0.91725347453E+02 -0.95567305221E+02 -0.34122335128E+03  0.40535163333E+03  0.17415487932E+03 0.  0.
         24    2    5    5    0    0 -0.73422063350E+02 -0.33245823687E+02 -0.31074834740E+03  0.33345035982E+03  0.90158321185E+02 0.  0.
          5    1    5    5  501    0 -0.18303284103E+02 -0.62321481535E+02 -0.30475003882E+02  0.71901273502E+02  0.47000000000E+01 0. -1.
        -11    1    6    6    0    0 -0.19778888189E+02  0.31265831743E+02 -0.98811749232E+02  0.10551075035E+03  0.00000000000E+00 0.  1.
         12    1    6    6    0    0 -0.53643175161E+02 -0.64511655429E+02 -0.21193659816E+03  0.22793960948E+03  0.00000000000E+00 0. -1.
         -5    1    3    3    0  503  0.30948452400E+02 -0.22472643148E+02  0.31619691984E+00  0.38535910220E+02  0.47000000000E+01 0.  1.
         11    1    4    4    0    0  0.56756237151E+02  0.40391763206E+02 -0.15033927234E+03  0.16569448331E+03  0.00000000000E+00 0. -1.
        -12    1    4    4    0    0  0.40206579020E+01  0.77648185164E+02 -0.75625549774E+02  0.10846487970E+03  0.00000000000E+00 0.  1.
</event>
<event>
12    1  0.8724767E-002  0.1841744E+03  0.7818608E-02  0.1163996E+00
         21   -1    0    0  501  502  0.00000000000E+00  0.00000000000E+00  0.34634441983E+03  0.34634441983E+03  0.00000000000E+00 0. -1.
         21   -1    0    0  502  503 -0.00000000000E+00 -0.00000000000E+00 -0.30907796403E+03  0.30907796403E+03  0.00000000000E+00 0. -1.
         -6    2    1    2    0  503 -0.24620582310E+02 -0.61655988454E+02 -0.25248735619E+03  0.31208948283E+03  0.17100393642E+03 0.  0.
        -24    2    3    3    0    0 -0.13447860058E+02 -0.85900142272E+02 -0.89733580371E+02  0.14709405786E+03  0.77620016936E+02 0.  0.
          6    2    1    2  501    0  0.24620582310E+02  0.61655988454E+02  0.28975381199E+03  0.34333290102E+03  0.17179224480E+03 0.  0.
         24    2    5    5    0    0  0.12766852368E+02  0.10077930302E+03  0.26583477358E+03  0.29573715484E+03  0.80454194862E+02 0.  0.
          5    1    5    5  501    0  0.11853729942E+02 -0.39123314565E+02  0.23919038407E+02  0.47595746179E+02  0.47000000000E+01 0. -1.
        -11    1    6    6    0    0 -0.12196024203E+02  0.59767469197E+02  0.22367088131E+03  0.23183950597E+03  0.00000000000E+00 0.  1.
         12    1    6    6    0    0  0.24962876571E+02  0.41011833822E+02  0.42163892273E+02  0.63897648875E+02  0.00000000000E+00 0. -1.
         -5    1    3    3    0  503 -0.11172722252E+02  0.24244153818E+02 -0.16275377582E+03  0.16499542497E+03  0.47000000000E+01 0.  1.
         11    1    4    4    0    0 -0.39520097157E-01 -0.51237837856E+02 -0.96555172669E+02  0.10930790895E+03  0.00000000000E+00 0. -1.
        -12    1    4    4    0    0 -0.13408339961E+02 -0.34662304416E+02  0.68215922981E+01  0.37786148910E+02  0.00000000000E+00 0.  1.
</event>
<event>
12    1  0.8724767E-002  0.1905389E+03  0.7818608E-02  0.1158094E+00
         21   -1    0    0  501  502  0.00000000000E+00  0.00000000000E+00  0.13059870230E+04  0.13059870230E+04  0.00000000000E+00 0.  1.
         21   -1    0    0  502  503 -0.00000000000E+00 -0.00000000000E+00 -0.41166555516E+02  0.41166555516E+02  0.00000000000E+00 0.  1.
         -6    2    1    2    0  503  0.26755028598E+02 -0.77690794152E+02  0.24689958389E+03  0.31155327481E+03  0.17133110479E+03 0.  0.
        -24    2    3    3    0    0  0.47900691021E+02 -0.13803724426E+02  0.47295700626E+02  0.10085800450E+03  0.73827059844E+02 0.  0.
          6    2    1    2  501    0 -0.26755028598E+02  0.77690794152E+02  0.10179208836E+04  0.10356003037E+04  0.17191094418E+03 0.  0.
         24    2    5    5    0    0  0.23012901052E+02  0.98120543085E+02  0.56186359064E+03  0.57635683242E+03  0.79619527754E+02 0.  0.
          5    1    5    5  501    0 -0.49767929650E+02 -0.20429748933E+02  0.45605729296E+03  0.45924347130E+03  0.47000000000E+01 0. -1.
        -13    1    6    6    0    0 -0.28745372455E+02  0.43566737130E+02  0.26708768652E+03  0.27214001784E+03  0.00000000000E+00 0.  1.
         14    1    6    6    0    0  0.51758273507E+02  0.54553805955E+02  0.29477590412E+03  0.30421681458E+03  0.00000000000E+00 0. -1.
         -5    1    3    3    0  503 -0.21145662423E+02 -0.63887069726E+02  0.19960388326E+03  0.21069527031E+03  0.47000000000E+01 0.  1.
         11    1    4    4    0    0  0.12771792446E+02  0.30178297600E+02  0.16313126896E+02  0.36605552003E+02  0.00000000000E+00 0. -1.
        -12    1    4    4    0    0  0.35128898576E+02 -0.43982022026E+02  0.30982573730E+02  0.64252452495E+02  0.00000000000E+00 0.  1.
</event>
<event>
12    1  0.8724767E-002  0.2294957E+03  0.7818608E-02  0.1127211E+00
         21   -1    0    0  501  502  0.00000000000E+00  0.00000000000E+00  0.11406935541E+03  0.11406935541E+03  0.00000000000E+00 0. -1.
         21   -1    0    0  502  503 -0.00000000000E+00 -0.00000000000E+00 -0.49045384792E+03  0.49045384792E+03  0.00000000000E+00 0. -1.
         -6    2    1    2    0  503  0.14503093562E+03  0.41869183574E+02 -0.11244343837E+03  0.25556177179E+03  0.17286205931E+03 0.  0.
        -24    2    3    3    0    0  0.98805759699E+02 -0.10926494025E+02 -0.13009599384E+03  0.18305071625E+03  0.81857380148E+02 0.  0.
          6    2    1    2  501    0 -0.14503093562E+03 -0.41869183574E+02 -0.26394105413E+03  0.34896143153E+03  0.17123726178E+03 0.  0.
         24    2    5    5    0    0 -0.13962769703E+02  0.16431540860E+02 -0.12024539246E+03  0.14586447988E+03  0.79702808052E+02 0.  0.
          5    1    5    5  501    0 -0.13106816592E+03 -0.58300724434E+02 -0.14369566167E+03  0.20309695165E+03  0.47000000000E+01 0. -1.
        -11    1    6    6    0    0  0.33422963067E+02  0.51849055078E+01 -0.51615935838E+02  0.61710473485E+02  0.00000000000E+00 0.  1.
         12    1    6    6    0    0 -0.47385732770E+02  0.11246635352E+02 -0.68629456619E+02  0.84154006397E+02  0.00000000000E+00 0. -1.
         -5    1    3    3    0  503  0.46225175920E+02  0.52795677599E+02  0.17652555463E+02  0.72511055546E+02  0.47000000000E+01 0.  1.
         11    1    4    4    0    0  0.39501878948E+02 -0.41524577048E+02 -0.35954665731E+02  0.67656684277E+02  0.00000000000E+00 0. -1.
        -12    1    4    4    0    0  0.59303880750E+02  0.30598083023E+02 -0.94141328106E+02  0.11539403197E+03  0.00000000000E+00 0.  1.
</event>
<event>
12    1  0.8724767E-002  0.2239355E+03  0.7818608E-02  0.1131001E+00
         21   -1    0    0  503  502  0.00000000000E+00  0.00000000000E+00  0.72820799017E+03  0.72820799017E+03  0.00000000000E+00 0. -1.
         21   -1    0    0  501  503 -0.00000000000E+00 -0.00000000000E+00 -0.31530463392E+03  0.31530463392E+03  0.00000000000E+00 0.  1.
          6    2    1    2  501    0  0.11294725734E+03  0.89840752553E+02 -0.25484131553E+03  0.33925093892E+03  0.17122692456E+03 0.  0.
         24    2    3    3    0    0  0.68948625063E+02  0.89439448500E+02 -0.78567091622E+02  0.15750734838E+03  0.76697125511E+02 0.  0.
         -6    2    1    2    0  502 -0.11294725734E+03 -0.89840752553E+02  0.66774467179E+03  0.70426168518E+03  0.17109392376E+03 0.  0.
        -24    2    5    5    0    0 -0.11333932600E+03 -0.43548539186E+02  0.61981067255E+03  0.63745688730E+03  0.86277084301E+02 0.  0.
          5    1    3    3  501    0  0.43998632278E+02  0.40130405348E+00 -0.17627422391E+03  0.18174359054E+03  0.47000000000E+01 0. -1.
        -11    1    4    4    0    0  0.75245132189E+02  0.85306158420E+02 -0.89146870472E+02  0.14452036222E+03  0.00000000000E+00 0.  1.
         12    1    4    4    0    0 -0.62965071256E+01  0.41332900798E+01  0.10579778851E+02  0.12986986155E+02  0.00000000000E+00 0. -1.
         -5    1    5    5    0  502  0.39206866054E+00 -0.46292213368E+02  0.47933999235E+02  0.66804797874E+02  0.47000000000E+01 0.  1.
         11    1    6    6    0    0 -0.78076093133E+02 -0.50813210467E+02  0.55961682279E+03  0.56731723667E+03  0.00000000000E+00 0. -1.
        -12    1    6    6    0    0 -0.35263232869E+02  0.72646712812E+01  0.60193849763E+02  0.70139650629E+02  0.00000000000E+00 0.  1.
</event>
<event>
12    1  0.8724767E-002  0.2820395E+03  0.7818608E-02  0.1094674E+00
         21   -1    0    0  503  502  0.00000000000E+00  0.00000000000E+00  0.23022793778E+03  0.23022793778E+03  0.00000000000E+00 0.  1.
         21   -1    0    0  501  503 -0.00000000000E+00 -0.00000000000E+00 -0.34522329786E+03  0.34522329786E+03  0.00000000000E+00 0. -1.
          6    2    1    2  501    0  0.90863777800E+01 -0.22329581493E+03 -0.45814978424E+02  0.28505116548E+03  0.17091392999E+03 0.  0.
         24    2    3    3    0    0  0.48971609532E+02 -0.21962226936E+03 -0.54139499439E+02  0.24387211378E+03  0.76878883572E+02 0.  0.
         -6    2    1    2    0  502 -0.90863777800E+01  0.22329581493E+03 -0.69180381659E+02  0.29040007017E+03  0.17205432956E+03 0.  0.
        -24    2    5    5    0    0  0.31043878303E+02  0.21962191756E+03 -0.35402032163E+02  0.23760800760E+03  0.77503240842E+02 0.  0.
          5    1    3    3  501    0 -0.39885231752E+02 -0.36735455721E+01  0.83245210149E+01  0.41179051702E+02  0.47000000000E+01 0. -1.
        -13    1    4    4    0    0  0.69465982769E+02 -0.15278017621E+03 -0.40306326818E+02  0.17260331685E+03  0.00000000000E+00 0.  1.
         14    1    4    4    0    0 -0.20494373237E+02 -0.66842093151E+02 -0.13833172620E+02  0.71268796930E+02  0.00000000000E+00 0. -1.
         -5    1    5    5    0  502 -0.40130256083E+02  0.36738973692E+01 -0.33778349496E+02  0.52792062565E+02  0.47000000000E+01 0.  1.
         11    1    6    6    0    0  0.32765062840E+02  0.55940133419E+02 -0.35509091757E+02  0.73917139199E+02  0.00000000000E+00 0. -1.
        -12    1    6    6    0    0 -0.17211845374E+01  0.16368178414E+03  0.10705959422E+00  0.16369086840E+03  0.00000000000E+00 0.  1.
</event>
<event>
12    1  0.8724767E-002  0.1863106E+03  0.7818608E-02  0.1162273E+00
         21   -1    0    0  501  502  0.00000000000E+00  0.00000000000E+00  0.22768177597E+04  0.22768177597E+04  0.00000000000E+00 0. -1.
         21   -1    0    0  502  503 -0.00000000000E+00 -0.00000000000E+00 -0.16508133882E+02  0.16508133882E+02  0.00000000000E+00 0.  1.
         -6    2    1    2    0  503  0.66759820072E+02 -0.16957766175E+02  0.79947259648E+03  0.82089467927E+03  0.17311037667E+03 0.  0.
        -24    2    3    3    0    0  0.10720328630E+03 -0.27493699801E+01  0.47167026144E+03  0.49026798140E+03  0.79935939546E+02 0.  0.
          6    2    1    2  501    0 -0.66759820072E+02  0.16957766175E+02  0.14608370293E+04  0.14724312143E+04  0.17106845180E+03 0.  0.
         24    2    5    5    0    0 -0.82274553973E+02 -0.41303039390E+02  0.86037369906E+03  0.86893032000E+03  0.79510726876E+02 0.  0.
          5    1    5    5  501    0  0.15514733901E+02  0.58260805564E+02  0.60046333025E+03  0.60350089429E+03  0.47000000000E+01 0. -1.
        -11    1    6    6    0    0 -0.19287464563E+01 -0.11972904649E+02  0.15225112404E+02  0.19464700263E+02  0.00000000000E+00 0.  1.
         12    1    6    6    0    0 -0.80345807516E+02 -0.29330134741E+02  0.84514858665E+03  0.84946561973E+03  0.00000000000E+00 0. -1.
         -5    1    3    3    0  503 -0.40443466226E+02 -0.14208396195E+02  0.32780233504E+03  0.33062669787E+03  0.47000000000E+01 0.  1.
         11    1    4    4    0    0  0.51306654175E+01 -0.21395504648E+02  0.34241092997E+02  0.40700660884E+02  0.00000000000E+00 0. -1.
        -12    1    4    4    0    0  0.10207262088E+03  0.18646134668E+02  0.43742916844E+03  0.44956732051E+03  0.00000000000E+00 0.  1.
</event>
<event>
12    1  0.8724767E-002  0.1786652E+03  0.7818608E-02  0.1170040E+00
         21   -1    0    0  503  502  0.00000000000E+00  0.00000000000E+00  0.86965554804E+03  0.86965554804E+03  0.00000000000E+00 0. -1.
         21   -1    0    0  501  503 -0.00000000000E+00 -0.00000000000E+00 -0.10396475835E+03  0.10396475835E+03  0.00000000000E+00 0. -1.
          6    2    1    2  501    0  0.33980560303E+02 -0.76642921035E+01 -0.12375681594E+02  0.17530415120E+03  0.17136209639E+03 0.  0.
         24    2    3    3    0    0  0.85571727887E+02  0.86818650346E+01 -0.63337172019E+01  0.12064666535E+03  0.84365908348E+02 0.  0.
         -6    2    1    2    0  502 -0.33980560303E+02  0.76642921035E+01  0.77806647129E+03  0.79831615520E+03  0.17523649748E+03 0.  0.
        -24    2    5    5    0    0 -0.65614056554E+02  0.38038186211E+02  0.70237523232E+03  0.71071190196E+03  0.77642337565E+02 0.  0.
          5    1    3    3  501    0 -0.51591167584E+02 -0.16346157138E+02 -0.60419643917E+01  0.54657485851E+02  0.47000000000E+01 0. -1.
        -13    1    4    4    0    0  0.25533119133E+02  0.24040641305E+02  0.32250867434E+02  0.47644633037E+02  0.00000000000E+00 0.  1.
         14    1    4    4    0    0  0.60038608754E+02 -0.15358776270E+02 -0.38584584636E+02  0.73002032309E+02  0.00000000000E+00 0. -1.
         -5    1    5    5    0  502  0.31633496251E+02 -0.30373894107E+02  0.75691238973E+02  0.87604253239E+02  0.47000000000E+01 0.  1.
         13    1    6    6    0    0 -0.30145358142E+02  0.32157529401E+02  0.13119990316E+03  0.13840615558E+03  0.00000000000E+00 0. -1.
        -14    1    6    6    0    0 -0.35468698412E+02  0.58806568095E+01  0.57117532916E+03  0.57230574638E+03  0.00000000000E+00 0.  1.
</event>
<event>
12    1  0.8724767E-002  0.1901967E+03  0.7818608E-02  0.1158317E+00
         21   -1    0    0  501  502  0.00000000000E+00  0.00000000000E+00  0.50654893898E+03  0.50654893898E+03  0.00000000000E+00 0.  1.
         21   -1    0    0  502  503 -0.00000000000E+00 -0.00000000000E+00 -0.73107774613E+02  0.73107774613E+02  0.00000000000E+00 0.  1.
         -6    2    1    2    0  503  0.59350724715E+02 -0.56973758605E+02  0.26161723896E+03  0.32344761379E+03  0.17148253979E+03 0.  0.
        -24    2    3    3    0    0 -0.87322987982E+01 -0.79741173734E+01  0.21012083867E+03  0.22490710347E+03  0.79325902182E+02 0.  0.
          6    2    1    2  501    0 -0.59350724715E+02  0.56973758605E+02  0.17182392541E+03  0.25620909981E+03  0.17132169678E+03 0.  0.
         24    2    5    5    0    0 -0.74286100049E+02  0.95831512886E+02  0.15236695309E+03  0.21001760410E+03  0.78674024393E+02 0.  0.
          5    1    5    5  501    0  0.14935375334E+02 -0.38857754281E+02  0.19456972323E+02  0.46191495712E+02  0.47000000000E+01 0. -1.
        -13    1    6    6    0    0 -0.32228409961E+02  0.24876938468E+02  0.10999533299E+03  0.11728813135E+03  0.00000000000E+00 0.  1.
         14    1    6    6    0    0 -0.42057690088E+02  0.70954574418E+02  0.42371620105E+02  0.92729472751E+02  0.00000000000E+00 0. -1.
         -5    1    3    3    0  503  0.68083023513E+02 -0.48999641232E+02  0.51496400287E+02  0.98540510319E+02  0.47000000000E+01 0.  1.
         11    1    4    4    0    0 -0.96449755455E+01 -0.41029943518E+02  0.15499454551E+03  0.16062313332E+03  0.00000000000E+00 0. -1.
        -12    1    4    4    0    0  0.91267674729E+00  0.33055826145E+02  0.55126293155E+02  0.64283970148E+02  0.00000000000E+00 0.  1.
</event>
<event>
12    1  0.8724767E-002  0.2616110E+03  0.7818608E-02  0.1106616E+00
         21   -1    0    0  503  502  0.00000000000E+00  0.00000000000E+00  0.20428699673E+04  0.20428699673E+04  0.00000000000E+00 0.  1.
         21   -1    0    0  501  503 -0.00000000000E+00 -0.00000000000E+00 -0.92424187843E+02  0.92424187843E+02  0.00000000000E+00 0. -1.
          6    2    1    2  501    0  0.11651203300E+03  0.15376045200E+03  0.11812574028E+03  0.28439247503E+03  0.17236025905E+03 0.  0.
         24    2    3    3    0    0  0.76555184944E+02  0.16915681839E+02  0.74225695883E+02  0.13515325523E+03  0.81302594274E+02 0.  0.
         -6    2    1    2    0  502 -0.11651203300E+03 -0.15376045200E+03  0.18323200392E+04  0.18509016801E+04  0.17670023500E+03 0.  0.
        -24    2    5    5    0    0 -0.23018615794E+02 -0.31439710384E+02  0.10440453671E+04  0.10477189914E+04  0.78524163232E+02 0.  0.
          5    1    3    3  501    0  0.39956848060E+02  0.13684477017E+03  0.43900044399E+02  0.14923921980E+03  0.47000000000E+01 0. -1.
        -11    1    4    4    0    0  0.87649029559E+01 -0.71580423948E+01  0.60961176132E+02  0.62002629703E+02  0.00000000000E+00 0.  1.
         12    1    4    4    0    0  0.67790281988E+02  0.24073724233E+02  0.13264519751E+02  0.73150625525E+02  0.00000000000E+00 0. -1.
         -5    1    5    5    0  502 -0.93493417209E+02 -0.12232074162E+03  0.78827467202E+03  0.80318268871E+03  0.47000000000E+01 0.  1.
         11    1    6    6    0    0 -0.52013268046E+01  0.19361129359E+02  0.92291038203E+02  0.94443331491E+02  0.00000000000E+00 0. -1.
        -12    1    6    6    0    0 -0.17817288990E+02 -0.50800839743E+02  0.95175432893E+03  0.95327565989E+03  0.00000000000E+00 0.  1.
</event>
<event>
12    1  0.8724767E-002  0.1810821E+03  0.7818608E-02  0.1166775E+00
         21   -1    0    0  503  502  0.00000000000E+00  0.00000000000E+00  0.21262865243E+03  0.21262865243E+03  0.00000000000E+00 0.  1.
         21   -1    0    0  501  503 -0.00000000000E+00 -0.00000000000E+00 -0.51238021957E+03  0.51238021957E+03  0.00000000000E+00 0.  1.
          6    2    1    2  501    0  0.79370147400E+01 -0.58053155236E+02 -0.45298794289E+03  0.48784096628E+03  0.17134050001E+03 0.  0.
         24    2    3    3    0    0  0.33234536438E+02 -0.93392668280E+02 -0.37178002229E+03  0.39561481948E+03  0.91999866928E+02 0.  0.
         -6    2    1    2    0  502 -0.79370147400E+01  0.58053155236E+02  0.15323637575E+03  0.23716790572E+03  0.17127189966E+03 0.  0.
        -24    2    5    5    0    0  0.16942424999E+01  0.10199761371E+03  0.80880887921E+02  0.15183747055E+03  0.78144198583E+02 0.  0.
          5    1    3    3  501    0 -0.25297521698E+02  0.35339513043E+02 -0.81207920599E+02  0.92226146803E+02  0.47000000000E+01 0. -1.
        -11    1    4    4    0    0  0.39359701380E+02 -0.89652891024E+02 -0.37512810063E+03  0.38769565234E+03  0.00000000000E+00 0.  1.
         12    1    4    4    0    0 -0.61251649423E+01 -0.37397772560E+01  0.33480783427E+01  0.79191671332E+01  0.00000000000E+00 0. -1.
         -5    1    5    5    0  502 -0.96312572399E+01 -0.43944458477E+02  0.72355487824E+02  0.85330435163E+02  0.47000000000E+01 0.  1.
         11    1    6    6    0    0  0.38904586357E+02  0.66422684344E+02  0.50431955932E+02  0.92026746190E+02  0.00000000000E+00 0. -1.
        -12    1    6    6    0    0 -0.37210343857E+02  0.35574929369E+02  0.30448931989E+02  0.59810724363E+02  0.00000000000E+00 0.  1.
</event>
<event>
12    1  0.8724767E-002  0.2023570E+03  0.7818608E-02  0.1147874E+00
         21   -1    0    0  501  502  0.00000000000E+00  0.00000000000E+00  0.18451780885E+02  0.18451780885E+02  0.00000000000E+00 0. -1.
         21   -1    0    0  502  503 -0.00000000000E+00 -0.00000000000E+00 -0.22303351568E+04  0.22303351568E+04  0.00000000000E+00 0.  1.
         -6    2    1    2    0  503 -0.10213450846E+03 -0.26749870785E+02 -0.10096743803E+04  0.10297527427E+04  0.17263065646E+03 0.  0.
        -24    2    3    3    0    0 -0.13728412448E+03 -0.31695469645E+01 -0.82685965721E+03  0.84204328598E+03  0.80517239717E+02 0.  0.
          6    2    1    2  501    0  0.10213450846E+03  0.26749870785E+02 -0.12022089956E+04  0.12190341949E+04  0.17202001596E+03 0.  0.
         24    2    5    5    0    0  0.12076630167E+03 -0.25507028621E+02 -0.84666270312E+03  0.85915479381E+03  0.77936632839E+02 0.  0.
          5    1    5    5  501    0 -0.18631793210E+02  0.52256899406E+02 -0.35554629247E+03  0.35987940111E+03  0.47000000000E+01 0. -1.
        -13    1    6    6    0    0  0.97524724663E+02  0.82769453082E+01 -0.70207962671E+03  0.70886908663E+03  0.00000000000E+00 0.  1.
         14    1    6    6    0    0  0.23241577008E+02 -0.33783973929E+02 -0.14458307642E+03  0.15028570718E+03  0.00000000000E+00 0. -1.
         -5    1    3    3    0  503  0.35149616019E+02 -0.23580323820E+02 -0.18281472310E+03  0.18770945677E+03  0.47000000000E+01 0.  1.
         13    1    4    4    0    0 -0.11511295297E+03  0.76569039232E+00 -0.44929288739E+03  0.46380564559E+03  0.00000000000E+00 0. -1.
        -14    1    4    4    0    0 -0.22171171508E+02 -0.39352373568E+01 -0.37756676982E+03  0.37823764039E+03  0.00000000000E+00 0.  1.
</event>
<event>
12    1  0.8724767E-002  0.1883984E+03  0.7818608E-02  0.1159924E+00
         21   -1    0    0  501  502  0.00000000000E+00  0.00000000000E+00  0.60427483973E+02  0.60427483973E+02  0.00000000000E+00 0. -1.
         21   -1    0    0  502  503 -0.00000000000E+00 -0.00000000000E+00 -0.11744238207E+04  0.11744238207E+04  0.00000000000E+00 0. -1.
         -6    2    1    2    0  503 -0.59046943072E+02 -0.50224407849E+02 -0.99353967014E+03  0.10112360533E+04  0.17166317832E+03 0.  0.
        -24    2    3    3    0    0 -0.96561479454E+02 -0.64217569103E+02 -0.87710026495E+03  0.88801521872E+03  0.76276722589E+02 0.  0.
          6    2    1    2  501    0  0.59046943072E+02  0.50224407849E+02 -0.12045666659E+03  0.22361525134E+03  0.17171179189E+03 0.  0.
         24    2    5    5    0    0  0.46882377048E+02  0.97450194944E+02 -0.10964126851E+03  0.17344240541E+03  0.79790741698E+02 0.  0.
          5    1    5    5  501    0  0.12164566024E+02 -0.47225787095E+02 -0.10815398078E+02  0.50172845932E+02  0.47000000000E+01 0. -1.
        -11    1    6    6    0    0  0.20074471934E+02 -0.24922450880E+01  0.30425709199E+01  0.20456122477E+02  0.00000000000E+00 0.  1.
         12    1    6    6    0    0  0.26807905114E+02  0.99942440032E+02 -0.11268383943E+03  0.15298628293E+03  0.00000000000E+00 0. -1.
         -5    1    3    3    0  503  0.37514536382E+02  0.13993161253E+02 -0.11643940519E+03  0.12322083461E+03  0.47000000000E+01 0.  1.
         11    1    4    4    0    0 -0.18171781947E+02  0.79732538783E+01 -0.33219350755E+03  0.33278568613E+03  0.00000000000E+00 0. -1.
        -12    1    4    4    0    0 -0.78389697507E+02 -0.72190822981E+02 -0.54490675740E+03  0.55522953259E+03  0.00000000000E+00 0.  1.
</event>
<event>
12    1  0.8724767E-002  0.1812997E+03  0.7818608E-02  0.1167267E+00
         21   -1    0    0  501  502  0.00000000000E+00  0.00000000000E+00  0.44197384481E+03  0.44197384481E+03  0.00000000000E+00 0.  1.
         21   -1    0    0  502  503 -0.00000000000E+00 -0.00000000000E+00 -0.91038647223E+02  0.91038647223E+02  0.00000000000E+00 0.  1.
         -6    2    1    2    0  503 -0.79312713361E+01  0.53134847726E+02  0.56205003063E+02  0.18698436784E+03  0.17005273988E+03 0.  0.
        -24    2    3    3    0    0  0.53505778808E+02  0.54442161840E+02  0.11554147535E+02  0.11087911769E+03  0.79585570701E+02 0.  0.
          6    2    1    2  501    0  0.79312713361E+01 -0.53134847726E+02  0.29473019452E+03  0.34602812419E+03  0.17315703295E+03 0.  0.
         24    2    5    5    0    0  0.38569636618E+02 -0.19326106342E+01  0.26585557178E+03  0.27957353557E+03  0.77400419191E+02 0.  0.
          5    1    5    5  501    0 -0.30638365282E+02 -0.51202237092E+02  0.28874622743E+02  0.66454588622E+02  0.47000000000E+01 0. -1.
        -13    1    6    6    0    0  0.10421313787E+02 -0.36902443945E+02  0.85327450941E+02  0.93547677866E+02  0.00000000000E+00 0.  1.
         14    1    6    6    0    0  0.28148322830E+02  0.34969833311E+02  0.18052812084E+03  0.18602585770E+03  0.00000000000E+00 0. -1.
         -5    1    3    3    0  503 -0.61437050144E+02 -0.13073141134E+01  0.44650855527E+02  0.76105250147E+02  0.47000000000E+01 0.  1.
         11    1    4    4    0    0  0.32297989335E+02 -0.27380353493E+01 -0.23957910147E+02  0.40306803536E+02  0.00000000000E+00 0. -1.
        -12    1    4    4    0    0  0.21207789473E+02  0.57180197189E+02  0.35512057682E+02  0.70572314159E+02  0.00000000000E+00 0.  1.
</event>
<event>
12    1  0.8724767E-002  0.1975201E+03  0.7818608E-02  0.1152119E+00
         21   -1    0    0  503  502  0.00000000000E+00  0.00000000000E+00  0.12151801727E+04  0.12151801727E+04  0.00000000000E+00 0. -1.
         21   -1    0    0  501  503 -0.00000000000E+00 -0.00000000000E+00 -0.71940257016E+02  0.71940257016E+02  0.00000000000E+00 0. -1.
          6    2    1    2  501    0 -0.80478360162E+02  0.53263249502E+02  0.90697551606E+02  0.21620510590E+03  0.17089429993E+03 0.  0.
         24    2    3    3    0    0 -0.91550127732E+02  0.56590120042E+02  0.13635600843E+02  0.13813919554E+03  0.85513976405E+02 0.  0.
         -6    2    1    2    0  502  0.80478360162E+02 -0.53263249502E+02  0.10525423641E+04  0.10709153238E+04  0.17233822096E+03 0.  0.
        -24    2    5    5    0    0  0.95974026811E+01 -0.87703887568E+02  0.65063116040E+03  0.66132409670E+03  0.79022604160E+02 0.  0.
          5    1    3    3  501    0  0.11071767569E+02 -0.33268705395E+01  0.77061950763E+02  0.78065910359E+02  0.47000000000E+01 0. -1.
        -11    1    4    4    0    0 -0.32324207007E+02 -0.83478776711E+01 -0.25421385908E+02  0.41961747839E+02  0.00000000000E+00 0.  1.
         12    1    4    4    0    0 -0.59225920725E+02  0.64937997713E+02  0.39056986751E+02  0.96177447703E+02  0.00000000000E+00 0. -1.
         -5    1    5    5    0  502  0.70880957481E+02  0.34440638066E+02  0.40191120369E+03  0.40959122712E+03  0.47000000000E+01 0.  1.
         13    1    6    6    0    0  0.33296532437E+02 -0.43438027480E+02  0.48951800951E+03  0.49256817086E+03  0.00000000000E+00 0. -1.
        -14    1    6    6    0    0 -0.23699129756E+02 -0.44265860088E+02  0.16111315088E+03  0.16875592585E+03  0.00000000000E+00 0.  1.
</event>
<event>
12    1  0.8724767E-002  0.2273636E+03  0.7818608E-02  0.1128637E+00
         21   -1    0    0  501  502  0.00000000000E+00  0.00000000000E+00  0.56884058492E+02  0.56884058492E+02  0.00000000000E+00 0.  1.
         21   -1    0    0  502  503 -0.00000000000E+00 -0.00000000000E+00 -0.91429558529E+03  0.91429558529E+03  0.00000000000E+00 0. -1.
         -6    2    1    2    0  503  0.12412157982E+03 -0.78920224048E+02 -0.47586847656E+03  0.52739456648E+03  0.17337719986E+03 0.  0.
        -24    2    3    3    0    0  0.36425121743E+02 -0.10328924439E+03 -0.26760124439E+03  0.30005814637E+03  0.80181093203E+02 0.  0.
          6    2    1    2  501    0 -0.12412157982E+03  0.78920224048E+02 -0.38154305024E+03  0.44378507730E+03  0.17243992376E+03 0.  0.
         24    2    5    5    0    0 -0.15060425309E+03  0.60722135701E+02 -0.25468276352E+03  0.31283422870E+03  0.81444004077E+02 0.  0.
          5    1    5    5  501    0  0.26482673266E+02  0.18198088347E+02 -0.12686028672E+03  0.13095084860E+03  0.47000000000E+01 0. -1.
        -11    1    6    6    0    0 -0.55076037069E+02 -0.16142444268E+02 -0.62356981588E+02  0.84748696267E+02  0.00000000000E+00 0.  1.
         12    1    6    6    0    0 -0.95528216018E+02  0.76864579969E+02 -0.19232578193E+03  0.22808553243E+03  0.00000000000E+00 0. -1.
         -5    1    3    3    0  503  0.87696458078E+02  0.24369020339E+02 -0.20826723217E+03  0.22733642011E+03  0.47000000000E+01 0.  1.
         11    1    4    4    0    0  0.58071659730E+02 -0.51155401657E+02 -0.17885423954E+03  0.19487953147E+03  0.00000000000E+00 0. -1.
        -12    1    4    4    0    0 -0.21646537987E+02 -0.52133842729E+02 -0.88747004844E+02  0.10517861491E+03  0.00000000000E+00 0.  1.
</event>
<event>
12    1  0.8724767E-002  0.2600164E+03  0.7818608E-02  0.1107501E+00
         21   -1    0    0  501  502  0.00000000000E+00  0.00000000000E+00  0.42841109760E+03  0.42841109760E+03  0.00000000000E+00 0. -1.
         21   -1    0    0  502  503 -0.00000000000E+00 -0.00000000000E+00 -0.15663189502E+03  0.15663189502E+03  0.00000000000E+00 0. -1.
         -6    2    1    2    0  503  0.18469332091E+03  0.53361733172E+02  0.12253140219E+03  0.28523733343E+03  0.17142722801E+03 0.  0.
        -24    2    3    3    0    0  0.20148719150E+03  0.75571403297E+02  0.10866726755E+03  0.25377930161E+03  0.79292077514E+02 0.  0.
          6    2    1    2  501    0 -0.18469332091E+03 -0.53361733172E+02  0.14924780040E+03  0.29980565919E+03  0.17506978609E+03 0.  0.
         24    2    5    5    0    0 -0.64178151036E+02 -0.49074359703E+01  0.28349394462E+01  0.10402378838E+03  0.81670029192E+02 0.  0.
          5    1    5    5  501    0 -0.12051516987E+03 -0.48454297201E+02  0.14641286095E+03  0.19578187081E+03  0.47000000000E+01 0. -1.
        -11    1    6    6    0    0 -0.43501919822E+02 -0.39538469988E+02 -0.13817889541E+02  0.60387430054E+02  0.00000000000E+00 0.  1.
         12    1    6    6    0    0 -0.20676231214E+02  0.34631034017E+02  0.16652828987E+02  0.43636358322E+02  0.00000000000E+00 0. -1.
         -5    1    3    3    0  503 -0.16793870590E+02 -0.22209670125E+02  0.13864134633E+02  0.31458031814E+02  0.47000000000E+01 0.  1.
         11    1    4    4    0    0  0.86449863272E+02  0.86188886757E+01  0.86918452772E+01  0.87312154229E+02  0.00000000000E+00 0. -1.
        -12    1    4    4    0    0  0.11503732823E+03  0.66952514621E+02  0.99975422276E+02  0.16646714739E+03  0.00000000000E+00 0.  1.
</event>
<event>
12    1  0.8724767E-002  0.1746377E+03  0.7818608E-02  0.1173104E+00
         21   -1    0    0  503  502  0.00000000000E+00  0.00000000000E+00  0.37038744420E+03  0.37038744420E+03  0.00000000000E+00 0.  1.
         21   -1    0    0  501  503 -0.00000000000E+00 -0.00000000000E+00 -0.22952412724E+03  0.22952412724E+03  0.00000000000E+00 0.  1.
          6    2    1    2  501    0 -0.17139156657E+02  0.31538264343E+02 -0.16978128070E+03  0.24354323472E+03  0.17087776653E+03 0.  0.
         24    2    3    3    0    0 -0.69772920047E+02  0.10319909478E+01 -0.72626235830E+02  0.12881687111E+03  0.80311212009E+02 0.  0.
         -6    2    1    2    0  502  0.17139156657E+02 -0.31538264343E+02  0.31064459766E+03  0.35636833672E+03  0.17090907687E+03 0.  0.
        -24    2    5    5    0    0  0.73767127834E+02 -0.12163002500E+02  0.15662953396E+03  0.19106601449E+03  0.79899206530E+02 0.  0.
          5    1    3    3  501    0  0.52633763390E+02  0.30506273395E+02 -0.97155044868E+02  0.11472636362E+03  0.47000000000E+01 0. -1.
        -11    1    4    4    0    0 -0.30447351625E+02  0.13555317856E+02 -0.80206130632E+02  0.86855116453E+02  0.00000000000E+00 0.  1.
         12    1    4    4    0    0 -0.39325568422E+02 -0.12523326908E+02  0.75798948023E+01  0.41961754656E+02  0.00000000000E+00 0. -1.
         -5    1    5    5    0  502 -0.56627971178E+02 -0.19375261843E+02  0.15401506370E+03  0.16530232223E+03  0.47000000000E+01 0.  1.
         13    1    6    6    0    0 -0.92204850286E+01 -0.17388476597E+02  0.90274701848E+01  0.21653445002E+02  0.00000000000E+00 0. -1.
        -14    1    6    6    0    0  0.82987612863E+02  0.52254740968E+01  0.14760206378E+03  0.16941256949E+03  0.00000000000E+00 0.  1.
</event>
<event>
12    1  0.8724767E-002  0.2800928E+03  0.7818608E-02  0.1095914E+00
         21   -1    0    0  501  502  0.00000000000E+00  0.00000000000E+00  0.23747848696E+03  0.23747848696E+03  0.00000000000E+00 0.  1.
         21   -1    0    0  502  503 -0.00000000000E+00 -0.00000000000E+00 -0.60076255598E+03  0.60076255598E+03  0.00000000000E+00 0. -1.
         -6    2    1    2    0  503 -0.96138331474E+01 -0.21631073719E+03 -0.46370029463E+03  0.54069207339E+03  0.17449124384E+03 0.  0.
        -24    2    3    3    0    0 -0.12992602811E+02 -0.20755105580E+03 -0.47551059324E+03  0.52488950222E+03  0.78437342929E+02 0.  0.
          6    2    1    2  501    0  0.96138331474E+01  0.21631073719E+03  0.10041622561E+03  0.29754896955E+03  0.17767726389E+03 0.  0.
         24    2    5    5    0    0  0.91637757148E+01  0.15129437081E+03  0.14019251464E+03  0.22118422888E+03  0.79338266422E+02 0.  0.
          5    1    5    5  501    0  0.45005743265E+00  0.65016366375E+02 -0.39776289031E+02  0.76364740669E+02  0.47000000000E+01 0. -1.
        -13    1    6    6    0    0  0.23821640121E+02  0.54638444787E+01  0.22371887175E+02  0.33133449417E+02  0.00000000000E+00 0.  1.
         14    1    6    6    0    0 -0.14657864406E+02  0.14583052633E+03  0.11782062747E+03  0.18805077946E+03  0.00000000000E+00 0. -1.
         -5    1    3    3    0  503  0.33787696633E+01 -0.87596813870E+01  0.11810298607E+02  0.15802571171E+02  0.47000000000E+01 0.  1.
         13    1    4    4    0    0 -0.20846660559E+02 -0.15372359997E+03 -0.26130369728E+03  0.30388344913E+03  0.00000000000E+00 0. -1.
        -14    1    4    4    0    0  0.78540577485E+01 -0.53827455828E+02 -0.21420689596E+03  0.22100605309E+03  0.00000000000E+00 0.  1.
</event>
<event>
12    1  0.8724767E-002  0.2347455E+03  0.7818608E-02  0.1123401E+00
         21   -1    0    0  503  502  0.00000000000E+00  0.00000000000E+00  0.26277023211E+03  0.26277023211E+03  0.00000000000E+00 0.  1.
         21   -1    0    0  501  503 -0.00000000000E+00 -0.00000000000E+00 -0.29612661683E+03  0.29612661683E+03  0.00000000000E+00 0. -1.
          6    2    1    2  501    0 -0.15676427558E+03 -0.32390298924E+02 -0.16789101748E+03  0.28833257288E+03  0.17124283715E+03 0.  0.
         24    2    3    3    0    0 -0.25674485972E+02  0.28617738414E+02 -0.49175007025E+02  0.10119066230E+03  0.79644300732E+02 0.  0.
         -6    2    1    2    0  502  0.15676427558E+03  0.32390298924E+02  0.13453463276E+03  0.27056427606E+03  0.17170116629E+03 0.  0.
        -24    2    5    5    0    0  0.56398803661E+02  0.54740068678E+02  0.16607351808E+02  0.11403417112E+03  0.80936319874E+02 0.  0.
          5    1    3    3  501    0 -0.13108978961E+03 -0.61008037339E+02 -0.11871601045E+03  0.18714191058E+03  0.47000000000E+01 0. -1.
        -13    1    4    4    0    0 -0.39098903443E+02  0.49737274479E+02 -0.37839828618E+02  0.73718202317E+02  0.00000000000E+00 0.  1.
         14    1    4    4    0    0  0.13424417471E+02 -0.21119536065E+02 -0.11335178407E+02  0.27472459984E+02  0.00000000000E+00 0. -1.
         -5    1    5    5    0  502  0.10036547192E+03 -0.22349769754E+02  0.11792728095E+03  0.15653010494E+03  0.47000000000E+01 0.  1.
         11    1    6    6    0    0  0.25949696525E+01  0.21948675465E+02  0.40911948186E+02  0.46500169102E+02  0.00000000000E+00 0. -1.
        -12    1    6    6    0    0  0.53803834009E+02  0.32791393213E+02 -0.24304596378E+02  0.67534002013E+02  0.00000000000E+00 0.  1.
</event>
<event>
12    1  0.8724767E-002  0.2337850E+03  0.7818608E-02  0.1124700E+00
         21   -1    0    0  501  502  0.00000000000E+00  0.00000000000E+00  0.57971278537E+02  0.57971278537E+02  0.00000000000E+00 0. -1.
         21   -1    0    0  502  503 -0.00000000000E+00 -0.00000000000E+00 -0.11692586339E+04  0.11692586339E+04  0.00000000000E+00 0. -1.
         -6    2    1    2    0  503  0.92475995651E+01  0.15241553054E+03 -0.83890414759E+03  0.87087058675E+03  0.17702937034E+03 0.  0.
        -24    2    3    3    0    0 -0.29694868423E+02  0.85750041315E+02 -0.25194383853E+03  0.27883570797E+03  0.77709712854E+02 0.  0.
          6    2    1    2  501    0 -0.92475995651E+01 -0.15241553054E+03 -0.27238320772E+03  0.35635932564E+03  0.17170714918E+03 0.  0.
         24    2    5    5    0    0  0.15716280010E+02 -0.76614468635E+01 -0.99088454814E+02  0.12913674444E+03  0.80944905100E+02 0.  0.
          5    1    5    5  501    0 -0.24963879575E+02 -0.14475408367E+03 -0.17329475291E+03  0.22722258120E+03  0.47000000000E+01 0. -1.
        -11    1    6    6    0    0 -0.29418005569E+02 -0.11552548618E+02 -0.18319061759E+02  0.36530377153E+02  0.00000000000E+00 0.  1.
         12    1    6    6    0    0  0.45134285579E+02  0.38911017542E+01 -0.80769393055E+02  0.92606367287E+02  0.00000000000E+00 0. -1.
         -5    1    3    3    0  503  0.38942467988E+02  0.66665489221E+02 -0.58696030907E+03  0.59203487877E+03  0.47000000000E+01 0.  1.
         13    1    4    4    0    0 -0.19908159176E+02  0.90240851918E+02 -0.14900101435E+03  0.17533125345E+03  0.00000000000E+00 0. -1.
        -14    1    4    4    0    0 -0.97867092479E+01 -0.44908106023E+01 -0.10294282417E+03  0.10350445452E+03  0.00000000000E+00 0.  1.
</event>
<event>
12    1  0.8724767E-002  0.3570758E+03  0.7818608E-02  0.1059832E+00
         21   -1    0    0  501  502  0.00000000000E+00  0.00000000000E+00  0.45943387869E+03  0.45943387869E+03  0.00000000000E+00 0.  1.
         21   -1    0    0  502  503 -0.00000000000E+00 -0.00000000000E+00 -0.39360750535E+03  0.39360750535E+03  0.00000000000E+00 0. -1.
         -6    2    1    2    0  503 -0.19790294708E+03  0.24258355631E+03 -0.19939395833E+03  0.40824376320E+03  0.16997841427E+03 0.  0.
        -24    2    3    3    0    0 -0.20969461311E+03  0.23702133258E+03 -0.21245627579E+03  0.38919918764E+03  0.78660000413E+02 0.  0.
          6    2    1    2  501    0  0.19790294708E+03 -0.24258355631E+03  0.26522033167E+03  0.44479762084E+03  0.17172868403E+03 0.  0.
         24    2    5    5    0    0  0.16148295266E+03 -0.24623824644E+03  0.18614030344E+03  0.35753071062E+03  0.80436176329E+02 0.  0.
          5    1    5    5  501    0  0.36419994423E+02  0.36546901358E+01  0.79080028236E+02  0.87266910221E+02  0.47000000000E+01 0. -1.
        -11    1    6    6    0    0  0.22717293025E+02 -0.39141278067E+01  0.22163993527E+01  0.23158329494E+02  0.00000000000E+00 0.  1.
         12    1    6    6    0    0  0.13876565963E+03 -0.24232411864E+03  0.18392390408E+03  0.33437238113E+03  0.00000000000E+00 0. -1.
         -5    1    3    3    0  503  0.11791666032E+02  0.55622237235E+01  0.13062317466E+02  0.19044575557E+02  0.47000000000E+01 0.  1.
         13    1    4    4    0    0 -0.23718314671E+02  0.27758902352E+02 -0.60484137010E+02  0.70650165891E+02  0.00000000000E+00 0. -1.
        -14    1    4    4    0    0 -0.18597629844E+03  0.20926243023E+03 -0.15197213878E+03  0.31854902175E+03  0.00000000000E+00 0.  1.
</event>
<event>
12    1  0.8724767E-002  0.2128413E+03  0.7818608E-02  0.1139450E+00
         21   -1    0    0  501  502  0.00000000000E+00  0.00000000000E+00  0.18491195428E+03  0.18491195428E+03  0.00000000000E+00 0. -1.
         21   -1    0    0  502  503 -0.00000000000E+00 -0.00000000000E+00 -0.24576116076E+03  0.24576116076E+03  0.00000000000E+00 0. -1.
         -6    2    1    2    0  503 -0.12532512540E+03  0.43571909935E+01 -0.13948907953E+02  0.21329786644E+03  0.17197684619E+03 0.  0.
        -24    2    3    3    0    0  0.77115855484E+00  0.27305086222E+02  0.37665397407E+01  0.83826611676E+02  0.79161553701E+02 0.  0.
          6    2    1    2  501    0  0.12532512540E+03 -0.43571909935E+01 -0.46900298530E+02  0.21737524860E+03  0.17125124388E+03 0.  0.
         24    2    5    5    0    0  0.14558668726E+03 -0.13096025743E+02 -0.73951224497E+02  0.18215109896E+03  0.79644521773E+02 0.  0.
          5    1    5    5  501    0 -0.20261561865E+02  0.87388347496E+01  0.27050925967E+02  0.35224149638E+02  0.47000000000E+01 0. -1.
        -13    1    6    6    0    0  0.12704399601E+03 -0.24877508721E+02 -0.29809356552E+02  0.13284451476E+03  0.00000000000E+00 0.  1.
         14    1    6    6    0    0  0.18542691252E+02  0.11781482978E+02 -0.44141867945E+02  0.49306584202E+02  0.00000000000E+00 0. -1.
         -5    1    3    3    0  503 -0.12609628395E+03 -0.22947895229E+02 -0.17715447693E+02  0.12947125476E+03  0.47000000000E+01 0.  1.
         13    1    4    4    0    0  0.18160177422E+02 -0.23403353781E+02  0.57812185656E+01  0.30181641776E+02  0.00000000000E+00 0. -1.
        -14    1    4    4    0    0 -0.17389018867E+02  0.50708440004E+02 -0.20146788249E+01  0.53644969900E+02  0.00000000000E+00 0.  1.
</event>
<event>
12    1  0.8724767E-002  0.1969784E+03  0.7818608E-02  0.1152331E+00
         21   -1    0    0  503  502  0.00000000000E+00  0.00000000000E+00  0.85006525392E+02  0.85006525392E+02  0.00000000000E+00 0.  1.
         21   -1    0    0  501  503 -0.00000000000E+00 -0.00000000000E+00 -0.50476950046E+03  0.50476950046E+03  0.00000000000E+00 0.  1.
          6    2    1    2  501    0  0.47716670563E+02  0.83091201826E+02 -0.30126736775E+03  0.35990277262E+03  0.17200857653E+03 0.  0.
         24    2    3    3    0    0  0.86168001811E+02  0.48051312804E+02 -0.27234768904E+03  0.30019735818E+03  0.78812035452E+02 0.  0.
         -6    2    1    2    0  502 -0.47716670563E+02 -0.83091201826E+02 -0.11849560732E+03  0.22987325323E+03  0.17210309447E+03 0.  0.
        -24    2    5    5    0    0 -0.85966427554E+02 -0.45483036219E+02 -0.12284998283E+03  0.17585040051E+03  0.79826761355E+02 0.  0.
          5    1    3    3  501    0 -0.38451331248E+02  0.35039889022E+02 -0.28919678704E+02  0.59705414442E+02  0.47000000000E+01 0. -1.
        -13    1    4    4    0    0  0.54418038263E+02  0.47863357744E+01 -0.59868966180E+02  0.81046437368E+02  0.00000000000E+00 0.  1.
         14    1    4    4    0    0  0.31749963547E+02  0.43264977029E+02 -0.21247872286E+03  0.21915092081E+03  0.00000000000E+00 0. -1.
         -5    1    5    5    0  502  0.38249756992E+02 -0.37608165606E+02  0.43543755062E+01  0.54022852722E+02  0.47000000000E+01 0.  1.
         11    1    6    6    0    0 -0.20326077676E+02  0.27333701015E+01 -0.82397463890E+02  0.84911499818E+02  0.00000000000E+00 0. -1.
        -12    1    6    6    0    0 -0.65640349878E+02 -0.48216406321E+02 -0.40452518937E+02  0.90938900691E+02  0.00000000000E+00 0.  1.
</event>
<event>
12    1  0.8724767E-002  0.1981615E+03  0.7818608E-02  0.1151375E+00
         21   -1    0    0  501  502  0.00000000000E+00  0.00000000000E+00  0.11464438774E+03  0.11464438774E+03  0.00000000000E+00 0. -1.
         21   -1    0    0  502  503 -0.00000000000E+00 -0.00000000000E+00 -0.76221026577E+03  0.76221026577E+03  0.00000000000E+00 0.  1.
         -6    2    1    2    0  503  0.72217536480E+02 -0.67010850247E+02 -0.64948147439E+03  0.67903914264E+03  0.17193645639E+03 0.  0.
        -24    2    3    3    0    0  0.86961465245E+02  0.12013657525E+02 -0.35814872294E+03  0.37678243332E+03  0.77381327903E+02 0.  0.
          6    2    1    2  501    0 -0.72217536480E+02  0.67010850247E+02  0.19155963574E+01  0.19781551087E+03  0.17152690811E+03 0.  0.
         24    2    5    5    0    0 -0.11038051081E+03  0.59031676282E+02 -0.24615017387E+02  0.15042307168E+03  0.79703233576E+02 0.  0.
          5    1    5    5  501    0  0.38162974325E+02  0.79791739652E+01  0.26530613745E+02  0.47392439188E+02  0.47000000000E+01 0. -1.
        -11    1    6    6    0    0 -0.55705265261E+02  0.12926709668E+02 -0.48539101436E+02  0.75008138017E+02  0.00000000000E+00 0.  1.
         12    1    6    6    0    0 -0.54675245544E+02  0.46104966614E+02  0.23924084049E+02  0.75414933663E+02  0.00000000000E+00 0. -1.
         -5    1    3    3    0  503 -0.14743928765E+02 -0.79024507772E+02 -0.29133275145E+03  0.30225670932E+03  0.47000000000E+01 0.  1.
         11    1    4    4    0    0  0.26388745930E+02  0.23804299964E+02 -0.43656104902E+02  0.56292682506E+02  0.00000000000E+00 0. -1.
        -12    1    4    4    0    0  0.60572719315E+02 -0.11790642439E+02 -0.31449261804E+03  0.32048975081E+03  0.00000000000E+00 0.  1.
</event>
<event>
12    1  0.8724767E-002  0.2147802E+03  0.7818608E-02  0.1139857E+00
         21   -1    0    0  501  502  0.00000000000E+00  0.00000000000E+00  0.76914723922E+02  0.76914723922E+02  0.00000000000E+00 0. -1.
         21   -1    0    0  502  503 -0.00000000000E+00 -0.00000000000E+00 -0.11346242215E+04  0.11346242215E+04  0.00000000000E+00 0. -1.
         -6    2    1    2    0  503 -0.11283714062E+03  0.78339160076E+01 -0.94904217777E+03  0.97083344763E+03  0.17041988530E+03 0.  0.
        -24    2    3    3    0    0 -0.11611706060E+03  0.49598059581E+02 -0.85208699511E+03  0.86511022876E+03  0.80126908040E+02 0.  0.
          6    2    1    2  501    0  0.11283714062E+03 -0.78339160076E+01 -0.10866731980E+03  0.24070549778E+03  0.18258411685E+03 0.  0.
         24    2    5    5    0    0  0.52551071066E+02  0.53329900801E+02 -0.10995749177E+03  0.15468702760E+03  0.78941327080E+02 0.  0.
          5    1    5    5  501    0  0.60286069552E+02 -0.61163816809E+02  0.12901719739E+01  0.86018470182E+02  0.47000000000E+01 0. -1.
        -11    1    6    6    0    0 -0.43016324642E+01  0.17111694763E+02 -0.78210845809E+02  0.80176371468E+02  0.00000000000E+00 0.  1.
         12    1    6    6    0    0  0.56852703531E+02  0.36218206038E+02 -0.31746645963E+02  0.74510656132E+02  0.00000000000E+00 0. -1.
         -5    1    3    3    0  503  0.32799199851E+01 -0.41764143573E+02 -0.96955182659E+02  0.10572321887E+03  0.47000000000E+01 0.  1.
         11    1    4    4    0    0 -0.12306497650E+03  0.28788649367E+02 -0.76061947905E+03  0.77104848530E+03  0.00000000000E+00 0. -1.
        -12    1    4    4    0    0  0.69479158914E+01  0.20809410214E+02 -0.91467516066E+02  0.94061743466E+02  0.00000000000E+00 0.  1.
</event>
<event>
12    1  0.8724767E-002  0.1917136E+03  0.7818608E-02  0.1157130E+00
         21   -1    0    0  501  502  0.00000000000E+00  0.00000000000E+00  0.85045460521E+02  0.85045460521E+02  0.00000000000E+00 0. -1.
         21   -1    0    0  502  503 -0.00000000000E+00 -0.00000000000E+00 -0.43115070690E+03  0.43115070690E+03  0.00000000000E+00 0. -1.
         -6    2    1    2    0  503 -0.52149402099E+02 -0.62419944458E+02 -0.18534777941E+03  0.26600214165E+03  0.17259064409E+03 0.  0.
        -24    2    3    3    0    0 -0.19906893783E+02  0.99584735179E+01 -0.15933839226E+02  0.78915563144E+02  0.74015696031E+02 0.  0.
          6    2    1    2  501    0  0.52149402099E+02  0.62419944458E+02 -0.16075746697E+03  0.25019402577E+03  0.17360379528E+03 0.  0.
         24    2    5    5    0    0  0.21840147086E+02 -0.14238253973E+02 -0.21943435460E+02  0.88680696066E+02  0.81872044033E+02 0.  0.
          5    1    5    5  501    0  0.30309255013E+02  0.76658198432E+02 -0.13881403151E+03  0.16151332970E+03  0.47000000000E+01 0. -1.
        -11    1    6    6    0    0 -0.12814576239E+02 -0.11638582854E+02 -0.44161547453E+02  0.47433239912E+02  0.00000000000E+00 0.  1.
         12    1    6    6    0    0  0.34654723325E+02 -0.25996711191E+01  0.22218111994E+02  0.41247456155E+02  0.00000000000E+00 0. -1.
         -5    1    3    3    0  503 -0.32242508316E+02 -0.72378417976E+02 -0.16941394018E+03  0.18708657851E+03  0.47000000000E+01 0.  1.
         13    1    4    4    0    0  0.27271723345E+02 -0.48069844483E+01 -0.81873034639E+01  0.28877083157E+02  0.00000000000E+00 0. -1.
        -14    1    4    4    0    0 -0.47178617128E+02  0.14765457966E+02 -0.77465357617E+01  0.50038479986E+02  0.00000000000E+00 0.  1.
</event>
<event>
12    1  0.8724767E-002  0.1870381E+03  0.7818608E-02  0.1161164E+00
         21   -1    0    0  503  502  0.00000000000E+00  0.00000000000E+00  0.31482807805E+03  0.31482807805E+03  0.00000000000E+00 0. -1.
         21   -1    0    0  501  503 -0.00000000000E+00 -0.00000000000E+00 -0.14565377597E+03  0.14565377597E+03  0.00000000000E+00 0.  1.
          6    2    1    2  501    0  0.56199274017E+02  0.47456438828E+02 -0.27536573476E+02  0.18905425418E+03  0.17196736946E+03 0.  0.
         24    2    3    3    0    0 -0.42470928132E+01  0.31016678562E+02  0.42263633246E+02  0.95149047512E+02  0.79290947787E+02 0.  0.
         -6    2    1    2    0  502 -0.56199274017E+02 -0.47456438828E+02  0.19671087555E+03  0.27142759984E+03  0.17195145073E+03 0.  0.
        -24    2    5    5    0    0 -0.31674280227E+02 -0.97562754318E+02  0.13701237033E+03  0.18958555870E+03  0.81538600587E+02 0.  0.
          5    1    3    3  501    0  0.60446366830E+02  0.16439760266E+02 -0.69800206723E+02  0.93905206667E+02  0.47000000000E+01 0. -1.
        -11    1    4    4    0    0  0.16594411886E+02  0.36009326152E+02 -0.80529064719E+01  0.40458563721E+02  0.00000000000E+00 0.  1.
         12    1    4    4    0    0 -0.20841504699E+02 -0.49926475896E+01  0.50316539718E+02  0.54690483791E+02  0.00000000000E+00 0. -1.
         -5    1    5    5    0  502 -0.24524993790E+02  0.50106315489E+02  0.59698505229E+02  0.81842041146E+02  0.47000000000E+01 0.  1.
         13    1    6    6    0    0 -0.51869809108E+02 -0.97223598747E+02  0.10851313644E+03  0.15465447304E+03  0.00000000000E+00 0. -1.
        -14    1    6    6    0    0  0.20195528881E+02 -0.33915557118E+00  0.28499233885E+02  0.34931085659E+02  0.00000000000E+00 0.  1.
</event>
<event>
12    1  0.8724767E-002  0.1920490E+03  0.7818608E-02  0.1156717E+00
         21   -1    0    0  501  502  0.00000000000E+00  0.00000000000E+00  0.15948239735E+02  0.15948239735E+02  0.00000000000E+00 0. -1.
         21   -1    0    0  502  503 -0.00000000000E+00 -0.00000000000E+00 -0.24307925098E+04  0.24307925098E+04  0.00000000000E+00 0. -1.
         -6    2    1    2    0  503 -0.39378812655E+02 -0.75637192432E+02 -0.14814493832E+04  0.14937933103E+04  0.17162314311E+03 0.  0.
        -24    2    3    3    0    0 -0.75784890588E+02 -0.89131406688E+02 -0.89502044529E+03  0.90606166617E+03  0.78729842659E+02 0.  0.
          6    2    1    2  501    0  0.39378812655E+02  0.75637192432E+02 -0.93339488690E+03  0.95294743923E+03  0.17207885195E+03 0.  0.
         24    2    5    5    0    0  0.14013385983E+02  0.19440962947E+02 -0.81704232421E+03  0.82118466026E+03  0.78814723678E+02 0.  0.
          5    1    5    5  501    0  0.25365426672E+02  0.56196229485E+02 -0.11635256268E+03  0.13176277897E+03  0.47000000000E+01 0. -1.
        -11    1    6    6    0    0  0.16772318121E+02 -0.28738430095E+02 -0.39264598859E+03  0.39405339787E+03  0.00000000000E+00 0.  1.
         12    1    6    6    0    0 -0.27589321386E+01  0.48179393042E+02 -0.42439633563E+03  0.42713126239E+03  0.00000000000E+00 0. -1.
         -5    1    3    3    0  503  0.36406077933E+02  0.13494214256E+02 -0.58642893788E+03  0.58773164413E+03  0.47000000000E+01 0.  1.
         11    1    4    4    0    0 -0.90837166153E+01 -0.41454175184E+02 -0.13212358965E+03  0.13877177483E+03  0.00000000000E+00 0. -1.
        -12    1    4    4    0    0 -0.66701173972E+02 -0.47677231504E+02 -0.76289685564E+03  0.76728989134E+03  0.00000000000E+00 0.  1.
</event>
<event>
12    1  0.8724767E-002  0.2256298E+03  0.7818608E-02  0.1129939E+00
         21   -1    0    0  503  502  0.00000000000E+00  0.00000000000E+00  0.11390298320E+04  0.11390298320E+04  0.00000000000E+00 0. -1.
         21   -1    0    0  501  503 -0.00000000000E+00 -0.00000000000E+00 -0.15837532120E+03  0.15837532120E+03  0.00000000000E+00 0. -1.
          6    2    1    2  501    0 -0.12996711886E+03 -0.28194542587E+02 -0.60070040053E+02  0.23250309380E+03  0.18100523389E+03 0.  0.
         24    2    3    3    0    0 -0.76349581769E+02 -0.83537364666E+02 -0.64665328307E+02  0.15516697731E+03  0.84186912462E+02 0.  0.
         -6    2    1    2    0  502  0.12996711886E+03  0.28194542587E+02  0.10407245509E+04  0.10649020594E+04  0.18227018721E+03 0.  0.
        -24    2    5    5    0    0  0.18755580846E+02  0.10934815052E+02  0.20910993674E+03  0.22569358662E+03  0.82093162951E+02 0.  0.
          5    1    3    3  501    0 -0.53617537095E+02  0.55342822079E+02  0.45952882540E+01  0.77336116491E+02  0.47000000000E+01 0. -1.
        -11    1    4    4    0    0 -0.54466344818E+01 -0.68071092508E+02 -0.35391592785E+02  0.76914915993E+02  0.00000000000E+00 0.  1.
         12    1    4    4    0    0 -0.70902947287E+02 -0.15466272158E+02 -0.29273735523E+02  0.78252061314E+02  0.00000000000E+00 0. -1.
         -5    1    5    5    0  502  0.11121153802E+03  0.17259727535E+02  0.83161461412E+03  0.83920847279E+03  0.47000000000E+01 0.  1.
         13    1    6    6    0    0  0.37181995753E+02  0.32981756913E+02  0.86505465250E+02  0.99767192079E+02  0.00000000000E+00 0. -1.
        -14    1    6    6    0    0 -0.18426414907E+02 -0.22046941861E+02  0.12260447149E+03  0.12592639454E+03  0.00000000000E+00 0.  1.
</event>
<event>
12    1  0.8724767E-002  0.2204223E+03  0.7818608E-02  0.1133894E+00
         21   -1    0    0  501  502  0.00000000000E+00  0.00000000000E+00  0.14130754534E+03  0.14130754534E+03  0.00000000000E+00 0. -1.
         21   -1    0    0  502  503 -0.00000000000E+00 -0.00000000000E+00 -0.36436377664E+03  0.36436377664E+03  0.00000000000E+00 0.  1.
         -6    2    1    2    0  503 -0.90136304201E+02  0.99322398283E+02 -0.48082717794E+02  0.22560575453E+03  0.17491859990E+03 0.  0.
        -24    2    3    3    0    0  0.20112331400E+02  0.53317316963E+02 -0.40144010290E+02  0.10578779997E+03  0.79575592345E+02 0.  0.
          6    2    1    2  501    0  0.90136304201E+02 -0.99322398283E+02 -0.17497351351E+03  0.28006556744E+03  0.17271797678E+03 0.  0.
         24    2    5    5    0    0  0.37516794958E+02 -0.12234878856E+03 -0.86599331429E+02  0.17456147530E+03  0.81212859129E+02 0.  0.
          5    1    5    5  501    0  0.52619509243E+02  0.23026390274E+02 -0.88374182079E+02  0.10550409215E+03  0.47000000000E+01 0. -1.
        -11    1    6    6    0    0  0.24329481071E+02 -0.29418792991E+02 -0.69300256866E+02  0.79119622294E+02  0.00000000000E+00 0.  1.
         12    1    6    6    0    0  0.13187313886E+02 -0.92929995566E+02 -0.17299074563E+02  0.95441853001E+02  0.00000000000E+00 0. -1.
         -5    1    3    3    0  503 -0.11024863560E+03  0.46005081320E+02 -0.79387075048E+01  0.11981795456E+03  0.47000000000E+01 0.  1.
         13    1    4    4    0    0  0.48410266773E+02  0.49552016834E+02 -0.26834590815E+02  0.74290319461E+02  0.00000000000E+00 0. -1.
        -14    1    4    4    0    0 -0.28297935373E+02  0.37653001286E+01 -0.13309419475E+02  0.31497480505E+02  0.00000000000E+00 0.  1.
</event>
<event>
12    1  0.8724767E-002  0.1796239E+03  0.7818608E-02  0.1168624E+00
         21   -1    0    0  501  502  0.00000000000E+00  0.00000000000E+00  0.73320102963E+02  0.73320102963E+02  0.00000000000E+00 0.  1.
         21   -1    0    0  502  503 -0.00000000000E+00 -0.00000000000E+00 -0.71455467285E+03  0.71455467285E+03  0.00000000000E+00 0.  1.
         -6    2    1    2    0  503  0.43038765057E+02 -0.16542515055E+02 -0.56578053190E+03  0.59304651962E+03  0.17166995675E+03 0.  0.
        -24    2    3    3    0    0  0.86393656221E+02  0.86206730333E+01 -0.47217304557E+03  0.48675783669E+03  0.80297115584E+02 0.  0.
          6    2    1    2  501    0 -0.43038765057E+02  0.16542515055E+02 -0.75454037984E+02  0.19482825619E+03  0.17360514814E+03 0.  0.
         24    2    5    5    0    0 -0.37999412311E+01  0.18169493422E+02 -0.11277528757E+03  0.14044721147E+03  0.81624651171E+02 0.  0.
          5    1    5    5  501    0 -0.39238823826E+02 -0.16269783669E+01  0.37321249590E+02  0.54381044720E+02  0.47000000000E+01 0. -1.
        -13    1    6    6    0    0  0.40913723954E+01 -0.30634962132E+02 -0.63623246287E+02  0.70733002912E+02  0.00000000000E+00 0.  1.
         14    1    6    6    0    0 -0.78913136265E+01  0.48804455554E+02 -0.49152041287E+02  0.69714208562E+02  0.00000000000E+00 0. -1.
         -5    1    3    3    0  503 -0.43354891165E+02 -0.25163188088E+02 -0.93607486326E+02  0.10628868293E+03  0.47000000000E+01 0.  1.
         13    1    4    4    0    0  0.53657865256E+02 -0.26645249006E+02 -0.15904437022E+03  0.16995366279E+03  0.00000000000E+00 0. -1.
        -14    1    4    4    0    0  0.32735790965E+02  0.35265922039E+02 -0.31312867535E+03  0.31680417389E+03  0.00000000000E+00 0.  1.
</event>
<event>
12    1  0.8724767E-002  0.2304051E+03  0.7818608E-02  0.1127040E+00
         21   -1    0    0  503  502  0.00000000000E+00  0.00000000000E+00  0.48103898041E+03  0.48103898041E+03  0.00000000000E+00 0. -1.
         21   -1    0    0  501  503 -0.00000000000E+00 -0.00000000000E+00 -0.19188476595E+03  0.19188476595E+03  0.00000000000E+00 0. -1.
          6    2    1    2  501    0  0.13896655952E+03 -0.52714872742E+02 -0.77892767500E+02  0.23955323160E+03  0.17096170643E+03 0.  0.
         24    2    3    3    0    0  0.64323314164E+02 -0.10525057720E+02  0.24172465460E+02  0.10617033783E+03  0.80246912491E+02 0.  0.
         -6    2    1    2    0  502 -0.13896655952E+03  0.52714872742E+02  0.36704698195E+03  0.43337051476E+03  0.17605667731E+03 0.  0.
        -24    2    5    5    0    0 -0.11189331752E+03 -0.20700996284E+02  0.29798175884E+03  0.32889589917E+03  0.80191883263E+02 0.  0.
          5    1    3    3  501    0  0.74643245360E+02 -0.42189815022E+02 -0.10206523296E+03  0.13338289376E+03  0.47000000000E+01 0. -1.
        -11    1    4    4    0    0 -0.45539685855E+01 -0.19302114154E+02 -0.16414503471E+02  0.25743856837E+02  0.00000000000E+00 0.  1.
         12    1    4    4    0    0  0.68877282749E+02  0.87770564333E+01  0.40586968930E+02  0.80426480996E+02  0.00000000000E+00 0. -1.
         -5    1    5    5    0  502 -0.27073242007E+02  0.73415869026E+02  0.69065223116E+02  0.10447461559E+03  0.47000000000E+01 0.  1.
         11    1    6    6    0    0 -0.90758928714E+02 -0.23622429431E+02  0.13415059963E+03  0.16368135414E+03  0.00000000000E+00 0. -1.
        -12    1    6    6    0    0 -0.21134388803E+02  0.29214331473E+01  0.16383115921E+03  0.16521454503E+03  0.00000000000E+00 0.  1.
</event>
<event>
12    1  0.8724767E-002  0.2224163E+03  0.7818608E-02  0.1132229E+00
         21   -1    0    0  503  502  0.00000000000E+00  0.00000000000E+00  0.18241330933E+04  0.18241330933E+04  0.00000000000E+00 0.  1.
         21   -1    0    0  501  503 -0.00000000000E+00 -0.00000000000E+00 -0.31182699780E+02  0.31182699780E+02  0.00000000000E+00 0. -1.
          6    2    1    2  501    0 -0.89573218435E+02  0.10802783345E+03  0.12362704932E+04  0.12561185218E+04  0.17255617719E+03 0.  0.
         24    2    3    3    0    0 -0.37709617676E+01  0.45132179802E+02  0.90768833831E+03  0.91071120720E+03  0.58699655837E+02 0.  0.
         -6    2    1    2    0  502  0.89573218435E+02 -0.10802783345E+03  0.55667990031E+03  0.59919727123E+03  0.17161434725E+03 0.  0.
        -24    2    5    5    0    0  0.25525698379E+02 -0.91217558148E+01  0.30468738643E+03  0.32097647030E+03  0.97245685411E+02 0.  0.
          5    1    3    3  501    0 -0.85802256667E+02  0.62895653650E+02  0.32858215484E+03  0.34540731460E+03  0.47000000000E+01 0. -1.
        -13    1    4    4    0    0  0.74791133893E+01 -0.10929157328E+02  0.31307736673E+03  0.31335733784E+03  0.00000000000E+00 0.  1.
         14    1    4    4    0    0 -0.11250075157E+02  0.56061337130E+02  0.59461097158E+03  0.59735386936E+03  0.00000000000E+00 0. -1.
         -5    1    5    5    0  502  0.64047520056E+02 -0.98906077638E+02  0.25199251388E+03  0.27822080093E+03  0.47000000000E+01 0.  1.
         11    1    6    6    0    0  0.26882888227E+02  0.24184993887E+02  0.38917134030E+02  0.53123882857E+02  0.00000000000E+00 0. -1.
        -12    1    6    6    0    0 -0.13571898475E+01 -0.33306749702E+02  0.26577025240E+03  0.26785258745E+03  0.00000000000E+00 0.  1.
</event>
<event>
12    1  0.8724767E-002  0.1807780E+03  0.7818608E-02  0.1167123E+00
         21   -1    0    0  501  502  0.00000000000E+00  0.00000000000E+00  0.62611438036E+03  0.62611438036E+03  0.00000000000E+00 0. -1.
         21   -1    0    0  502  503 -0.00000000000E+00 -0.00000000000E+00 -0.53090090327E+02  0.53090090327E+02  0.00000000000E+00 0.  1.
         -6    2    1    2    0  503 -0.33401573246E+02 -0.44291584180E+02  0.24016288547E+03  0.30042037387E+03  0.17174626620E+03 0.  0.
        -24    2    3    3    0    0 -0.60993044935E+02 -0.66460980193E+02  0.10290190481E+03  0.15859146905E+03  0.80157586184E+02 0.  0.
          6    2    1    2  501    0  0.33401573246E+02  0.44291584180E+02  0.33286140457E+03  0.37878409682E+03  0.17205600202E+03 0.  0.
         24    2    5    5    0    0 -0.36553850217E+02  0.55972566912E+02  0.24121387531E+03  0.26280320940E+03  0.80076719556E+02 0.  0.
          5    1    5    5  501    0  0.69955423463E+02 -0.11680982732E+02  0.91647529251E+02  0.11598088742E+03  0.47000000000E+01 0. -1.
        -13    1    6    6    0    0 -0.38203259072E+02  0.65842058304E+02  0.12638563623E+03  0.14753980714E+03  0.00000000000E+00 0.  1.
         14    1    6    6    0    0  0.16494088542E+01 -0.98694913918E+01  0.11482823908E+03  0.11526340226E+03  0.00000000000E+00 0. -1.
         -5    1    3    3    0  503  0.27591471690E+02  0.22169396013E+02  0.13726098066E+03  0.14182890482E+03  0.47000000000E+01 0.  1.
         11    1    4    4    0    0 -0.43515603296E+02  0.59608349940E+01  0.53407177177E+02  0.69148144285E+02  0.00000000000E+00 0. -1.
        -12    1    4    4    0    0 -0.17477441639E+02 -0.72421815187E+02  0.49494727630E+02  0.89443324762E+02  0.00000000000E+00 0.  1.
</event>
<event>
12    1  0.8724767E-002  0.2309304E+03  0.7818608E-02  0.1126036E+00
         21   -1    0    0  503  502  0.00000000000E+00  0.00000000000E+00  0.25996358938E+03  0.25996358938E+03  0.00000000000E+00 0. -1.
         21   -1    0    0  501  503 -0.00000000000E+00 -0.00000000000E+00 -0.28433068664E+03  0.28433068664E+03  0.00000000000E+00 0.  1.
          6    2    1    2  501    0  0.60719541631E+02  0.14145669510E+03 -0.15603036746E+03  0.27846718164E+03  0.17176040393E+03 0.  0.
         24    2    3    3    0    0 -0.10587537716E+02  0.26298660090E+02 -0.10433341583E+03  0.13341292490E+03  0.78165410463E+02 0.  0.
         -6    2    1    2    0  502 -0.60719541631E+02 -0.14145669510E+03  0.13166327020E+03  0.26582709438E+03  0.17213938557E+03 0.  0.
        -24    2    5    5    0    0 -0.26382340156E+02 -0.49523669909E+02  0.13597335575E+03  0.16748386196E+03  0.80084135708E+02 0.  0.
          5    1    3    3  501    0  0.71307079347E+02  0.11515803501E+03 -0.51696951627E+02  0.14505425674E+03  0.47000000000E+01 0. -1.
        -13    1    4    4    0    0  0.34085334913E+02  0.93484688205E+01 -0.42809035780E+02  0.55514119554E+02  0.00000000000E+00 0.  1.
         14    1    4    4    0    0 -0.44672872629E+02  0.16950191270E+02 -0.61524380054E+02  0.77898805345E+02  0.00000000000E+00 0. -1.
         -5    1    5    5    0  502 -0.34337201475E+02 -0.91933025190E+02 -0.43100855450E+01  0.98343232421E+02  0.47000000000E+01 0.  1.
         13    1    6    6    0    0 -0.79671921355E+01 -0.17643988564E+00  0.10714194156E+03  0.10743790264E+03  0.00000000000E+00 0. -1.
        -14    1    6    6    0    0 -0.18415148021E+02 -0.49347230023E+02  0.28831414186E+02  0.60045959327E+02  0.00000000000E+00 0.  1.
</event>
<event>
12    1  0.8724767E-002  0.2799346E+03  0.7818608E-02  0.1095815E+00
         21   -1    0    0  503  502  0.00000000000E+00  0.00000000000E+00  0.44730627388E+03  0.44730627388E+03  0.00000000000E+00 0. -1.
         21   -1    0    0  501  503 -0.00000000000E+00 -0.00000000000E+00 -0.32837481401E+03  0.32837481401E+03  0.00000000000E+00 0. -1.
          6    2    1    2  501    0 -0.20476669229E+03  0.81176778709E+02 -0.20574929920E+03  0.34741350349E+03  0.17275503064E+03 0.  0.
         24    2    3    3    0    0 -0.20197655565E+03  0.10335425302E+03 -0.13972437079E+03  0.27754930378E+03  0.77679376859E+02 0.  0.
         -6    2    1    2    0  502  0.20476669229E+03 -0.81176778709E+02  0.32468075906E+03  0.42826758440E+03  0.17168710164E+03 0.  0.
        -24    2    5    5    0    0  0.16152192475E+03 -0.27121170912E+02  0.30409493592E+03  0.35589366114E+03  0.85800220852E+02 0.  0.
          5    1    3    3  501    0 -0.27901366393E+01 -0.22177474306E+02 -0.66024928409E+02  0.69864199706E+02  0.47000000000E+01 0. -1.
        -13    1    4    4    0    0 -0.12494530466E+03  0.28161343208E+02 -0.50292559825E+02  0.13759989818E+03  0.00000000000E+00 0.  1.
         14    1    4    4    0    0 -0.77031250997E+02  0.75192909807E+02 -0.89431810962E+02  0.13994940560E+03  0.00000000000E+00 0. -1.
         -5    1    5    5    0  502  0.43244767544E+02 -0.54055607797E+02  0.20585823137E+02  0.72373923263E+02  0.47000000000E+01 0.  1.
         11    1    6    6    0    0  0.13922597185E+03 -0.54529382331E+02  0.24298878867E+03  0.28530838788E+03  0.00000000000E+00 0. -1.
        -12    1    6    6    0    0  0.22295952894E+02  0.27408211419E+02  0.61106147252E+02  0.70585273256E+02  0.00000000000E+00 0.  1.
</event>
<event>
12    1  0.8724767E-002  0.1779488E+03  0.7818608E-02  0.1170430E+00
         21   -1    0    0  501  502  0.00000000000E+00  0.00000000000E+00  0.95123395446E+03  0.95123395446E+03  0.00000000000E+00 0. -1.
         21   -1    0    0  502  503 -0.00000000000E+00 -0.00000000000E+00 -0.33739917594E+02  0.33739917594E+02  0.00000000000E+00 0. -1.
         -6    2    1    2    0  503 -0.35949871535E+02 -0.28930277364E+01  0.38050019160E+03  0.42005495113E+03  0.17425556888E+03 0.  0.
        -24    2    3    3    0    0 -0.63017411529E+01  0.82267496206E+01  0.38103634850E+03  0.38803872793E+03  0.72649598410E+02 0.  0.
          6    2    1    2  501    0  0.35949871535E+02  0.28930277364E+01  0.53699384526E+03  0.56491892092E+03  0.17166896776E+03 0.  0.
         24    2    5    5    0    0 -0.37318761307E+02 -0.15367794145E+01  0.41545557140E+03  0.42285711126E+03  0.69352383540E+02 0.  0.
          5    1    5    5  501    0  0.73268632842E+02  0.44298071509E+01  0.12153827386E+03  0.14206180966E+03  0.47000000000E+01 0. -1.
        -11    1    6    6    0    0  0.19606908491E+02 -0.75294350214E+01  0.13449296712E+03  0.13612303794E+03  0.00000000000E+00 0.  1.
         12    1    6    6    0    0 -0.56925669797E+02  0.59926556069E+01  0.28096260428E+03  0.28673407333E+03  0.00000000000E+00 0. -1.
         -5    1    3    3    0  503 -0.29648130382E+02 -0.11119777357E+02 -0.53615689441E+00  0.32016223198E+02  0.47000000000E+01 0.  1.
         11    1    4    4    0    0  0.30594756692E+02  0.21092621056E+01  0.10210195891E+03  0.10660815230E+03  0.00000000000E+00 0. -1.
        -12    1    4    4    0    0 -0.36896497845E+02  0.61174875150E+01  0.27893438958E+03  0.28143057563E+03  0.00000000000E+00 0.  1.
</event>
<event>
12    1  0.8724767E-002  0.2078279E+03  0.7818608E-02  0.1144913E+00
         21   -1    0    0  501  502  0.00000000000E+00  0.00000000000E+00  0.16606636058E+03  0.16606636058E+03  0.00000000000E+00 0.  1.
         21   -1    0    0  502  503 -0.00000000000E+00 -0.00000000000E+00 -0.25153863613E+03  0.25153863613E+03  0.00000000000E+00 0.  1.
         -6    2    1    2    0  503  0.11076010161E+03  0.36259768885E+02 -0.58122635810E+02  0.21580244068E+03  0.17207522094E+03 0.  0.
        -24    2    3    3    0    0  0.10108518883E+03 -0.36060018282E+02 -0.49281333509E+02  0.14215453386E+03  0.79124720187E+02 0.  0.
          6    2    1    2  501    0 -0.11076010161E+03 -0.36259768885E+02 -0.27349639747E+02  0.20180255603E+03  0.16246137349E+03 0.  0.
         24    2    5    5    0    0 -0.13622255364E+03 -0.29492972853E+02 -0.49887211324E+02  0.16681458489E+03  0.76889221042E+02 0.  0.
          5    1    5    5  501    0  0.25462452024E+02 -0.67667960311E+01  0.22537571578E+02  0.34987971136E+02  0.47000000000E+01 0. -1.
        -13    1    6    6    0    0 -0.24491378584E+02 -0.31425147747E+02  0.84914275598E+01  0.40736615936E+02  0.00000000000E+00 0.  1.
         14    1    6    6    0    0 -0.11173117505E+03  0.19321748941E+01 -0.58378638884E+02  0.12607796896E+03  0.00000000000E+00 0. -1.
         -5    1    3    3    0  503  0.96749127851E+01  0.72319787167E+02 -0.88413023016E+01  0.73647906824E+02  0.47000000000E+01 0.  1.
         11    1    4    4    0    0  0.11270684295E+03 -0.25848594590E+02 -0.34285022586E+02  0.12060864423E+03  0.00000000000E+00 0. -1.
        -12    1    4    4    0    0 -0.11621654122E+02 -0.10211423692E+02 -0.14996310923E+02  0.21545889623E+02  0.00000000000E+00 0.  1.
</event>
<event>
12    1  0.8724767E-002  0.1793627E+03  0.7818608E-02  0.1168438E+00
         21   -1    0    0  503  502  0.00000000000E+00  0.00000000000E+00  0.11263679685E+03  0.11263679685E+03  0.00000000000E+00 0.  1.
         21   -1    0    0  501  503 -0.00000000000E+00 -0.00000000000E+00 -0.37897999171E+03  0.37897999171E+03  0.00000000000E+00 0.  1.
          6    2    1    2  501    0 -0.12443286765E+02  0.50855957542E+02 -0.25526686853E+03  0.31198101861E+03  0.17155121103E+03 0.  0.
         24    2    3    3    0    0  0.71815873090E+01  0.99283053776E+02 -0.15841285386E+03  0.20183062375E+03  0.75711745801E+02 0.  0.
         -6    2    1    2    0  502  0.12443286765E+02 -0.50855957542E+02 -0.11076326339E+02  0.17963576995E+03  0.17147933122E+03 0.  0.
        -24    2    5    5    0    0  0.47767878309E+02 -0.81721507665E+02  0.16200598651E+02  0.12516899485E+03  0.80278533012E+02 0.  0.
          5    1    3    3  501    0 -0.19624874074E+02 -0.48427096233E+02 -0.96854014662E+02  0.11015039486E+03  0.47000000000E+01 0. -1.
        -11    1    4    4    0    0  0.13403939323E+02  0.84331134504E+02 -0.16383502669E+03  0.18475205494E+03  0.00000000000E+00 0.  1.
         12    1    4    4    0    0 -0.62223520140E+01  0.14951919272E+02  0.54221728233E+01  0.17078568811E+02  0.00000000000E+00 0. -1.
         -5    1    5    5    0  502 -0.35324591544E+02  0.30865550123E+02 -0.27276924990E+02  0.54466775093E+02  0.47000000000E+01 0.  1.
         11    1    6    6    0    0  0.47104677088E+02 -0.54781725016E+01  0.10598007476E+01  0.47433997883E+02  0.00000000000E+00 0. -1.
        -12    1    6    6    0    0  0.66320122113E+00 -0.76243335163E+02  0.15140797903E+02  0.77734996969E+02  0.00000000000E+00 0.  1.
</event>
<event>
12    1  0.8724767E-002  0.1766146E+03  0.7818608E-02  0.1171863E+00
         21   -1    0    0  501  502  0.00000000000E+00  0.00000000000E+00  0.33054025800E+02  0.33054025800E+02  0.00000000000E+00 0.  1.
         21   -1    0    0  502  503 -0.00000000000E+00 -0.00000000000E+00 -0.15158257104E+04  0.15158257104E+04  0.00000000000E+00 0.  1.
         -6    2    1    2    0  503  0.38260947507E+02 -0.46843461834E+01 -0.12198394253E+04  0.12321368085E+04  0.16931346121E+03 0.  0.
        -24    2    3    3    0    0 -0.26263947978E+02  0.42230727753E+02 -0.57572877948E+03  0.58308742644E+03  0.77808033125E+02 0.  0.
          6    2    1    2  501    0 -0.38260947507E+02  0.46843461834E+01 -0.26293225934E+03  0.31674292774E+03  0.17235679873E+03 0.  0.
         24    2    5    5    0    0 -0.40220760762E+02 -0.62295258348E+02 -0.15310454933E+03  0.18800162055E+03  0.80032477745E+02 0.  0.
          5    1    5    5  501    0  0.19598132550E+01  0.66979604531E+02 -0.10982771001E+03  0.12874130719E+03  0.47000000000E+01 0. -1.
        -13    1    6    6    0    0 -0.27778933161E+02 -0.41407223802E+02 -0.15575807929E+03  0.16354450946E+03  0.00000000000E+00 0.  1.
         14    1    6    6    0    0 -0.12441827601E+02 -0.20888034547E+02  0.26535299638E+01  0.24457111083E+02  0.00000000000E+00 0. -1.
         -5    1    3    3    0  503  0.64524895486E+02 -0.46915073936E+02 -0.64411064582E+03  0.64904938206E+03  0.47000000000E+01 0.  1.
         13    1    4    4    0    0 -0.10330220782E+02  0.16970005179E+02 -0.26871387863E+02  0.33418049357E+02  0.00000000000E+00 0. -1.
        -14    1    4    4    0    0 -0.15933727196E+02  0.25260722573E+02 -0.54885739162E+03  0.54966937708E+03  0.00000000000E+00 0.  1.
</event>
<event>
12    1  0.8724767E-002  0.1855744E+03  0.7818608E-02  0.1162768E+00
         21   -1    0    0  503  502  0.00000000000E+00  0.00000000000E+00  0.16197013954E+04  0.16197013954E+04  0.00000000000E+00 0.  1.
         21   -1    0    0  501  503 -0.00000000000E+00 -0.00000000000E+00 -0.21191498257E+02  0.21191498257E+02  0.00000000000E+00 0.  1.
          6    2    1    2  501    0  0.51663184937E+02  0.48292740334E+02  0.83828389852E+03  0.85834486233E+03  0.17039581781E+03 0.  0.
         24    2    3    3    0    0  0.63639686067E+02  0.33772866536E+02  0.83060980022E+03  0.83748233374E+03  0.79204816473E+02 0.  0.
         -6    2    1    2    0  502 -0.51663184937E+02 -0.48292740334E+02  0.76022599866E+03  0.78254803137E+03  0.17157091509E+03 0.  0.
        -24    2    5    5    0    0 -0.95290706055E+02 -0.47905464755E+02  0.45844191368E+03  0.47759027276E+03  0.80921123370E+02 0.  0.
          5    1    3    3  501    0 -0.11976501130E+02  0.14519873797E+02  0.76740983001E+01  0.20862528589E+02  0.47000000000E+01 0. -1.
        -13    1    4    4    0    0  0.12554064364E+02  0.48704072955E+02  0.29741829897E+03  0.30164107117E+03  0.00000000000E+00 0.  1.
         14    1    4    4    0    0  0.51085621703E+02 -0.14931206419E+02  0.53319150125E+03  0.53584126258E+03  0.00000000000E+00 0. -1.
         -5    1    5    5    0  502  0.43627521118E+02 -0.38727557810E+00  0.30178408499E+03  0.30495775860E+03  0.47000000000E+01 0.  1.
         11    1    6    6    0    0  0.88336840099E+00  0.14201519863E+02  0.20655913019E+02  0.25082468954E+02  0.00000000000E+00 0. -1.
        -12    1    6    6    0    0 -0.96174074456E+02 -0.62106984619E+02  0.43778600066E+03  0.45250780381E+03  0.00000000000E+00 0.  1.
</event>
<event>
12    1  0.8724767E-002  0.2815065E+03  0.7818608E-02  0.1094990E+00
         21   -1    0    0  503  502  0.00000000000E+00  0.00000000000E+00  0.53555424645E+03  0.53555424645E+03  0.00000000000E+00 0.  1.
         21   -1    0    0  501  503 -0.00000000000E+00 -0.00000000000E+00 -0.17424866551E+03  0.17424866551E+03  0.00000000000E+00 0.  1.
          6    2    1    2  501    0 -0.15140858846E+03 -0.16267032581E+03  0.31945425321E+03  0.42520243863E+03  0.17134730333E+03 0.  0.
         24    2    3    3    0    0 -0.72163351260E+02 -0.59316034447E+02  0.63775327626E+02  0.13822557518E+03  0.79454867777E+02 0.  0.
         -6    2    1    2    0  502  0.15140858846E+03  0.16267032581E+03  0.41851327725E+02  0.28460047334E+03  0.17279959559E+03 0.  0.
        -24    2    5    5    0    0  0.84955271753E+02  0.16786043426E+02 -0.21500969108E+01  0.11829809056E+03  0.80564544695E+02 0.  0.
          5    1    3    3  501    0 -0.79245237204E+02 -0.10335429136E+03  0.25567892559E+03  0.28697686344E+03  0.47000000000E+01 0. -1.
        -11    1    4    4    0    0 -0.64912969907E+02 -0.58537914945E+02  0.81219360626E+02  0.11931875665E+03  0.00000000000E+00 0.  1.
         12    1    4    4    0    0 -0.72503813526E+01 -0.77811950191E+00 -0.17444033000E+02  0.18906818533E+02  0.00000000000E+00 0. -1.
         -5    1    5    5    0  502  0.66453316711E+02  0.14588428238E+03  0.44001424636E+02  0.16630238278E+03  0.47000000000E+01 0.  1.
         11    1    6    6    0    0  0.12831901858E+02  0.80188964301E+01  0.33950032307E+02  0.37169410796E+02  0.00000000000E+00 0. -1.
        -12    1    6    6    0    0  0.72123369895E+02  0.87671469958E+01 -0.36100129218E+02  0.81128679769E+02  0.00000000000E+00 0.  1.
</event>
<event>
12    1  0.8724767E-002  0.2835485E+03  0.7818608E-02  0.1093827E+00
         21   -1    0    0  503  502  0.00000000000E+00  0.00000000000E+00  0.15047671380E+03  0.15047671380E+03  0.00000000000E+00 0.  1.
         21   -1    0    0  501  503 -0.00000000000E+00 -0.00000000000E+00 -0.86157095624E+03  0.86157095624E+03  0.00000000000E+00 0.  1.
          6    2    1    2  501    0  0.22463735772E+03 -0.16296339023E+02 -0.66764943057E+03  0.72519021599E+03  0.17151552140E+03 0.  0.
         24    2    3    3    0    0  0.19435812171E+03  0.29288208224E+02 -0.60803875334E+03  0.64413279239E+03  0.81012653671E+02 0.  0.
         -6    2    1    2    0  502 -0.22463735772E+03  0.16296339023E+02 -0.43444811865E+02  0.28685745405E+03  0.17225630356E+03 0.  0.
        -24    2    5    5    0    0 -0.17348694617E+03  0.71071210157E+02 -0.55045457162E+02  0.21087511346E+03  0.79306202275E+02 0.  0.
          5    1    3    3  501    0  0.30279236011E+02 -0.45584547248E+02 -0.59610677233E+02  0.81057423604E+02  0.47000000000E+01 0. -1.
        -13    1    4    4    0    0  0.82956618091E+02 -0.26917913652E+02 -0.22662885436E+03  0.24283124220E+03  0.00000000000E+00 0.  1.
         14    1    4    4    0    0  0.11140150362E+03  0.56206121876E+02 -0.38140989898E+03  0.40130155019E+03  0.00000000000E+00 0. -1.
         -5    1    5    5    0  502 -0.51150411551E+02 -0.54774871134E+02  0.11600645297E+02  0.75982340585E+02  0.47000000000E+01 0.  1.
         13    1    6    6    0    0 -0.10699071251E+03  0.71036738861E+02 -0.65860996320E+01  0.12859474149E+03  0.00000000000E+00 0. -1.
        -14    1    6    6    0    0 -0.66496233666E+02  0.34471295728E-01 -0.48459357530E+02  0.82280371975E+02  0.00000000000E+00 0.  1.
</event>
<event>
12    1  0.8724767E-002  0.1987070E+03  0.7818608E-02  0.1152346E+00
         21   -1    0    0  501  502  0.00000000000E+00  0.00000000000E+00  0.67732213142E+03  0.67732213142E+03  0.00000000000E+00 0.  1.
         21   -1    0    0  502  503 -0.00000000000E+00 -0.00000000000E+00 -0.88468168203E+02  0.88468168203E+02  0.00000000000E+00 0.  1.
         -6    2    1    2    0  503  0.71237862125E+02 -0.38479991858E+02  0.60101228849E+02  0.20093287085E+03  0.17379964933E+03 0.  0.
        -24    2    3    3    0    0 -0.69221917705E+00  0.18790255870E+01  0.92136367744E+02  0.11232628527E+03  0.64218955117E+02 0.  0.
          6    2    1    2  501    0 -0.71237862125E+02  0.38479991858E+02  0.52875273437E+03  0.56485742877E+03  0.18146326890E+03 0.  0.
         24    2    5    5    0    0 -0.68614839180E+02 -0.31970047185E+02  0.42661584870E+03  0.44066354138E+03  0.80331776211E+02 0.  0.
          5    1    5    5  501    0 -0.26230229442E+01  0.70450039043E+02  0.10213688567E+03  0.12419388739E+03  0.47000000000E+01 0. -1.
        -13    1    6    6    0    0 -0.60942198891E+02  0.31000706979E+01  0.35860148123E+03  0.36375621560E+03  0.00000000000E+00 0.  1.
         14    1    6    6    0    0 -0.76726402896E+01 -0.35070117883E+02  0.68014367463E+02  0.76907325781E+02  0.00000000000E+00 0. -1.
         -5    1    3    3    0  503  0.71930081302E+02 -0.40359017445E+02 -0.32035138896E+02  0.88606585586E+02  0.47000000000E+01 0.  1.
         13    1    4    4    0    0 -0.21976879118E+01  0.32269066692E+02  0.35434689566E+02  0.47976449660E+02  0.00000000000E+00 0. -1.
        -14    1    4    4    0    0  0.15054687348E+01 -0.30390041105E+02  0.56701678178E+02  0.64349835607E+02  0.00000000000E+00 0.  1.
</event>
<event>
12    1  0.8724767E-002  0.1818099E+03  0.7818608E-02  0.1166355E+00
         21   -1    0    0  501  502  0.00000000000E+00  0.00000000000E+00  0.70099161563E+03  0.70099161563E+03  0.00000000000E+00 0.  1.
         21   -1    0    0  502  503 -0.00000000000E+00 -0.00000000000E+00 -0.14973011094E+03  0.14973011094E+03  0.00000000000E+00 0.  1.
         -6    2    1    2    0  503  0.31097432676E+02 -0.49712368246E+02 -0.77266871953E+02  0.19642610679E+03  0.17080596023E+03 0.  0.
        -24    2    3    3    0    0 -0.17689144396E+01  0.26972696128E+02 -0.71767594518E+02  0.11268168654E+03  0.82558582012E+02 0.  0.
          6    2    1    2  501    0 -0.31097432676E+02  0.49712368246E+02  0.62852837665E+03  0.65429561978E+03  0.17209435766E+03 0.  0.
         24    2    5    5    0    0  0.25331306448E+02 -0.24533000567E+02  0.35407251045E+03  0.36439099774E+03  0.78548796144E+02 0.  0.
          5    1    5    5  501    0 -0.56428739124E+02  0.74245368813E+02  0.27445586620E+03  0.28990462204E+03  0.47000000000E+01 0. -1.
        -11    1    6    6    0    0  0.25731120237E+02  0.56430517735E+01  0.30916468083E+03  0.31028492464E+03  0.00000000000E+00 0.  1.
         12    1    6    6    0    0 -0.39981378917E+00 -0.30176052340E+02  0.44907829612E+02  0.54106073100E+02  0.00000000000E+00 0. -1.
         -5    1    3    3    0  503  0.32866347116E+02 -0.76685064374E+02 -0.54992774353E+01  0.83744420251E+02  0.47000000000E+01 0.  1.
         11    1    4    4    0    0 -0.33693322139E+02 -0.12477147734E+02 -0.33471372706E+02  0.49104500437E+02  0.00000000000E+00 0. -1.
        -12    1    4    4    0    0  0.31924407699E+02  0.39449843862E+02 -0.38296221812E+02  0.63577186102E+02  0.00000000000E+00 0.  1.
</event>
<event>
12    1  0.8724767E-002  0.1758319E+03  0.7818608E-02  0.1172438E+00
         21   -1    0    0  503  502  0.00000000000E+00  0.00000000000E+00  0.69973666347E+02  0.69973666347E+02  0.00000000000E+00 0.  1.
         21   -1    0    0  501  503 -0.00000000000E+00 -0.00000000000E+00 -0.88193470776E+03  0.88193470776E+03  0.00000000000E+00 0.  1.
          6    2    1    2  501    0 -0.24095926147E+02  0.84868809241E+01 -0.74301052189E+03  0.76304057713E+03  0.17179536054E+03 0.  0.
         24    2    3    3    0    0 -0.51690519575E+02  0.11314575609E+02 -0.72002255116E+03  0.72670885212E+03  0.82905682193E+02 0.  0.
         -6    2    1    2    0  502  0.24095926147E+02 -0.84868809241E+01 -0.68950519526E+02  0.18886779698E+03  0.17396617426E+03 0.  0.
        -24    2    5    5    0    0 -0.93197347647E+01  0.37126177557E+02 -0.91273513086E+02  0.12789597119E+03  0.81001942818E+02 0.  0.
          5    1    3    3  501    0  0.27594593428E+02 -0.28276946845E+01 -0.22987970727E+02  0.36331725005E+02  0.47000000000E+01 0. -1.
        -11    1    4    4    0    0  0.38606814666E+01  0.26510325330E+02 -0.44055417863E+03  0.44136797178E+03  0.00000000000E+00 0.  1.
         12    1    4    4    0    0 -0.55551201042E+02 -0.15195749721E+02 -0.27946837253E+03  0.28534088034E+03  0.00000000000E+00 0. -1.
         -5    1    5    5    0  502  0.33415660912E+02 -0.45613058481E+02  0.22322993560E+02  0.60971825786E+02  0.47000000000E+01 0.  1.
         13    1    6    6    0    0 -0.27180065773E+02  0.56794448537E+02 -0.66305086046E+02  0.91437026393E+02  0.00000000000E+00 0. -1.
        -14    1    6    6    0    0  0.17860331009E+02 -0.19668270979E+02 -0.24968427041E+02  0.36458944800E+02  0.00000000000E+00 0.  1.
</event>
<event>
12    1  0.8724767E-002  0.1734261E+03  0.7818608E-02  0.1174753E+00
         21   -1    0    0  503  502  0.00000000000E+00  0.00000000000E+00  0.24002580942E+04  0.24002580942E+04  0.00000000000E+00 0.  1.
         21   -1    0    0  501  503 -0.00000000000E+00 -0.00000000000E+00 -0.12491378760E+02  0.12491378760E+02  0.00000000000E+00 0.  1.
          6    2    1    2  501    0  0.77499453483E+01 -0.16284405238E+02  0.12862410422E+04  0.12976551128E+04  0.17078503910E+03 0.  0.
         24    2    3    3    0    0 -0.11042764840E+02  0.49002225528E+02  0.52153555466E+03  0.52992333488E+03  0.79348883559E+02 0.  0.
         -6    2    1    2    0  502 -0.77499453483E+01  0.16284405238E+02  0.11015256732E+04  0.11150943602E+04  0.17248588287E+03 0.  0.
        -24    2    5    5    0    0  0.56190721590E+02  0.78539365165E+01  0.83774886955E+03  0.84350685337E+03  0.80383839992E+02 0.  0.
          5    1    3    3  501    0  0.18792710188E+02 -0.65286630766E+02  0.76470548756E+03  0.76773177791E+03  0.47000000000E+01 0. -1.
        -11    1    4    4    0    0 -0.34581507178E+02  0.19762187255E+02  0.11586702142E+03  0.12252179943E+03  0.00000000000E+00 0.  1.
         12    1    4    4    0    0  0.23538742338E+02  0.29240038274E+02  0.40566853324E+03  0.40740153545E+03  0.00000000000E+00 0. -1.
         -5    1    5    5    0  502 -0.63940666938E+02  0.84304687217E+01  0.26377680368E+03  0.27158750680E+03  0.47000000000E+01 0.  1.
         11    1    6    6    0    0  0.42696257105E+02  0.40934431673E+02  0.40652497530E+03  0.41080549365E+03  0.00000000000E+00 0. -1.
        -12    1    6    6    0    0  0.13494464485E+02 -0.33080495157E+02  0.43122389425E+03  0.43270135972E+03  0.00000000000E+00 0.  1.
</event>
<event>
12    1  0.8724767E-002  0.2157913E+03  0.7818608E-02  0.1138476E+00
         21   -1    0    0  501  502  0.00000000000E+00  0.00000000000E+00  0.26434525794E+03  0.26434525794E+03  0.00000000000E+00 0.  1.
         21   -1    0    0  502  503 -0.00000000000E+00 -0.00000000000E+00 -0.33182846660E+03  0.33182846660E+03  0.00000000000E+00 0.  1.
         -6    2    1    2    0  503  0.48095271488E+01 -0.11788790217E+03 -0.24201702693E+03  0.32425012482E+03  0.18067986355E+03 0.  0.
        -24    2    3    3    0    0 -0.70173404146E+02 -0.64110531671E+02 -0.14724274941E+03  0.19189190164E+03  0.78151185156E+02 0.  0.
          6    2    1    2  501    0 -0.48095271488E+01  0.11788790217E+03  0.17453381827E+03  0.27192359972E+03  0.17192934984E+03 0.  0.
         24    2    5    5    0    0  0.22690344725E+02  0.37807126185E+02  0.16239723335E+03  0.18625820222E+03  0.79843759688E+02 0.  0.
          5    1    5    5  501    0 -0.27499871873E+02  0.80080775987E+02  0.12136584919E+02  0.85665397503E+02  0.47000000000E+01 0. -1.
        -11    1    6    6    0    0 -0.41200846195E+01  0.19376164304E+02  0.15021829489E+03  0.15151880068E+03  0.00000000000E+00 0.  1.
         12    1    6    6    0    0  0.26810429344E+02  0.18430961881E+02  0.12178938463E+02  0.34739401543E+02  0.00000000000E+00 0. -1.
         -5    1    3    3    0  503  0.74982931295E+02 -0.53777370502E+02 -0.94774277514E+02  0.13235822318E+03  0.47000000000E+01 0.  1.
         11    1    4    4    0    0 -0.71235193203E+02 -0.25560643839E+02 -0.12822266275E+03  0.14889207671E+03  0.00000000000E+00 0. -1.
        -12    1    4    4    0    0  0.10617890573E+01 -0.38549887832E+02 -0.19020086667E+02  0.42999824938E+02  0.00000000000E+00 0.  1.
</event>
<event>
12    1  0.8724767E-002  0.1812167E+03  0.7818608E-02  0.1167832E+00
         21   -1    0    0  501  502  0.00000000000E+00  0.00000000000E+00  0.89818184181E+02  0.89818184181E+02  0.00000000000E+00 0. -1.
         21   -1    0    0  502  503 -0.00000000000E+00 -0.00000000000E+00 -0.78188565036E+03  0.78188565036E+03  0.00000000000E+00 0. -1.
         -6    2    1    2    0  503 -0.71996444068E+01 -0.33890912493E+01 -0.66561972587E+03  0.68856734769E+03  0.17610239072E+03 0.  0.
        -24    2    3    3    0    0  0.60857839741E+02  0.79587458734E+01 -0.48288402829E+03  0.49318306038E+03  0.79281321747E+02 0.  0.
          6    2    1    2  501    0  0.71996444068E+01  0.33890912493E+01 -0.26447740306E+02  0.18313648685E+03  0.18104189855E+03 0.  0.
         24    2    5    5    0    0  0.48837654281E+02 -0.56324115990E+02 -0.15871261373E+02  0.10942527405E+03  0.78514146155E+02 0.  0.
          5    1    5    5  501    0 -0.41638009874E+02  0.59713207239E+02 -0.10576478933E+02  0.73711212795E+02  0.47000000000E+01 0. -1.
        -11    1    6    6    0    0  0.26257507248E+02 -0.69055482660E+02 -0.30192320968E+02  0.79810354076E+02  0.00000000000E+00 0.  1.
         12    1    6    6    0    0  0.22580147033E+02  0.12731366671E+02  0.14321059595E+02  0.29614919977E+02  0.00000000000E+00 0. -1.
         -5    1    3    3    0  503 -0.68057484148E+02 -0.11347837123E+02 -0.18273569758E+03  0.19538428731E+03  0.47000000000E+01 0.  1.
         11    1    4    4    0    0  0.38943245275E+02  0.16852957108E+02 -0.45341877880E+03  0.45540003018E+03  0.00000000000E+00 0. -1.
        -12    1    4    4    0    0  0.21914594466E+02 -0.88942112344E+01 -0.29465249486E+02  0.37783030204E+02  0.00000000000E+00 0.  1.
</event>
<event>
12    1  0.8724767E-002  0.1908346E+03  0.7818608E-02  0.1158063E+00
         21   -1    0    0  503  502  0.00000000000E+00  0.00000000000E+00  0.17490012061E+03  0.17490012061E+03  0.00000000000E+00 0. -1.
         21   -1    0    0  501  503 -0.00000000000E+00 -0.00000000000E+00 -0.22443263009E+03  0.22443263009E+03  0.00000000000E+00 0.  1.
          6    2    1    2  501    0 -0.24172282138E+02  0.77787350935E+02 -0.81082128183E+02  0.20590773020E+03  0.17084645345E+03 0.  0.
         24    2    3    3    0    0 -0.58045181060E+02  0.10325229821E+03 -0.70791340179E+02  0.16204627630E+03  0.84954703744E+02 0.  0.
         -6    2    1    2    0  502  0.24172282138E+02 -0.77787350935E+02  0.31549618703E+02  0.19342502051E+03  0.17257661756E+03 0.  0.
        -24    2    5    5    0    0 -0.33665104907E+02 -0.35584363529E+02  0.63486192268E+02  0.11488655721E+03  0.82272949397E+02 0.  0.
          5    1    3    3  501    0  0.33872898922E+02 -0.25464947272E+02 -0.10290788004E+02  0.43861453905E+02  0.47000000000E+01 0. -1.
        -11    1    4    4    0    0 -0.61193998532E+02  0.34658776546E+02 -0.11372208238E+02  0.71240882702E+02  0.00000000000E+00 0.  1.
         12    1    4    4    0    0  0.31488174719E+01  0.68593521661E+02 -0.59419131941E+02  0.90805393595E+02  0.00000000000E+00 0. -1.
         -5    1    5    5    0  502  0.57837387045E+02 -0.42202987406E+02 -0.31936573565E+02  0.78538463298E+02  0.47000000000E+01 0.  1.
         11    1    6    6    0    0 -0.46165023439E+02 -0.36673612137E+02  0.98176614831E+01  0.59770809709E+02  0.00000000000E+00 0. -1.
        -12    1    6    6    0    0  0.12499918532E+02  0.10892486085E+01  0.53668530785E+02  0.55115747499E+02  0.00000000000E+00 0.  1.
</event>
<event>
12    1  0.8724767E-002  0.3803207E+03  0.7818608E-02  0.1051063E+00
         21   -1    0    0  501  502  0.00000000000E+00  0.00000000000E+00  0.53725645322E+03  0.53725645322E+03  0.00000000000E+00 0. -1.
         21   -1    0    0  502  503 -0.00000000000E+00 -0.00000000000E+00 -0.59365014464E+03  0.59365014464E+03  0.00000000000E+00 0.  1.
         -6    2    1    2    0  503  0.29919921445E+03 -0.15931150607E+03 -0.44746875813E+03  0.58725812079E+03  0.17246299614E+03 0.  0.
        -24    2    3    3    0    0  0.66822289499E+02 -0.12354993248E+02 -0.15319248415E+03  0.18449781075E+03  0.77159838920E+02 0.  0.
          6    2    1    2  501    0 -0.29919921445E+03  0.15931150607E+03  0.39107506671E+03  0.54364847708E+03  0.16647412091E+03 0.  0.
         24    2    5    5    0    0 -0.30601334928E+03  0.12168151088E+03  0.35128469894E+03  0.48826064142E+03  0.80913251212E+02 0.  0.
          5    1    5    5  501    0  0.68141348353E+01  0.37629995186E+02  0.39790367769E+02  0.55387835654E+02  0.47000000000E+01 0. -1.
        -11    1    6    6    0    0 -0.11645331254E+03  0.22977994128E+02  0.81057803717E+02  0.14373492881E+03  0.00000000000E+00 0.  1.
         12    1    6    6    0    0 -0.18956003674E+03  0.98703516755E+02  0.27022689523E+03  0.34452571261E+03  0.00000000000E+00 0. -1.
         -5    1    3    3    0  503  0.23237692495E+03 -0.14695651282E+03 -0.29427627399E+03  0.40276031004E+03  0.47000000000E+01 0.  1.
         11    1    4    4    0    0  0.49634914754E+02 -0.24411173339E+01 -0.26612309109E+02  0.56371968323E+02  0.00000000000E+00 0. -1.
        -12    1    4    4    0    0  0.17187374744E+02 -0.99138759146E+01 -0.12658017504E+03  0.12812584243E+03  0.00000000000E+00 0.  1.
</event>
<event>
12    1  0.8724767E-002  0.2117938E+03  0.7818608E-02  0.1141384E+00
         21   -1    0    0  501  502  0.00000000000E+00  0.00000000000E+00  0.24565772464E+03  0.24565772464E+03  0.00000000000E+00 0. -1.
         21   -1    0    0  502  503 -0.00000000000E+00 -0.00000000000E+00 -0.23856157096E+03  0.23856157096E+03  0.00000000000E+00 0. -1.
         -6    2    1    2    0  503 -0.39858817441E+02 -0.10528471963E+03 -0.11908764693E+03  0.24297832007E+03  0.17939620637E+03 0.  0.
        -24    2    3    3    0    0 -0.74738151465E+02 -0.12669674656E+03 -0.11606326783E+03  0.20167118137E+03  0.74583687107E+02 0.  0.
          6    2    1    2  501    0  0.39858817441E+02  0.10528471963E+03  0.12618380061E+03  0.24124097552E+03  0.17205016483E+03 0.  0.
         24    2    5    5    0    0  0.72956891925E+02  0.73262662235E+02  0.29540188634E+02  0.13408234344E+03  0.80095732222E+02 0.  0.
          5    1    5    5  501    0 -0.33098074484E+02  0.32022057394E+02  0.96643611979E+02  0.10715863209E+03  0.47000000000E+01 0. -1.
        -11    1    6    6    0    0 -0.10308017126E+02  0.36563028756E+02  0.19015344287E+02  0.42481685551E+02  0.00000000000E+00 0.  1.
         12    1    6    6    0    0  0.83264909051E+02  0.36699633478E+02  0.10524844347E+02  0.91600657887E+02  0.00000000000E+00 0. -1.
         -5    1    3    3    0  503  0.34879334024E+02  0.21412026927E+02 -0.30243790998E+01  0.41307138705E+02  0.47000000000E+01 0.  1.
         11    1    4    4    0    0 -0.47397340476E+02 -0.12869787726E+03 -0.91561217679E+02  0.16490332950E+03  0.00000000000E+00 0. -1.
        -12    1    4    4    0    0 -0.27340810989E+02  0.20011307063E+01 -0.24502050153E+02  0.36767851872E+02  0.00000000000E+00 0.  1.
</event>
<event>
12    1  0.8724767E-002  0.1786209E+03  0.7818608E-02  0.1169238E+00
         21   -1    0    0  503  502  0.00000000000E+00  0.00000000000E+00  0.20415398497E+03  0.20415398497E+03  0.00000000000E+00 0. -1.
         21   -1    0    0  501  503 -0.00000000000E+00 -0.00000000000E+00 -0.17422212003E+03  0.17422212003E+03  0.00000000000E+00 0. -1.
          6    2    1    2  501    0  0.42299212409E+02 -0.21890570745E+02 -0.46291516791E+02  0.18452186811E+03  0.17215398579E+03 0.  0.
         24    2    3    3    0    0  0.81705178938E+02 -0.15612416544E+02  0.41015051137E+01  0.12007194898E+03  0.86492582185E+02 0.  0.
         -6    2    1    2    0  502 -0.42299212409E+02  0.21890570745E+02  0.76223381727E+02  0.19385423689E+03  0.17175867018E+03 0.  0.
        -24    2    5    5    0    0 -0.83822472945E+02  0.83508569739E+01  0.11053991013E+02  0.11526260565E+03  0.77893091877E+02 0.  0.
          5    1    3    3  501    0 -0.39405966529E+02 -0.62781542006E+01 -0.50393021905E+02  0.64449919123E+02  0.47000000000E+01 0. -1.
        -11    1    4    4    0    0 -0.13561076981E+02 -0.10011532905E+02  0.16801708201E+02  0.23799810892E+02  0.00000000000E+00 0.  1.
         12    1    4    4    0    0  0.95266255919E+02 -0.56008836394E+01 -0.12700203088E+02  0.96272138093E+02  0.00000000000E+00 0. -1.
         -5    1    5    5    0  502  0.41523260536E+02  0.13539713771E+02  0.65169390714E+02  0.78591631237E+02  0.47000000000E+01 0.  1.
         13    1    6    6    0    0  0.73483294010E+01  0.13552961904E+02  0.17975952249E+02  0.23681545148E+02  0.00000000000E+00 0. -1.
        -14    1    6    6    0    0 -0.91170802346E+02 -0.52021049304E+01 -0.69219612355E+01  0.91581060506E+02  0.00000000000E+00 0.  1.
</event>
<event>
12    1  0.8724767E-002  0.2092483E+03  0.7818608E-02  0.1142464E+00
         21   -1    0    0  503  502  0.00000000000E+00  0.00000000000E+00  0.34428414135E+03  0.34428414135E+03  0.00000000000E+00 0. -1.
         21   -1    0    0  501  503 -0.00000000000E+00 -0.00000000000E+00 -0.60332830741E+03  0.60332830741E+03  0.00000000000E+00 0. -1.
          6    2    1    2  501    0 -0.85205422180E+02 -0.81771771657E+02 -0.55074547878E+03  0.58862146844E+03  0.17090366905E+03 0.  0.
         24    2    3    3    0    0 -0.80542284288E+02 -0.43303016241E+02 -0.53080193451E+03  0.54478740684E+03  0.81733800788E+02 0.  0.
         -6    2    1    2    0  502  0.85205422180E+02  0.81771771657E+02  0.29170131272E+03  0.35899098033E+03  0.17273760883E+03 0.  0.
        -24    2    5    5    0    0  0.43700866716E+02  0.59913919686E+02  0.29325039150E+03  0.31182230998E+03  0.75749042001E+02 0.  0.
          5    1    3    3  501    0 -0.46631378928E+01 -0.38468755416E+02 -0.19943544269E+02  0.43834061599E+02  0.47000000000E+01 0. -1.
        -13    1    4    4    0    0 -0.40387523091E+02 -0.24309539660E+02 -0.88597042692E+02  0.10035707107E+03  0.00000000000E+00 0.  1.
         14    1    4    4    0    0 -0.40154761196E+02 -0.18993476581E+02 -0.44220489182E+03  0.44443033577E+03  0.00000000000E+00 0. -1.
         -5    1    5    5    0  502  0.41504555465E+02  0.21857851971E+02 -0.15490787803E+01  0.47168670346E+02  0.47000000000E+01 0.  1.
         11    1    6    6    0    0  0.54164666706E+02  0.11858016838E+02  0.18018363838E+03  0.18852206031E+03  0.00000000000E+00 0. -1.
        -12    1    6    6    0    0 -0.10463799990E+02  0.48055902849E+02  0.11306675312E+03  0.12330024967E+03  0.00000000000E+00 0.  1.
</event>
<event>
12    1  0.8724767E-002  0.2186942E+03  0.7818608E-02  0.1136245E+00
         21   -1    0    0  503  502  0.00000000000E+00  0.00000000000E+00  0.41622033838E+03  0.41622033838E+03  0.00000000000E+00 0.  1.
         21   -1    0    0  501  503 -0.00000000000E+00 -0.00000000000E+00 -0.13686693750E+03  0.13686693750E+03  0.00000000000E+00 0.  1.
          6    2    1    2  501    0  0.34035803250E+02  0.11725422129E+03  0.17870480617E+02  0.21220536392E+03  0.17264059223E+03 0.  0.
         24    2    3    3    0    0 -0.11444165633E+02  0.95369308248E+02  0.66206598268E+02  0.14216361024E+03  0.81245950917E+02 0.  0.
         -6    2    1    2    0  502 -0.34035803250E+02 -0.11725422129E+03  0.26148292026E+03  0.34088191196E+03  0.18143916888E+03 0.  0.
        -24    2    5    5    0    0 -0.89589725418E+02 -0.47844412285E+02  0.11928593415E+03  0.17311411794E+03  0.73647519005E+02 0.  0.
          5    1    3    3  501    0  0.45479968883E+02  0.21884913037E+02 -0.48336117650E+02  0.70041753674E+02  0.47000000000E+01 0. -1.
        -11    1    4    4    0    0  0.29999050780E+02  0.65708167901E+02  0.24387379039E+02  0.76238117980E+02  0.00000000000E+00 0.  1.
         12    1    4    4    0    0 -0.41443216413E+02  0.29661140347E+02  0.41819219228E+02  0.65925492263E+02  0.00000000000E+00 0. -1.
         -5    1    5    5    0  502  0.55553922168E+02 -0.69409809001E+02  0.14219698611E+03  0.16776779403E+03  0.47000000000E+01 0.  1.
         13    1    6    6    0    0 -0.35379402941E+02  0.52997662521E+01  0.53036777229E+01  0.36165158263E+02  0.00000000000E+00 0. -1.
        -14    1    6    6    0    0 -0.54210322477E+02 -0.53144178537E+02  0.11398225643E+03  0.13694895967E+03  0.00000000000E+00 0.  1.
</event>
<event>
12    1  0.8724767E-002  0.1877836E+03  0.7818608E-02  0.1161049E+00
         21   -1    0    0  501  502  0.00000000000E+00  0.00000000000E+00  0.18910404778E+04  0.18910404778E+04  0.00000000000E+00 0. -1.
         21   -1    0    0  502  503 -0.00000000000E+00 -0.00000000000E+00 -0.18863871813E+02  0.18863871813E+02  0.00000000000E+00 0. -1.
         -6    2    1    2    0  503 -0.68850989470E+02 -0.52718183689E+01  0.78045799300E+03  0.80215337544E+03  0.17195088856E+03 0.  0.
        -24    2    3    3    0    0  0.29914875418E+02  0.50341324963E+01  0.32863215557E+03  0.33952005838E+03  0.79715331677E+02 0.  0.
          6    2    1    2  501    0  0.68850989470E+02  0.52718183689E+01  0.10917186130E+04  0.11077509742E+04  0.17462657305E+03 0.  0.
         24    2    5    5    0    0  0.18589749582E+02 -0.60798517794E+02  0.48896837248E+03  0.49929273897E+03  0.78492874481E+02 0.  0.
          5    1    5    5  501    0  0.50261239887E+02  0.66070336163E+02  0.60275024050E+03  0.60845823519E+03  0.47000000000E+01 0. -1.
        -13    1    6    6    0    0  0.47987610653E+02 -0.38497877072E+02  0.35702702675E+03  0.36228882834E+03  0.00000000000E+00 0.  1.
         14    1    6    6    0    0 -0.29397861071E+02 -0.22300640722E+02  0.13194134573E+03  0.13700391062E+03  0.00000000000E+00 0. -1.
         -5    1    3    3    0  503 -0.98765864887E+02 -0.10305950865E+02  0.45182583743E+03  0.46263331706E+03  0.47000000000E+01 0.  1.
         13    1    4    4    0    0  0.41235654169E+02 -0.14214622706E+02  0.91773763409E+02  0.10161131002E+03  0.00000000000E+00 0. -1.
        -14    1    4    4    0    0 -0.11320778751E+02  0.19248755202E+02  0.23685839216E+03  0.23790874836E+03  0.00000000000E+00 0.  1.
</event>
<event>
12    1  0.8724767E-002  0.2299104E+03  0.7818608E-02  0.1127550E+00
         21   -1    0    0  501  502  0.00000000000E+00  0.00000000000E+00  0.77608426878E+02  0.77608426878E+02  0.00000000000E+00 0.  1.
         21   -1    0    0  502  503 -0.00000000000E+00 -0.00000000000E+00 -0.68010859051E+03  0.68010859051E+03  0.00000000000E+00 0. -1.
         -6    2    1    2    0  503 -0.14341424929E+03  0.28977314234E+02 -0.25190233460E+03  0.34104779102E+03  0.17734564541E+03 0.  0.
        -24    2    3    3    0    0 -0.14297619802E+03 -0.70505176607E+01 -0.25960306706E+03  0.30390498768E+03  0.66877396095E+02 0.  0.
          6    2    1    2  501    0  0.14341424929E+03 -0.28977314234E+02 -0.35059782904E+03  0.41666922637E+03  0.17113466872E+03 0.  0.
         24    2    5    5    0    0  0.37141013482E+02  0.17440236045E+02 -0.24154235255E+03  0.25740913540E+03  0.78950226066E+02 0.  0.
          5    1    5    5  501    0  0.10627323581E+03 -0.46417550278E+02 -0.10905547649E+03  0.15926009097E+03  0.47000000000E+01 0. -1.
        -11    1    6    6    0    0  0.89813739457E+01 -0.19855904190E+02 -0.15895787341E+02  0.26974025735E+02  0.00000000000E+00 0.  1.
         12    1    6    6    0    0  0.28159639536E+02  0.37296140235E+02 -0.22564656521E+03  0.23043510967E+03  0.00000000000E+00 0. -1.
         -5    1    3    3    0  503 -0.43805126782E+00  0.36027831894E+02  0.77007324603E+01  0.37142803345E+02  0.47000000000E+01 0.  1.
         11    1    4    4    0    0 -0.37746390729E+02  0.24005938648E+02 -0.10681617784E+03  0.11580488311E+03  0.00000000000E+00 0. -1.
        -12    1    4    4    0    0 -0.10522980730E+03 -0.31056456309E+02 -0.15278688922E+03  0.18810010457E+03  0.00000000000E+00 0.  1.
</event>
<event>
12    1  0.8724767E-002  0.1837255E+03  0.7818608E-02  0.1164329E+00
         21   -1    0    0  503  502  0.00000000000E+00  0.00000000000E+00  0.39586548028E+03  0.39586548028E+03  0.00000000000E+00 0.  1.
         21   -1    0    0  501  503 -0.00000000000E+00 -0.00000000000E+00 -0.14065822437E+03  0.14065822437E+03  0.00000000000E+00 0.  1.
          6    2    1    2  501    0  0.53426158374E+02  0.36389563789E+02 -0.40912910088E+02  0.18822577784E+03  0.17197826165E+03 0.  0.
         24    2    3    3    0    0  0.43160149279E+02  0.88908904344E+02 -0.13083327056E+02  0.12772579630E+03  0.79844309978E+02 0.  0.
         -6    2    1    2    0  502 -0.53426158374E+02 -0.36389563789E+02  0.29612016600E+03  0.34829792681E+03  0.17159760591E+03 0.  0.
        -24    2    5    5    0    0 -0.83618769879E+02 -0.35422091256E+02  0.12519204121E+03  0.17465736807E+03  0.81150020427E+02 0.  0.
          5    1    3    3  501    0  0.10266009094E+02 -0.52519340555E+02 -0.27829583033E+02  0.60499981544E+02  0.47000000000E+01 0. -1.
        -13    1    4    4    0    0  0.39277349513E+02  0.78055086276E+02 -0.41739880370E+02  0.96837618164E+02  0.00000000000E+00 0.  1.
         14    1    4    4    0    0  0.38827997660E+01  0.10853818068E+02  0.28656553314E+02  0.30888178135E+02  0.00000000000E+00 0. -1.
         -5    1    5    5    0  502  0.30192611505E+02 -0.96747253316E+00  0.17092812480E+03  0.17364055874E+03  0.47000000000E+01 0.  1.
         13    1    6    6    0    0 -0.11381443007E+01  0.27994304585E+00 -0.11229847153E+02  0.11290846188E+02  0.00000000000E+00 0. -1.
        -14    1    6    6    0    0 -0.82480625578E+02 -0.35702034302E+02  0.13642188836E+03  0.16336652188E+03  0.00000000000E+00 0.  1.
</event>
<event>
12    1  0.8724767E-002  0.1984601E+03  0.7818608E-02  0.1151476E+00
         21   -1    0    0  503  502  0.00000000000E+00  0.00000000000E+00  0.16819648387E+03  0.16819648387E+03  0.00000000000E+00 0. -1.
         21   -1    0    0  501  503 -0.00000000000E+00 -0.00000000000E+00 -0.31391853121E+03  0.31391853121E+03  0.00000000000E+00 0. -1.
          6    2    1    2  501    0  0.44362103090E+02  0.87372954131E+02 -0.19587827210E+03  0.27741513335E+03  0.17026106257E+03 0.  0.
         24    2    3    3    0    0  0.72952453667E+01  0.39418772316E+00 -0.14250378336E+03  0.16874046383E+03  0.90070194140E+02 0.  0.
         -6    2    1    2    0  502 -0.44362103090E+02 -0.87372954131E+02  0.50156224763E+02  0.20469988173E+03  0.17258147465E+03 0.  0.
        -24    2    5    5    0    0  0.14252344260E+01 -0.68877390740E+02  0.98301203119E+02  0.13557249871E+03  0.63013090896E+02 0.  0.
          5    1    3    3  501    0  0.37066857723E+02  0.86978766408E+02 -0.53374488741E+02  0.10867466952E+03  0.47000000000E+01 0. -1.
        -13    1    4    4    0    0  0.34359003309E+02  0.63640823071E+01 -0.14603960001E+02  0.37872394956E+02  0.00000000000E+00 0.  1.
         14    1    4    4    0    0 -0.27063757942E+02 -0.59698945839E+01 -0.12789982336E+03  0.13086806888E+03  0.00000000000E+00 0. -1.
         -5    1    5    5    0  502 -0.45787337516E+02 -0.18495563391E+02 -0.48144978356E+02  0.69127383017E+02  0.47000000000E+01 0.  1.
         11    1    6    6    0    0  0.26550523840E+01 -0.70522400494E+02  0.48274652457E+02  0.85503803100E+02  0.00000000000E+00 0. -1.
        -12    1    6    6    0    0 -0.12298179580E+01  0.16450097538E+01  0.50026550662E+02  0.50068695613E+02  0.00000000000E+00 0.  1.
</event>
<event>
12    1  0.8724767E-002  0.1859134E+03  0.7818608E-02  0.1162762E+00
         21   -1    0    0  503  502  0.00000000000E+00  0.00000000000E+00  0.57307066295E+03  0.57307066295E+03  0.00000000000E+00 0.  1.
         21   -1    0    0  501  503 -0.00000000000E+00 -0.00000000000E+00 -0.60466287775E+02  0.60466287775E+02  0.00000000000E+00 0.  1.
          6    2    1    2  501    0 -0.39530479618E+02  0.59043364770E+02  0.29397411373E+03  0.34654744310E+03  0.16919093662E+03 0.  0.
         24    2    3    3    0    0  0.39401524292E+02  0.25476208197E+02  0.12168673223E+03  0.15403238637E+03  0.81956073299E+02 0.  0.
         -6    2    1    2    0  502  0.39530479618E+02 -0.59043364770E+02  0.21863026145E+03  0.28698950763E+03  0.17179932633E+03 0.  0.
        -24    2    5    5    0    0  0.35682653357E+02  0.22573209931E+02  0.60248814257E+02  0.10871207258E+03  0.80034952043E+02 0.  0.
          5    1    3    3  501    0 -0.78932003910E+02  0.33567156573E+02  0.17228738150E+03  0.19251505673E+03  0.47000000000E+01 0. -1.
        -11    1    4    4    0    0  0.29333790078E+02  0.55367962584E+02  0.85986202942E+02  0.10639412398E+03  0.00000000000E+00 0.  1.
         12    1    4    4    0    0  0.10067734214E+02 -0.29891754387E+02  0.35700529289E+02  0.47638262395E+02  0.00000000000E+00 0. -1.
         -5    1    5    5    0  502  0.38478262605E+01 -0.81616574701E+02  0.15838144719E+03  0.17827743505E+03  0.47000000000E+01 0.  1.
         13    1    6    6    0    0  0.19984626350E+02  0.52736743071E+02  0.39912939719E+02  0.69091186971E+02  0.00000000000E+00 0. -1.
        -14    1    6    6    0    0  0.15698027007E+02 -0.30163533140E+02  0.20335874537E+02  0.39620885611E+02  0.00000000000E+00 0.  1.
</event>
<event>
12    1  0.8724767E-002  0.1738472E+03  0.7818608E-02  0.1174062E+00
         21   -1    0    0  503  502  0.00000000000E+00  0.00000000000E+00  0.15498664521E+03  0.15498664521E+03  0.00000000000E+00 0.  1.
         21   -1    0    0  501  503 -0.00000000000E+00 -0.00000000000E+00 -0.38733144809E+03  0.38733144809E+03  0.00000000000E+00 0.  1.
          6    2    1    2  501    0 -0.18309298975E+02  0.83969323579E+01 -0.30772712823E+03  0.35343860587E+03  0.17267635556E+03 0.  0.
         24    2    3    3    0    0 -0.21880614024E+02 -0.56179915912E+02 -0.23815767732E+03  0.25833381039E+03  0.79889511841E+02 0.  0.
         -6    2    1    2    0  502  0.18309298975E+02 -0.83969323579E+01  0.75382325354E+02  0.18887948743E+03  0.17200938025E+03 0.  0.
        -24    2    5    5    0    0  0.77853487178E+02 -0.54220484845E+00  0.59957322221E+02  0.12669244847E+03  0.79966471467E+02 0.  0.
          5    1    3    3  501    0  0.35713150487E+01  0.64576848270E+02 -0.69569450918E+02  0.95104795487E+02  0.47000000000E+01 0. -1.
        -13    1    4    4    0    0  0.33340674665E+01 -0.22996265172E+02 -0.20148254022E+03  0.20281804218E+03  0.00000000000E+00 0.  1.
         14    1    4    4    0    0 -0.25214681490E+02 -0.33183650740E+02 -0.36675137092E+02  0.55515768209E+02  0.00000000000E+00 0. -1.
         -5    1    5    5    0  502 -0.59544188203E+02 -0.78547275094E+01  0.15425003134E+02  0.62187038961E+02  0.47000000000E+01 0.  1.
         11    1    6    6    0    0  0.92523484392E+01 -0.70580268713E+00 -0.19574013446E+02  0.21662089268E+02  0.00000000000E+00 0. -1.
        -12    1    6    6    0    0  0.68601138739E+02  0.16359783868E+00  0.79531335667E+02  0.10503035920E+03  0.00000000000E+00 0.  1.
</event>
<event>
12    1  0.8724767E-002  0.3896480E+03  0.7818608E-02  0.1047445E+00
         21   -1    0    0  501  502  0.00000000000E+00  0.00000000000E+00  0.59988666120E+03  0.59988666120E+03  0.00000000000E+00 0.  1.
         21   -1    0    0  502  503 -0.00000000000E+00 -0.00000000000E+00 -0.31424398867E+03  0.31424398867E+03  0.00000000000E+00 0.  1.
         -6    2    1    2    0  503  0.34964108497E+03  0.27994584988E+01  0.34472693459E+03  0.52025207756E+03  0.17195592316E+03 0.  0.
        -24    2    3    3    0    0  0.23334217886E+03 -0.50912563666E+02  0.27795129565E+03  0.37571318022E+03  0.82842075465E+02 0.  0.
          6    2    1    2  501    0 -0.34964108497E+03 -0.27994584988E+01 -0.59084262063E+02  0.39387857231E+03  0.17144286054E+03 0.  0.
         24    2    5    5    0    0 -0.84172071815E+02 -0.18417617887E+02 -0.49569090276E+02  0.12773884896E+03  0.80224513091E+02 0.  0.
          5    1    5    5  501    0 -0.26546901316E+03  0.15618159388E+02 -0.95151717865E+01  0.26613972335E+03  0.47000000000E+01 0. -1.
        -13    1    6    6    0    0 -0.94836468445E+02 -0.25272510815E+02 -0.56544231507E+02  0.11326917351E+03  0.00000000000E+00 0.  1.
         14    1    6    6    0    0  0.10664396631E+02  0.68548929282E+01  0.69751412309E+01  0.14469675454E+02  0.00000000000E+00 0. -1.
         -5    1    3    3    0  503  0.11629890612E+03  0.53712022165E+02  0.66775638943E+02  0.14453889734E+03  0.47000000000E+01 0.  1.
         11    1    4    4    0    0  0.88471132566E+02  0.20994492019E+02  0.10581086561E+03  0.13951290002E+03  0.00000000000E+00 0. -1.
        -12    1    4    4    0    0  0.14487104629E+03 -0.71907055686E+02  0.17214043004E+03  0.23620028020E+03  0.00000000000E+00 0.  1.
</event>
<event>
12    1  0.8724767E-002  0.1933535E+03  0.7818608E-02  0.1156021E+00
         21   -1    0    0  503  502  0.00000000000E+00  0.00000000000E+00  0.74858127786E+02  0.74858127786E+02  0.00000000000E+00 0. -1.
         21   -1    0    0  501  503 -0.00000000000E+00 -0.00000000000E+00 -0.50626971394E+03  0.50626971394E+03  0.00000000000E+00 0. -1.
          6    2    1    2  501    0 -0.46596832887E+02 -0.76390513197E+02 -0.17009075126E+03  0.25751977385E+03  0.17140243556E+03 0.  0.
         24    2    3    3    0    0  0.54443917000E+01 -0.58011813626E+02 -0.17650886166E+03  0.20175824772E+03  0.78460183265E+02 0.  0.
         -6    2    1    2    0  502  0.46596832887E+02  0.76390513197E+02 -0.26132083489E+03  0.32360806788E+03  0.16860257265E+03 0.  0.
        -24    2    5    5    0    0 -0.31389143230E+02  0.25866996888E+02 -0.17646198358E+03  0.19768129226E+03  0.79275985142E+02 0.  0.
          5    1    3    3  501    0 -0.52041224587E+02 -0.18378699572E+02  0.64181104027E+01  0.55761526124E+02  0.47000000000E+01 0. -1.
        -11    1    4    4    0    0 -0.26457627784E+02 -0.60172737587E+02 -0.12072428393E+03  0.13745951094E+03  0.00000000000E+00 0.  1.
         12    1    4    4    0    0  0.31902019484E+02  0.21609239615E+01 -0.55784577729E+02  0.64298736784E+02  0.00000000000E+00 0. -1.
         -5    1    5    5    0  502  0.77985976117E+02  0.50523516309E+02 -0.84858851312E+02  0.12592677562E+03  0.47000000000E+01 0.  1.
         11    1    6    6    0    0 -0.32044169773E+01  0.47878931971E+02 -0.66182765038E+02  0.81748509485E+02  0.00000000000E+00 0. -1.
        -12    1    6    6    0    0 -0.28184726252E+02 -0.22011935083E+02 -0.11027921854E+03  0.11593278278E+03  0.00000000000E+00 0.  1.
</event>
<event>
12    1  0.8724767E-002  0.2856193E+03  0.7818608E-02  0.1092678E+00
         21   -1    0    0  503  502  0.00000000000E+00  0.00000000000E+00  0.15502249734E+04  0.15502249734E+04  0.00000000000E+00 0. -1.
         21   -1    0    0  501  503 -0.00000000000E+00 -0.00000000000E+00 -0.53914251705E+02  0.53914251705E+02  0.00000000000E+00 0. -1.
          6    2    1    2  501    0 -0.15695116147E+03 -0.16542000783E+03  0.62298595403E+03  0.68533926312E+03  0.17199116428E+03 0.  0.
         24    2    3    3    0    0 -0.72308609367E+02 -0.12951957459E+03  0.52182672264E+03  0.54856030704E+03  0.81310680767E+02 0.  0.
         -6    2    1    2    0  502  0.15695116147E+03  0.16542000783E+03  0.87332476769E+03  0.91879996200E+03  0.17175498314E+03 0.  0.
        -24    2    5    5    0    0  0.79832276872E+02  0.10798706175E+03  0.72759329715E+03  0.74414138888E+03  0.79498444359E+02 0.  0.
          5    1    3    3  501    0 -0.84642552102E+02 -0.35900433240E+02  0.10115923138E+03  0.13677895608E+03  0.47000000000E+01 0. -1.
        -13    1    4    4    0    0 -0.87800337681E+02 -0.89144812218E+02  0.36339790413E+03  0.38433544407E+03  0.00000000000E+00 0.  1.
         14    1    4    4    0    0  0.15491728314E+02 -0.40374762374E+02  0.15842881851E+03  0.16422486297E+03  0.00000000000E+00 0. -1.
         -5    1    5    5    0  502  0.77118884597E+02  0.57432946086E+02  0.14573147054E+03  0.17465857312E+03  0.47000000000E+01 0.  1.
         13    1    6    6    0    0  0.86770719614E+02  0.11636274768E+03  0.67307228910E+03  0.68854611551E+03  0.00000000000E+00 0. -1.
        -14    1    6    6    0    0 -0.69384427414E+01 -0.83756859349E+01  0.54521008045E+02  0.55595273367E+02  0.00000000000E+00 0.  1.
</event>
<event>
12    1  0.8724767E-002  0.3066500E+03  0.7818608E-02  0.1081978E+00
         21   -1    0    0  501  502  0.00000000000E+00  0.00000000000E+00  0.67904537513E+02  0.67904537513E+02  0.00000000000E+00 0. -1.
         21   -1    0    0  502  503 -0.00000000000E+00 -0.00000000000E+00 -0.19082791398E+04  0.19082791398E+04  0.00000000000E+00 0.  1.
         -6    2    1    2    0  503  0.22115879428E+03 -0.12483349832E+03 -0.40225031083E+03  0.50572943619E+03  0.17164595967E+03 0.  0.
        -24    2    3    3    0    0  0.22513412209E+03 -0.14311154842E+03 -0.33378725413E+03  0.43460159017E+03  0.79361974114E+02 0.  0.
          6    2    1    2  501    0 -0.22115879428E+03  0.12483349832E+03 -0.14381242914E+04  0.14704542411E+04  0.17187083224E+03 0.  0.
         24    2    5    5    0    0 -0.20497965964E+03  0.69455118083E+02 -0.13055724462E+04  0.13258146508E+04  0.80152366322E+02 0.  0.
          5    1    5    5  501    0 -0.16179134649E+02  0.55378380233E+02 -0.13255184524E+03  0.14463959026E+03  0.47000000000E+01 0. -1.
        -13    1    6    6    0    0 -0.11971111913E+03  0.74872304468E+02 -0.92916132632E+03  0.93982838026E+03  0.00000000000E+00 0.  1.
         14    1    6    6    0    0 -0.85268540505E+02 -0.54171863843E+01 -0.37641111985E+03  0.38598627055E+03  0.00000000000E+00 0. -1.
         -5    1    3    3    0  503 -0.39753278077E+01  0.18278050101E+02 -0.68463056699E+02  0.71127846019E+02  0.47000000000E+01 0.  1.
         11    1    4    4    0    0  0.37494211282E+02 -0.51952069436E+02 -0.11918607453E+03  0.13531501676E+03  0.00000000000E+00 0. -1.
        -12    1    4    4    0    0  0.18763991081E+03 -0.91159478981E+02 -0.21460117960E+03  0.29928657341E+03  0.00000000000E+00 0.  1.
</event>
<event>
12    1  0.8724767E-002  0.1796288E+03  0.7818608E-02  0.1168440E+00
         21   -1    0    0  503  502  0.00000000000E+00  0.00000000000E+00  0.25904609855E+03  0.25904609855E+03  0.00000000000E+00 0.  1.
         21   -1    0    0  501  503 -0.00000000000E+00 -0.00000000000E+00 -0.17587792484E+03  0.17587792484E+03  0.00000000000E+00 0.  1.
          6    2    1    2  501    0  0.36639929581E+02 -0.31481615213E+02 -0.76688521063E+02  0.19531423501E+03  0.17301140020E+03 0.  0.
         24    2    3    3    0    0  0.70474912376E+02 -0.69327227920E+02 -0.31885881779E+02  0.12744330641E+03  0.73838398458E+02 0.  0.
         -6    2    1    2    0  502 -0.36639929581E+02  0.31481615213E+02  0.15985669478E+03  0.23960978838E+03  0.17182872660E+03 0.  0.
        -24    2    5    5    0    0 -0.71158251573E+02 -0.26058076421E+02  0.92066930036E+02  0.14411176290E+03  0.80928119258E+02 0.  0.
          5    1    3    3  501    0 -0.33834982794E+02  0.37845612707E+02 -0.44802639285E+02  0.67870928598E+02  0.47000000000E+01 0. -1.
        -13    1    4    4    0    0  0.12263664969E+02 -0.45923026525E+02 -0.42559932472E+02  0.63801800098E+02  0.00000000000E+00 0.  1.
         14    1    4    4    0    0  0.58211247407E+02 -0.23404201395E+02  0.10674050694E+02  0.63641506314E+02  0.00000000000E+00 0. -1.
         -5    1    5    5    0  502  0.34518321991E+02  0.57539691634E+02  0.67789764742E+02  0.95498025478E+02  0.47000000000E+01 0.  1.
         11    1    6    6    0    0  0.15186774422E+01 -0.33027863909E+02  0.49719378703E+02  0.59708984200E+02  0.00000000000E+00 0. -1.
        -12    1    6    6    0    0 -0.72676929015E+02  0.69697874878E+01  0.42347551333E+02  0.84402778701E+02  0.00000000000E+00 0.  1.
</event>
<event>
12    1  0.8724767E-002  0.1956208E+03  0.7818608E-02  0.1153502E+00
         21   -1    0    0  501  502  0.00000000000E+00  0.00000000000E+00  0.45282520322E+03  0.45282520322E+03  0.00000000000E+00 0.  1.
         21   -1    0    0  502  503 -0.00000000000E+00 -0.00000000000E+00 -0.84620243103E+02  0.84620243103E+02  0.00000000000E+00 0.  1.
         -6    2    1    2    0  503  0.92646428562E+02  0.83087368616E+01  0.19515233740E+03  0.27631850656E+03  0.17209034383E+03 0.  0.
        -24    2    3    3    0    0  0.67452908540E+02  0.71114797366E+02  0.12789122499E+03  0.18079122286E+03  0.81988362353E+02 0.  0.
          6    2    1    2  501    0 -0.92646428562E+02 -0.83087368616E+01  0.17305262272E+03  0.26112693976E+03  0.17201067585E+03 0.  0.
         24    2    5    5    0    0 -0.60357133740E+02 -0.65390418654E+02  0.14649022926E+03  0.19021454520E+03  0.82482091944E+02 0.  0.
          5    1    5    5  501    0 -0.32289294822E+02  0.57081681792E+02  0.26562393453E+02  0.70912394560E+02  0.47000000000E+01 0. -1.
        -13    1    6    6    0    0 -0.31693653573E+02  0.15306745501E+02  0.50783025940E+02  0.61787538049E+02  0.00000000000E+00 0.  1.
         14    1    6    6    0    0 -0.28663480167E+02 -0.80697164154E+02  0.95707203324E+02  0.12842700715E+03  0.00000000000E+00 0. -1.
         -5    1    3    3    0  503  0.25193520022E+02 -0.62806060504E+02  0.67261112411E+02  0.95527283694E+02  0.47000000000E+01 0.  1.
         13    1    4    4    0    0 -0.30708159827E+01  0.13639921382E+01 -0.10216243998E+02  0.10754628156E+02  0.00000000000E+00 0. -1.
        -14    1    4    4    0    0  0.70523724523E+02  0.69750805228E+02  0.13810746898E+03  0.17003659471E+03  0.00000000000E+00 0.  1.
</event>
<event>
12    1  0.8724767E-002  0.3673745E+03  0.7818608E-02  0.1056138E+00
         21   -1    0    0  503  502  0.00000000000E+00  0.00000000000E+00  0.53783875289E+03  0.53783875289E+03  0.00000000000E+00 0.  1.
         21   -1    0    0  501  503 -0.00000000000E+00 -0.00000000000E+00 -0.37043288555E+03  0.37043288555E+03  0.00000000000E+00 0.  1.
          6    2    1    2  501    0 -0.19623765469E+03  0.25218745556E+03 -0.17716473307E+03  0.40786197135E+03  0.18126311034E+03 0.  0.
         24    2    3    3    0    0 -0.98133600393E+02  0.19069331853E+03 -0.18185691190E+03  0.29188765997E+03  0.78309158978E+02 0.  0.
         -6    2    1    2    0  502  0.19623765469E+03 -0.25218745556E+03  0.34457060041E+03  0.50040966710E+03  0.17196862040E+03 0.  0.
        -24    2    5    5    0    0  0.12001188872E+03 -0.88366699838E+02  0.23362192143E+03  0.28832641277E+03  0.79632851579E+02 0.  0.
          5    1    3    3  501    0 -0.98104054294E+02  0.61494137025E+02  0.46921788221E+01  0.11597431138E+03  0.47000000000E+01 0. -1.
        -13    1    4    4    0    0 -0.10549921866E+02  0.85448908493E+02 -0.10161827860E+03  0.13318818025E+03  0.00000000000E+00 0.  1.
         14    1    4    4    0    0 -0.87583678527E+02  0.10524441004E+03 -0.80238633296E+02  0.15869947971E+03  0.00000000000E+00 0. -1.
         -5    1    5    5    0  502  0.76225765964E+02 -0.16382075572E+03  0.11094867898E+03  0.21208325433E+03  0.47000000000E+01 0.  1.
         13    1    6    6    0    0  0.16951013833E+01  0.33193646472E+01  0.55660272560E+02  0.55784921725E+02  0.00000000000E+00 0. -1.
        -14    1    6    6    0    0  0.11831678734E+03 -0.91686064485E+02  0.17796164887E+03  0.23254149104E+03  0.00000000000E+00 0.  1.
</event>
<event>
12    1  0.8724767E-002  0.2166685E+03  0.7818608E-02  0.1137018E+00
         21   -1    0    0  503  502  0.00000000000E+00  0.00000000000E+00  0.11717233195E+03  0.11717233195E+03  0.00000000000E+00 0. -1.
         21   -1    0    0  501  503 -0.00000000000E+00 -0.00000000000E+00 -0.39488479924E+03  0.39488479924E+03  0.00000000000E+00 0. -1.
          6    2    1    2  501    0  0.12658094960E+03 -0.23982220177E+02 -0.13129750981E+03  0.25055653513E+03  0.17012247803E+03 0.  0.
         24    2    3    3    0    0  0.12674835933E+03 -0.16900003232E+02 -0.36779936261E+02  0.15565739114E+03  0.80781823468E+02 0.  0.
         -6    2    1    2    0  502 -0.12658094960E+03  0.23982220177E+02 -0.14641495749E+03  0.26150059605E+03  0.17420487443E+03 0.  0.
        -24    2    5    5    0    0 -0.39995258452E+02  0.75930294616E+02 -0.82352561324E+02  0.14182701939E+03  0.77252370404E+02 0.  0.
          5    1    3    3  501    0 -0.16740972701E+00 -0.70822169456E+01 -0.94517573544E+02  0.94899143998E+02  0.47000000000E+01 0. -1.
        -13    1    4    4    0    0  0.25361289268E+01  0.20595522917E+02 -0.10571386510E+02  0.23288660909E+02  0.00000000000E+00 0.  1.
         14    1    4    4    0    0  0.12421223040E+03 -0.37495526149E+02 -0.26208549751E+02  0.13236873023E+03  0.00000000000E+00 0. -1.
         -5    1    5    5    0  502 -0.86585691147E+02 -0.51948074439E+02 -0.64062396167E+02  0.11967357667E+03  0.47000000000E+01 0.  1.
         13    1    6    6    0    0 -0.47160742286E+02  0.10723854490E+02 -0.46394153124E+02  0.67019057829E+02  0.00000000000E+00 0. -1.
        -14    1    6    6    0    0  0.71654838341E+01  0.65206440126E+02 -0.35958408199E+02  0.74807961560E+02  0.00000000000E+00 0.  1.
</event>
<event>
12    1  0.8724767E-002  0.1766905E+03  0.7818608E-02  0.1171066E+00
         21   -1    0    0  501  502  0.00000000000E+00  0.00000000000E+00  0.43871691854E+03  0.43871691854E+03  0.00000000000E+00 0.  1.
         21   -1    0    0  502  503 -0.00000000000E+00 -0.00000000000E+00 -0.79112726551E+02  0.79112726551E+02  0.00000000000E+00 0.  1.
         -6    2    1    2    0  503 -0.18286873012E+02 -0.36277005021E+02  0.97498835459E+02  0.20173039533E+03  0.17186825962E+03 0.  0.
        -24    2    3    3    0    0 -0.15528863848E+02  0.36086635159E+02  0.93315240151E+02  0.12904136242E+03  0.80003426939E+02 0.  0.
          6    2    1    2  501    0  0.18286873012E+02  0.36277005021E+02  0.26210535653E+03  0.31609924977E+03  0.17195664268E+03 0.  0.
         24    2    5    5    0    0  0.71851715142E+01  0.72291177552E+02  0.25759701194E+03  0.27785420342E+03  0.74626381107E+02 0.  0.
          5    1    5    5  501    0  0.11101701498E+02 -0.36014172530E+02  0.45083445938E+01  0.38245046348E+02  0.47000000000E+01 0. -1.
        -13    1    6    6    0    0  0.40052392441E+02  0.37067281739E+02  0.11395484280E+03  0.12634826360E+03  0.00000000000E+00 0.  1.
         14    1    6    6    0    0 -0.32867220927E+02  0.35223895812E+02  0.14364216913E+03  0.15150593982E+03  0.00000000000E+00 0. -1.
         -5    1    3    3    0  503 -0.27580091645E+01 -0.72363640180E+02  0.41835953084E+01  0.72689032903E+02  0.47000000000E+01 0.  1.
         13    1    4    4    0    0 -0.59490862392E+00  0.77864236706E+01  0.96562899202E+02  0.96878149302E+02  0.00000000000E+00 0. -1.
        -14    1    4    4    0    0 -0.14933955224E+02  0.28300211488E+02 -0.32476590519E+01  0.32163213120E+02  0.00000000000E+00 0.  1.
</event>
<event>
12    1  0.8724767E-002  0.1912091E+03  0.7818608E-02  0.1157478E+00
         21   -1    0    0  501  502  0.00000000000E+00  0.00000000000E+00  0.10564861981E+04  0.10564861981E+04  0.00000000000E+00 0.  1.
         21   -1    0    0  502  503 -0.00000000000E+00 -0.00000000000E+00 -0.38660435960E+02  0.38660435960E+02  0.00000000000E+00 0.  1.
         -6    2    1    2    0  503  0.59662978881E+02 -0.55330442533E+02  0.68749466652E+03  0.71346672925E+03  0.17252457312E+03 0.  0.
        -24    2    3    3    0    0  0.56799922910E+02  0.11836519002E+02  0.21730714232E+03  0.23847410223E+03  0.79253825807E+02 0.  0.
          6    2    1    2  501    0 -0.59662978881E+02  0.55330442533E+02  0.33033109559E+03  0.38167990479E+03  0.17303117662E+03 0.  0.
         24    2    5    5    0    0  0.27907384370E+02  0.39745638583E+02  0.11867576759E+03  0.15204645228E+03  0.81704638492E+02 0.  0.
          5    1    5    5  501    0 -0.87570363251E+02  0.15584803950E+02  0.21165532801E+03  0.22963345250E+03  0.47000000000E+01 0. -1.
        -11    1    6    6    0    0  0.17073789705E+02  0.60203459700E+02  0.51663990998E+02  0.81148868265E+02  0.00000000000E+00 0.  1.
         12    1    6    6    0    0  0.10833594665E+02 -0.20457821117E+02  0.67011776589E+02  0.70897584020E+02  0.00000000000E+00 0. -1.
         -5    1    3    3    0  503  0.28630559714E+01 -0.67166961536E+02  0.47018752419E+03  0.47499262701E+03  0.47000000000E+01 0.  1.
         11    1    4    4    0    0 -0.16773256020E+02 -0.11165521747E+02  0.60043069683E+02  0.63333886746E+02  0.00000000000E+00 0. -1.
        -12    1    4    4    0    0  0.73573178930E+02  0.23002040749E+02  0.15726407264E+03  0.17514021549E+03  0.00000000000E+00 0.  1.
</event>
<event>
12    1  0.8724767E-002  0.2227367E+03  0.7818608E-02  0.1132020E+00
         21   -1    0    0  501  502  0.00000000000E+00  0.00000000000E+00  0.90057272659E+02  0.90057272659E+02  0.00000000000E+00 0.  1.
         21   -1    0    0  502  503 -0.00000000000E+00 -0.00000000000E+00 -0.56003498670E+03  0.56003498670E+03  0.00000000000E+00 0. -1.
         -6    2    1    2    0  503 -0.13533296778E+03  0.39261171036E+02 -0.18926100044E+03  0.29228642296E+03  0.17249688414E+03 0.  0.
        -24    2    3    3    0    0 -0.68927360942E+02  0.79362780078E+02 -0.16633208797E+03  0.21125760898E+03  0.76902418140E+02 0.  0.
          6    2    1    2  501    0  0.13533296778E+03 -0.39261171036E+02 -0.28071671360E+03  0.35780583640E+03  0.17136712505E+03 0.  0.
         24    2    5    5    0    0  0.12400104256E+03  0.19128645598E+02 -0.13580369942E+03  0.20109063326E+03  0.79073600979E+02 0.  0.
          5    1    5    5  501    0  0.11331925221E+02 -0.58389816633E+02 -0.14491301418E+03  0.15671520314E+03  0.47000000000E+01 0. -1.
        -13    1    6    6    0    0  0.87765876210E+02 -0.11702831223E+02 -0.46755066163E+02  0.10012912412E+03  0.00000000000E+00 0.  1.
         14    1    6    6    0    0  0.36235166351E+02  0.30831476821E+02 -0.89048633253E+02  0.10096150914E+03  0.00000000000E+00 0. -1.
         -5    1    3    3    0  503 -0.66405606840E+02 -0.40101609042E+02 -0.22928912477E+02  0.81028813980E+02  0.47000000000E+01 0.  1.
         11    1    4    4    0    0 -0.40412660621E+02  0.61721221547E+02 -0.16127449171E+03  0.17734755145E+03  0.00000000000E+00 0. -1.
        -12    1    4    4    0    0 -0.28514700321E+02  0.17641558531E+02 -0.50575962543E+01  0.33910057530E+02  0.00000000000E+00 0.  1.
</event>
<event>
12    1  0.8724767E-002  0.2120656E+03  0.7818608E-02  0.1139996E+00
         21   -1    0    0  503  502  0.00000000000E+00  0.00000000000E+00  0.32194186136E+03  0.32194186136E+03  0.00000000000E+00 0.  1.
         21   -1    0    0  501  503 -0.00000000000E+00 -0.00000000000E+00 -0.14228668401E+03  0.14228668401E+03  0.00000000000E+00 0.  1.
          6    2    1    2  501    0 -0.28621979600E+02 -0.11930790040E+03  0.57423439000E+02  0.21970271425E+03  0.17296889457E+03 0.  0.
         24    2    3    3    0    0 -0.22774575884E+02  0.19055978146E+01 -0.60481093844E+01  0.82671215196E+02  0.79218921888E+02 0.  0.
         -6    2    1    2    0  502  0.28621979600E+02  0.11930790040E+03  0.12223173835E+03  0.24452583111E+03  0.17262297474E+03 0.  0.
        -24    2    5    5    0    0  0.86338714700E+02  0.77457625485E+02  0.80356106072E+02  0.16171082282E+03  0.78988790540E+02 0.  0.
          5    1    3    3  501    0 -0.58474037154E+01 -0.12121349821E+03  0.63471548384E+02  0.13703149905E+03  0.47000000000E+01 0. -1.
        -13    1    4    4    0    0  0.11549390991E+01 -0.30560784795E+02 -0.23655023501E+02  0.38663362353E+02  0.00000000000E+00 0.  1.
         14    1    4    4    0    0 -0.23929514984E+02  0.32466382610E+02  0.17606914117E+02  0.44007852843E+02  0.00000000000E+00 0. -1.
         -5    1    5    5    0  502 -0.57716735101E+02  0.41850274910E+02  0.41875632276E+02  0.82815008297E+02  0.47000000000E+01 0.  1.
         13    1    6    6    0    0 -0.59684627146E+01 -0.96840447520E+01 -0.17948301930E+00  0.11376971657E+02  0.00000000000E+00 0. -1.
        -14    1    6    6    0    0  0.92307177415E+02  0.87141670237E+02  0.80535589091E+02  0.15033385116E+03  0.00000000000E+00 0.  1.
</event>
<event>
12    1  0.8724767E-002  0.2075393E+03  0.7818608E-02  0.1144112E+00
         21   -1    0    0  503  502  0.00000000000E+00  0.00000000000E+00  0.37713218402E+02  0.37713218402E+02  0.00000000000E+00 0. -1.
         21   -1    0    0  501  503 -0.00000000000E+00 -0.00000000000E+00 -0.13257929627E+04  0.13257929627E+04  0.00000000000E+00 0. -1.
          6    2    1    2  501    0  0.93809192295E+02  0.77990891823E+02 -0.91229116848E+03  0.93560020693E+03  0.16789826488E+03 0.  0.
         24    2    3    3    0    0  0.16822800913E+02 -0.15992058471E+02 -0.29782784390E+03  0.30922414843E+03  0.79871126231E+02 0.  0.
         -6    2    1    2    0  502 -0.93809192295E+02 -0.77990891823E+02 -0.37578857583E+03  0.42790597419E+03  0.16432810245E+03 0.  0.
        -24    2    5    5    0    0 -0.65258062285E+02 -0.11587782581E+03 -0.31342869606E+03  0.34941118839E+03  0.78513348241E+02 0.  0.
          5    1    3    3  501    0  0.76986391382E+02  0.93982950294E+02 -0.61446332458E+03  0.62637605850E+03  0.47000000000E+01 0. -1.
        -11    1    4    4    0    0 -0.39637557323E+01  0.25811122723E+02 -0.44220262586E+02  0.51355204594E+02  0.00000000000E+00 0.  1.
         12    1    4    4    0    0  0.20786556645E+02 -0.41803181194E+02 -0.25360758131E+03  0.25786894384E+03  0.00000000000E+00 0. -1.
         -5    1    5    5    0  502 -0.28551130010E+02  0.37886933991E+02 -0.62359879778E+02  0.78494785801E+02  0.47000000000E+01 0.  1.
         11    1    6    6    0    0 -0.67242348754E+01 -0.74661481443E+02 -0.21505672230E+03  0.22774754873E+03  0.00000000000E+00 0. -1.
        -12    1    6    6    0    0 -0.58533827410E+02 -0.41216344371E+02 -0.98371973751E+02  0.12166363966E+03  0.00000000000E+00 0.  1.
</event>
<event>
12    1  0.8724767E-002  0.2068612E+03  0.7818608E-02  0.1144118E+00
         21   -1    0    0  503  502  0.00000000000E+00  0.00000000000E+00  0.25352654877E+03  0.25352654877E+03  0.00000000000E+00 0. -1.
         21   -1    0    0  501  503 -0.00000000000E+00 -0.00000000000E+00 -0.34635381537E+03  0.34635381537E+03  0.00000000000E+00 0. -1.
          6    2    1    2  501    0  0.11490167027E+03 -0.19038981963E+02 -0.26126802844E+03  0.33311483575E+03  0.17070335218E+03 0.  0.
         24    2    3    3    0    0  0.72276366284E+02 -0.75581292866E+02 -0.17628038249E+03  0.22239474080E+03  0.86303201150E+02 0.  0.
         -6    2    1    2    0  502 -0.11490167027E+03  0.19038981963E+02  0.16844076185E+03  0.26676552839E+03  0.17095812418E+03 0.  0.
        -24    2    5    5    0    0 -0.21450637648E+02 -0.41985118954E+02  0.54443415304E+02  0.10715813066E+03  0.79346703954E+02 0.  0.
          5    1    3    3  501    0  0.42625303984E+02  0.56542310903E+02 -0.84987645947E+02  0.11072009495E+03  0.47000000000E+01 0. -1.
        -13    1    4    4    0    0 -0.12046405198E+02 -0.30339226968E+02 -0.17580042261E+02  0.37076171015E+02  0.00000000000E+00 0.  1.
         14    1    4    4    0    0  0.84322771481E+02 -0.45242065897E+02 -0.15870034023E+03  0.18531856979E+03  0.00000000000E+00 0. -1.
         -5    1    5    5    0  502 -0.93451032619E+02  0.61024100918E+02  0.11399734654E+03  0.15960739773E+03  0.47000000000E+01 0.  1.
         13    1    6    6    0    0 -0.41424806134E+01  0.15577163921E+02  0.43064832782E+02  0.45982474966E+02  0.00000000000E+00 0. -1.
        -14    1    6    6    0    0 -0.17308157034E+02 -0.57562282876E+02  0.11378582521E+02  0.61175655697E+02  0.00000000000E+00 0.  1.
</event>
<event>
12    1  0.8724767E-002  0.2023911E+03  0.7818608E-02  0.1148015E+00
         21   -1    0    0  503  502  0.00000000000E+00  0.00000000000E+00  0.20491138782E+03  0.20491138782E+03  0.00000000000E+00 0.  1.
         21   -1    0    0  501  503 -0.00000000000E+00 -0.00000000000E+00 -0.76164610442E+03  0.76164610442E+03  0.00000000000E+00 0.  1.
          6    2    1    2  501    0  0.73859628848E+02 -0.74564650199E+02 -0.69365242345E+03  0.72220400538E+03  0.17149288323E+03 0.  0.
         24    2    3    3    0    0  0.98217565069E+02 -0.77549744116E+02 -0.67558886448E+03  0.69137217110E+03  0.76905866242E+02 0.  0.
         -6    2    1    2    0  502 -0.73859628848E+02  0.74564650199E+02  0.13691770685E+03  0.24435348685E+03  0.17305212005E+03 0.  0.
        -24    2    5    5    0    0 -0.30580004462E+02  0.10102723832E+03  0.14144211751E+03  0.19320708180E+03  0.78622288812E+02 0.  0.
          5    1    3    3  501    0 -0.24357936220E+02  0.29850939171E+01 -0.18063558975E+02  0.30831834286E+02  0.47000000000E+01 0. -1.
        -11    1    4    4    0    0  0.99791463156E+02 -0.85706571595E+02 -0.55012909111E+03  0.56563766620E+03  0.00000000000E+00 0.  1.
         12    1    4    4    0    0 -0.15738980878E+01  0.81568274786E+01 -0.12545977337E+03  0.12573450490E+03  0.00000000000E+00 0. -1.
         -5    1    5    5    0  502 -0.43279624386E+02 -0.26462588124E+02 -0.45244106557E+01  0.51146405045E+02  0.47000000000E+01 0.  1.
         11    1    6    6    0    0  0.71897950110E+01 -0.77503537065E+01  0.34408880726E+02  0.35996280470E+02  0.00000000000E+00 0. -1.
        -12    1    6    6    0    0 -0.37769799473E+02  0.10877759203E+03  0.10703323678E+03  0.15721080133E+03  0.00000000000E+00 0.  1.
</event>
<event>
12    1  0.8724767E-002  0.1887219E+03  0.7818608E-02  0.1160003E+00
         21   -1    0    0  501  502  0.00000000000E+00  0.00000000000E+00  0.34210538716E+03  0.34210538716E+03  0.00000000000E+00 0.  1.
         21   -1    0    0  502  503 -0.00000000000E+00 -0.00000000000E+00 -0.11560364253E+03  0.11560364253E+03  0.00000000000E+00 0.  1.
         -6    2    1    2    0  503 -0.73666780745E+02 -0.92751711117E+01  0.38693428589E+02  0.19264772871E+03  0.17350257225E+03 0.  0.
        -24    2    3    3    0    0 -0.86057848903E+02 -0.24040209766E+02  0.81982387012E+02  0.14502873189E+03  0.79550840670E+02 0.  0.
          6    2    1    2  501    0  0.73666780745E+02  0.92751711117E+01  0.18780831604E+03  0.26506130098E+03  0.17167616700E+03 0.  0.
         24    2    5    5    0    0  0.27290766730E+02  0.54493617690E+02  0.16919340692E+03  0.19750356694E+03  0.81651146283E+02 0.  0.
          5    1    5    5  501    0  0.46376014015E+02 -0.45218446578E+02  0.18614909120E+02  0.67557734039E+02  0.47000000000E+01 0. -1.
        -11    1    6    6    0    0  0.51739670935E+02  0.49133805468E+02  0.14950352362E+03  0.16565756235E+03  0.00000000000E+00 0.  1.
         12    1    6    6    0    0 -0.24448904205E+02  0.53598122222E+01  0.19689883305E+02  0.31846004592E+02  0.00000000000E+00 0. -1.
         -5    1    3    3    0  503  0.12391068158E+02  0.14765038654E+02 -0.43288958423E+02  0.47618996817E+02  0.47000000000E+01 0.  1.
         13    1    4    4    0    0  0.86114320955E+01  0.84416018748E+01  0.29817588286E+02  0.32163736974E+02  0.00000000000E+00 0. -1.
        -14    1    4    4    0    0 -0.94669280998E+02 -0.32481811640E+02  0.52164798726E+02  0.11286499492E+03  0.00000000000E+00 0.  1.
</event>
<event>
12    1  0.8724767E-002  0.1970930E+03  0.7818608E-02  0.1152260E+00
         21   -1    0    0  503  502  0.00000000000E+00  0.00000000000E+00  0.22912159427E+03  0.22912159427E+03  0.00000000000E+00 0. -1.
         21   -1    0    0  501  503 -0.00000000000E+00 -0.00000000000E+00 -0.20842551013E+03  0.20842551013E+03  0.00000000000E+00 0. -1.
          6    2    1    2  501    0  0.95516066070E+02  0.23849700179E+02 -0.84361431568E+02  0.21438867983E+03  0.17074404186E+03 0.  0.
         24    2    3    3    0    0  0.26653321289E+02  0.22351713359E+02 -0.11086986446E+03  0.14043525802E+03  0.78866572294E+02 0.  0.
         -6    2    1    2    0  502 -0.95516066070E+02 -0.23849700179E+02  0.10505751571E+03  0.22315842457E+03  0.17050065623E+03 0.  0.
        -24    2    5    5    0    0  0.15824583406E+02 -0.39061627878E+01  0.30610733757E+02  0.87663412663E+02  0.80511995075E+02 0.  0.
          5    1    3    3  501    0  0.68862744781E+02  0.14979868198E+01  0.26508432890E+02  0.73953421811E+02  0.47000000000E+01 0. -1.
        -11    1    4    4    0    0 -0.24942942585E+02  0.18807808159E+02 -0.24234788846E+02  0.39537438245E+02  0.00000000000E+00 0.  1.
         12    1    4    4    0    0  0.51596263874E+02  0.35439052003E+01 -0.86635075612E+02  0.10089781978E+03  0.00000000000E+00 0. -1.
         -5    1    5    5    0  502 -0.11134064948E+03 -0.19943537391E+02  0.74446781949E+02  0.13549501191E+03  0.47000000000E+01 0.  1.
         11    1    6    6    0    0 -0.29066023973E+02 -0.15349113839E+02  0.24370687774E+02  0.40918937765E+02  0.00000000000E+00 0. -1.
        -12    1    6    6    0    0  0.44890607379E+02  0.11442951051E+02  0.62400459832E+01  0.46744474898E+02  0.00000000000E+00 0.  1.
</event>
<event>
12    1  0.8724767E-002  0.1776626E+03  0.7818608E-02  0.1170131E+00
         21   -1    0    0  501  502  0.00000000000E+00  0.00000000000E+00  0.37108924237E+03  0.37108924237E+03  0.00000000000E+00 0. -1.
         21   -1    0    0  502  503 -0.00000000000E+00 -0.00000000000E+00 -0.14110243414E+03  0.14110243414E+03  0.00000000000E+00 0. -1.
         -6    2    1    2    0  503 -0.43465968498E+02  0.10975883604E+02 -0.46500150457E+02  0.18364714259E+03  0.17191349148E+03 0.  0.
        -24    2    3    3    0    0  0.29865731462E+02 -0.18491541888E+02 -0.53032071872E+02  0.10420771043E+03  0.82540579292E+02 0.  0.
          6    2    1    2  501    0  0.43465968498E+02 -0.10975883604E+02  0.27648695869E+03  0.32854453391E+03  0.17171695315E+03 0.  0.
         24    2    5    5    0    0  0.76878232292E+02 -0.33382855355E+01  0.10268508437E+03  0.15133309581E+03  0.80225136866E+02 0.  0.
          5    1    5    5  501    0 -0.33412263794E+02 -0.76375980681E+01  0.17380187432E+03  0.17721143810E+03  0.47000000000E+01 0. -1.
        -11    1    6    6    0    0  0.37886618832E+01  0.23523693554E+02  0.18050091679E+01  0.23895107771E+02  0.00000000000E+00 0.  1.
         12    1    6    6    0    0  0.73089570409E+02 -0.26861979089E+02  0.10088007520E+03  0.12743798804E+03  0.00000000000E+00 0. -1.
         -5    1    3    3    0  503 -0.73331699960E+02  0.29467425491E+02  0.65319214149E+01  0.79439432157E+02  0.47000000000E+01 0.  1.
         11    1    4    4    0    0 -0.28441943406E+02 -0.68583081947E+01 -0.10417943749E+02  0.31056627119E+02  0.00000000000E+00 0. -1.
        -12    1    4    4    0    0  0.58307674868E+02 -0.11633233693E+02 -0.42614128123E+02  0.73151083316E+02  0.00000000000E+00 0.  1.
</event>
<event>
12    1  0.8724767E-002  0.1948677E+03  0.7818608E-02  0.1154370E+00
         21   -1    0    0  501  502  0.00000000000E+00  0.00000000000E+00  0.21261049964E+04  0.21261049964E+04  0.00000000000E+00 0.  1.
         21   -1    0    0  502  503 -0.00000000000E+00 -0.00000000000E+00 -0.19837494463E+02  0.19837494463E+02  0.00000000000E+00 0.  1.
         -6    2    1    2    0  503  0.59528932470E+02  0.54155638844E+02  0.70384236085E+03  0.73004358787E+03  0.17633219857E+03 0.  0.
        -24    2    3    3    0    0  0.67126956468E+02 -0.29897213758E+02  0.33792834292E+03  0.35449363046E+03  0.77912113376E+02 0.  0.
          6    2    1    2  501    0 -0.59528932470E+02 -0.54155638844E+02  0.14024251411E+04  0.14158989030E+04  0.17747366032E+03 0.  0.
         24    2    5    5    0    0 -0.50618110214E+02 -0.10394081554E+03  0.88609619687E+03  0.89707751252E+03  0.78839756094E+02 0.  0.
          5    1    5    5  501    0 -0.89108222558E+01  0.49785176699E+02  0.51632894421E+03  0.51882139046E+03  0.47000000000E+01 0. -1.
        -13    1    6    6    0    0 -0.33330024863E+02 -0.64493138674E+02  0.76708623744E+03  0.77051382283E+03  0.00000000000E+00 0.  1.
         14    1    6    6    0    0 -0.17288085351E+02 -0.39447676868E+02  0.11900995943E+03  0.12656368970E+03  0.00000000000E+00 0. -1.
         -5    1    3    3    0  503 -0.75980239983E+01  0.84052852602E+02  0.36591401792E+03  0.37554995741E+03  0.47000000000E+01 0.  1.
         11    1    4    4    0    0  0.12737650592E+02 -0.45975577918E+02  0.19433711909E+03  0.20010726464E+03  0.00000000000E+00 0. -1.
        -12    1    4    4    0    0  0.54389305876E+02  0.16078364160E+02  0.14359122383E+03  0.15438636581E+03  0.00000000000E+00 0.  1.
</event>
<event>
12    1  0.8724767E-002  0.2114795E+03  0.7818608E-02  0.1140578E+00
         21   -1    0    0  501  502  0.00000000000E+00  0.00000000000E+00  0.39409085639E+03  0.39409085639E+03  0.00000000000E+00 0.  1.
         21   -1    0    0  502  503 -0.00000000000E+00 -0.00000000000E+00 -0.15745790450E+03  0.15745790450E+03  0.00000000000E+00 0. -1.
         -6    2    1    2    0  503 -0.20402523084E+02  0.12345816683E+03 -0.28038091009E+02  0.21333005225E+03  0.17048576111E+03 0.  0.
        -24    2    3    3    0    0 -0.14512513529E+02  0.15227065868E+03  0.54878020381E+00  0.17204868714E+03  0.78762192988E+02 0.  0.
          6    2    1    2  501    0  0.20402523084E+02 -0.12345816683E+03  0.26467104289E+03  0.33821870864E+03  0.16936042048E+03 0.  0.
         24    2    5    5    0    0  0.61265438636E+02 -0.57598515865E+02  0.21962270889E+03  0.24844836895E+03  0.80133730549E+02 0.  0.
          5    1    5    5  501    0 -0.40862915552E+02 -0.65859650962E+02  0.45048334007E+02  0.89770339696E+02  0.47000000000E+01 0. -1.
        -13    1    6    6    0    0  0.90664989961E+01 -0.27092259842E+02  0.16342771159E+03  0.16590602420E+03  0.00000000000E+00 0.  1.
         14    1    6    6    0    0  0.52198939640E+02 -0.30506256023E+02  0.56194997292E+02  0.82542344750E+02  0.00000000000E+00 0. -1.
         -5    1    3    3    0  503 -0.58900095556E+01 -0.28812491852E+02 -0.28586871213E+02  0.41281365107E+02  0.47000000000E+01 0.  1.
         13    1    4    4    0    0 -0.41042359803E+02  0.61280932026E+02 -0.16926652699E+02  0.75672580898E+02  0.00000000000E+00 0. -1.
        -14    1    4    4    0    0  0.26529846274E+02  0.90989726654E+02  0.17475432902E+02  0.96376106246E+02  0.00000000000E+00 0.  1.
</event>
<event>
12    1  0.8724767E-002  0.1941946E+03  0.7818608E-02  0.1155200E+00
         21   -1    0    0  501  502  0.00000000000E+00  0.00000000000E+00  0.37055143544E+03  0.37055143544E+03  0.00000000000E+00 0.  1.
         21   -1    0    0  502  503 -0.00000000000E+00 -0.00000000000E+00 -0.10766940302E+03  0.10766940302E+03  0.00000000000E+00 0.  1.
         -6    2    1    2    0  503  0.83626874054E+02  0.27832481760E+02  0.71111412390E+02  0.20680512591E+03  0.17304168870E+03 0.  0.
        -24    2    3    3    0    0  0.50790450158E+01  0.34164170133E+02 -0.18125948148E+02  0.87661312645E+02  0.78504576422E+02 0.  0.
          6    2    1    2  501    0 -0.83626874054E+02 -0.27832481760E+02  0.19177062004E+03  0.27141571254E+03  0.17065291443E+03 0.  0.
         24    2    5    5    0    0 -0.35285375574E+02 -0.77212308247E+02  0.83382102582E+02  0.14278667828E+03  0.78921873965E+02 0.  0.
          5    1    5    5  501    0 -0.48341498480E+02  0.49379826487E+02  0.10838851745E+03  0.12862903426E+03  0.47000000000E+01 0. -1.
        -11    1    6    6    0    0 -0.48132963549E+02 -0.12949297143E+02  0.42844959630E+02  0.65727901550E+02  0.00000000000E+00 0.  1.
         12    1    6    6    0    0  0.12847587975E+02 -0.64263011104E+02  0.40537142952E+02  0.77058776734E+02  0.00000000000E+00 0. -1.
         -5    1    3    3    0  503  0.78547829038E+02 -0.63316883737E+01  0.89237360537E+02  0.11914381327E+03  0.47000000000E+01 0.  1.
         13    1    4    4    0    0 -0.30783596280E+02 -0.50347404389E+01  0.96217203783E+00  0.31207437995E+02  0.00000000000E+00 0. -1.
        -14    1    4    4    0    0  0.35862641296E+02  0.39198910572E+02 -0.19088120186E+02  0.56453874650E+02  0.00000000000E+00 0.  1.
</event>
<event>
12    1  0.8724767E-002  0.1900683E+03  0.7818608E-02  0.1159483E+00
         21   -1    0    0  503  502  0.00000000000E+00  0.00000000000E+00  0.59261576252E+03  0.59261576252E+03  0.00000000000E+00 0.  1.
         21   -1    0    0  501  503 -0.00000000000E+00 -0.00000000000E+00 -0.59702992626E+02  0.59702992626E+02  0.00000000000E+00 0.  1.
          6    2    1    2  501    0  0.20088680727E+02  0.76820262064E+02  0.24183358485E+03  0.30467949714E+03  0.16745508489E+03 0.  0.
         24    2    3    3    0    0 -0.36335005430E+02  0.10919617929E+02  0.17469029141E+03  0.19487585826E+03  0.77591439886E+02 0.  0.
         -6    2    1    2    0  502 -0.20088680727E+02 -0.76820262064E+02  0.29107918504E+03  0.34763925800E+03  0.17268773548E+03 0.  0.
        -24    2    5    5    0    0  0.18598513788E+02 -0.98455304669E+01  0.56491465305E+02  0.10058500902E+03  0.80518440136E+02 0.  0.
          5    1    3    3  501    0  0.56423686157E+02  0.65900644135E+02  0.67143293443E+02  0.10980363888E+03  0.47000000000E+01 0. -1.
        -13    1    4    4    0    0  0.54791446279E+01  0.30480841988E+02  0.30462717326E+02  0.43440532928E+02  0.00000000000E+00 0.  1.
         14    1    4    4    0    0 -0.41814150058E+02 -0.19561224059E+02  0.14422757408E+03  0.15143532533E+03  0.00000000000E+00 0. -1.
         -5    1    5    5    0  502 -0.38687194514E+02 -0.66974731597E+02  0.23458771973E+03  0.24705424898E+03  0.47000000000E+01 0.  1.
         13    1    6    6    0    0 -0.17666158811E+02  0.24904943818E+02  0.33557115853E+02  0.45369917545E+02  0.00000000000E+00 0. -1.
        -14    1    6    6    0    0  0.36264672599E+02 -0.34750474285E+02  0.22934349452E+02  0.55215091474E+02  0.00000000000E+00 0.  1.
</event>
<event>
12    1  0.8724767E-002  0.1894023E+03  0.7818608E-02  0.1159006E+00
         21   -1    0    0  503  502  0.00000000000E+00  0.00000000000E+00  0.12390004198E+04  0.12390004198E+04  0.00000000000E+00 0. -1.
         21   -1    0    0  501  503 -0.00000000000E+00 -0.00000000000E+00 -0.39314755439E+02  0.39314755439E+02  0.00000000000E+00 0. -1.
          6    2    1    2  501    0 -0.54131553580E+02  0.58668658448E+02  0.27164062649E+03  0.33113999589E+03  0.17173476742E+03 0.  0.
         24    2    3    3    0    0 -0.82925944420E+02  0.89773375915E+02  0.22326043494E+03  0.26664694722E+03  0.79494662520E+02 0.  0.
         -6    2    1    2    0  502  0.54131553580E+02 -0.58668658448E+02  0.92804503785E+03  0.94717517933E+03  0.17175852666E+03 0.  0.
        -24    2    5    5    0    0  0.29674654994E+02 -0.36370204350E+01  0.19505373929E+03  0.21169917372E+03  0.76660067007E+02 0.  0.
          5    1    3    3  501    0  0.28794390840E+02 -0.31104717468E+02  0.48380191551E+02  0.64493048673E+02  0.47000000000E+01 0. -1.
        -13    1    4    4    0    0 -0.47579054540E+02  0.41508696090E+02  0.18538192154E+03  0.19583971792E+03  0.00000000000E+00 0.  1.
         14    1    4    4    0    0 -0.35346889881E+02  0.48264679825E+02  0.37878513399E+02  0.70807229293E+02  0.00000000000E+00 0. -1.
         -5    1    5    5    0  502  0.24456898587E+02 -0.55031638013E+02  0.73299129856E+03  0.73547600562E+03  0.47000000000E+01 0.  1.
         13    1    6    6    0    0 -0.22171946457E+02 -0.77179298027E+00  0.22897178126E+02  0.31882152378E+02  0.00000000000E+00 0. -1.
        -14    1    6    6    0    0  0.51846601451E+02 -0.28652274547E+01  0.17215656117E+03  0.17981702134E+03  0.00000000000E+00 0.  1.
</event>
<event>
12    1  0.8724767E-002  0.1915960E+03  0.7818608E-02  0.1158074E+00
         21   -1    0    0  503  502  0.00000000000E+00  0.00000000000E+00  0.88021870764E+03  0.88021870764E+03  0.00000000000E+00 0. -1.
         21   -1    0    0  501  503 -0.00000000000E+00 -0.00000000000E+00 -0.56584185395E+02  0.56584185395E+02  0.00000000000E+00 0. -1.
          6    2    1    2  501    0 -0.29867964855E+02  0.66883491480E+02  0.16730896170E+03  0.25436456266E+03  0.17704108369E+03 0.  0.
         24    2    3    3    0    0  0.51912538023E+02  0.46897218644E+02  0.97355343047E+02  0.14480590022E+03  0.81218379679E+02 0.  0.
         -6    2    1    2    0  502  0.29867964855E+02 -0.66883491480E+02  0.65632556055E+03  0.68243833038E+03  0.17202713910E+03 0.  0.
        -24    2    5    5    0    0  0.54817049315E+02 -0.32402305280E+02  0.61265889258E+03  0.62128052705E+03  0.81140349687E+02 0.  0.
          5    1    3    3  501    0 -0.81780502878E+02  0.19986272836E+02  0.69953618656E+02  0.10955866244E+03  0.47000000000E+01 0. -1.
        -13    1    4    4    0    0  0.29880596423E+02  0.69166373743E+02  0.75087278871E+02  0.10637169148E+03  0.00000000000E+00 0.  1.
         14    1    4    4    0    0  0.22031941599E+02 -0.22269155099E+02  0.22268064176E+02  0.38434208742E+02  0.00000000000E+00 0. -1.
         -5    1    5    5    0  502 -0.24949084460E+02 -0.34481186200E+02  0.43666667964E+02  0.61157803331E+02  0.47000000000E+01 0.  1.
         13    1    6    6    0    0  0.68720927201E+02 -0.12926111015E+02  0.31532850179E+03  0.32298872151E+03  0.00000000000E+00 0. -1.
        -14    1    6    6    0    0 -0.13903877886E+02 -0.19476194265E+02  0.29733039079E+03  0.29829180554E+03  0.00000000000E+00 0.  1.
</event>
<event>
12    1  0.8724767E-002  0.2144062E+03  0.7818608E-02  0.1138767E+00
         21   -1    0    0  501  502  0.00000000000E+00  0.00000000000E+00  0.11956852329E+03  0.11956852329E+03  0.00000000000E+00 0.  1.
         21   -1    0    0  502  503 -0.00000000000E+00 -0.00000000000E+00 -0.84321358351E+03  0.84321358351E+03  0.00000000000E+00 0. -1.
         -6    2    1    2    0  503  0.61860229469E+02 -0.11125544742E+03 -0.72043383189E+03  0.75166144891E+03  0.17252699813E+03 0.  0.
        -24    2    3    3    0    0  0.85548090487E+02 -0.29840977546E+02 -0.52546397135E+03  0.53900029312E+03  0.78739895044E+02 0.  0.
          6    2    1    2  501    0 -0.61860229469E+02  0.11125544742E+03 -0.32112283279E+01  0.21112065788E+03  0.16839583613E+03 0.  0.
         24    2    5    5    0    0 -0.46030358001E+02  0.24253433500E+02  0.50071430423E+02  0.10777141028E+03  0.80003161402E+02 0.  0.
          5    1    5    5  501    0 -0.15829871468E+02  0.87002013919E+02 -0.53282658751E+02  0.10334924760E+03  0.47000000000E+01 0. -1.
        -13    1    6    6    0    0  0.32828919948E+01 -0.20424453308E+02 -0.51294322483E+01  0.21313065194E+02  0.00000000000E+00 0.  1.
         14    1    6    6    0    0 -0.49313249996E+02  0.44677886808E+02  0.55200862671E+02  0.86458345083E+02  0.00000000000E+00 0. -1.
         -5    1    3    3    0  503 -0.23687861018E+02 -0.81414469873E+02 -0.19496986054E+03  0.21266115579E+03  0.47000000000E+01 0.  1.
         13    1    4    4    0    0  0.69972233510E+02 -0.41613223148E+02 -0.50161627484E+03  0.50817975263E+03  0.00000000000E+00 0. -1.
        -14    1    4    4    0    0  0.15575856978E+02  0.11772245602E+02 -0.23847696510E+02  0.30820540487E+02  0.00000000000E+00 0.  1.
</event>
<event>
12    1  0.8724767E-002  0.2085457E+03  0.7818608E-02  0.1142922E+00
         21   -1    0    0  503  502  0.00000000000E+00  0.00000000000E+00  0.26209462616E+03  0.26209462616E+03  0.00000000000E+00 0.  1.
         21   -1    0    0  501  503 -0.00000000000E+00 -0.00000000000E+00 -0.16514879663E+03  0.16514879663E+03  0.00000000000E+00 0. -1.
          6    2    1    2  501    0 -0.25523139198E+02 -0.11290413554E+03  0.47603126698E+02  0.21390973290E+03  0.17347201994E+03 0.  0.
         24    2    3    3    0    0 -0.19212306571E+02 -0.14061302805E+03  0.74763398174E+01  0.16451481050E+03  0.82873945466E+02 0.  0.
         -6    2    1    2    0  502  0.25523139198E+02  0.11290413554E+03  0.49342702827E+02  0.21333368990E+03  0.17227241935E+03 0.  0.
        -24    2    5    5    0    0 -0.24532240983E+02  0.12524403502E+03  0.15202727701E+02  0.15132206110E+03  0.79870796235E+02 0.  0.
          5    1    3    3  501    0 -0.63108326268E+01  0.27708892514E+02  0.40126786881E+02  0.49394922392E+02  0.47000000000E+01 0. -1.
        -11    1    4    4    0    0  0.26228107181E+02 -0.19363112929E+02 -0.94128773904E+01  0.33932963463E+02  0.00000000000E+00 0.  1.
         12    1    4    4    0    0 -0.45440413752E+02 -0.12124991512E+03  0.16889217208E+02  0.13058184704E+03  0.00000000000E+00 0. -1.
         -5    1    5    5    0  502  0.50055380181E+02 -0.12339899482E+02  0.34139975126E+02  0.62011628795E+02  0.47000000000E+01 0.  1.
         13    1    6    6    0    0  0.13723066796E+02  0.73839657186E+02 -0.20657172882E+02  0.77893108342E+02  0.00000000000E+00 0. -1.
        -14    1    6    6    0    0 -0.38255307779E+02  0.51404377832E+02  0.35859900584E+02  0.73428952760E+02  0.00000000000E+00 0.  1.
</event>
<event>
12    1  0.8724767E-002  0.2756571E+03  0.7818608E-02  0.1098251E+00
         21   -1    0    0  503  502  0.00000000000E+00  0.00000000000E+00  0.11932194792E+03  0.11932194792E+03  0.00000000000E+00 0. -1.
         21   -1    0    0  501  503 -0.00000000000E+00 -0.00000000000E+00 -0.12492891861E+04  0.12492891861E+04  0.00000000000E+00 0. -1.
          6    2    1    2  501    0  0.18544062997E+03 -0.10696123581E+03 -0.10458157507E+04  0.10815347441E+04  0.17366025770E+03 0.  0.
         24    2    3    3    0    0  0.10218957965E+03  0.95607729235E+01 -0.42827320797E+03  0.44758758703E+03  0.79891106056E+02 0.  0.
         -6    2    1    2    0  502 -0.18544062997E+03  0.10696123581E+03 -0.84151487414E+02  0.28707638984E+03  0.17176276535E+03 0.  0.
        -24    2    5    5    0    0 -0.14156855699E+03  0.26221316994E+02 -0.10386218212E+03  0.19297912759E+03  0.75659612846E+02 0.  0.
          5    1    3    3  501    0  0.83251050320E+02 -0.11652200874E+03 -0.61754254275E+03  0.63394715711E+03  0.47000000000E+01 0. -1.
        -11    1    4    4    0    0 -0.19029435023E+01 -0.20934287647E+02 -0.86377871495E+02  0.88898831698E+02  0.00000000000E+00 0.  1.
         12    1    4    4    0    0  0.10409252315E+03  0.30495060571E+02 -0.34189533648E+03  0.35868875533E+03  0.00000000000E+00 0. -1.
         -5    1    5    5    0  502 -0.43872072978E+02  0.80739918819E+02  0.19710694709E+02  0.94097262257E+02  0.47000000000E+01 0.  1.
         11    1    6    6    0    0 -0.89925327694E+02  0.50392737368E+02 -0.82708875599E+02  0.13216183505E+03  0.00000000000E+00 0. -1.
        -12    1    6    6    0    0 -0.51643229296E+02 -0.24171420374E+02 -0.21153306523E+02  0.60817292540E+02  0.00000000000E+00 0.  1.
</event>
<event>
12    1  0.8724767E-002  0.4928630E+03  0.7818608E-02  0.1015681E+00
         21   -1    0    0  501  502  0.00000000000E+00  0.00000000000E+00  0.11157411383E+04  0.11157411383E+04  0.00000000000E+00 0. -1.
         21   -1    0    0  502  503 -0.00000000000E+00 -0.00000000000E+00 -0.22957257852E+03  0.22957257852E+03  0.00000000000E+00 0.  1.
         -6    2    1    2    0  503  0.30868760685E+03  0.34346130067E+03  0.28940561817E+03  0.57155013035E+03  0.17222147368E+03 0.  0.
        -24    2    3    3    0    0  0.10406485598E+03  0.14280141060E+03  0.18339649457E+03  0.26594436152E+03  0.76618483969E+02 0.  0.
          6    2    1    2  501    0 -0.30868760685E+03 -0.34346130067E+03  0.59676294165E+03  0.77376358651E+03  0.17126113279E+03 0.  0.
         24    2    5    5    0    0 -0.11171079103E+03 -0.94672092971E+02  0.27523615812E+03  0.32199207527E+03  0.80509923510E+02 0.  0.
          5    1    5    5  501    0 -0.19697681581E+03 -0.24878920770E+03  0.32152678353E+03  0.45177151124E+03  0.47000000000E+01 0. -1.
        -13    1    6    6    0    0 -0.10319133517E+03 -0.91021883819E+02  0.18131624868E+03  0.22761594193E+03  0.00000000000E+00 0.  1.
         14    1    6    6    0    0 -0.85194558638E+01 -0.36502091524E+01  0.93919909440E+02  0.94376133340E+02  0.00000000000E+00 0. -1.
         -5    1    3    3    0  503  0.20462275086E+03  0.20065989007E+03  0.10600912360E+03  0.30560576883E+03  0.47000000000E+01 0.  1.
         11    1    4    4    0    0  0.97765781054E+02  0.14136440834E+03  0.19034040360E+03  0.25645957407E+03  0.00000000000E+00 0. -1.
        -12    1    4    4    0    0  0.62990749283E+01  0.14370022673E+01 -0.69439090301E+01  0.94847874561E+01  0.00000000000E+00 0.  1.
</event>
<event>
12    1  0.8724767E-002  0.2318671E+03  0.7818608E-02  0.1125449E+00
         21   -1    0    0  501  502  0.00000000000E+00  0.00000000000E+00  0.47703788061E+02  0.47703788061E+02  0.00000000000E+00 0. -1.
         21   -1    0    0  502  503 -0.00000000000E+00 -0.00000000000E+00 -0.13699192538E+04  0.13699192538E+04  0.00000000000E+00 0.  1.
         -6    2    1    2    0  503  0.78120321628E+02  0.13304433726E+03 -0.36142197827E+03  0.42940444474E+03  0.17308596263E+03 0.  0.
        -24    2    3    3    0    0  0.88836304372E+02  0.23558614716E+02 -0.20027686641E+03  0.23423325629E+03  0.79419757169E+02 0.  0.
          6    2    1    2  501    0 -0.78120321628E+02 -0.13304433726E+03 -0.96079348751E+03  0.98821859716E+03  0.17218678753E+03 0.  0.
         24    2    5    5    0    0  0.57605594132E+01 -0.99826125317E+02 -0.71609107803E+03  0.72737226114E+03  0.79281365417E+02 0.  0.
          5    1    5    5  501    0 -0.83880881041E+02 -0.33218211946E+02 -0.24470240948E+03  0.26084633602E+03  0.47000000000E+01 0. -1.
        -11    1    6    6    0    0  0.14331282613E+02 -0.11179070984E+03 -0.62002520158E+03  0.63018552749E+03  0.00000000000E+00 0.  1.
         12    1    6    6    0    0 -0.85707231999E+01  0.11964584522E+02 -0.96065876454E+02  0.97186733652E+02  0.00000000000E+00 0. -1.
         -5    1    3    3    0  503 -0.10715982744E+02  0.10948572255E+03 -0.16114511186E+03  0.19517118846E+03  0.47000000000E+01 0.  1.
         11    1    4    4    0    0  0.27662167765E+02 -0.27675506358E+02 -0.89780378398E+02  0.97936946669E+02  0.00000000000E+00 0. -1.
        -12    1    4    4    0    0  0.61174136607E+02  0.51234121073E+02 -0.11049648801E+03  0.13629630962E+03  0.00000000000E+00 0.  1.
</event>
<event>
12    1  0.8724767E-002  0.1807831E+03  0.7818608E-02  0.1167278E+00
         21   -1    0    0  501  502  0.00000000000E+00  0.00000000000E+00  0.10500477049E+03  0.10500477049E+03  0.00000000000E+00 0.  1.
         21   -1    0    0  502  503 -0.00000000000E+00 -0.00000000000E+00 -0.33785615352E+03  0.33785615352E+03  0.00000000000E+00 0.  1.
         -6    2    1    2    0  503  0.50860825084E+02 -0.17504952478E+02 -0.18017427030E+03  0.25455951651E+03  0.17159409337E+03 0.  0.
        -24    2    3    3    0    0 -0.10097567816E+02 -0.58954695746E+02 -0.65531997111E+02  0.11818155757E+03  0.78069333794E+02 0.  0.
          6    2    1    2  501    0 -0.50860825084E+02  0.17504952478E+02 -0.52677112732E+02  0.18830140749E+03  0.17259575594E+03 0.  0.
         24    2    5    5    0    0 -0.63979217870E+02 -0.17781631308E+02 -0.83153727427E+02  0.13963777356E+03  0.90413708516E+02 0.  0.
          5    1    5    5  501    0  0.13118392786E+02  0.35286583786E+02  0.30476614694E+02  0.48663633935E+02  0.47000000000E+01 0. -1.
        -13    1    6    6    0    0 -0.36548509791E+02  0.20129025774E+02  0.27504901440E+01  0.41815504811E+02  0.00000000000E+00 0.  1.
         14    1    6    6    0    0 -0.27430708079E+02 -0.37910657082E+02 -0.85904217571E+02  0.97822268746E+02  0.00000000000E+00 0. -1.
         -5    1    3    3    0  503  0.60958392900E+02  0.41449743268E+02 -0.11464227319E+03  0.13637795894E+03  0.47000000000E+01 0.  1.
         11    1    4    4    0    0  0.15033820452E+02 -0.49740343053E+01  0.12395033116E+02  0.20109540537E+02  0.00000000000E+00 0. -1.
        -12    1    4    4    0    0 -0.25131388268E+02 -0.53980661441E+02 -0.77927030227E+02  0.98072017038E+02  0.00000000000E+00 0.  1.
</event>
<event>
12    1  0.8724767E-002  0.2047437E+03  0.7818608E-02  0.1146091E+00
         21   -1    0    0  501  502  0.00000000000E+00  0.00000000000E+00  0.39738268848E+03  0.39738268848E+03  0.00000000000E+00 0.  1.
         21   -1    0    0  502  503 -0.00000000000E+00 -0.00000000000E+00 -0.31361203048E+03  0.31361203048E+03  0.00000000000E+00 0.  1.
         -6    2    1    2    0  503  0.51175861330E+02 -0.99119820666E+02 -0.24817706035E+03  0.32173255072E+03  0.17168655532E+03 0.  0.
        -24    2    3    3    0    0  0.26627081643E+02 -0.24423761401E+02 -0.35218799370E+02  0.94674287771E+02  0.80108272595E+02 0.  0.
          6    2    1    2  501    0 -0.51175861330E+02  0.99119820666E+02  0.33194771835E+03  0.38926216825E+03  0.16997658745E+03 0.  0.
         24    2    5    5    0    0 -0.18759861593E+02 -0.23975664092E+02  0.12215456569E+03  0.14382673415E+03  0.69553049267E+02 0.  0.
          5    1    5    5  501    0 -0.32415999737E+02  0.12309548476E+03  0.20979315266E+03  0.24543543410E+03  0.47000000000E+01 0. -1.
        -13    1    6    6    0    0 -0.21324637081E+02  0.20162675753E+02  0.66949398982E+02  0.73099217945E+02  0.00000000000E+00 0.  1.
         14    1    6    6    0    0  0.25647754875E+01 -0.44138339845E+02  0.55205166705E+02  0.70727516205E+02  0.00000000000E+00 0. -1.
         -5    1    3    3    0  503  0.24548779687E+02 -0.74696059264E+02 -0.21295826098E+03  0.22705826295E+03  0.47000000000E+01 0.  1.
         13    1    4    4    0    0  0.10753963239E+02 -0.52661947197E+02 -0.30889294282E+02  0.61992555272E+02  0.00000000000E+00 0. -1.
        -14    1    4    4    0    0  0.15873118404E+02  0.28238185795E+02 -0.43295050881E+01  0.32681732499E+02  0.00000000000E+00 0.  1.
</event>
<event>
12    1  0.8724767E-002  0.2504525E+03  0.7818608E-02  0.1113152E+00
         21   -1    0    0  501  502  0.00000000000E+00  0.00000000000E+00  0.58185663271E+03  0.58185663271E+03  0.00000000000E+00 0. -1.
         21   -1    0    0  502  503 -0.00000000000E+00 -0.00000000000E+00 -0.11786319834E+03  0.11786319834E+03  0.00000000000E+00 0. -1.
         -6    2    1    2    0  503  0.14994968928E+03 -0.96631210687E+02  0.33638131025E+03  0.41937913440E+03  0.17579525674E+03 0.  0.
        -24    2    3    3    0    0  0.85012226434E+02 -0.27076416859E+02  0.76988900369E+02  0.14304372999E+03  0.81080249860E+02 0.  0.
          6    2    1    2  501    0 -0.14994968928E+03  0.96631210687E+02  0.12761212412E+03  0.28034069666E+03  0.17459539452E+03 0.  0.
         24    2    5    5    0    0  0.23900938144E+02  0.21062973921E+02  0.33343573455E+02  0.68578450949E+02  0.50757327837E+02 0.  0.
          5    1    5    5  501    0 -0.17385062742E+03  0.75568236766E+02  0.94268550664E+02  0.21176224571E+03  0.47000000000E+01 0. -1.
        -13    1    6    6    0    0 -0.12106410684E+02 -0.16134501717E+01 -0.30463013592E+01  0.12587626984E+02  0.00000000000E+00 0.  1.
         14    1    6    6    0    0  0.36007348829E+02  0.22676424093E+02  0.36389874814E+02  0.55990823965E+02  0.00000000000E+00 0. -1.
         -5    1    3    3    0  503  0.64937462845E+02 -0.69554793828E+02  0.25939240988E+03  0.27633540441E+03  0.47000000000E+01 0.  1.
         11    1    4    4    0    0  0.90628890181E+02  0.13853498184E+01  0.50495141438E+02  0.10375583954E+03  0.00000000000E+00 0. -1.
        -12    1    4    4    0    0 -0.56166637477E+01 -0.28461766677E+02  0.26493758932E+02  0.39287890455E+02  0.00000000000E+00 0.  1.
</event>
<event>
12    1  0.8724767E-002  0.1767618E+03  0.7818608E-02  0.1171077E+00
         21   -1    0    0  501  502  0.00000000000E+00  0.00000000000E+00  0.13840770340E+03  0.13840770340E+03  0.00000000000E+00 0.  1.
         21   -1    0    0  502  503 -0.00000000000E+00 -0.00000000000E+00 -0.23075830146E+03  0.23075830146E+03  0.00000000000E+00 0.  1.
         -6    2    1    2    0  503  0.25176440556E+02  0.29624260740E+02 -0.74831541777E+02  0.19194923262E+03  0.17243346043E+03 0.  0.
        -24    2    3    3    0    0 -0.91022573396E+01  0.34076598276E+02 -0.11167421952E+03  0.14121142283E+03  0.78901641255E+02 0.  0.
          6    2    1    2  501    0 -0.25176440556E+02 -0.29624260740E+02 -0.17519056283E+02  0.17721677225E+03  0.17200993300E+03 0.  0.
         24    2    5    5    0    0 -0.68125352195E+02 -0.57572879708E+02 -0.51339817439E+01  0.12429027242E+03  0.86406099088E+02 0.  0.
          5    1    5    5  501    0  0.42948911639E+02  0.27948618968E+02 -0.12385074539E+02  0.52926499832E+02  0.47000000000E+01 0. -1.
        -11    1    6    6    0    0  0.66049930939E+01 -0.28285485603E+02  0.25230506815E+02  0.38474317456E+02  0.00000000000E+00 0.  1.
         12    1    6    6    0    0 -0.74730345289E+02 -0.29287394105E+02 -0.30364488559E+02  0.85815954961E+02  0.00000000000E+00 0. -1.
         -5    1    3    3    0  503  0.34278697896E+02 -0.44523375358E+01  0.36842677744E+02  0.50737809791E+02  0.47000000000E+01 0.  1.
         11    1    4    4    0    0  0.19615172350E+02  0.16651858739E+02 -0.12161552590E+01  0.25758851283E+02  0.00000000000E+00 0. -1.
        -12    1    4    4    0    0 -0.28717429690E+02  0.17424739537E+02 -0.11045806426E+03  0.11545257155E+03  0.00000000000E+00 0.  1.
</event>
<event>
12    1  0.8724767E-002  0.2349052E+03  0.7818608E-02  0.1124118E+00
         21   -1    0    0  503  502  0.00000000000E+00  0.00000000000E+00  0.61236886988E+03  0.61236886988E+03  0.00000000000E+00 0.  1.
         21   -1    0    0  501  503 -0.00000000000E+00 -0.00000000000E+00 -0.26453586072E+03  0.26453586072E+03  0.00000000000E+00 0.  1.
          6    2    1    2  501    0  0.14952943685E+03 -0.57564187500E+02 -0.18472236607E+03  0.29484316959E+03  0.16473449535E+03 0.  0.
         24    2    3    3    0    0  0.15906169366E+03 -0.74376144345E+02 -0.12429853223E+03  0.23122999871E+03  0.84762927934E+02 0.  0.
         -6    2    1    2    0  502 -0.14952943685E+03  0.57564187500E+02  0.53255537522E+03  0.58206156101E+03  0.17177818535E+03 0.  0.
        -24    2    5    5    0    0 -0.75027706282E+01 -0.34478910112E+01  0.19979260598E+03  0.21511851606E+03  0.79314002732E+02 0.  0.
          5    1    3    3  501    0 -0.95322568096E+01  0.16811956845E+02 -0.60423833841E+02  0.63613170875E+02  0.47000000000E+01 0. -1.
        -11    1    4    4    0    0  0.10552933739E+03 -0.39931738197E+01 -0.78936401337E+02  0.13184590226E+03  0.00000000000E+00 0.  1.
         12    1    4    4    0    0  0.53532356267E+02 -0.70382970525E+02 -0.45362130890E+02  0.99384096446E+02  0.00000000000E+00 0. -1.
         -5    1    5    5    0  502 -0.14202666622E+03  0.61012078511E+02  0.33276276925E+03  0.36694304495E+03  0.47000000000E+01 0.  1.
         11    1    6    6    0    0 -0.92803992000E+00 -0.39087492475E+02  0.68054125356E+02  0.78486032541E+02  0.00000000000E+00 0. -1.
        -12    1    6    6    0    0 -0.65747307083E+01  0.35639601463E+02  0.13173848062E+03  0.13663248352E+03  0.00000000000E+00 0.  1.
</event>
<event>
12    1  0.8724767E-002  0.1896550E+03  0.7818608E-02  0.1158845E+00
         21   -1    0    0  501  502  0.00000000000E+00  0.00000000000E+00  0.15122404638E+03  0.15122404638E+03  0.00000000000E+00 0. -1.
         21   -1    0    0  502  503 -0.00000000000E+00 -0.00000000000E+00 -0.48646183217E+03  0.48646183217E+03  0.00000000000E+00 0.  1.
         -6    2    1    2    0  503  0.76244317460E+02 -0.24153841698E+02 -0.39566837283E+03  0.43863599339E+03  0.17161430425E+03 0.  0.
        -24    2    3    3    0    0  0.87992364234E+02 -0.32956258991E+02 -0.15386247842E+03  0.19633931630E+03  0.77760489267E+02 0.  0.
          6    2    1    2  501    0 -0.76244317460E+02  0.24153841698E+02  0.60430587044E+02  0.19904988516E+03  0.17196626680E+03 0.  0.
         24    2    5    5    0    0 -0.12109197391E+02  0.38101379665E+02 -0.22033013262E+02  0.93550203564E+02  0.81656837555E+02 0.  0.
          5    1    5    5  501    0 -0.64135120068E+02 -0.13947537967E+02  0.82463600306E+02  0.10549968160E+03  0.47000000000E+01 0. -1.
        -13    1    6    6    0    0  0.16885221566E+02 -0.12383462981E+02  0.13902222954E+02  0.25134292625E+02  0.00000000000E+00 0.  1.
         14    1    6    6    0    0 -0.28994418957E+02  0.50484842646E+02 -0.35935236216E+02  0.68415910938E+02  0.00000000000E+00 0. -1.
         -5    1    3    3    0  503 -0.11748046775E+02  0.88024172928E+01 -0.24180589441E+03  0.24229667709E+03  0.47000000000E+01 0.  1.
         11    1    4    4    0    0  0.27209887593E+02 -0.42052523216E+02 -0.30844585023E+02  0.58823304200E+02  0.00000000000E+00 0. -1.
        -12    1    4    4    0    0  0.60782476641E+02  0.90962642255E+01 -0.12301789339E+03  0.13751601210E+03  0.00000000000E+00 0.  1.
</event>
<event>
12    1  0.8724767E-002  0.1802842E+03  0.7818608E-02  0.1167572E+00
         21   -1    0    0  501  502  0.00000000000E+00  0.00000000000E+00  0.11364101008E+03  0.11364101008E+03  0.00000000000E+00 0. -1.
         21   -1    0    0  502  503 -0.00000000000E+00 -0.00000000000E+00 -0.10448835361E+04  0.10448835361E+04  0.00000000000E+00 0. -1.
         -6    2    1    2    0  503  0.56323904654E+01 -0.53638686719E+02 -0.95943527196E+03  0.97622663834E+03  0.17202783436E+03 0.  0.
        -24    2    3    3    0    0 -0.38625764982E+01  0.36242950106E+02 -0.54908781957E+03  0.55601718495E+03  0.79556303535E+02 0.  0.
          6    2    1    2  501    0 -0.56323904654E+01  0.53638686719E+02  0.28192745956E+02  0.18229790783E+03  0.17183964542E+03 0.  0.
         24    2    5    5    0    0  0.55974585440E+02  0.50500313839E+02 -0.36777089957E+01  0.11270563266E+03  0.83699451467E+02 0.  0.
          5    1    5    5  501    0 -0.61606975905E+02  0.31383728807E+01  0.31870454952E+02  0.69592275170E+02  0.47000000000E+01 0. -1.
        -11    1    6    6    0    0  0.29578774070E+02 -0.11235384666E+02 -0.27034299670E+02  0.41617197199E+02  0.00000000000E+00 0.  1.
         12    1    6    6    0    0  0.26395811370E+02  0.61735698505E+02  0.23356590674E+02  0.71088435456E+02  0.00000000000E+00 0. -1.
         -5    1    3    3    0  503  0.94949669637E+01 -0.89881636825E+02 -0.41034745239E+03  0.42020945339E+03  0.47000000000E+01 0.  1.
         11    1    4    4    0    0  0.24285638032E+02 -0.11277525279E+02 -0.28261753016E+03  0.28388315052E+03  0.00000000000E+00 0. -1.
        -12    1    4    4    0    0 -0.28148214530E+02  0.47520475385E+02 -0.26647028940E+03  0.27213403443E+03  0.00000000000E+00 0.  1.
</event>
<event>
12    1  0.8724767E-002  0.3284130E+03  0.7818608E-02  0.1071854E+00
         21   -1    0    0  501  502  0.00000000000E+00  0.00000000000E+00  0.14616361289E+04  0.14616361289E+04  0.00000000000E+00 0.  1.
         21   -1    0    0  502  503 -0.00000000000E+00 -0.00000000000E+00 -0.93225078547E+02  0.93225078547E+02  0.00000000000E+00 0. -1.
         -6    2    1    2    0  503 -0.23826461586E+03 -0.14627192978E+03  0.32909943127E+03  0.46493176579E+03  0.17230672235E+03 0.  0.
        -24    2    3    3    0    0 -0.24121224295E+03 -0.16284197410E+03  0.33051542657E+03  0.44740036777E+03  0.78903657717E+02 0.  0.
          6    2    1    2  501    0  0.23826461586E+03  0.14627192978E+03  0.10393116191E+04  0.10899294417E+04  0.17208149701E+03 0.  0.
         24    2    5    5    0    0  0.72602391983E+02  0.23268696449E+01  0.38607891307E+03  0.40080012798E+03  0.79418472850E+02 0.  0.
          5    1    5    5  501    0  0.16566222388E+03  0.14394506014E+03  0.65323270603E+03  0.68912931369E+03  0.47000000000E+01 0. -1.
        -11    1    6    6    0    0  0.72079260785E+02 -0.20224652025E+02  0.20350669558E+03  0.21683964474E+03  0.00000000000E+00 0.  1.
         12    1    6    6    0    0  0.52313119742E+00  0.22551521670E+02  0.18257221749E+03  0.18396048324E+03  0.00000000000E+00 0. -1.
         -5    1    3    3    0  503  0.29476270853E+01  0.16570044319E+02 -0.14159952933E+01  0.17531398028E+02  0.47000000000E+01 0.  1.
         11    1    4    4    0    0 -0.21963245371E+02 -0.43024243720E+01  0.29993503710E+01  0.22580768484E+02  0.00000000000E+00 0. -1.
        -12    1    4    4    0    0 -0.21924899758E+03 -0.15853954973E+03  0.32751607620E+03  0.42481959928E+03  0.00000000000E+00 0.  1.
</event>
<event>
12    1  0.8724767E-002  0.2165609E+03  0.7818608E-02  0.1136853E+00
         21   -1    0    0  503  502  0.00000000000E+00  0.00000000000E+00  0.52762192179E+03  0.52762192179E+03  0.00000000000E+00 0.  1.
         21   -1    0    0  501  503 -0.00000000000E+00 -0.00000000000E+00 -0.89796522155E+02  0.89796522155E+02  0.00000000000E+00 0.  1.
          6    2    1    2  501    0 -0.12553830334E+03  0.27138131738E+02  0.17514959212E+03  0.27698168442E+03  0.17188696893E+03 0.  0.
         24    2    3    3    0    0 -0.69572244380E+02 -0.27023482713E+02  0.30826912325E+02  0.11291826334E+03  0.78928257714E+02 0.  0.
         -6    2    1    2    0  502  0.12553830334E+03 -0.27138131738E+02  0.26267580752E+03  0.34043675953E+03  0.17436244889E+03 0.  0.
        -24    2    5    5    0    0  0.48737268282E+01  0.47596475968E+01  0.57456972815E+02  0.10019881817E+03  0.81805207530E+02 0.  0.
          5    1    3    3  501    0 -0.55966058956E+02  0.54161614452E+02  0.14432267979E+03  0.16406342108E+03  0.47000000000E+01 0. -1.
        -11    1    4    4    0    0 -0.64507923989E+02  0.13831300249E+02  0.27949977351E+02  0.71650389795E+02  0.00000000000E+00 0.  1.
         12    1    4    4    0    0 -0.50643203909E+01 -0.40854782962E+02  0.28769349746E+01  0.41267873543E+02  0.00000000000E+00 0. -1.
         -5    1    5    5    0  502  0.12066457651E+03 -0.31897779335E+02  0.20521883470E+03  0.24023794136E+03  0.47000000000E+01 0.  1.
         11    1    6    6    0    0 -0.36577574505E+02 -0.95915833923E+01  0.31601259842E+02  0.49280392168E+02  0.00000000000E+00 0. -1.
        -12    1    6    6    0    0  0.41451301333E+02  0.14351230989E+02  0.25855712974E+02  0.50918426002E+02  0.00000000000E+00 0.  1.
</event>
<event>
12    1  0.8724767E-002  0.1922962E+03  0.7818608E-02  0.1156412E+00
         21   -1    0    0  503  502  0.00000000000E+00  0.00000000000E+00  0.60260954497E+02  0.60260954497E+02  0.00000000000E+00 0. -1.
         21   -1    0    0  501  503 -0.00000000000E+00 -0.00000000000E+00 -0.10274156675E+04  0.10274156675E+04  0.00000000000E+00 0. -1.
          6    2    1    2  501    0 -0.74879724694E+02  0.44145840669E+02 -0.82872310649E+03  0.85073539026E+03  0.17150186180E+03 0.  0.
         24    2    3    3    0    0 -0.54389516660E+02  0.59467132217E+02 -0.81191986195E+03  0.81976718678E+03  0.79434368867E+02 0.  0.
         -6    2    1    2    0  502  0.74879724694E+02 -0.44145840669E+02 -0.13843160652E+03  0.23694123174E+03  0.17152845010E+03 0.  0.
        -24    2    5    5    0    0 -0.47159634081E+01 -0.64158392028E+02 -0.34278483183E+02  0.10425385903E+03  0.74533973019E+02 0.  0.
          5    1    3    3  501    0 -0.20490208034E+02 -0.15321291547E+02 -0.16803244541E+02  0.30968203485E+02  0.47000000000E+01 0. -1.
        -13    1    4    4    0    0 -0.12480137515E+02  0.62872485720E+02 -0.61947063387E+03  0.62277810617E+03  0.00000000000E+00 0.  1.
         14    1    4    4    0    0 -0.41909379145E+02 -0.34053535028E+01 -0.19244922808E+03  0.19698908061E+03  0.00000000000E+00 0. -1.
         -5    1    5    5    0  502  0.79595688102E+02  0.20012551359E+02 -0.10415312334E+03  0.13268737271E+03  0.47000000000E+01 0.  1.
         13    1    6    6    0    0  0.27453813013E+02 -0.47919017183E+02 -0.10503218317E+01  0.55236285472E+02  0.00000000000E+00 0. -1.
        -14    1    6    6    0    0 -0.32169776422E+02 -0.16239374845E+02 -0.33228161352E+02  0.49017573555E+02  0.00000000000E+00 0.  1.
</event>
<event>
12    1  0.8724767E-002  0.2423150E+03  0.7818608E-02  0.1118278E+00
         21   -1    0    0  501  502  0.00000000000E+00  0.00000000000E+00  0.14389858688E+03  0.14389858688E+03  0.00000000000E+00 0.  1.
         21   -1    0    0  502  503 -0.00000000000E+00 -0.00000000000E+00 -0.47944339220E+03  0.47944339220E+03  0.00000000000E+00 0. -1.
         -6    2    1    2    0  503 -0.16483082964E+03 -0.45261522186E+02 -0.28823735628E+03  0.37655986074E+03  0.17175199380E+03 0.  0.
        -24    2    3    3    0    0 -0.15562367392E+03 -0.35565445458E+02 -0.13941523335E+03  0.22706437621E+03  0.81473890657E+02 0.  0.
          6    2    1    2  501    0  0.16483082964E+03  0.45261522186E+02 -0.47307449035E+02  0.24678211833E+03  0.17159723601E+03 0.  0.
         24    2    5    5    0    0  0.92956384806E+02  0.82742241676E+02 -0.69564572380E+02  0.16259061227E+03  0.78162071585E+02 0.  0.
          5    1    5    5  501    0  0.71874444835E+02 -0.37480719490E+02  0.22257123344E+02  0.84191506064E+02  0.47000000000E+01 0. -1.
        -11    1    6    6    0    0  0.67015496234E+02  0.47160356639E+02 -0.20334180486E+01  0.81971402103E+02  0.00000000000E+00 0.  1.
         12    1    6    6    0    0  0.25940888571E+02  0.35581885037E+02 -0.67531154331E+02  0.80619210167E+02  0.00000000000E+00 0. -1.
         -5    1    3    3    0  503 -0.92071557210E+01 -0.96960767282E+01 -0.14882212294E+03  0.14949548453E+03  0.47000000000E+01 0.  1.
         13    1    4    4    0    0 -0.11565049123E+03 -0.47229030595E+02 -0.13692706551E+03  0.18535004376E+03  0.00000000000E+00 0. -1.
        -14    1    4    4    0    0 -0.39973182686E+02  0.11663585138E+02 -0.24881678388E+01  0.41714332447E+02  0.00000000000E+00 0.  1.
</event>
<event>
12    1  0.8724767E-002  0.1878374E+03  0.7818608E-02  0.1162761E+00
         21   -1    0    0  503  502  0.00000000000E+00  0.00000000000E+00  0.72835964760E+02  0.72835964760E+02  0.00000000000E+00 0. -1.
         21   -1    0    0  501  503 -0.00000000000E+00 -0.00000000000E+00 -0.98746431890E+03  0.98746431890E+03  0.00000000000E+00 0. -1.
          6    2    1    2  501    0  0.57049331506E+02  0.13995918870E+02 -0.83924816731E+03  0.85790197990E+03  0.16795180500E+03 0.  0.
         24    2    3    3    0    0  0.54714937717E+02 -0.36063146630E+02 -0.73469942303E+03  0.74186797900E+03  0.79313183705E+02 0.  0.
         -6    2    1    2    0  502 -0.57049331506E+02 -0.13995918870E+02 -0.75380186825E+02  0.20239830376E+03  0.17841633566E+03 0.  0.
        -24    2    5    5    0    0 -0.36204285855E+02  0.48394773232E+02 -0.20091958763E+02  0.11634022714E+03  0.97357882340E+02 0.  0.
          5    1    3    3  501    0  0.23343937895E+01  0.50059065500E+02 -0.10454874428E+03  0.11603400089E+03  0.47000000000E+01 0. -1.
        -11    1    4    4    0    0  0.59047980601E+02 -0.52171751396E+02 -0.46299096105E+03  0.46964793801E+03  0.00000000000E+00 0.  1.
         12    1    4    4    0    0 -0.43330428845E+01  0.16108604767E+02 -0.27170846198E+03  0.27222004100E+03  0.00000000000E+00 0. -1.
         -5    1    5    5    0  502 -0.20845045651E+02 -0.62390692102E+02 -0.55288228061E+02  0.86058076619E+02  0.47000000000E+01 0.  1.
         11    1    6    6    0    0 -0.32522358386E+02 -0.20914571110E+02  0.11125975426E+02  0.40235685764E+02  0.00000000000E+00 0. -1.
        -12    1    6    6    0    0 -0.36819274690E+01  0.69309344342E+02 -0.31217934190E+02  0.76104541377E+02  0.00000000000E+00 0.  1.
</event>
<event>
12    1  0.8724767E-002  0.2612840E+03  0.7818608E-02  0.1106658E+00
         21   -1    0    0  503  502  0.00000000000E+00  0.00000000000E+00  0.22095558958E+03  0.22095558958E+03  0.00000000000E+00 0. -1.
         21   -1    0    0  501  503 -0.00000000000E+00 -0.00000000000E+00 -0.47311422578E+03  0.47311422578E+03  0.00000000000E+00 0. -1.
          6    2    1    2  501    0 -0.54057672700E+02 -0.18998653775E+03 -0.33217070350E+03  0.42261887991E+03  0.17103281818E+03 0.  0.
         24    2    3    3    0    0 -0.30276032670E+02 -0.15944202846E+03 -0.15260387273E+03  0.23886668220E+03  0.86202965737E+02 0.  0.
         -6    2    1    2    0  502  0.54057672700E+02  0.18998653775E+03  0.80012067303E+02  0.27145093545E+03  0.16812662769E+03 0.  0.
        -24    2    5    5    0    0  0.88428144883E+02  0.93113766595E+02  0.74700230739E+02  0.16841711209E+03  0.79337814659E+02 0.  0.
          5    1    3    3  501    0 -0.23781640031E+02 -0.30544509287E+02 -0.17956683077E+03  0.18375219771E+03  0.47000000000E+01 0. -1.
        -11    1    4    4    0    0 -0.16450440531E+02 -0.11605662894E+03 -0.51596962609E+02  0.12807031141E+03  0.00000000000E+00 0.  1.
         12    1    4    4    0    0 -0.13825592138E+02 -0.43385399523E+02 -0.10100691012E+03  0.11079637079E+03  0.00000000000E+00 0. -1.
         -5    1    5    5    0  502 -0.34370472182E+02  0.96872771151E+02  0.53118365641E+01  0.10303382336E+03  0.47000000000E+01 0.  1.
         11    1    6    6    0    0 -0.67848294927E+01  0.13795176771E+02  0.35102351151E+02  0.38321219575E+02  0.00000000000E+00 0. -1.
        -12    1    6    6    0    0  0.95212974376E+02  0.79318589824E+02  0.39597879588E+02  0.13009589251E+03  0.00000000000E+00 0.  1.
</event>
<event>
12    1  0.8724767E-002  0.1925380E+03  0.7818608E-02  0.1156407E+00
         21   -1    0    0  501  502  0.00000000000E+00  0.00000000000E+00  0.39729418863E+03  0.39729418863E+03  0.00000000000E+00 0.  1.
         21   -1    0    0  502  503 -0.00000000000E+00 -0.00000000000E+00 -0.24752415370E+03  0.24752415370E+03  0.00000000000E+00 0.  1.
         -6    2    1    2    0  503 -0.85899990479E+02  0.47675541506E+01 -0.17991532633E+03  0.26351549008E+03  0.17224793446E+03 0.  0.
        -24    2    3    3    0    0  0.91541009731E+01 -0.35766831578E+02 -0.82336285437E+02  0.12131114433E+03  0.81080614415E+02 0.  0.
          6    2    1    2  501    0  0.85899990479E+02 -0.47675541506E+01  0.32968536126E+03  0.38130285225E+03  0.17116626352E+03 0.  0.
         24    2    5    5    0    0 -0.22247257685E+02  0.51942031827E+01  0.12509720030E+03  0.14962749858E+03  0.78848960589E+02 0.  0.
          5    1    5    5  501    0  0.10814724816E+03 -0.99617573334E+01  0.20458816096E+03  0.23167535367E+03  0.47000000000E+01 0. -1.
        -13    1    6    6    0    0 -0.23223199189E+02  0.35779921598E+02  0.10414130380E+03  0.11253857528E+03  0.00000000000E+00 0.  1.
         14    1    6    6    0    0  0.97594150385E+00 -0.30585718415E+02  0.20955896502E+02  0.37088923292E+02  0.00000000000E+00 0. -1.
         -5    1    3    3    0  503 -0.95054091452E+02  0.40534385728E+02 -0.97579040893E+02  0.14220434575E+03  0.47000000000E+01 0.  1.
         11    1    4    4    0    0  0.28324641420E+02 -0.25787522193E+02 -0.22623960215E+01  0.38371865321E+02  0.00000000000E+00 0. -1.
        -12    1    4    4    0    0 -0.19170540447E+02 -0.99793093844E+01 -0.80073889415E+02  0.82939279011E+02  0.00000000000E+00 0.  1.
</event>
<event>
12    1  0.8724767E-002  0.1948970E+03  0.7818608E-02  0.1154379E+00
         21   -1    0    0  503  502  0.00000000000E+00  0.00000000000E+00  0.57384127579E+03  0.57384127579E+03  0.00000000000E+00 0.  1.
         21   -1    0    0  501  503 -0.00000000000E+00 -0.00000000000E+00 -0.82576716035E+02  0.82576716035E+02  0.00000000000E+00 0. -1.
          6    2    1    2  501    0  0.79896757859E+02 -0.52508954960E+02  0.98248716599E+02  0.21826047674E+03  0.16983563561E+03 0.  0.
         24    2    3    3    0    0 -0.21199031478E+02 -0.11707768203E+02  0.56052456058E+02  0.10126599026E+03  0.80786460382E+02 0.  0.
         -6    2    1    2    0  502 -0.79896757859E+02  0.52508954960E+02  0.39301584316E+03  0.43815751509E+03  0.16846326837E+03 0.  0.
        -24    2    5    5    0    0  0.23323797810E+02  0.53742494376E+02  0.20659952152E+03  0.22501638883E+03  0.67206827798E+02 0.  0.
          5    1    3    3  501    0  0.10109578934E+03 -0.40801186757E+02  0.42196260542E+02  0.11699448648E+03  0.47000000000E+01 0. -1.
        -13    1    4    4    0    0 -0.13674184177E+02 -0.77879553019E+01  0.77038704666E+02  0.78629495594E+02  0.00000000000E+00 0.  1.
         14    1    4    4    0    0 -0.75248473006E+01 -0.39198129010E+01 -0.20986248608E+02  0.22636494665E+02  0.00000000000E+00 0. -1.
         -5    1    5    5    0  502 -0.10322055567E+03 -0.12335394162E+01  0.18641632164E+03  0.21314112626E+03  0.47000000000E+01 0.  1.
         13    1    6    6    0    0 -0.16623528165E+02  0.35036086855E+02  0.56194973583E+02  0.68276966298E+02  0.00000000000E+00 0. -1.
        -14    1    6    6    0    0  0.39947325976E+02  0.18706407521E+02  0.15040454794E+03  0.15673942253E+03  0.00000000000E+00 0.  1.
</event>
<event>
12    1  0.8724767E-002  0.2294837E+03  0.7818608E-02  0.1127574E+00
         21   -1    0    0  501  502  0.00000000000E+00  0.00000000000E+00  0.41160226158E+03  0.41160226158E+03  0.00000000000E+00 0.  1.
         21   -1    0    0  502  503 -0.00000000000E+00 -0.00000000000E+00 -0.12620317065E+03  0.12620317065E+03  0.00000000000E+00 0.  1.
         -6    2    1    2    0  503  0.14540159251E+03 -0.63648879828E+01  0.13896291552E+03  0.26827871876E+03  0.17742785618E+03 0.  0.
        -24    2    3    3    0    0  0.12642527401E+03  0.49172176809E+02  0.12674581301E+03  0.20814708131E+03  0.94124669781E+02 0.  0.
          6    2    1    2  501    0 -0.14540159251E+03  0.63648879828E+01  0.14643617541E+03  0.26952671347E+03  0.17325980752E+03 0.  0.
         24    2    5    5    0    0 -0.15737047661E+03 -0.37167591686E+02  0.12642426429E+03  0.21991927895E+03  0.78958836577E+02 0.  0.
          5    1    5    5  501    0  0.11968884102E+02  0.43532479669E+02  0.20011911124E+02  0.49607434520E+02  0.47000000000E+01 0. -1.
        -11    1    6    6    0    0 -0.12272718810E+03 -0.30142576971E+02  0.50353502161E+02  0.13603680688E+03  0.00000000000E+00 0.  1.
         12    1    6    6    0    0 -0.34643288509E+02 -0.70250147151E+01  0.76070762130E+02  0.83882472076E+02  0.00000000000E+00 0. -1.
         -5    1    3    3    0  503  0.18976318501E+02 -0.55537064792E+02  0.12217102513E+02  0.60131637457E+02  0.47000000000E+01 0.  1.
         13    1    4    4    0    0  0.58178569427E+02  0.32845493832E+02  0.12039226854E+03  0.13768758379E+03  0.00000000000E+00 0. -1.
        -14    1    4    4    0    0  0.68246704580E+02  0.16326682977E+02  0.63535444682E+01  0.70459497517E+02  0.00000000000E+00 0.  1.
</event>
<event>
12    1  0.8724767E-002  0.1741346E+03  0.7818608E-02  0.1173700E+00
         21   -1    0    0  503  502  0.00000000000E+00  0.00000000000E+00  0.15044058112E+04  0.15044058112E+04  0.00000000000E+00 0.  1.
         21   -1    0    0  501  503 -0.00000000000E+00 -0.00000000000E+00 -0.27002565522E+02  0.27002565522E+02  0.00000000000E+00 0.  1.
          6    2    1    2  501    0 -0.25917118058E+02 -0.10723419626E+02  0.35130422053E+03  0.39192521322E+03  0.17147602940E+03 0.  0.
         24    2    3    3    0    0  0.55894978222E+01 -0.11314557798E+01  0.35063826881E+03  0.35865050652E+03  0.75169592185E+02 0.  0.
         -6    2    1    2    0  502  0.25917118058E+02  0.10723419626E+02  0.11260990251E+04  0.11394831635E+04  0.17186092265E+03 0.  0.
        -24    2    5    5    0    0  0.33227196439E+02 -0.31713928844E+02  0.34610315778E+03  0.35828535955E+03  0.80443664618E+02 0.  0.
          5    1    3    3  501    0 -0.31506615881E+02 -0.95919638461E+01  0.66595171962E+00  0.33274706706E+02  0.47000000000E+01 0. -1.
        -13    1    4    4    0    0  0.29868661929E+02 -0.18194555289E+02  0.93879420314E+02  0.10018245538E+03  0.00000000000E+00 0.  1.
         14    1    4    4    0    0 -0.24279164107E+02  0.17063099509E+02  0.25675884850E+03  0.25846805114E+03  0.00000000000E+00 0. -1.
         -5    1    5    5    0  502 -0.73100783803E+01  0.42437348470E+02  0.77999586733E+03  0.78119780392E+03  0.47000000000E+01 0.  1.
         11    1    6    6    0    0  0.39373599383E+02  0.16709065910E+02  0.18873436985E+03  0.19352037509E+03  0.00000000000E+00 0. -1.
        -12    1    6    6    0    0 -0.61464029445E+01 -0.48422994754E+02  0.15736878793E+03  0.16476498446E+03  0.00000000000E+00 0.  1.
</event>
<event>
12    1  0.8724767E-002  0.1908444E+03  0.7818608E-02  0.1158395E+00
         21   -1    0    0  503  502  0.00000000000E+00  0.00000000000E+00  0.21923577757E+03  0.21923577757E+03  0.00000000000E+00 0. -1.
         21   -1    0    0  501  503 -0.00000000000E+00 -0.00000000000E+00 -0.19409773125E+03  0.19409773125E+03  0.00000000000E+00 0. -1.
          6    2    1    2  501    0 -0.74975492499E+02 -0.88710247173E+01 -0.69603711570E+02  0.20026641417E+03  0.17193586137E+03 0.  0.
         24    2    3    3    0    0 -0.31957983066E+01  0.28387456977E+02  0.12596574972E+02  0.84856293018E+02  0.78904093197E+02 0.  0.
         -6    2    1    2    0  502  0.74975492499E+02  0.88710247173E+01  0.94741757892E+02  0.21306709465E+03  0.17527568736E+03 0.  0.
        -24    2    5    5    0    0  0.11688931723E+03  0.23070797036E+02  0.55895224297E+02  0.15399472031E+03  0.79967015856E+02 0.  0.
          5    1    3    3  501    0 -0.71779694192E+02 -0.37258481694E+02 -0.82200286542E+02  0.11541012115E+03  0.47000000000E+01 0. -1.
        -11    1    4    4    0    0 -0.44443739793E+01  0.47738217941E+02  0.31826734852E+02  0.57546771965E+02  0.00000000000E+00 0.  1.
         12    1    4    4    0    0  0.12485756726E+01 -0.19350760964E+02 -0.19230159880E+02  0.27309521053E+02  0.00000000000E+00 0. -1.
         -5    1    5    5    0  502 -0.41913824735E+02 -0.14199772319E+02  0.38846533594E+02  0.59072374339E+02  0.47000000000E+01 0.  1.
         11    1    6    6    0    0  0.10247475774E+03  0.28897516040E+02  0.74351441497E+02  0.12986253986E+03  0.00000000000E+00 0. -1.
        -12    1    6    6    0    0  0.14414559493E+02 -0.58267190039E+01 -0.18456217200E+02  0.24132180446E+02  0.00000000000E+00 0.  1.
</event>
<event>
12    1  0.8724767E-002  0.2286242E+03  0.7818608E-02  0.1127727E+00
         21   -1    0    0  501  502  0.00000000000E+00  0.00000000000E+00  0.73715319952E+02  0.73715319952E+02  0.00000000000E+00 0.  1.
         21   -1    0    0  502  503 -0.00000000000E+00 -0.00000000000E+00 -0.23568604283E+04  0.23568604283E+04  0.00000000000E+00 0.  1.
         -6    2    1    2    0  503  0.85987691527E+02  0.12250672396E+03 -0.21578687967E+04  0.21698783058E+04  0.17196609459E+03 0.  0.
        -24    2    3    3    0    0 -0.54859763442E+01  0.56439611386E+02 -0.59716478544E+03  0.60509352953E+03  0.79478757151E+02 0.  0.
          6    2    1    2  501    0 -0.85987691527E+02 -0.12250672396E+03 -0.12527631166E+03  0.26069744246E+03  0.17282135787E+03 0.  0.
         24    2    5    5    0    0 -0.61075203834E+02 -0.64828640507E+01 -0.32159346327E+02  0.10978346914E+03  0.85123313438E+02 0.  0.
          5    1    5    5  501    0 -0.24912487693E+02 -0.11602385991E+03 -0.93116965330E+02  0.15091397332E+03  0.47000000000E+01 0. -1.
        -11    1    6    6    0    0  0.13687146480E+02  0.21208531632E+02 -0.77264567744E+01  0.26397687911E+02  0.00000000000E+00 0.  1.
         12    1    6    6    0    0 -0.74762350315E+02 -0.27691395682E+02 -0.24432889553E+02  0.83385781230E+02  0.00000000000E+00 0. -1.
         -5    1    3    3    0  503  0.91473667871E+02  0.66067112578E+02 -0.15607040113E+04  0.15647847763E+04  0.47000000000E+01 0.  1.
         13    1    4    4    0    0  0.25402009644E+02  0.41321487202E+02 -0.49340269096E+03  0.49578114410E+03  0.00000000000E+00 0. -1.
        -14    1    4    4    0    0 -0.30887985989E+02  0.15118124184E+02 -0.10376209448E+03  0.10931238543E+03  0.00000000000E+00 0.  1.
</event>
<event>
12    1  0.8724767E-002  0.1744751E+03  0.7818608E-02  0.1173366E+00
         21   -1    0    0  501  502  0.00000000000E+00  0.00000000000E+00  0.72382623258E+02  0.72382623258E+02  0.00000000000E+00 0.  1.
         21   -1    0    0  502  503 -0.00000000000E+00 -0.00000000000E+00 -0.43846984430E+03  0.43846984430E+03  0.00000000000E+00 0.  1.
         -6    2    1    2    0  503 -0.25179953827E+02 -0.10866846022E+02 -0.23632007973E+03  0.29374942783E+03  0.17230620374E+03 0.  0.
        -24    2    3    3    0    0  0.39077856271E+02  0.13027763353E+02 -0.74239475563E+02  0.11770332374E+03  0.81521599714E+02 0.  0.
          6    2    1    2  501    0  0.25179953827E+02  0.10866846022E+02 -0.12976714131E+03  0.21710303972E+03  0.17187815590E+03 0.  0.
         24    2    5    5    0    0  0.56109197444E+01  0.46261069862E+02 -0.12362213657E+02  0.92838381785E+02  0.79338337523E+02 0.  0.
          5    1    5    5  501    0  0.19569034082E+02 -0.35394223840E+02 -0.11740492765E+03  0.12426465794E+03  0.47000000000E+01 0. -1.
        -13    1    6    6    0    0  0.35156816530E+02  0.30171417235E+02 -0.29659775944E+02  0.55009258089E+02  0.00000000000E+00 0.  1.
         14    1    6    6    0    0 -0.29545896786E+02  0.16089652627E+02  0.17297562287E+02  0.37829123696E+02  0.00000000000E+00 0. -1.
         -5    1    3    3    0  503 -0.64257810098E+02 -0.23894609375E+02 -0.16208060417E+03  0.17604610409E+03  0.47000000000E+01 0.  1.
         11    1    4    4    0    0  0.29021550144E+02 -0.29684828133E+02 -0.15346005052E+02  0.44259905842E+02  0.00000000000E+00 0. -1.
        -12    1    4    4    0    0  0.10056306127E+02  0.42712591486E+02 -0.58893470511E+02  0.73443417903E+02  0.00000000000E+00 0.  1.
</event>
<event>
12    1  0.8724767E-002  0.2681601E+03  0.7818608E-02  0.1102861E+00
         21   -1    0    0  501  502  0.00000000000E+00  0.00000000000E+00  0.60394162916E+03  0.60394162916E+03  0.00000000000E+00 0. -1.
         21   -1    0    0  502  503 -0.00000000000E+00 -0.00000000000E+00 -0.13149633149E+03  0.13149633149E+03  0.00000000000E+00 0. -1.
         -6    2    1    2    0  503 -0.19669528767E+03 -0.47679051562E+02  0.35487932641E+03  0.44263834426E+03  0.17037323543E+03 0.  0.
        -24    2    3    3    0    0 -0.40661661276E+02 -0.38706457244E+02  0.81509706413E+02  0.12770971878E+03  0.80711706094E+02 0.  0.
          6    2    1    2  501    0  0.19669528767E+03  0.47679051562E+02  0.11756597127E+03  0.29279961638E+03  0.17591909960E+03 0.  0.
         24    2    5    5    0    0  0.16264809029E+03  0.82253909760E+02  0.42983005229E+02  0.20369663500E+03  0.80154060561E+02 0.  0.
          5    1    5    5  501    0  0.34047197378E+02 -0.34574858198E+02  0.74582966036E+02  0.89102981384E+02  0.47000000000E+01 0. -1.
        -11    1    6    6    0    0  0.15060143513E+02 -0.97461278755E+01 -0.11665781126E+02  0.21398256482E+02  0.00000000000E+00 0.  1.
         12    1    6    6    0    0  0.14758794678E+03  0.92000037636E+02  0.54648786354E+02  0.18229837852E+03  0.00000000000E+00 0. -1.
         -5    1    3    3    0  503 -0.15603362640E+03 -0.89725943184E+01  0.27336961999E+03  0.31492862549E+03  0.47000000000E+01 0.  1.
         13    1    4    4    0    0 -0.58360134057E+02 -0.32386316689E+01  0.44276461925E+02  0.73326659973E+02  0.00000000000E+00 0. -1.
        -14    1    4    4    0    0  0.17698472781E+02 -0.35467825575E+02  0.37233244488E+02  0.54383058804E+02  0.00000000000E+00 0.  1.
</event>
<event>
12    1  0.8724767E-002  0.1950572E+03  0.7818608E-02  0.1154250E+00
         21   -1    0    0  501  502  0.00000000000E+00  0.00000000000E+00  0.50293603166E+02  0.50293603166E+02  0.00000000000E+00 0. -1.
         21   -1    0    0  502  503 -0.00000000000E+00 -0.00000000000E+00 -0.10321884235E+04  0.10321884235E+04  0.00000000000E+00 0. -1.
         -6    2    1    2    0  503  0.56971744923E+02  0.68197851243E+02 -0.77195591694E+03  0.79591323503E+03  0.17223592358E+03 0.  0.
        -24    2    3    3    0    0 -0.28546765292E+02  0.62681969591E+02 -0.43165790413E+03  0.44495929495E+03  0.83164180046E+02 0.  0.
          6    2    1    2  501    0 -0.56971744923E+02 -0.68197851243E+02 -0.20993890336E+03  0.28656879160E+03  0.17363928858E+03 0.  0.
         24    2    5    5    0    0  0.30171283551E+02 -0.63127677404E+02 -0.13074431354E+03  0.16861334606E+03  0.80255684797E+02 0.  0.
          5    1    5    5  501    0 -0.87143028474E+02 -0.50701738391E+01 -0.79194589821E+02  0.11795544553E+03  0.47000000000E+01 0. -1.
        -13    1    6    6    0    0  0.14187949720E+02 -0.10073664966E+02 -0.10687365070E+03  0.10828090255E+03  0.00000000000E+00 0.  1.
         14    1    6    6    0    0  0.15983333831E+02 -0.53054012438E+02 -0.23870662843E+02  0.60332443517E+02  0.00000000000E+00 0. -1.
         -5    1    3    3    0  503  0.85518510215E+02  0.55158816524E+01 -0.34029801281E+03  0.35095394008E+03  0.47000000000E+01 0.  1.
         11    1    4    4    0    0 -0.43883078073E+02  0.16138296032E+02 -0.10905671861E+03  0.11865722487E+03  0.00000000000E+00 0. -1.
        -12    1    4    4    0    0  0.15336312782E+02  0.46543673558E+02 -0.32260118552E+03  0.32630207008E+03  0.00000000000E+00 0.  1.
</event>
<event>
12    1  0.8724767E-002  0.2576902E+03  0.7818608E-02  0.1108637E+00
         21   -1    0    0  501  502  0.00000000000E+00  0.00000000000E+00  0.30320158180E+03  0.30320158180E+03  0.00000000000E+00 0.  1.
         21   -1    0    0  502  503 -0.00000000000E+00 -0.00000000000E+00 -0.23207783612E+03  0.23207783612E+03  0.00000000000E+00 0. -1.
         -6    2    1    2    0  503 -0.95700420617E+02  0.16600273316E+03 -0.29307091514E+02  0.25871009104E+03  0.17133746721E+03 0.  0.
        -24    2    3    3    0    0 -0.11369451157E+03  0.64216937608E+02 -0.62324084815E+01  0.15269751404E+03  0.78914072527E+02 0.  0.
          6    2    1    2  501    0  0.95700420617E+02 -0.16600273316E+03  0.10043083719E+03  0.27656932688E+03  0.17230427038E+03 0.  0.
         24    2    5    5    0    0  0.11673527574E+03 -0.18317894081E+03  0.85449293181E+02  0.24520017164E+03  0.75099224413E+02 0.  0.
          5    1    5    5  501    0 -0.21034855127E+02  0.17176207655E+02  0.14981544007E+02  0.31369155240E+02  0.47000000000E+01 0. -1.
        -13    1    6    6    0    0  0.60095143875E+02 -0.41382718141E+02  0.49987866055E+02  0.88446268608E+02  0.00000000000E+00 0.  1.
         14    1    6    6    0    0  0.56640131869E+02 -0.14179622267E+03  0.35461427126E+02  0.15675390303E+03  0.00000000000E+00 0. -1.
         -5    1    3    3    0  503  0.17994090950E+02  0.10178579555E+03 -0.23074683033E+02  0.10601257700E+03  0.47000000000E+01 0.  1.
         11    1    4    4    0    0 -0.84862996827E+01  0.38320896766E+02 -0.18987652247E+02  0.43600909958E+02  0.00000000000E+00 0. -1.
        -12    1    4    4    0    0 -0.10520821188E+03  0.25896040842E+02  0.12755243765E+02  0.10909660408E+03  0.00000000000E+00 0.  1.
</event>
<event>
12    1  0.8724767E-002  0.2306913E+03  0.7818608E-02  0.1126177E+00
         21   -1    0    0  501  502  0.00000000000E+00  0.00000000000E+00  0.24529136353E+03  0.24529136353E+03  0.00000000000E+00 0. -1.
         21   -1    0    0  502  503 -0.00000000000E+00 -0.00000000000E+00 -0.23480572385E+03  0.23480572385E+03  0.00000000000E+00 0.  1.
         -6    2    1    2    0  503 -0.99334417327E+02 -0.11737534778E+03 -0.61160743728E+02  0.23853612171E+03  0.17179798036E+03 0.  0.
        -24    2    3    3    0    0 -0.50036152112E+02 -0.12427118993E+03 -0.88797067706E+02  0.18140707485E+03  0.84122900625E+02 0.  0.
          6    2    1    2  501    0  0.99334417327E+02  0.11737534778E+03  0.71646383410E+02  0.24156096566E+03  0.17197150096E+03 0.  0.
         24    2    5    5    0    0  0.50038249730E+02  0.20786289742E+02 -0.20219804809E+02  0.99360245514E+02  0.80794316662E+02 0.  0.
          5    1    5    5  501    0  0.49296167597E+02  0.96589058036E+02  0.91866188219E+02  0.14220072015E+03  0.47000000000E+01 0. -1.
        -11    1    6    6    0    0  0.51612666932E+02  0.46483886120E+02 -0.54362549969E+01  0.69671887624E+02  0.00000000000E+00 0.  1.
         12    1    6    6    0    0 -0.15744172021E+01 -0.25697596379E+02 -0.14783549812E+02  0.29688357890E+02  0.00000000000E+00 0. -1.
         -5    1    3    3    0  503 -0.49298265215E+02  0.68958421485E+01  0.27636323978E+02  0.57129046860E+02  0.47000000000E+01 0.  1.
         11    1    4    4    0    0  0.10579015824E+02 -0.71130038998E+02 -0.18025030520E+02  0.74137033586E+02  0.00000000000E+00 0. -1.
        -12    1    4    4    0    0 -0.60615167936E+02 -0.53141150928E+02 -0.70772037186E+02  0.10727004127E+03  0.00000000000E+00 0.  1.
</event>
<event>
12    1  0.8724767E-002  0.1972914E+03  0.7818608E-02  0.1152088E+00
         21   -1    0    0  501  502  0.00000000000E+00  0.00000000000E+00  0.58465766323E+02  0.58465766323E+02  0.00000000000E+00 0.  1.
         21   -1    0    0  502  503 -0.00000000000E+00 -0.00000000000E+00 -0.67206638881E+03  0.67206638881E+03  0.00000000000E+00 0. -1.
         -6    2    1    2    0  503  0.92612190989E+02 -0.26943232733E+02 -0.26968803577E+03  0.33414898772E+03  0.17210738987E+03 0.  0.
        -24    2    3    3    0    0  0.80137545503E+01  0.34514168888E+02 -0.15867442553E+03  0.18157107543E+03  0.80839557142E+02 0.  0.
          6    2    1    2  501    0 -0.92612190989E+02  0.26943232733E+02 -0.34391258672E+03  0.39638316742E+03  0.17187435060E+03 0.  0.
         24    2    5    5    0    0 -0.53293820105E+02  0.31821252229E+02 -0.34368387989E+03  0.35648490091E+03  0.71484627210E+02 0.  0.
          5    1    5    5  501    0 -0.39318370885E+02 -0.48780194966E+01 -0.22870683426E+00  0.39898266504E+02  0.47000000000E+01 0. -1.
        -13    1    6    6    0    0  0.97474595734E+01  0.14989242451E+02 -0.22494933429E+02  0.28735211629E+02  0.00000000000E+00 0.  1.
         14    1    6    6    0    0 -0.63041279678E+02  0.16832009779E+02 -0.32118894646E+03  0.32774968928E+03  0.00000000000E+00 0. -1.
         -5    1    3    3    0  503  0.84598436439E+02 -0.61457401621E+02 -0.11101361024E+03  0.15257791230E+03  0.47000000000E+01 0.  1.
         13    1    4    4    0    0  0.13955909963E+02  0.17563994275E+01 -0.14483562450E+03  0.14551704535E+03  0.00000000000E+00 0. -1.
        -14    1    4    4    0    0 -0.59421554122E+01  0.32757769461E+02 -0.13838801023E+02  0.36054030076E+02  0.00000000000E+00 0.  1.
</event>
<event>
12    1  0.8724767E-002  0.2188384E+03  0.7818608E-02  0.1134842E+00
         21   -1    0    0  501  502  0.00000000000E+00  0.00000000000E+00  0.55870532142E+03  0.55870532142E+03  0.00000000000E+00 0. -1.
         21   -1    0    0  502  503 -0.00000000000E+00 -0.00000000000E+00 -0.21829731889E+03  0.21829731889E+03  0.00000000000E+00 0. -1.
         -6    2    1    2    0  503  0.11716492467E+03 -0.66506102025E+02 -0.13270389925E+03  0.25593083374E+03  0.17245169064E+03 0.  0.
        -24    2    3    3    0    0  0.26371186714E+00 -0.62974398051E+02 -0.65548283166E+02  0.12098516593E+03  0.79843525702E+02 0.  0.
          6    2    1    2  501    0 -0.11716492467E+03  0.66506102025E+02  0.47311190179E+03  0.52107180657E+03  0.17184375114E+03 0.  0.
         24    2    5    5    0    0 -0.10752905841E+03 -0.13578415461E+02  0.32792233099E+03  0.35491380547E+03  0.81755014432E+02 0.  0.
          5    1    5    5  501    0 -0.96358662635E+01  0.80084517486E+02  0.14518957080E+03  0.16615800110E+03  0.47000000000E+01 0. -1.
        -11    1    6    6    0    0 -0.85980415725E+02 -0.51611325634E+01  0.31848745342E+03  0.32992957910E+03  0.00000000000E+00 0.  1.
         12    1    6    6    0    0 -0.21548642681E+02 -0.84172828977E+01  0.94348775699E+01  0.24984226375E+02  0.00000000000E+00 0. -1.
         -5    1    3    3    0  503  0.11690121280E+03 -0.35317039736E+01 -0.67155616086E+02  0.13494566781E+03  0.47000000000E+01 0.  1.
         11    1    4    4    0    0  0.34489450594E+02 -0.12534843757E+02 -0.88761378100E+01  0.37754871642E+02  0.00000000000E+00 0. -1.
        -12    1    4    4    0    0 -0.34225738727E+02 -0.50439554294E+02 -0.56672145356E+02  0.83230294293E+02  0.00000000000E+00 0.  1.
</event>
<event>
12    1  0.8724767E-002  0.1846042E+03  0.7818608E-02  0.1165496E+00
         21   -1    0    0  501  502  0.00000000000E+00  0.00000000000E+00  0.18794071539E+03  0.18794071539E+03  0.00000000000E+00 0.  1.
         21   -1    0    0  502  503 -0.00000000000E+00 -0.00000000000E+00 -0.44404976491E+03  0.44404976491E+03  0.00000000000E+00 0.  1.
         -6    2    1    2    0  503 -0.43185998947E+01  0.35799457186E+02 -0.37613182558E+03  0.41899146235E+03  0.18104818108E+03 0.  0.
        -24    2    3    3    0    0  0.71191476789E+01  0.37440393109E+02 -0.39028933450E+03  0.40012244544E+03  0.79496801302E+02 0.  0.
          6    2    1    2  501    0  0.43185998947E+01 -0.35799457186E+02  0.12002277605E+03  0.21299901795E+03  0.17222910160E+03 0.  0.
         24    2    5    5    0    0 -0.19992262914E+02 -0.77983959879E+02  0.11895735366E+03  0.16407279346E+03  0.79295907772E+02 0.  0.
          5    1    5    5  501    0  0.24310862808E+02  0.42184502693E+02  0.10654223920E+01  0.48926224490E+02  0.47000000000E+01 0. -1.
        -11    1    6    6    0    0  0.23278678198E+02 -0.42530094460E+02  0.24571978024E+02  0.54355201199E+02  0.00000000000E+00 0.  1.
         12    1    6    6    0    0 -0.43270941111E+02 -0.35453865420E+02  0.94385375633E+02  0.10971759226E+03  0.00000000000E+00 0. -1.
         -5    1    3    3    0  503 -0.11437747574E+02 -0.16409359232E+01  0.14157508926E+02  0.18869016912E+02  0.47000000000E+01 0.  1.
         11    1    4    4    0    0  0.18450457968E+02  0.98772543698E+01 -0.21052103305E+02  0.29684517963E+02  0.00000000000E+00 0. -1.
        -12    1    4    4    0    0 -0.11331310289E+02  0.27563138739E+02 -0.36923723120E+03  0.37043792747E+03  0.00000000000E+00 0.  1.
</event>
<event>
12    1  0.8724767E-002  0.2096417E+03  0.7818608E-02  0.1142188E+00
         21   -1    0    0  501  502  0.00000000000E+00  0.00000000000E+00  0.10448094646E+03  0.10448094646E+03  0.00000000000E+00 0. -1.
         21   -1    0    0  502  503 -0.00000000000E+00 -0.00000000000E+00 -0.42508518376E+03  0.42508518376E+03  0.00000000000E+00 0.  1.
         -6    2    1    2    0  503  0.10608768531E+03  0.56357060733E+02 -0.12371222488E+03  0.24196208443E+03  0.16973573709E+03 0.  0.
        -24    2    3    3    0    0  0.12902331932E+03  0.82587437596E+02 -0.10036766962E+03  0.19975859834E+03  0.79762940832E+02 0.  0.
          6    2    1    2  501    0 -0.10608768531E+03 -0.56357060733E+02 -0.19689201242E+03  0.28760404580E+03  0.17181067294E+03 0.  0.
         24    2    5    5    0    0 -0.37096791483E+02 -0.75048486605E+02 -0.51412817894E+02  0.12544548490E+03  0.78005413645E+02 0.  0.
          5    1    5    5  501    0 -0.68990893831E+02  0.18691425872E+02 -0.14547919453E+03  0.16215856090E+03  0.47000000000E+01 0. -1.
        -13    1    6    6    0    0 -0.13532851585E+02 -0.18716580785E+02 -0.59523447861E+02  0.63847390812E+02  0.00000000000E+00 0.  1.
         14    1    6    6    0    0 -0.23563939897E+02 -0.56331905820E+02  0.81106299663E+01  0.61598094088E+02  0.00000000000E+00 0. -1.
         -5    1    3    3    0  503 -0.22935634005E+02 -0.26230376863E+02 -0.23344555257E+02  0.42203486085E+02  0.47000000000E+01 0.  1.
         11    1    4    4    0    0  0.68993218637E+02  0.41323219012E+02 -0.61385134461E+01  0.80655774714E+02  0.00000000000E+00 0. -1.
        -12    1    4    4    0    0  0.60030100682E+02  0.41264218584E+02 -0.94229156173E+02  0.11910282363E+03  0.00000000000E+00 0.  1.
</event>
<event>
12    1  0.8724767E-002  0.3292441E+03  0.7818608E-02  0.1071934E+00
         21   -1    0    0  503  502  0.00000000000E+00  0.00000000000E+00  0.10545136051E+03  0.10545136051E+03  0.00000000000E+00 0.  1.
         21   -1    0    0  501  503 -0.00000000000E+00 -0.00000000000E+00 -0.15803744718E+04  0.15803744718E+04  0.00000000000E+00 0. -1.
          6    2    1    2  501    0  0.27482147036E+03 -0.24202173209E+02 -0.12385770140E+04  0.12805343851E+04  0.17199623863E+03 0.  0.
         24    2    3    3    0    0  0.14195941831E+03  0.39345472066E+02 -0.49851084075E+03  0.52594134322E+03  0.80004347028E+02 0.  0.
         -6    2    1    2    0  502 -0.27482147036E+03  0.24202173209E+02 -0.23634609726E+03  0.40529144716E+03  0.17969166283E+03 0.  0.
        -24    2    5    5    0    0 -0.24430814881E+03  0.43141867848E+02 -0.25517325795E+03  0.36447078077E+03  0.78599402834E+02 0.  0.
          5    1    3    3  501    0  0.13286205206E+03 -0.63547645275E+02 -0.74006617323E+03  0.75459304188E+03  0.47000000000E+01 0. -1.
        -13    1    4    4    0    0  0.12280370180E+03  0.13349369704E+02 -0.45670975882E+03  0.47312023698E+03  0.00000000000E+00 0.  1.
         14    1    4    4    0    0  0.19155716505E+02  0.25996102362E+02 -0.41801081935E+02  0.52821106234E+02  0.00000000000E+00 0. -1.
         -5    1    5    5    0  502 -0.30513321549E+02 -0.18939694639E+02  0.18827160687E+02  0.40820666389E+02  0.47000000000E+01 0.  1.
         13    1    6    6    0    0 -0.44500297776E+01  0.13599192816E+02 -0.33925884001E+02  0.36819918734E+02  0.00000000000E+00 0. -1.
        -14    1    6    6    0    0 -0.23985811904E+03  0.29542675032E+02 -0.22124737395E+03  0.32765086204E+03  0.00000000000E+00 0.  1.
</event>
<event>
12    1  0.8724767E-002  0.1822988E+03  0.7818608E-02  0.1166118E+00
         21   -1    0    0  501  502  0.00000000000E+00  0.00000000000E+00  0.13287753526E+03  0.13287753526E+03  0.00000000000E+00 0. -1.
         21   -1    0    0  502  503 -0.00000000000E+00 -0.00000000000E+00 -0.26301969993E+03  0.26301969993E+03  0.00000000000E+00 0. -1.
         -6    2    1    2    0  503  0.33442990654E+02 -0.46122897862E+02 -0.11336322554E+03  0.21282792774E+03  0.17087641906E+03 0.  0.
        -24    2    3    3    0    0  0.41532315547E+02  0.20518516386E+02 -0.15240181467E+02  0.93845840650E+02  0.80180021993E+02 0.  0.
          6    2    1    2  501    0 -0.33442990654E+02  0.46122897862E+02 -0.16778939130E+02  0.18306930746E+03  0.17316778916E+03 0.  0.
         24    2    5    5    0    0 -0.73572990867E+02 -0.63138691998E+01 -0.33560641024E+02  0.11477767564E+03  0.81208055455E+02 0.  0.
          5    1    5    5  501    0  0.40130000214E+02  0.52436767062E+02  0.16781701894E+02  0.68291631812E+02  0.47000000000E+01 0. -1.
        -13    1    6    6    0    0  0.12985371685E+02  0.52142723276E+01 -0.22858704622E+02  0.26801658357E+02  0.00000000000E+00 0.  1.
         14    1    6    6    0    0 -0.86558362553E+02 -0.11528141527E+02 -0.10701936403E+02  0.87976017287E+02  0.00000000000E+00 0. -1.
         -5    1    3    3    0  503 -0.80893248932E+01 -0.66641414248E+02 -0.98123044071E+02  0.11898208709E+03  0.47000000000E+01 0.  1.
         13    1    4    4    0    0  0.28996417591E+02 -0.26880966854E+02 -0.20495403808E+02  0.44535830400E+02  0.00000000000E+00 0. -1.
        -14    1    4    4    0    0  0.12535897956E+02  0.47399483240E+02  0.52552223412E+01  0.49310010250E+02  0.00000000000E+00 0.  1.
</event>
<event>
12    1  0.8724767E-002  0.2243822E+03  0.7818608E-02  0.1130764E+00
         21   -1    0    0  501  502  0.00000000000E+00  0.00000000000E+00  0.32999892092E+03  0.32999892092E+03  0.00000000000E+00 0.  1.
         21   -1    0    0  502  503 -0.00000000000E+00 -0.00000000000E+00 -0.16155649400E+03  0.16155649400E+03  0.00000000000E+00 0. -1.
         -6    2    1    2    0  503  0.14095685301E+02 -0.14260657511E+03  0.14356184863E+03  0.26637824802E+03  0.17266164317E+03 0.  0.
        -24    2    3    3    0    0  0.74781146189E+02 -0.69295116068E+02  0.82941157051E+02  0.15344351714E+03  0.79193714918E+02 0.  0.
          6    2    1    2  501    0 -0.14095685301E+02  0.14260657511E+03  0.24880578288E+02  0.22517716690E+03  0.17190226789E+03 0.  0.
         24    2    5    5    0    0 -0.52017029456E+02  0.10326362597E+03  0.66472318862E+02  0.15634506048E+03  0.81584685813E+02 0.  0.
          5    1    5    5  501    0  0.37921344155E+02  0.39342949141E+02 -0.41591740574E+02  0.68832106415E+02  0.47000000000E+01 0. -1.
        -11    1    6    6    0    0 -0.54734977897E+02  0.11071186089E+03  0.75166232030E+02  0.14457868579E+03  0.00000000000E+00 0.  1.
         12    1    6    6    0    0  0.27179484410E+01 -0.74482349192E+01 -0.86939131684E+01  0.11766374689E+02  0.00000000000E+00 0. -1.
         -5    1    3    3    0  503 -0.60685460888E+02 -0.73311459047E+02  0.60620691580E+02  0.11293473088E+03  0.47000000000E+01 0.  1.
         11    1    4    4    0    0  0.35516150844E+02 -0.55720487976E+02  0.64410089118E+01  0.66390182609E+02  0.00000000000E+00 0. -1.
        -12    1    4    4    0    0  0.39264995345E+02 -0.13574628092E+02  0.76500148139E+02  0.87053334529E+02  0.00000000000E+00 0.  1.
</event>
<event>
12    1  0.8724767E-002  0.1787372E+03  0.7818608E-02  0.1169231E+00
         21   -1    0    0  503  502  0.00000000000E+00  0.00000000000E+00  0.18254978608E+03  0.18254978608E+03  0.00000000000E+00 0. -1.
         21   -1    0    0  501  503 -0.00000000000E+00 -0.00000000000E+00 -0.20738055931E+03  0.20738055931E+03  0.00000000000E+00 0. -1.
          6    2    1    2  501    0  0.46026852558E+02 -0.15902417814E+02 -0.90421524947E+02  0.20030737002E+03  0.17197567346E+03 0.  0.
         24    2    3    3    0    0  0.33923641405E+02 -0.75708161929E+02 -0.53657380084E+02  0.12891474367E+03  0.82809162952E+02 0.  0.
         -6    2    1    2    0  502 -0.46026852558E+02  0.15902417814E+02  0.65590751715E+02  0.18962297537E+03  0.17112383828E+03 0.  0.
        -24    2    5    5    0    0 -0.75248003177E+01  0.52517086640E+02  0.88975989922E+02  0.13138208453E+03  0.80807538901E+02 0.  0.
          5    1    3    3  501    0  0.12103211152E+02  0.59805744116E+02 -0.36764144863E+02  0.71392626348E+02  0.47000000000E+01 0. -1.
        -13    1    4    4    0    0 -0.13706493781E+02 -0.67242156810E+02 -0.35304698478E+02  0.77173812650E+02  0.00000000000E+00 0.  1.
         14    1    4    4    0    0  0.47630135187E+02 -0.84660051189E+01 -0.18352681606E+02  0.51740931019E+02  0.00000000000E+00 0. -1.
         -5    1    5    5    0  502 -0.38502052240E+02 -0.36614668826E+02 -0.23385238207E+02  0.58240890841E+02  0.47000000000E+01 0.  1.
         11    1    6    6    0    0 -0.17494112268E+02 -0.99636349624E+01  0.57079240326E+02  0.60525677707E+02  0.00000000000E+00 0. -1.
        -12    1    6    6    0    0  0.99693119502E+01  0.62480721602E+02  0.31896749596E+02  0.70856406820E+02  0.00000000000E+00 0.  1.
</event>
<event>
12    1  0.8724767E-002  0.1733314E+03  0.7818608E-02  0.1177982E+00
         21   -1    0    0  503  502  0.00000000000E+00  0.00000000000E+00  0.30566035828E+03  0.30566035828E+03  0.00000000000E+00 0.  1.
         21   -1    0    0  501  503 -0.00000000000E+00 -0.00000000000E+00 -0.11762291328E+03  0.11762291328E+03  0.00000000000E+00 0.  1.
          6    2    1    2  501    0  0.29163458149E+01 -0.24980016063E+02  0.19790633941E+03  0.26307927269E+03  0.17149716693E+03 0.  0.
         24    2    3    3    0    0  0.51918851216E+02 -0.59811463170E+02  0.13588521300E+03  0.17657386613E+03  0.80253104916E+02 0.  0.
         -6    2    1    2    0  502 -0.29163458149E+01  0.24980016063E+02 -0.98688944014E+01  0.16020399888E+03  0.15790953076E+03 0.  0.
        -24    2    5    5    0    0 -0.36064599652E+02 -0.32832967389E+02 -0.37838391138E+01  0.93119979274E+02  0.79236065059E+02 0.  0.
          5    1    3    3  501    0 -0.49002505402E+02  0.34831447107E+02  0.62021126409E+02  0.86505406560E+02  0.47000000000E+01 0. -1.
        -13    1    4    4    0    0  0.12855913730E+02 -0.41052457001E+02  0.11026332635E+02  0.44408994079E+02  0.00000000000E+00 0.  1.
         14    1    4    4    0    0  0.39062937487E+02 -0.18759006168E+02  0.12485888036E+03  0.13216487205E+03  0.00000000000E+00 0. -1.
         -5    1    5    5    0  502  0.33148253837E+02  0.57812983452E+02 -0.60850552876E+01  0.67084019601E+02  0.47000000000E+01 0.  1.
         13    1    6    6    0    0 -0.32987865943E+02 -0.39179990402E+01  0.32600219945E+02  0.46543789665E+02  0.00000000000E+00 0. -1.
        -14    1    6    6    0    0 -0.30767337091E+01 -0.28914968349E+02 -0.36384059059E+02  0.46576189609E+02  0.00000000000E+00 0.  1.
</event>
<event>
12    1  0.8724767E-002  0.2277072E+03  0.7818608E-02  0.1128273E+00
         21   -1    0    0  503  502  0.00000000000E+00  0.00000000000E+00  0.39893597308E+02  0.39893597308E+02  0.00000000000E+00 0.  1.
         21   -1    0    0  501  503 -0.00000000000E+00 -0.00000000000E+00 -0.13272709891E+04  0.13272709891E+04  0.00000000000E+00 0.  1.
          6    2    1    2  501    0  0.22669111812E+02 -0.14601150664E+03 -0.54463197161E+03  0.59029822411E+03  0.17318995408E+03 0.  0.
         24    2    3    3    0    0  0.80726951525E+02 -0.74623915873E+02 -0.33277064853E+03  0.35926963046E+03  0.79074606098E+02 0.  0.
         -6    2    1    2    0  502 -0.22669111812E+02  0.14601150664E+03 -0.74274542015E+03  0.77686636226E+03  0.17325512101E+03 0.  0.
        -24    2    5    5    0    0 -0.58570344874E+02  0.32044013354E+02 -0.26835809041E+03  0.28763950621E+03  0.79139855662E+02 0.  0.
          5    1    3    3  501    0 -0.58057839713E+02 -0.71387590764E+02 -0.21186132308E+03  0.23102859365E+03  0.47000000000E+01 0. -1.
        -11    1    4    4    0    0  0.33099922655E+02 -0.63970575369E+02 -0.11194076389E+03  0.13311113407E+03  0.00000000000E+00 0.  1.
         12    1    4    4    0    0  0.47627028870E+02 -0.10653340505E+02 -0.22082988464E+03  0.22615849639E+03  0.00000000000E+00 0. -1.
         -5    1    5    5    0  502  0.35901233062E+02  0.11396749328E+03 -0.47438732974E+03  0.48922685604E+03  0.47000000000E+01 0.  1.
         11    1    6    6    0    0  0.88479889512E+01  0.60250768985E+01 -0.10736307706E+01  0.10758305775E+02  0.00000000000E+00 0. -1.
        -12    1    6    6    0    0 -0.67418333826E+02  0.26018936455E+02 -0.26728445964E+03  0.27688120044E+03  0.00000000000E+00 0.  1.
</event>
<event>
12    1  0.8724767E-002  0.4382801E+03  0.7818608E-02  0.1031321E+00
         21   -1    0    0  503  502  0.00000000000E+00  0.00000000000E+00  0.20240706220E+03  0.20240706220E+03  0.00000000000E+00 0.  1.
         21   -1    0    0  501  503 -0.00000000000E+00 -0.00000000000E+00 -0.94860197779E+03  0.94860197779E+03  0.00000000000E+00 0. -1.
          6    2    1    2  501    0 -0.39431915776E+03 -0.88498629604E+02 -0.35559664996E+03  0.56393453957E+03  0.16808801812E+03 0.  0.
         24    2    3    3    0    0 -0.40081375395E+03 -0.69276979933E+02 -0.34850496635E+03  0.54193377658E+03  0.82374397271E+02 0.  0.
         -6    2    1    2    0  502  0.39431915776E+03  0.88498629604E+02 -0.39059826563E+03  0.58707450043E+03  0.16961679845E+03 0.  0.
        -24    2    5    5    0    0  0.23958739981E+03  0.45398975164E+02 -0.32404982145E+03  0.41314841684E+03  0.78867854379E+02 0.  0.
          5    1    3    3  501    0  0.64945961836E+01 -0.19221649671E+02 -0.70916836115E+01  0.22000762989E+02  0.47000000000E+01 0. -1.
        -13    1    4    4    0    0 -0.30969939354E+03 -0.20508740357E+02 -0.24239824311E+03  0.39381624021E+03  0.00000000000E+00 0.  1.
         14    1    4    4    0    0 -0.91114360409E+02 -0.48768239576E+02 -0.10610672324E+03  0.14811753637E+03  0.00000000000E+00 0. -1.
         -5    1    5    5    0  502  0.15473175795E+03  0.43099654440E+02 -0.66548444180E+02  0.17392608359E+03  0.47000000000E+01 0.  1.
         11    1    6    6    0    0  0.16090199628E+03  0.67588422500E+02 -0.21879806107E+03  0.27987539869E+03  0.00000000000E+00 0. -1.
        -12    1    6    6    0    0  0.78685403529E+02 -0.22189447336E+02 -0.10525176039E+03  0.13327301815E+03  0.00000000000E+00 0.  1.
</event>
<event>
12    1  0.8724767E-002  0.1732849E+03  0.7818608E-02  0.1174512E+00
         21   -1    0    0  503  502  0.00000000000E+00  0.00000000000E+00  0.43542089763E+02  0.43542089763E+02  0.00000000000E+00 0.  1.
         21   -1    0    0  501  503 -0.00000000000E+00 -0.00000000000E+00 -0.11531511932E+04  0.11531511932E+04  0.00000000000E+00 0.  1.
          6    2    1    2  501    0 -0.12633396493E+02  0.15638231755E+02 -0.93428445302E+03  0.95018488112E+03  0.17192938131E+03 0.  0.
         24    2    3    3    0    0 -0.58899980363E+02  0.50964291310E+02 -0.55899799585E+03  0.57038158703E+03  0.82400417377E+02 0.  0.
         -6    2    1    2    0  502  0.12633396493E+02 -0.15638231755E+02 -0.17532465038E+03  0.24650840181E+03  0.17211479347E+03 0.  0.
        -24    2    5    5    0    0  0.43768401713E+02 -0.24567186477E+02 -0.18821482912E+03  0.21133225236E+03  0.81959010149E+02 0.  0.
          5    1    3    3  501    0  0.46266583870E+02 -0.35326059555E+02 -0.37528645717E+03  0.37980329409E+03  0.47000000000E+01 0. -1.
        -13    1    4    4    0    0 -0.19856245839E+01 -0.21031154578E+00 -0.30723594909E+03  0.30724243742E+03  0.00000000000E+00 0.  1.
         14    1    4    4    0    0 -0.56914355779E+02  0.51174602856E+02 -0.25176204676E+03  0.26313914961E+03  0.00000000000E+00 0. -1.
         -5    1    5    5    0  502 -0.31135005220E+02  0.89289547217E+01  0.12890178737E+02  0.35176149453E+02  0.47000000000E+01 0.  1.
         11    1    6    6    0    0  0.13189760664E+02 -0.51233836660E+02 -0.13019663994E+03  0.14053483859E+03  0.00000000000E+00 0. -1.
        -12    1    6    6    0    0  0.30578641049E+02  0.26666650182E+02 -0.58018189182E+02  0.70797413768E+02  0.00000000000E+00 0.  1.
</event>
<event>
12    1  0.8724767E-002  0.2706315E+03  0.7818608E-02  0.1101069E+00
         21   -1    0    0  501  502  0.00000000000E+00  0.00000000000E+00  0.28641458978E+03  0.28641458978E+03  0.00000000000E+00 0.  1.
         21   -1    0    0  502  503 -0.00000000000E+00 -0.00000000000E+00 -0.42989897776E+03  0.42989897776E+03  0.00000000000E+00 0.  1.
         -6    2    1    2    0  503 -0.97635127230E+02  0.18475321723E+03 -0.30045160998E+03  0.40436689288E+03  0.17197396539E+03 0.  0.
        -24    2    3    3    0    0 -0.60678238672E+02  0.11824135774E+03 -0.28686353048E+03  0.32693069353E+03  0.83247377890E+02 0.  0.
          6    2    1    2  501    0  0.97635127230E+02 -0.18475321723E+03  0.15696722200E+03  0.31194667465E+03  0.17031045094E+03 0.  0.
         24    2    5    5    0    0  0.50507921567E+02 -0.11505256299E+03  0.17091716933E+03  0.22653095160E+03  0.79469811044E+02 0.  0.
          5    1    5    5  501    0  0.47127205662E+02 -0.69700654239E+02 -0.13949947331E+02  0.85415723058E+02  0.47000000000E+01 0. -1.
        -13    1    6    6    0    0  0.43644144836E+02 -0.11272860518E+03  0.10470672581E+03  0.15992513321E+03  0.00000000000E+00 0.  1.
         14    1    6    6    0    0  0.68637767312E+01 -0.23239578123E+01  0.66210443522E+02  0.66605818382E+02  0.00000000000E+00 0. -1.
         -5    1    3    3    0  503 -0.36956888558E+02  0.66511859489E+02 -0.13588079499E+02  0.77436199345E+02  0.47000000000E+01 0.  1.
         13    1    4    4    0    0  0.87080954787E+01  0.70340349532E+02 -0.15468651309E+03  0.17015144146E+03  0.00000000000E+00 0. -1.
        -14    1    4    4    0    0 -0.69386334151E+02  0.47901008212E+02 -0.13217701739E+03  0.15677925208E+03  0.00000000000E+00 0.  1.
</event>
<event>
12    1  0.8724767E-002  0.2658348E+03  0.7818608E-02  0.1103845E+00
         21   -1    0    0  501  502  0.00000000000E+00  0.00000000000E+00  0.18613885072E+03  0.18613885072E+03  0.00000000000E+00 0.  1.
         21   -1    0    0  502  503 -0.00000000000E+00 -0.00000000000E+00 -0.38820523163E+03  0.38820523163E+03  0.00000000000E+00 0. -1.
         -6    2    1    2    0  503  0.18515569477E+03 -0.79330407788E+02 -0.14714005453E+03  0.30289417472E+03  0.17181018750E+03 0.  0.
        -24    2    3    3    0    0  0.12171684143E+02 -0.25931405350E+02 -0.37454845799E+02  0.91168275487E+02  0.78026926782E+02 0.  0.
          6    2    1    2  501    0 -0.18515569477E+03  0.79330407788E+02 -0.54926326374E+02  0.27144990763E+03  0.17347105268E+03 0.  0.
         24    2    5    5    0    0 -0.17579420415E+03  0.11105836945E+03 -0.21916300126E+02  0.22448127032E+03  0.81694264644E+02 0.  0.
          5    1    5    5  501    0 -0.93614906177E+01 -0.31727961660E+02 -0.33010026248E+02  0.46968637308E+02  0.47000000000E+01 0. -1.
        -13    1    6    6    0    0 -0.90148781356E+02  0.95422546357E+02 -0.36397251939E+02  0.13622417216E+03  0.00000000000E+00 0.  1.
         14    1    6    6    0    0 -0.85645422793E+02  0.15635823091E+02  0.14480951813E+02  0.88257098154E+02  0.00000000000E+00 0. -1.
         -5    1    3    3    0  503  0.17298401062E+03 -0.53399002438E+02 -0.10968520873E+03  0.21172589924E+03  0.47000000000E+01 0.  1.
         11    1    4    4    0    0  0.20451356235E+02  0.18122376244E+02 -0.37430091738E+02  0.46343179219E+02  0.00000000000E+00 0. -1.
        -12    1    4    4    0    0 -0.82796720918E+01 -0.44053781594E+02 -0.24754060686E-01  0.44825096268E+02  0.00000000000E+00 0.  1.
</event>
<event>
12    1  0.8724767E-002  0.2334478E+03  0.7818608E-02  0.1124256E+00
         21   -1    0    0  501  502  0.00000000000E+00  0.00000000000E+00  0.35140828357E+03  0.35140828357E+03  0.00000000000E+00 0.  1.
         21   -1    0    0  502  503 -0.00000000000E+00 -0.00000000000E+00 -0.17119985131E+03  0.17119985131E+03  0.00000000000E+00 0.  1.
         -6    2    1    2    0  503 -0.83693265234E+02 -0.13468680386E+03  0.97645110262E+01  0.23365189136E+03  0.17132648039E+03 0.  0.
        -24    2    3    3    0    0 -0.12484408996E+03 -0.90338350923E+02  0.52190909958E+01  0.17280021516E+03  0.78010326265E+02 0.  0.
          6    2    1    2  501    0  0.83693265234E+02  0.13468680386E+03  0.17044392123E+03  0.28895624351E+03  0.17117091634E+03 0.  0.
         24    2    5    5    0    0  0.36731701673E+02  0.25511308004E+02  0.13165970729E+03  0.16385235629E+03  0.86679128946E+02 0.  0.
          5    1    5    5  501    0  0.46961563562E+02  0.10917549586E+03  0.38784213949E+02  0.12510388723E+03  0.47000000000E+01 0. -1.
        -11    1    6    6    0    0  0.24980598905E+02  0.55044582632E+02  0.58653345756E+02  0.84226785331E+02  0.00000000000E+00 0.  1.
         12    1    6    6    0    0  0.11751102768E+02 -0.29533274628E+02  0.73006361529E+02  0.79625570957E+02  0.00000000000E+00 0. -1.
         -5    1    3    3    0  503  0.41150824724E+02 -0.44348452936E+02  0.45454200303E+01  0.60851676202E+02  0.47000000000E+01 0.  1.
         13    1    4    4    0    0  0.32235609197E+01 -0.22459110414E+01 -0.15495684087E+02  0.15985984071E+02  0.00000000000E+00 0. -1.
        -14    1    4    4    0    0 -0.12806765088E+03 -0.88092439882E+02  0.20714775082E+02  0.15681423109E+03  0.00000000000E+00 0.  1.
</event>
<event>
12    1  0.8724767E-002  0.2322963E+03  0.7818608E-02  0.1125334E+00
         21   -1    0    0  501  502  0.00000000000E+00  0.00000000000E+00  0.13185468720E+03  0.13185468720E+03  0.00000000000E+00 0. -1.
         21   -1    0    0  502  503 -0.00000000000E+00 -0.00000000000E+00 -0.41854794241E+03  0.41854794241E+03  0.00000000000E+00 0. -1.
         -6    2    1    2    0  503 -0.61393868505E+01  0.15378705489E+03 -0.95615649388E+02  0.24961661247E+03  0.17169143978E+03 0.  0.
        -24    2    3    3    0    0  0.37793533345E+02  0.31386361895E+02 -0.67772995366E+02  0.11654018892E+03  0.81086261831E+02 0.  0.
          6    2    1    2  501    0  0.61393868505E+01 -0.15378705489E+03 -0.19107760582E+03  0.30078601714E+03  0.17399260427E+03 0.  0.
         24    2    5    5    0    0  0.65669394064E+02 -0.68991569875E+02 -0.74807109771E+02  0.14498160678E+03  0.79694771478E+02 0.  0.
          5    1    5    5  501    0 -0.59530007213E+02 -0.84795485012E+02 -0.11627049605E+03  0.15580441036E+03  0.47000000000E+01 0. -1.
        -11    1    6    6    0    0  0.36152318752E+02  0.36617093104E+01  0.38195728893E+00  0.36339292200E+02  0.00000000000E+00 0.  1.
         12    1    6    6    0    0  0.29517075311E+02 -0.72653279185E+02 -0.75189067060E+02  0.10864231458E+03  0.00000000000E+00 0. -1.
         -5    1    3    3    0  503 -0.43932920195E+02  0.12240069299E+03 -0.27842654022E+02  0.13307642355E+03  0.47000000000E+01 0.  1.
         13    1    4    4    0    0 -0.90277866715E+01  0.35253508287E+02 -0.29881941754E+01  0.36513560264E+02  0.00000000000E+00 0. -1.
        -14    1    4    4    0    0  0.46821320016E+02 -0.38671463920E+01 -0.64784801190E+02  0.80026628659E+02  0.00000000000E+00 0.  1.
</event>
<event>
12    1  0.8724767E-002  0.2287128E+03  0.7818608E-02  0.1127677E+00
         21   -1    0    0  503  502  0.00000000000E+00  0.00000000000E+00  0.17042608371E+03  0.17042608371E+03  0.00000000000E+00 0.  1.
         21   -1    0    0  501  503 -0.00000000000E+00 -0.00000000000E+00 -0.31750100996E+03  0.31750100996E+03  0.00000000000E+00 0. -1.
          6    2    1    2  501    0 -0.73994731026E+02 -0.12984930487E+03 -0.11992552406E+03  0.25760854833E+03  0.17217424504E+03 0.  0.
         24    2    3    3    0    0 -0.48186784499E+02 -0.15053117191E+03 -0.56461722825E+02  0.18589011418E+03  0.79910002439E+02 0.  0.
         -6    2    1    2    0  502  0.73994731026E+02  0.12984930487E+03 -0.27149402182E+02  0.23031854534E+03  0.17312850745E+03 0.  0.
        -24    2    5    5    0    0  0.66511194402E+02  0.15906015214E+02  0.19612392035E+02  0.10683643337E+03  0.79703433257E+02 0.  0.
          5    1    3    3  501    0 -0.25807946526E+02  0.20681867043E+02 -0.63463801239E+02  0.71718434143E+02  0.47000000000E+01 0. -1.
        -13    1    4    4    0    0  0.22160874537E+02 -0.34133095084E+02 -0.18381556667E+02  0.44654833622E+02  0.00000000000E+00 0.  1.
         14    1    4    4    0    0 -0.70347659037E+02 -0.11639807683E+03 -0.38080166157E+02  0.14123528056E+03  0.00000000000E+00 0. -1.
         -5    1    5    5    0  502  0.74835366234E+01  0.11394328965E+03 -0.46761794217E+02  0.12348211197E+03  0.47000000000E+01 0.  1.
         13    1    6    6    0    0  0.29369995777E+02 -0.26892851155E+02 -0.12455105687E+02  0.41724713934E+02  0.00000000000E+00 0. -1.
        -14    1    6    6    0    0  0.37141198625E+02  0.42798866369E+02  0.32067497722E+02  0.65111719436E+02  0.00000000000E+00 0.  1.
</event>
<event>
12    1  0.8724767E-002  0.1745336E+03  0.7818608E-02  0.1173300E+00
         21   -1    0    0  503  502  0.00000000000E+00  0.00000000000E+00  0.46610487186E+02  0.46610487186E+02  0.00000000000E+00 0.  1.
         21   -1    0    0  501  503 -0.00000000000E+00 -0.00000000000E+00 -0.79688422037E+03  0.79688422037E+03  0.00000000000E+00 0.  1.
          6    2    1    2  501    0 -0.90453467038E+01 -0.26027645994E+02 -0.55457657701E+03  0.58127463959E+03  0.17194699823E+03 0.  0.
         24    2    3    3    0    0 -0.27477353584E+01 -0.47857368196E+02 -0.54964365119E+03  0.55755501823E+03  0.80383936981E+02 0.  0.
         -6    2    1    2    0  502  0.90453467038E+01  0.26027645994E+02 -0.19569715617E+03  0.26222006797E+03  0.17234480108E+03 0.  0.
        -24    2    5    5    0    0 -0.31627257595E+02 -0.26868365731E+02 -0.16915169101E+03  0.19025479497E+03  0.76566310720E+02 0.  0.
          5    1    3    3  501    0 -0.62976113454E+01  0.21829722202E+02 -0.49329258288E+01  0.23719621357E+02  0.47000000000E+01 0. -1.
        -11    1    4    4    0    0  0.16471013859E+02  0.93251129072E+01 -0.30487600894E+03  0.30546298116E+03  0.00000000000E+00 0.  1.
         12    1    4    4    0    0 -0.19218749217E+02 -0.57182481103E+02 -0.24476764224E+03  0.25209203707E+03  0.00000000000E+00 0. -1.
         -5    1    5    5    0  502  0.40672604299E+02  0.52896011725E+02 -0.26545465153E+02  0.71965272994E+02  0.47000000000E+01 0.  1.
         11    1    6    6    0    0 -0.12841166188E+02  0.26719402486E+02 -0.69520253486E+02  0.75577031319E+02  0.00000000000E+00 0. -1.
        -12    1    6    6    0    0 -0.18786091407E+02 -0.53587768216E+02 -0.99631437526E+02  0.11467776365E+03  0.00000000000E+00 0.  1.
</event>
<event>
12    1  0.8724767E-002  0.1865809E+03  0.7818608E-02  0.1161600E+00
         21   -1    0    0  501  502  0.00000000000E+00  0.00000000000E+00  0.79063594968E+03  0.79063594968E+03  0.00000000000E+00 0.  1.
         21   -1    0    0  502  503 -0.00000000000E+00 -0.00000000000E+00 -0.44492096845E+02  0.44492096845E+02  0.00000000000E+00 0.  1.
         -6    2    1    2    0  503  0.51932329783E+02  0.52000448492E+02  0.32964714177E+03  0.37874887844E+03  0.17141313056E+03 0.  0.
        -24    2    3    3    0    0  0.82877657497E+02  0.46633192478E+02  0.14312100296E+03  0.18953864827E+03  0.79986979861E+02 0.  0.
          6    2    1    2  501    0 -0.51932329783E+02 -0.52000448492E+02  0.41649671107E+03  0.45637916808E+03  0.17149758367E+03 0.  0.
         24    2    5    5    0    0 -0.93195791393E+01 -0.70755712891E+02  0.38695793691E+03  0.40104169760E+03  0.77490469194E+02 0.  0.
          5    1    5    5  501    0 -0.42612750643E+02  0.18755264399E+02  0.29538774160E+02  0.55337470478E+02  0.47000000000E+01 0. -1.
        -13    1    6    6    0    0 -0.23443665384E+02 -0.11498720974E+02  0.34022732093E+02  0.42887904236E+02  0.00000000000E+00 0.  1.
         14    1    6    6    0    0  0.14124086245E+02 -0.59256991917E+02  0.35293520482E+03  0.35815379337E+03  0.00000000000E+00 0. -1.
         -5    1    3    3    0  503 -0.30945327714E+02  0.53672560146E+01  0.18652613881E+03  0.18921023018E+03  0.47000000000E+01 0.  1.
         11    1    4    4    0    0  0.17638349116E+02  0.37140063387E+02  0.10641684862E+03  0.11408348408E+03  0.00000000000E+00 0. -1.
        -12    1    4    4    0    0  0.65239308381E+02  0.94931290904E+01  0.36704154333E+02  0.75455164192E+02  0.00000000000E+00 0.  1.
</event>
<event>
12    1  0.8724767E-002  0.2703022E+03  0.7818608E-02  0.1101209E+00
         21   -1    0    0  501  502  0.00000000000E+00  0.00000000000E+00  0.10191760252E+04  0.10191760252E+04  0.00000000000E+00 0.  1.
         21   -1    0    0  502  503 -0.00000000000E+00 -0.00000000000E+00 -0.84211150670E+02  0.84211150670E+02  0.00000000000E+00 0.  1.
         -6    2    1    2    0  503 -0.12045458292E+03 -0.16974686089E+03  0.25365899135E+03  0.37068336257E+03  0.17245279953E+03 0.  0.
        -24    2    3    3    0    0 -0.25799948160E+02 -0.10052236229E+03  0.20603491622E+03  0.24402763384E+03  0.79553232062E+02 0.  0.
          6    2    1    2  501    0  0.12045458292E+03  0.16974686089E+03  0.68130588319E+03  0.73270381331E+03  0.17132970625E+03 0.  0.
         24    2    5    5    0    0  0.15289326475E+03  0.15979972455E+03  0.58810160231E+03  0.63340456068E+03  0.80159469007E+02 0.  0.
          5    1    5    5  501    0 -0.32438681827E+02  0.99471363404E+01  0.93204280880E+02  0.99299252637E+02  0.47000000000E+01 0. -1.
        -11    1    6    6    0    0  0.16008122046E+02  0.38549996794E+02  0.20094830723E+03  0.20523787273E+03  0.00000000000E+00 0.  1.
         12    1    6    6    0    0  0.13688514270E+03  0.12124972775E+03  0.38715329508E+03  0.42816668795E+03  0.00000000000E+00 0. -1.
         -5    1    3    3    0  503 -0.94654634762E+02 -0.69224498598E+02  0.47624075137E+02  0.12665572873E+03  0.47000000000E+01 0.  1.
         11    1    4    4    0    0 -0.39019879067E+02 -0.11891617053E+02  0.56262442733E+02  0.69494057162E+02  0.00000000000E+00 0. -1.
        -12    1    4    4    0    0  0.13219930907E+02 -0.88630745237E+02  0.14977247348E+03  0.17453357668E+03  0.00000000000E+00 0.  1.
</event>
<event>
12    1  0.8724767E-002  0.2323823E+03  0.7818608E-02  0.1125363E+00
         21   -1    0    0  503  502  0.00000000000E+00  0.00000000000E+00  0.38031383812E+03  0.38031383812E+03  0.00000000000E+00 0.  1.
         21   -1    0    0  501  503 -0.00000000000E+00 -0.00000000000E+00 -0.34650211256E+03  0.34650211256E+03  0.00000000000E+00 0. -1.
          6    2    1    2  501    0  0.13117389863E+03  0.77586117253E+02 -0.26324093968E+03  0.34966636067E+03  0.17246615375E+03 0.  0.
         24    2    3    3    0    0  0.29010299920E+02  0.48199383501E+02 -0.20580915784E+03  0.22874704630E+03  0.82480444175E+02 0.  0.
         -6    2    1    2    0  502 -0.13117389863E+03 -0.77586117253E+02  0.29705266524E+03  0.37714959001E+03  0.17542898861E+03 0.  0.
        -24    2    5    5    0    0 -0.14053423149E+03 -0.51216568717E+02  0.30380601329E+03  0.34798340014E+03  0.80133301035E+02 0.  0.
          5    1    3    3  501    0  0.10216359871E+03  0.29386733752E+02 -0.57431781842E+02  0.12091931437E+03  0.47000000000E+01 0. -1.
        -13    1    4    4    0    0  0.36715855806E+02 -0.69046186343E+01 -0.44453301390E+02  0.58067407645E+02  0.00000000000E+00 0.  1.
         14    1    4    4    0    0 -0.77055558858E+01  0.55104002135E+02 -0.16135585645E+03  0.17067963866E+03  0.00000000000E+00 0. -1.
         -5    1    5    5    0  502  0.93603328611E+01 -0.26369548536E+02 -0.67533480462E+01  0.29166189862E+02  0.47000000000E+01 0.  1.
         11    1    6    6    0    0 -0.36152678920E+02  0.21098205641E+02  0.61066535230E+02  0.74035614399E+02  0.00000000000E+00 0. -1.
        -12    1    6    6    0    0 -0.10438155257E+03 -0.72314774358E+02  0.24273947806E+03  0.27394778574E+03  0.00000000000E+00 0.  1.
</event>
<event>
12    1  0.8724767E-002  0.1800210E+03  0.7818608E-02  0.1168119E+00
         21   -1    0    0  501  502  0.00000000000E+00  0.00000000000E+00  0.39347232214E+02  0.39347232214E+02  0.00000000000E+00 0. -1.
         21   -1    0    0  502  503 -0.00000000000E+00 -0.00000000000E+00 -0.11093512075E+04  0.11093512075E+04  0.00000000000E+00 0. -1.
         -6    2    1    2    0  503  0.38704634944E+02 -0.32851447774E+02 -0.83120643861E+03  0.85047733729E+03  0.17271447905E+03 0.  0.
        -24    2    3    3    0    0 -0.22922915838E+02 -0.36839680461E+02 -0.28289584640E+03  0.29867985945E+03  0.85422341384E+02 0.  0.
          6    2    1    2  501    0 -0.38704634944E+02  0.32851447774E+02 -0.23879753665E+03  0.29822110240E+03  0.17127257813E+03 0.  0.
         24    2    5    5    0    0  0.30421769510E+02  0.12455263475E+02 -0.62841851103E+02  0.10801869073E+03  0.81475896123E+02 0.  0.
          5    1    5    5  501    0 -0.69126404454E+02  0.20396184299E+02 -0.17595568555E+03  0.19020241167E+03  0.47000000000E+01 0. -1.
        -11    1    6    6    0    0 -0.26376253321E+02  0.11330086741E+02 -0.33373780624E+02  0.44021436119E+02  0.00000000000E+00 0.  1.
         12    1    6    6    0    0  0.56798022832E+02  0.11251767338E+01 -0.29468070479E+02  0.63997254613E+02  0.00000000000E+00 0. -1.
         -5    1    3    3    0  503  0.61627550782E+02  0.39882326869E+01 -0.54831059221E+03  0.55179747784E+03  0.47000000000E+01 0.  1.
         11    1    4    4    0    0 -0.40330456080E+02 -0.45983049125E+02 -0.26541121374E+03  0.27236758044E+03  0.00000000000E+00 0. -1.
        -12    1    4    4    0    0  0.17407540242E+02  0.91433686639E+01 -0.17484632654E+02  0.26312279013E+02  0.00000000000E+00 0.  1.
</event>
<event>
12    1  0.8724767E-002  0.2146091E+03  0.7818608E-02  0.1138221E+00
         21   -1    0    0  503  502  0.00000000000E+00  0.00000000000E+00  0.61540963482E+02  0.61540963482E+02  0.00000000000E+00 0. -1.
         21   -1    0    0  501  503 -0.00000000000E+00 -0.00000000000E+00 -0.75427139874E+03  0.75427139874E+03  0.00000000000E+00 0.  1.
          6    2    1    2  501    0 -0.62770896330E+02  0.10931524677E+03 -0.39544838275E+03  0.44992941626E+03  0.17368663620E+03 0.  0.
         24    2    3    3    0    0 -0.53090071860E+02 -0.11029016819E+02 -0.18872127787E+03  0.21048287519E+03  0.75809795431E+02 0.  0.
         -6    2    1    2    0  502  0.62770896330E+02 -0.10931524677E+03 -0.29728205251E+03  0.36588294596E+03  0.17205726605E+03 0.  0.
        -24    2    5    5    0    0  0.66629519774E+00 -0.13751860113E+02 -0.18328643939E+03  0.20461784694E+03  0.89916554753E+02 0.  0.
          5    1    3    3  501    0 -0.96808244701E+01  0.12034426358E+03 -0.20672710487E+03  0.23944654107E+03  0.47000000000E+01 0. -1.
        -11    1    4    4    0    0 -0.21977133973E+02 -0.27201761938E+02 -0.16373060928E+03  0.16742354280E+03  0.00000000000E+00 0.  1.
         12    1    4    4    0    0 -0.31112937888E+02  0.16172745119E+02 -0.24990668597E+02  0.43059332387E+02  0.00000000000E+00 0. -1.
         -5    1    5    5    0  502  0.62104601133E+02 -0.95563386652E+02 -0.11399561312E+03  0.16126509901E+03  0.47000000000E+01 0.  1.
         11    1    6    6    0    0  0.13020672274E+02  0.13032624612E+02  0.54944031697E+00  0.18430656402E+02  0.00000000000E+00 0. -1.
        -12    1    6    6    0    0 -0.12354377076E+02 -0.26784484726E+02 -0.18383587971E+03  0.18618719054E+03  0.00000000000E+00 0.  1.
</event>
<event>
12    1  0.8724767E-002  0.1775695E+03  0.7818608E-02  0.1171129E+00
         21   -1    0    0  503  502  0.00000000000E+00  0.00000000000E+00  0.19957476044E+03  0.19957476044E+03  0.00000000000E+00 0. -1.
         21   -1    0    0  501  503 -0.00000000000E+00 -0.00000000000E+00 -0.18085297939E+03  0.18085297939E+03  0.00000000000E+00 0. -1.
          6    2    1    2  501    0  0.21832304051E+02 -0.15252176276E+02 -0.63182284055E+02  0.18487930860E+03  0.17169472720E+03 0.  0.
         24    2    3    3    0    0  0.35064818669E+02 -0.72192895583E+02 -0.24837824725E+02  0.11480982509E+03  0.78249745804E+02 0.  0.
         -6    2    1    2    0  502 -0.21832304051E+02  0.15252176276E+02  0.81904065103E+02  0.19554843124E+03  0.17556091449E+03 0.  0.
        -24    2    5    5    0    0  0.12810909668E+02  0.27376696690E+02 -0.19182453103E+02  0.87902110283E+02  0.80282074942E+02 0.  0.
          5    1    3    3  501    0 -0.13232514618E+02  0.56940719307E+02 -0.38344459329E+02  0.70069483512E+02  0.47000000000E+01 0. -1.
        -13    1    4    4    0    0  0.51438805151E+02 -0.16975545759E+02 -0.16436477237E+02  0.56606338984E+02  0.00000000000E+00 0.  1.
         14    1    4    4    0    0 -0.16373986482E+02 -0.55217349824E+02 -0.84013474882E+01  0.58203486103E+02  0.00000000000E+00 0. -1.
         -5    1    5    5    0  502 -0.34643213719E+02 -0.12124520414E+02  0.10108651821E+03  0.10764632095E+03  0.47000000000E+01 0.  1.
         13    1    6    6    0    0 -0.63332244560E+00 -0.13017502713E+02  0.23969900254E+02  0.27283925531E+02  0.00000000000E+00 0. -1.
        -14    1    6    6    0    0  0.13444232114E+02  0.40394199402E+02 -0.43152353357E+02  0.60618184753E+02  0.00000000000E+00 0.  1.
</event>
<event>
12    1  0.8724767E-002  0.2285564E+03  0.7818608E-02  0.1128187E+00
         21   -1    0    0  503  502  0.00000000000E+00  0.00000000000E+00  0.17700399459E+03  0.17700399459E+03  0.00000000000E+00 0. -1.
         21   -1    0    0  501  503 -0.00000000000E+00 -0.00000000000E+00 -0.29745562147E+03  0.29745562147E+03  0.00000000000E+00 0. -1.
          6    2    1    2  501    0 -0.13338172487E+03  0.59527535180E+02 -0.94669951694E+02  0.24738723076E+03  0.17579485265E+03 0.  0.
         24    2    3    3    0    0 -0.13905370294E+03  0.14322117179E+02 -0.23848690734E+02  0.16304600623E+03  0.80462318858E+02 0.  0.
         -6    2    1    2    0  502  0.13338172487E+03 -0.59527535180E+02 -0.25781675185E+02  0.22707238529E+03  0.17193883044E+03 0.  0.
        -24    2    5    5    0    0  0.15185114519E+03 -0.40058591292E+02  0.17533215709E+02  0.17590179768E+03  0.77269448964E+02 0.  0.
          5    1    3    3  501    0  0.56719780686E+01  0.45205418000E+02 -0.70821260960E+02  0.84341224533E+02  0.47000000000E+01 0. -1.
        -11    1    4    4    0    0  0.32791045785E+01 -0.10945901794E+02 -0.14115029769E+02  0.18160378804E+02  0.00000000000E+00 0.  1.
         12    1    4    4    0    0 -0.14233280752E+03  0.25268018974E+02 -0.97336609653E+01  0.14488562743E+03  0.00000000000E+00 0. -1.
         -5    1    5    5    0  502 -0.18469420321E+02 -0.19468943888E+02 -0.43314890894E+02  0.51170587609E+02  0.47000000000E+01 0.  1.
         11    1    6    6    0    0  0.70494067171E+02  0.12855337161E+02 -0.15629686831E+02  0.73341395611E+02  0.00000000000E+00 0. -1.
        -12    1    6    6    0    0  0.81357078021E+02 -0.52913928453E+02  0.33162902540E+02  0.10256040207E+03  0.00000000000E+00 0.  1.
</event>
<event>
12    1  0.8724767E-002  0.1786595E+03  0.7818608E-02  0.1169266E+00
         21   -1    0    0  501  502  0.00000000000E+00  0.00000000000E+00  0.38355105150E+02  0.38355105150E+02  0.00000000000E+00 0.  1.
         21   -1    0    0  502  503 -0.00000000000E+00 -0.00000000000E+00 -0.90283455561E+03  0.90283455561E+03  0.00000000000E+00 0.  1.
         -6    2    1    2    0  503  0.41043921696E+02 -0.22741006525E+02 -0.56593245458E+03  0.59326792724E+03  0.17171352147E+03 0.  0.
        -24    2    3    3    0    0 -0.42469922318E+02 -0.26364060289E+02 -0.30991566880E+03  0.32390873719E+03  0.79814724742E+02 0.  0.
          6    2    1    2  501    0 -0.41043921696E+02  0.22741006525E+02 -0.29854699588E+03  0.34792173352E+03  0.17238754892E+03 0.  0.
         24    2    5    5    0    0 -0.71341284120E+02  0.32429588935E+02 -0.11495244614E+03  0.16153276525E+03  0.82082350826E+02 0.  0.
          5    1    5    5  501    0  0.30297362424E+02 -0.96885824097E+01 -0.18359454974E+03  0.18638896828E+03  0.47000000000E+01 0. -1.
        -13    1    6    6    0    0  0.16449204851E+00 -0.22791263538E+02 -0.18297745057E+02  0.29228004130E+02  0.00000000000E+00 0.  1.
         14    1    6    6    0    0 -0.71505776169E+02  0.55220852473E+02 -0.96654701079E+02  0.13230476112E+03  0.00000000000E+00 0. -1.
         -5    1    3    3    0  503  0.83513844015E+02  0.36230537634E+01 -0.25601678578E+03  0.26935919005E+03  0.47000000000E+01 0.  1.
         11    1    4    4    0    0 -0.99850512385E+01 -0.23557997324E+02 -0.20839369316E+02  0.32999390898E+02  0.00000000000E+00 0. -1.
        -12    1    4    4    0    0 -0.32484871080E+02 -0.28060629647E+01 -0.28907629948E+03  0.29090934629E+03  0.00000000000E+00 0.  1.
</event>
<event>
12    1  0.8724767E-002  0.1733678E+03  0.7818608E-02  0.1175201E+00
         21   -1    0    0  503  502  0.00000000000E+00  0.00000000000E+00  0.40044482388E+03  0.40044482388E+03  0.00000000000E+00 0. -1.
         21   -1    0    0  501  503 -0.00000000000E+00 -0.00000000000E+00 -0.41597651036E+03  0.41597651036E+03  0.00000000000E+00 0. -1.
          6    2    1    2  501    0  0.28061699031E+01  0.16918518407E+02 -0.37807332280E+03  0.41592768059E+03  0.17251749829E+03 0.  0.
         24    2    3    3    0    0 -0.54442599995E+01  0.22537016828E+01 -0.52721351370E+02  0.90106991017E+02  0.72835498224E+02 0.  0.
         -6    2    1    2    0  502 -0.28061699031E+01 -0.16918518407E+02  0.36254163631E+03  0.40049365366E+03  0.16930628371E+03 0.  0.
        -24    2    5    5    0    0 -0.22313126673E+02 -0.72319733790E+02  0.26292070460E+03  0.28475154350E+03  0.78918471227E+02 0.  0.
          5    1    3    3  501    0  0.82504299026E+01  0.14664816724E+02 -0.32535197143E+03  0.32582068957E+03  0.47000000000E+01 0. -1.
        -13    1    4    4    0    0  0.21957532530E+02  0.21266252273E+02 -0.47299864761E+02  0.56317527706E+02  0.00000000000E+00 0.  1.
         14    1    4    4    0    0 -0.27401792529E+02 -0.19012550590E+02 -0.54214866089E+01  0.33789463311E+02  0.00000000000E+00 0. -1.
         -5    1    5    5    0  502  0.19506956769E+02  0.55401215383E+02  0.99620931712E+02  0.11574211016E+03  0.47000000000E+01 0.  1.
         11    1    6    6    0    0 -0.10433983999E+02 -0.24433211209E+01  0.15662755880E+03  0.15699372604E+03  0.00000000000E+00 0. -1.
        -12    1    6    6    0    0 -0.11879142673E+02 -0.69876412669E+02  0.10629314580E+03  0.12775781746E+03  0.00000000000E+00 0.  1.
</event>
<event>
12    1  0.8724767E-002  0.1881975E+03  0.7818608E-02  0.1160184E+00
         21   -1    0    0  503  502  0.00000000000E+00  0.00000000000E+00  0.45416799607E+03  0.45416799607E+03  0.00000000000E+00 0. -1.
         21   -1    0    0  501  503 -0.00000000000E+00 -0.00000000000E+00 -0.77849515470E+02  0.77849515470E+02  0.00000000000E+00 0. -1.
          6    2    1    2  501    0 -0.22728455216E+02  0.69519449044E+02  0.19271405771E+03  0.26936409043E+03  0.17340348527E+03 0.  0.
         24    2    3    3    0    0 -0.39418629065E+02 -0.15504651543E+02  0.93509842964E+02  0.13756414428E+03  0.91572815414E+02 0.  0.
         -6    2    1    2    0  502  0.22728455216E+02 -0.69519449044E+02  0.18360442290E+03  0.26265342111E+03  0.17299334971E+03 0.  0.
        -24    2    5    5    0    0  0.29003703058E+02  0.26003723380E+02  0.67863234636E+02  0.11237977783E+03  0.80662180910E+02 0.  0.
          5    1    3    3  501    0  0.16690173849E+02  0.85024100587E+02  0.99204214744E+02  0.13179994616E+03  0.47000000000E+01 0. -1.
        -11    1    4    4    0    0  0.22385787935E+02  0.15479686948E+02  0.46764613827E+02  0.54107978301E+02  0.00000000000E+00 0.  1.
         12    1    4    4    0    0 -0.61804417000E+02 -0.30984338491E+02  0.46745229137E+02  0.83456165977E+02  0.00000000000E+00 0. -1.
         -5    1    5    5    0  502 -0.62752478418E+01 -0.95523172423E+02  0.11574118826E+03  0.15027364328E+03  0.47000000000E+01 0.  1.
         11    1    6    6    0    0  0.20564613560E+02 -0.25795569459E+02  0.43295865860E+02  0.54432037764E+02  0.00000000000E+00 0. -1.
        -12    1    6    6    0    0  0.84390894983E+01  0.51799292839E+02  0.24567368776E+02  0.57947740066E+02  0.00000000000E+00 0.  1.
</event>
<event>
12    1  0.8724767E-002  0.1913757E+03  0.7818608E-02  0.1157259E+00
         21   -1    0    0  501  502  0.00000000000E+00  0.00000000000E+00  0.24635242920E+02  0.24635242920E+02  0.00000000000E+00 0. -1.
         21   -1    0    0  502  503 -0.00000000000E+00 -0.00000000000E+00 -0.14890997845E+04  0.14890997845E+04  0.00000000000E+00 0. -1.
         -6    2    1    2    0  503  0.20886900507E+02  0.81037241790E+02 -0.69495190558E+03  0.72078209398E+03  0.17194585994E+03 0.  0.
        -24    2    3    3    0    0 -0.18184777042E+02 -0.11928331293E+02 -0.42931675295E+03  0.43661081098E+03  0.76440530459E+02 0.  0.
          6    2    1    2  501    0 -0.20886900507E+02 -0.81037241790E+02 -0.76951263597E+03  0.79295293342E+03  0.17210857193E+03 0.  0.
         24    2    5    5    0    0  0.23798768613E+01 -0.10976484886E+03 -0.70382220329E+03  0.71742849179E+03  0.85346125461E+02 0.  0.
          5    1    5    5  501    0 -0.23266777369E+02  0.28727607074E+02 -0.65690432680E+02  0.75524441626E+02  0.47000000000E+01 0. -1.
        -13    1    6    6    0    0  0.84520356043E+01 -0.39764108054E+02 -0.50354851835E+03  0.50518682834E+03  0.00000000000E+00 0.  1.
         14    1    6    6    0    0 -0.60721587430E+01 -0.70000740810E+02 -0.20027368494E+03  0.21224166345E+03  0.00000000000E+00 0. -1.
         -5    1    3    3    0  503  0.39071677550E+02  0.92965573084E+02 -0.26563515263E+03  0.28417128300E+03  0.47000000000E+01 0.  1.
         13    1    4    4    0    0  0.20632700425E+02 -0.28569101841E+02 -0.14777358553E+03  0.15191752528E+03  0.00000000000E+00 0. -1.
        -14    1    4    4    0    0 -0.38817477467E+02  0.16640770548E+02 -0.28154316742E+03  0.28469328569E+03  0.00000000000E+00 0.  1.
</event>
<event>
12    1  0.8724767E-002  0.2313941E+03  0.7818608E-02  0.1125920E+00
         21   -1    0    0  503  502  0.00000000000E+00  0.00000000000E+00  0.28254048910E+03  0.28254048910E+03  0.00000000000E+00 0.  1.
         21   -1    0    0  501  503 -0.00000000000E+00 -0.00000000000E+00 -0.23897141705E+03  0.23897141705E+03  0.00000000000E+00 0.  1.
          6    2    1    2  501    0 -0.12308463409E+03  0.91272556201E+02 -0.98338586335E+02  0.25006947878E+03  0.17141691863E+03 0.  0.
         24    2    3    3    0    0 -0.25014682680E+02 -0.38103618815E+01 -0.56012199040E+01  0.84900517374E+02  0.80848444503E+02 0.  0.
         -6    2    1    2    0  502  0.12308463409E+03 -0.91272556201E+02  0.14190765839E+03  0.27144242736E+03  0.17338598906E+03 0.  0.
        -24    2    5    5    0    0  0.15341121500E+03 -0.80984443100E+02  0.93169757140E+02  0.21293584825E+03  0.81040674429E+02 0.  0.
          5    1    3    3  501    0 -0.98069951405E+02  0.95082918083E+02 -0.92737366431E+02  0.16516896141E+03  0.47000000000E+01 0. -1.
        -13    1    4    4    0    0 -0.47130773005E+02 -0.18583222277E+02 -0.20223906731E+02  0.54549540032E+02  0.00000000000E+00 0.  1.
         14    1    4    4    0    0  0.22116090325E+02  0.14772860396E+02  0.14622686827E+02  0.30350977341E+02  0.00000000000E+00 0. -1.
         -5    1    5    5    0  502 -0.30326580919E+02 -0.10288113102E+02  0.48737901245E+02  0.58506579111E+02  0.47000000000E+01 0.  1.
         11    1    6    6    0    0  0.25295635154E+02  0.16228799879E+02  0.20987870634E+02  0.36656975013E+02  0.00000000000E+00 0. -1.
        -12    1    6    6    0    0  0.12811557985E+03 -0.97213242978E+02  0.72181886507E+02  0.17627887324E+03  0.00000000000E+00 0.  1.
</event>
<event>
12    1  0.8724767E-002  0.2394517E+03  0.7818608E-02  0.1120461E+00
         21   -1    0    0  501  502  0.00000000000E+00  0.00000000000E+00  0.21934723078E+03  0.21934723078E+03  0.00000000000E+00 0. -1.
         21   -1    0    0  502  503 -0.00000000000E+00 -0.00000000000E+00 -0.42242369724E+03  0.42242369724E+03  0.00000000000E+00 0. -1.
         -6    2    1    2    0  503 -0.11595757252E+03  0.11991635590E+03 -0.30109491142E+03  0.38470152116E+03  0.17178772849E+03 0.  0.
        -24    2    3    3    0    0 -0.98714377835E+02  0.13850054684E+02 -0.19890150903E+03  0.23633383765E+03  0.79721516030E+02 0.  0.
          6    2    1    2  501    0  0.11595757252E+03 -0.11991635590E+03  0.98018444970E+02  0.25706940686E+03  0.16926598404E+03 0.  0.
         24    2    5    5    0    0  0.36808829222E+01 -0.23011972548E+02  0.48826739894E+01  0.81875581700E+02  0.78336904418E+02 0.  0.
          5    1    5    5  501    0  0.11227668959E+03 -0.96904383354E+02  0.93135770981E+02  0.17519382516E+03  0.47000000000E+01 0. -1.
        -11    1    6    6    0    0  0.80078939497E+01  0.71839077946E+01 -0.32147059706E+02  0.33899385606E+02  0.00000000000E+00 0.  1.
         12    1    6    6    0    0 -0.43270110275E+01 -0.30195880343E+02  0.37029733695E+02  0.47976196094E+02  0.00000000000E+00 0. -1.
         -5    1    3    3    0  503 -0.17243194680E+02  0.10606630122E+03 -0.10219340240E+03  0.14836768351E+03  0.47000000000E+01 0.  1.
         13    1    4    4    0    0 -0.33552651804E+02  0.37451697439E+02 -0.12640993885E+03  0.13604367948E+03  0.00000000000E+00 0. -1.
        -14    1    4    4    0    0 -0.65161726032E+02 -0.23601642755E+02 -0.72491570171E+02  0.10029015817E+03  0.00000000000E+00 0.  1.
</event>
<event>
12    1  0.8724767E-002  0.2004450E+03  0.7818608E-02  0.1150301E+00
         21   -1    0    0  501  502  0.00000000000E+00  0.00000000000E+00  0.15690215991E+03  0.15690215991E+03  0.00000000000E+00 0. -1.
         21   -1    0    0  502  503 -0.00000000000E+00 -0.00000000000E+00 -0.29099504448E+03  0.29099504448E+03  0.00000000000E+00 0. -1.
         -6    2    1    2    0  503 -0.89581843269E+02 -0.14123373431E+02 -0.14996294339E+03  0.24682494955E+03  0.17380821329E+03 0.  0.
        -24    2    3    3    0    0  0.17418364229E+02 -0.28789708311E+02 -0.57802872206E+02  0.10476962756E+03  0.80642768472E+02 0.  0.
          6    2    1    2  501    0  0.89581843269E+02  0.14123373431E+02  0.15870058815E+02  0.20107225485E+03  0.17875630501E+03 0.  0.
         24    2    5    5    0    0  0.28234582389E+02 -0.57722905718E+02 -0.10668953643E+02  0.10282876434E+03  0.79566341604E+02 0.  0.
          5    1    5    5  501    0  0.61347260880E+02  0.71846279149E+02  0.26539012458E+02  0.98243490509E+02  0.47000000000E+01 0. -1.
        -11    1    6    6    0    0 -0.25289800595E+02 -0.33133261983E+02  0.47220856524E+01  0.41948601367E+02  0.00000000000E+00 0.  1.
         12    1    6    6    0    0  0.53524382983E+02 -0.24589643735E+02 -0.15391039295E+02  0.60880162971E+02  0.00000000000E+00 0. -1.
         -5    1    3    3    0  503 -0.10700020750E+03  0.14666334881E+02 -0.92160071184E+02  0.14205532199E+03  0.47000000000E+01 0.  1.
         13    1    4    4    0    0  0.28594801159E+02 -0.18224913706E+02 -0.74630549823E+02  0.81972733880E+02  0.00000000000E+00 0. -1.
        -14    1    4    4    0    0 -0.11176436929E+02 -0.10564794605E+02  0.16827677617E+02  0.22796893680E+02  0.00000000000E+00 0.  1.
</event>
<event>
12    1  0.8724767E-002  0.2569469E+03  0.7818608E-02  0.1109295E+00
         21   -1    0    0  501  502  0.00000000000E+00  0.00000000000E+00  0.15623253861E+04  0.15623253861E+04  0.00000000000E+00 0. -1.
         21   -1    0    0  502  503 -0.00000000000E+00 -0.00000000000E+00 -0.11127652187E+03  0.11127652187E+03  0.00000000000E+00 0.  1.
         -6    2    1    2    0  503  0.16043895215E+03  0.10372188661E+03  0.66009256572E+02  0.26529032512E+03  0.17182213921E+03 0.  0.
        -24    2    3    3    0    0  0.70277846731E+02  0.29825196920E+02  0.95030641140E+02  0.14506521777E+03  0.78642078669E+02 0.  0.
          6    2    1    2  501    0 -0.16043895215E+03 -0.10372188661E+03  0.13850396076E+04  0.14083115828E+04  0.16884286320E+03 0.  0.
         24    2    5    5    0    0 -0.16283259284E+03 -0.37995776853E+02  0.11183892980E+04  0.11336297148E+04  0.79772024670E+02 0.  0.
          5    1    5    5  501    0  0.23936406909E+01 -0.65726109759E+02  0.26665030957E+03  0.27468186801E+03  0.47000000000E+01 0. -1.
        -13    1    6    6    0    0  0.23208257171E+01 -0.13831889119E+02  0.39731057166E+02  0.42133885319E+02  0.00000000000E+00 0.  1.
         14    1    6    6    0    0 -0.16515341855E+03 -0.24163887734E+02  0.10786582409E+04  0.10914958295E+04  0.00000000000E+00 0. -1.
         -5    1    3    3    0  503  0.90161105414E+02  0.73896689691E+02 -0.29021384568E+02  0.12022510736E+03  0.47000000000E+01 0.  1.
         11    1    4    4    0    0  0.72581219346E+02  0.50725512950E+02  0.78056934074E+02  0.11804234843E+03  0.00000000000E+00 0. -1.
        -12    1    4    4    0    0 -0.23033726149E+01 -0.20900316030E+02  0.16973707066E+02  0.27022869336E+02  0.00000000000E+00 0.  1.
</event>
<event>
12    1  0.8724767E-002  0.2738518E+03  0.7818608E-02  0.1099246E+00
         21   -1    0    0  501  502  0.00000000000E+00  0.00000000000E+00  0.64090475609E+02  0.64090475609E+02  0.00000000000E+00 0.  1.
         21   -1    0    0  502  503 -0.00000000000E+00 -0.00000000000E+00 -0.33255657268E+04  0.33255657268E+04  0.00000000000E+00 0.  1.
         -6    2    1    2    0  503 -0.19689049811E+03  0.78225597810E+02 -0.29955180656E+04  0.30079128134E+04  0.17183101859E+03 0.  0.
        -24    2    3    3    0    0 -0.63976447090E+02  0.93745973777E+02 -0.14821509700E+04  0.14886336807E+04  0.79858899828E+02 0.  0.
          6    2    1    2  501    0  0.19689049811E+03 -0.78225597810E+02 -0.26595718554E+03  0.38174338901E+03  0.17352140535E+03 0.  0.
         24    2    5    5    0    0  0.16966178669E+03 -0.66857812043E+02 -0.12067070565E+03  0.23341645108E+03  0.81650055346E+02 0.  0.
          5    1    5    5  501    0  0.27228711424E+02 -0.11367785767E+02 -0.14528647988E+03  0.14832693793E+03  0.47000000000E+01 0. -1.
        -13    1    6    6    0    0  0.21915627910E+02  0.21946636184E+01 -0.51981031855E+02  0.56454751508E+02  0.00000000000E+00 0.  1.
         14    1    6    6    0    0  0.14774615878E+03 -0.69052475661E+02 -0.68689673800E+02  0.17696169957E+03  0.00000000000E+00 0. -1.
         -5    1    3    3    0  503 -0.13291405102E+03 -0.15520375968E+02 -0.15133670956E+04  0.15192791327E+04  0.47000000000E+01 0.  1.
         13    1    4    4    0    0 -0.51160443657E+02  0.95310822286E+02 -0.14493784133E+04  0.14534095530E+04  0.00000000000E+00 0. -1.
        -14    1    4    4    0    0 -0.12816003433E+02 -0.15648485080E+01 -0.32772556743E+02  0.35224127673E+02  0.00000000000E+00 0.  1.
</event>
<event>
12    1  0.8724767E-002  0.1763316E+03  0.7818608E-02  0.1172444E+00
         21   -1    0    0  503  502  0.00000000000E+00  0.00000000000E+00  0.21274884228E+03  0.21274884228E+03  0.00000000000E+00 0. -1.
         21   -1    0    0  501  503 -0.00000000000E+00 -0.00000000000E+00 -0.14876519811E+03  0.14876519811E+03  0.00000000000E+00 0. -1.
          6    2    1    2  501    0  0.24534461113E+02  0.89862383136E+01  0.68013599332E+02  0.18513644109E+03  0.17019682684E+03 0.  0.
         24    2    3    3    0    0  0.44408014024E+02 -0.51692728309E+02  0.57857742388E+02  0.12031262968E+03  0.80519566798E+02 0.  0.
         -6    2    1    2    0  502 -0.24534461113E+02 -0.89862383136E+01 -0.40299551598E+01  0.17637759930E+03  0.17438499000E+03 0.  0.
        -24    2    5    5    0    0 -0.38081078699E+01  0.49096361739E+02  0.39954329602E+02  0.10048374281E+03  0.77946646452E+02 0.  0.
          5    1    3    3  501    0 -0.19873552911E+02  0.60678966623E+02  0.10155856944E+02  0.64823811412E+02  0.47000000000E+01 0. -1.
        -13    1    4    4    0    0  0.22403276832E+02 -0.91827611492E+01 -0.18307571821E+02  0.30354523570E+02  0.00000000000E+00 0.  1.
         14    1    4    4    0    0  0.22004737192E+02 -0.42509967160E+02  0.76165314209E+02  0.89958106113E+02  0.00000000000E+00 0. -1.
         -5    1    5    5    0  502 -0.20726353243E+02 -0.58082600053E+02 -0.43984284762E+02  0.75893856495E+02  0.47000000000E+01 0.  1.
         13    1    6    6    0    0  0.14838121409E+01 -0.16624188130E+02 -0.84335393693E+01  0.18699997747E+02  0.00000000000E+00 0. -1.
        -14    1    6    6    0    0 -0.52919200108E+01  0.65720549869E+02  0.48387868971E+02  0.81783745061E+02  0.00000000000E+00 0.  1.
</event>
<event>
12    1  0.8724767E-002  0.1835834E+03  0.7818608E-02  0.1164565E+00
         21   -1    0    0  501  502  0.00000000000E+00  0.00000000000E+00  0.34159951720E+03  0.34159951720E+03  0.00000000000E+00 0.  1.
         21   -1    0    0  502  503 -0.00000000000E+00 -0.00000000000E+00 -0.10166427981E+03  0.10166427981E+03  0.00000000000E+00 0.  1.
         -6    2    1    2    0  503 -0.59769336420E+02  0.18269059064E+02  0.16039609124E+03  0.24319049576E+03  0.17178061313E+03 0.  0.
        -24    2    3    3    0    0  0.27026933002E+02 -0.89264781131E+01  0.42463766406E+02  0.94182734659E+02  0.79101699928E+02 0.  0.
          6    2    1    2  501    0  0.59769336420E+02 -0.18269059064E+02  0.79539146153E+02  0.20007330125E+03  0.17261725872E+03 0.  0.
         24    2    5    5    0    0  0.72321835125E+02  0.29634414450E+02  0.54968595884E+01  0.11087319925E+03  0.78447463249E+02 0.  0.
          5    1    5    5  501    0 -0.12552498705E+02 -0.47903473514E+02  0.74042286564E+02  0.89200102007E+02  0.47000000000E+01 0. -1.
        -11    1    6    6    0    0  0.88891152463E+02  0.18874419865E+02  0.26401926467E+01  0.90911227737E+02  0.00000000000E+00 0.  1.
         12    1    6    6    0    0 -0.16569317338E+02  0.10759994585E+02  0.28566669417E+01  0.19961971509E+02  0.00000000000E+00 0. -1.
         -5    1    3    3    0  503 -0.86796269422E+02  0.27195537177E+02  0.11793232483E+03  0.14900776110E+03  0.47000000000E+01 0.  1.
         13    1    4    4    0    0 -0.44879270915E+01 -0.35393046620E+02  0.39040573197E+02  0.52886440552E+02  0.00000000000E+00 0. -1.
        -14    1    4    4    0    0  0.31514860093E+02  0.26466568507E+02  0.34231932084E+01  0.41296294107E+02  0.00000000000E+00 0.  1.
</event>
<event>
12    1  0.8724767E-002  0.1769723E+03  0.7818608E-02  0.1170809E+00
         21   -1    0    0  503  502  0.00000000000E+00  0.00000000000E+00  0.78554106113E+02  0.78554106113E+02  0.00000000000E+00 0. -1.
         21   -1    0    0  501  503 -0.00000000000E+00 -0.00000000000E+00 -0.47123789516E+03  0.47123789516E+03  0.00000000000E+00 0. -1.
          6    2    1    2  501    0  0.35624829859E+02  0.26119592899E+02 -0.30456803902E+03  0.35225115288E+03  0.17137042534E+03 0.  0.
         24    2    3    3    0    0 -0.23331285387E+02  0.56194821955E+02 -0.23500923667E+03  0.25612176137E+03  0.81650526260E+02 0.  0.
         -6    2    1    2    0  502 -0.35624829859E+02 -0.26119592899E+02 -0.88115750025E+02  0.19754084838E+03  0.17119182148E+03 0.  0.
        -24    2    5    5    0    0 -0.13722178713E+02 -0.97145588181E+01  0.21662877615E+02  0.84305304684E+02  0.79720971455E+02 0.  0.
          5    1    3    3  501    0  0.58956115246E+02 -0.30075229056E+02 -0.69558802352E+02  0.96129391511E+02  0.47000000000E+01 0. -1.
        -11    1    4    4    0    0  0.81475586797E+01  0.42738281782E+02 -0.20803890778E+03  0.21253971533E+03  0.00000000000E+00 0.  1.
         12    1    4    4    0    0 -0.31478844067E+02  0.13456540173E+02 -0.26970328886E+02  0.43582046044E+02  0.00000000000E+00 0. -1.
         -5    1    5    5    0  502 -0.21902651146E+02 -0.16405034081E+02 -0.10977862764E+03  0.11323554370E+03  0.47000000000E+01 0.  1.
         13    1    6    6    0    0 -0.40496138787E+02 -0.90539163770E+01 -0.10150725600E+02  0.42719408805E+02  0.00000000000E+00 0. -1.
        -14    1    6    6    0    0  0.26773960075E+02 -0.66064244114E+00  0.31813603215E+02  0.41585895879E+02  0.00000000000E+00 0.  1.
</event>
<event>
12    1  0.8724767E-002  0.2358963E+03  0.7818608E-02  0.1122702E+00
         21   -1    0    0  503  502  0.00000000000E+00  0.00000000000E+00  0.24740641684E+03  0.24740641684E+03  0.00000000000E+00 0. -1.
         21   -1    0    0  501  503 -0.00000000000E+00 -0.00000000000E+00 -0.25554136559E+03  0.25554136559E+03  0.00000000000E+00 0.  1.
          6    2    1    2  501    0 -0.11454927773E+03 -0.11432089602E+03  0.84119567846E+02  0.25044592726E+03  0.17162825086E+03 0.  0.
         24    2    3    3    0    0  0.87790794559E+01 -0.22724669745E+02  0.25200108167E+02  0.85845365048E+02  0.78363884523E+02 0.  0.
         -6    2    1    2    0  502  0.11454927773E+03  0.11432089602E+03 -0.92254516593E+02  0.25250185517E+03  0.17045670047E+03 0.  0.
        -24    2    5    5    0    0  0.11570939186E+03  0.80529079016E+02 -0.87380980598E+01  0.16227816135E+03  0.79901510382E+02 0.  0.
          5    1    3    3  501    0 -0.12332835718E+03 -0.91596226275E+02  0.58919459679E+02  0.16460056222E+03  0.47000000000E+01 0. -1.
        -11    1    4    4    0    0 -0.18591893936E+02  0.21530712522E+02  0.10179473431E+01  0.28465177299E+02  0.00000000000E+00 0.  1.
         12    1    4    4    0    0  0.27370973392E+02 -0.44255382267E+02  0.24182160824E+02  0.57380187750E+02  0.00000000000E+00 0. -1.
         -5    1    5    5    0  502 -0.11601141354E+01  0.33791817004E+02 -0.83516418533E+02  0.90223693817E+02  0.47000000000E+01 0.  1.
         13    1    6    6    0    0  0.37028361606E+01  0.35594587295E+02  0.15809360328E+02  0.39123158287E+02  0.00000000000E+00 0. -1.
        -14    1    6    6    0    0  0.11200655570E+03  0.44934491721E+02 -0.24547458388E+02  0.12315500306E+03  0.00000000000E+00 0.  1.
</event>
<event>
12    1  0.8724767E-002  0.3009726E+03  0.7818608E-02  0.1085317E+00
         21   -1    0    0  501  502  0.00000000000E+00  0.00000000000E+00  0.10760801890E+03  0.10760801890E+03  0.00000000000E+00 0. -1.
         21   -1    0    0  502  503 -0.00000000000E+00 -0.00000000000E+00 -0.20497806143E+04  0.20497806143E+04  0.00000000000E+00 0.  1.
         -6    2    1    2    0  503  0.15882498277E+03 -0.18872710786E+03 -0.14169137720E+03  0.33265737339E+03  0.17245632868E+03 0.  0.
        -24    2    3    3    0    0  0.59239491110E+02 -0.15702816864E+03 -0.47557841671E+02  0.19192604990E+03  0.80041847023E+02 0.  0.
          6    2    1    2  501    0 -0.15882498277E+03  0.18872710786E+03 -0.18004812182E+04  0.18247312598E+04  0.16452433584E+03 0.  0.
         24    2    5    5    0    0 -0.14095676483E+03  0.16692221687E+03 -0.11315906103E+04  0.11552303548E+04  0.79548898825E+02 0.  0.
          5    1    5    5  501    0 -0.17868217943E+02  0.21804890988E+02 -0.66889060786E+03  0.66950090498E+03  0.47000000000E+01 0. -1.
        -13    1    6    6    0    0 -0.10343362067E+03  0.80383469111E+02 -0.51154840034E+03  0.52805471485E+03  0.00000000000E+00 0.  1.
         14    1    6    6    0    0 -0.37523144160E+02  0.86538747756E+02 -0.62004220997E+03  0.62717563996E+03  0.00000000000E+00 0. -1.
         -5    1    3    3    0  503  0.99585491664E+02 -0.31698939217E+02 -0.94133535532E+02  0.14073132348E+03  0.47000000000E+01 0.  1.
         13    1    4    4    0    0  0.85668622039E+01  0.87522190579E+01 -0.31129075997E+00  0.12251096620E+02  0.00000000000E+00 0. -1.
        -14    1    4    4    0    0  0.50672628906E+02 -0.16578038770E+03 -0.47246550911E+02  0.17967495328E+03  0.00000000000E+00 0.  1.
</event>
<event>
12    1  0.8724767E-002  0.2150923E+03  0.7818608E-02  0.1140556E+00
         21   -1    0    0  501  502  0.00000000000E+00  0.00000000000E+00  0.15147418542E+04  0.15147418542E+04  0.00000000000E+00 0.  1.
         21   -1    0    0  502  503 -0.00000000000E+00 -0.00000000000E+00 -0.56911377745E+02  0.56911377745E+02  0.00000000000E+00 0.  1.
         -6    2    1    2    0  503 -0.11073636984E+03  0.67655904470E+02  0.12972891401E+04  0.13149995442E+04  0.17153665285E+03 0.  0.
        -24    2    3    3    0    0 -0.50501543518E+02 -0.32024901544E+02  0.57434013853E+03  0.58271418574E+03  0.78187130077E+02 0.  0.
          6    2    1    2  501    0  0.11073636984E+03 -0.67655904470E+02  0.16054133644E+03  0.25665368781E+03  0.15250485154E+03 0.  0.
         24    2    5    5    0    0  0.18792604112E+02 -0.68695665469E+02  0.74172744845E+02  0.13041438817E+03  0.80212593399E+02 0.  0.
          5    1    5    5  501    0  0.91943765729E+02  0.10397609991E+01  0.86368591593E+02  0.12623929964E+03  0.47000000000E+01 0. -1.
        -13    1    6    6    0    0 -0.93312590174E+01 -0.21719689107E+02 -0.13371409172E+02  0.27159010898E+02  0.00000000000E+00 0.  1.
         14    1    6    6    0    0  0.28123863129E+02 -0.46975976362E+02  0.87544154017E+02  0.10325537727E+03  0.00000000000E+00 0. -1.
         -5    1    3    3    0  503 -0.60234826322E+02  0.99680806013E+02  0.72294900153E+03  0.73228535845E+03  0.47000000000E+01 0.  1.
         13    1    4    4    0    0 -0.50026575197E+01 -0.11976009964E+02  0.10522535000E+02  0.16708534937E+02  0.00000000000E+00 0. -1.
        -14    1    4    4    0    0 -0.45498885999E+02 -0.20048891579E+02  0.56381760353E+03  0.56600565080E+03  0.00000000000E+00 0.  1.
</event>
<event>
12    1  0.8724767E-002  0.2153619E+03  0.7818608E-02  0.1137518E+00
         21   -1    0    0  501  502  0.00000000000E+00  0.00000000000E+00  0.27646343503E+03  0.27646343503E+03  0.00000000000E+00 0. -1.
         21   -1    0    0  502  503 -0.00000000000E+00 -0.00000000000E+00 -0.22252196983E+03  0.22252196983E+03  0.00000000000E+00 0. -1.
         -6    2    1    2    0  503  0.98001517925E+01 -0.12752146064E+03 -0.97352977893E+02  0.23634374156E+03  0.17327145169E+03 0.  0.
        -24    2    3    3    0    0 -0.25406017159E+02 -0.87881520141E+02  0.31663251130E+01  0.12260272217E+03  0.81564542411E+02 0.  0.
          6    2    1    2  501    0 -0.98001517925E+01  0.12752146064E+03  0.15129444309E+03  0.26264166331E+03  0.17243221536E+03 0.  0.
         24    2    5    5    0    0 -0.21253684098E+02  0.67604915190E+02  0.87333150453E+01  0.10750642859E+03  0.80369258744E+02 0.  0.
          5    1    5    5  501    0  0.11453532306E+02  0.59916545449E+02  0.14256112804E+03  0.15513523471E+03  0.47000000000E+01 0. -1.
        -13    1    6    6    0    0  0.89685135867E+00 -0.17020743978E+02 -0.73535385688E+01  0.18562989991E+02  0.00000000000E+00 0.  1.
         14    1    6    6    0    0 -0.22150535457E+02  0.84625659168E+02  0.16086853614E+02  0.88943438600E+02  0.00000000000E+00 0. -1.
         -5    1    3    3    0  503  0.35206168951E+02 -0.39639940499E+02 -0.10051930301E+03  0.11374101939E+03  0.47000000000E+01 0.  1.
         13    1    4    4    0    0  0.95180367800E+01 -0.86121889169E+02  0.91429350390E+01  0.87127298130E+02  0.00000000000E+00 0. -1.
        -14    1    4    4    0    0 -0.34924053939E+02 -0.17596309716E+01 -0.59766099260E+01  0.35475424041E+02  0.00000000000E+00 0.  1.
</event>
<event>
12    1  0.8724767E-002  0.1847553E+03  0.7818608E-02  0.1163660E+00
         21   -1    0    0  503  502  0.00000000000E+00  0.00000000000E+00  0.60978981608E+03  0.60978981608E+03  0.00000000000E+00 0. -1.
         21   -1    0    0  501  503 -0.00000000000E+00 -0.00000000000E+00 -0.14583828995E+03  0.14583828995E+03  0.00000000000E+00 0.  1.
          6    2    1    2  501    0  0.60206553021E+02 -0.24257636277E+02 -0.65012793497E+02  0.19586014802E+03  0.17297766422E+03 0.  0.
         24    2    3    3    0    0 -0.11536164726E+02 -0.57536925802E+02 -0.62561783372E+02  0.11659712945E+03  0.78976787291E+02 0.  0.
         -6    2    1    2    0  502 -0.60206553021E+02  0.24257636277E+02  0.52896431963E+03  0.55976795802E+03  0.17124150617E+03 0.  0.
        -24    2    5    5    0    0 -0.90716461007E+02  0.45168553338E+02  0.28651656371E+03  0.31446992441E+03  0.80807905393E+02 0.  0.
          5    1    3    3  501    0  0.71742717747E+02  0.33279289525E+02 -0.24510101249E+01  0.79263018562E+02  0.47000000000E+01 0. -1.
        -13    1    4    4    0    0  0.32222919998E+02 -0.10015641472E+02 -0.19741845692E+02  0.39094374514E+02  0.00000000000E+00 0.  1.
         14    1    4    4    0    0 -0.43759084724E+02 -0.47521284330E+02 -0.42819937680E+02  0.77502754939E+02  0.00000000000E+00 0. -1.
         -5    1    5    5    0  502  0.30509907986E+02 -0.20910917062E+02  0.24244775592E+03  0.24529803360E+03  0.47000000000E+01 0.  1.
         11    1    6    6    0    0 -0.26920183775E+02  0.53843306430E+02  0.18217518183E+03  0.19186347964E+03  0.00000000000E+00 0. -1.
        -12    1    6    6    0    0 -0.63796277232E+02 -0.86747530920E+01  0.10434138187E+03  0.12260644478E+03  0.00000000000E+00 0.  1.
</event>
<event>
12    1  0.8724767E-002  0.1951965E+03  0.7818608E-02  0.1153944E+00
         21   -1    0    0  503  502  0.00000000000E+00  0.00000000000E+00  0.10342839040E+04  0.10342839040E+04  0.00000000000E+00 0. -1.
         21   -1    0    0  501  503 -0.00000000000E+00 -0.00000000000E+00 -0.59119175591E+02  0.59119175591E+02  0.00000000000E+00 0. -1.
          6    2    1    2  501    0  0.13687542033E+02 -0.91167791795E+02  0.15170463113E+03  0.24721645625E+03  0.17205454388E+03 0.  0.
         24    2    3    3    0    0  0.34858838486E+02 -0.19092547309E+02  0.14968798742E+03  0.17192222332E+03  0.74639756898E+02 0.  0.
         -6    2    1    2    0  502 -0.13687542033E+02  0.91167791795E+02  0.82346009733E+03  0.84618662338E+03  0.17159940161E+03 0.  0.
        -24    2    5    5    0    0  0.55491080987E+02  0.68900708364E+02  0.56629259707E+03  0.57890639951E+03  0.81355677181E+02 0.  0.
          5    1    3    3  501    0 -0.21171296454E+02 -0.72075244485E+02  0.20166437059E+01  0.75294232933E+02  0.47000000000E+01 0. -1.
        -13    1    4    4    0    0 -0.21743045219E+02  0.61359171211E+01  0.40142921453E+02  0.46063691092E+02  0.00000000000E+00 0.  1.
         14    1    4    4    0    0  0.56601883705E+02 -0.25228464431E+02  0.10954506597E+03  0.12585853223E+03  0.00000000000E+00 0. -1.
         -5    1    5    5    0  502 -0.69178623019E+02  0.22267083431E+02  0.25716750026E+03  0.26728022388E+03  0.47000000000E+01 0.  1.
         11    1    6    6    0    0 -0.17790480690E+02  0.31001120742E+02  0.12701069294E+03  0.13194425645E+03  0.00000000000E+00 0. -1.
        -12    1    6    6    0    0  0.73281561676E+02  0.37899587622E+02  0.43928190413E+03  0.44696214305E+03  0.00000000000E+00 0.  1.
</event>
<event>
12    1  0.8724767E-002  0.1917299E+03  0.7818608E-02  0.1156930E+00
         21   -1    0    0  503  502  0.00000000000E+00  0.00000000000E+00  0.30142637108E+02  0.30142637108E+02  0.00000000000E+00 0. -1.
         21   -1    0    0  501  503 -0.00000000000E+00 -0.00000000000E+00 -0.12191983605E+04  0.12191983605E+04  0.00000000000E+00 0. -1.
          6    2    1    2  501    0 -0.44150295370E+02 -0.70500291908E+02 -0.60294209131E+03  0.63266478245E+03  0.17264420563E+03 0.  0.
         24    2    3    3    0    0  0.37003333150E+02 -0.10464115839E+02 -0.31079175101E+03  0.32353024023E+03  0.81249981291E+02 0.  0.
         -6    2    1    2    0  502  0.44150295370E+02  0.70500291908E+02 -0.58611363205E+03  0.61667621512E+03  0.17274497066E+03 0.  0.
        -24    2    5    5    0    0  0.18373260252E+02  0.11217979862E+03 -0.38402215924E+03  0.40867455599E+03  0.81363321079E+02 0.  0.
          5    1    3    3  501    0 -0.81153628520E+02 -0.60036176069E+02 -0.29215034030E+03  0.30913454222E+03  0.47000000000E+01 0. -1.
        -11    1    4    4    0    0  0.10709026368E+02  0.25595053869E+02 -0.37661202066E+02  0.46777731554E+02  0.00000000000E+00 0.  1.
         12    1    4    4    0    0  0.26294306782E+02 -0.36059169708E+02 -0.27313054894E+03  0.27675250867E+03  0.00000000000E+00 0. -1.
         -5    1    5    5    0  502  0.25777035117E+02 -0.41679506716E+02 -0.20209147281E+03  0.20800165913E+03  0.47000000000E+01 0.  1.
         11    1    6    6    0    0  0.23397623844E+02 -0.24549243106E+01 -0.90863670697E+02  0.93859906816E+02  0.00000000000E+00 0. -1.
        -12    1    6    6    0    0 -0.50243635910E+01  0.11463472293E+03 -0.29315848854E+03  0.31481464917E+03  0.00000000000E+00 0.  1.
</event>
<event>
12    1  0.8724767E-002  0.1920104E+03  0.7818608E-02  0.1156683E+00
         21   -1    0    0  501  502  0.00000000000E+00  0.00000000000E+00  0.77790587369E+03  0.77790587369E+03  0.00000000000E+00 0.  1.
         21   -1    0    0  502  503 -0.00000000000E+00 -0.00000000000E+00 -0.50340653963E+02  0.50340653963E+02  0.00000000000E+00 0.  1.
         -6    2    1    2    0  503  0.21843734567E+02 -0.81139968827E+02  0.46431274161E+03  0.50240938071E+03  0.17253411409E+03 0.  0.
        -24    2    3    3    0    0  0.70089064046E+02 -0.11618365136E+02  0.29666263928E+03  0.31455435148E+03  0.76734967149E+02 0.  0.
          6    2    1    2  501    0 -0.21843734567E+02  0.81139968827E+02  0.26325247812E+03  0.32583714695E+03  0.17264743210E+03 0.  0.
         24    2    5    5    0    0 -0.42400986662E+02  0.99748858186E+02  0.26570289432E+03  0.29760620796E+03  0.78890738272E+02 0.  0.
          5    1    5    5  501    0  0.20557252094E+02 -0.18608889359E+02 -0.24504161956E+01  0.28230938992E+02  0.47000000000E+01 0. -1.
        -11    1    6    6    0    0  0.17126114515E+02  0.57761615791E+02  0.10270946361E+03  0.11907536258E+03  0.00000000000E+00 0.  1.
         12    1    6    6    0    0 -0.59527101176E+02  0.41987242395E+02  0.16299343071E+03  0.17853084538E+03  0.00000000000E+00 0. -1.
         -5    1    3    3    0  503 -0.48245329478E+02 -0.69521603691E+02  0.16765010233E+03  0.18785502923E+03  0.47000000000E+01 0.  1.
         11    1    4    4    0    0  0.48640536316E+02  0.29104342186E+02  0.13376038016E+03  0.14527492491E+03  0.00000000000E+00 0. -1.
        -12    1    4    4    0    0  0.21448527730E+02 -0.40722707322E+02  0.16290225912E+03  0.16927942657E+03  0.00000000000E+00 0.  1.
</event>
<event>
12    1  0.8724767E-002  0.1867931E+03  0.7818608E-02  0.1161779E+00
         21   -1    0    0  501  502  0.00000000000E+00  0.00000000000E+00  0.34958364192E+03  0.34958364192E+03  0.00000000000E+00 0.  1.
         21   -1    0    0  502  503 -0.00000000000E+00 -0.00000000000E+00 -0.15850497002E+03  0.15850497002E+03  0.00000000000E+00 0.  1.
         -6    2    1    2    0  503  0.26602062950E+02  0.66546439479E+02 -0.59968172183E+02  0.19618316199E+03  0.17249797974E+03 0.  0.
        -24    2    3    3    0    0 -0.43357990474E+02  0.50579461929E+02 -0.61309962221E+00  0.10293903035E+03  0.78472101864E+02 0.  0.
          6    2    1    2  501    0 -0.26602062950E+02 -0.66546439479E+02  0.25104684408E+03  0.31190544995E+03  0.17065870451E+03 0.  0.
         24    2    5    5    0    0 -0.45896739325E+02 -0.99812881021E+02  0.23030187971E+03  0.26795793334E+03  0.81813057309E+02 0.  0.
          5    1    5    5  501    0  0.19294676375E+02  0.33266441542E+02  0.20744964376E+02  0.43947516610E+02  0.47000000000E+01 0. -1.
        -13    1    6    6    0    0 -0.60940013574E+02 -0.49414445135E+02  0.97677569282E+02  0.12528519539E+03  0.00000000000E+00 0.  1.
         14    1    6    6    0    0  0.15043274249E+02 -0.50398435886E+02  0.13262431043E+03  0.14267273796E+03  0.00000000000E+00 0. -1.
         -5    1    3    3    0  503  0.69960053425E+02  0.15966977550E+02 -0.59355072561E+02  0.93244131644E+02  0.47000000000E+01 0.  1.
         13    1    4    4    0    0 -0.23240979424E+02  0.59215428238E+02 -0.26608027758E+02  0.68953587341E+02  0.00000000000E+00 0. -1.
        -14    1    4    4    0    0 -0.20117011051E+02 -0.86359663088E+01  0.25994928136E+02  0.33985443008E+02  0.00000000000E+00 0.  1.
</event>
<event>
12    1  0.8724767E-002  0.1863872E+03  0.7818608E-02  0.1164320E+00
         21   -1    0    0  501  502  0.00000000000E+00  0.00000000000E+00  0.33374687611E+03  0.33374687611E+03  0.00000000000E+00 0.  1.
         21   -1    0    0  502  503 -0.00000000000E+00 -0.00000000000E+00 -0.11346093394E+03  0.11346093394E+03  0.00000000000E+00 0. -1.
         -6    2    1    2    0  503 -0.50066486798E+02  0.50663021522E+02  0.25315932166E+02  0.17747922817E+03  0.16057579258E+03 0.  0.
        -24    2    3    3    0    0 -0.87046371730E+02  0.35910849818E+02  0.46831746390E+02  0.13198023125E+03  0.79742767723E+02 0.  0.
          6    2    1    2  501    0  0.50066486798E+02 -0.50663021522E+02  0.19497001000E+03  0.26972858188E+03  0.17224055339E+03 0.  0.
         24    2    5    5    0    0  0.85483853511E+02 -0.60393441039E+02  0.92529985631E+02  0.16080145247E+03  0.79626954883E+02 0.  0.
          5    1    5    5  501    0 -0.35417366713E+02  0.97304195168E+01  0.10244002437E+03  0.10892712941E+03  0.47000000000E+01 0. -1.
        -13    1    6    6    0    0  0.89720234760E+01 -0.47914169284E+02  0.14616760519E+02  0.50891202693E+02  0.00000000000E+00 0.  1.
         14    1    6    6    0    0  0.76511830035E+02 -0.12479271755E+02  0.77913225111E+02  0.10991024978E+03  0.00000000000E+00 0. -1.
         -5    1    3    3    0  503  0.36979884932E+02  0.14752171704E+02 -0.21515814224E+02  0.45498996926E+02  0.47000000000E+01 0.  1.
         11    1    4    4    0    0 -0.66275200523E+02 -0.15315849945E+02  0.23292671268E+02  0.71899415844E+02  0.00000000000E+00 0. -1.
        -12    1    4    4    0    0 -0.20771171207E+02  0.51226699763E+02  0.23539075122E+02  0.60080815404E+02  0.00000000000E+00 0.  1.
</event>
<event>
12    1  0.8724767E-002  0.2454942E+03  0.7818608E-02  0.1116193E+00
         21   -1    0    0  503  502  0.00000000000E+00  0.00000000000E+00  0.45919612018E+03  0.45919612018E+03  0.00000000000E+00 0.  1.
         21   -1    0    0  501  503 -0.00000000000E+00 -0.00000000000E+00 -0.21605246147E+03  0.21605246147E+03  0.00000000000E+00 0.  1.
          6    2    1    2  501    0 -0.15987563175E+03 -0.70500940259E+02 -0.89980412978E+02  0.26146483268E+03  0.17244356701E+03 0.  0.
         24    2    3    3    0    0 -0.51164339658E+01 -0.24216614131E+02 -0.29397705732E+02  0.88881512042E+02  0.80144093881E+02 0.  0.
         -6    2    1    2    0  502  0.15987563175E+03  0.70500940259E+02  0.33312407169E+03  0.41378374897E+03  0.17237964950E+03 0.  0.
        -24    2    5    5    0    0  0.41151486435E+02  0.87140823625E+02  0.17603099999E+03  0.21611576578E+03  0.80200643905E+02 0.  0.
          5    1    3    3  501    0 -0.15475919779E+03 -0.46284326128E+02 -0.60582707246E+02  0.17258332064E+03  0.47000000000E+01 0. -1.
        -13    1    4    4    0    0 -0.38457086896E+02 -0.69440200334E+01 -0.33015446079E+02  0.51158446288E+02  0.00000000000E+00 0.  1.
         14    1    4    4    0    0  0.33340652930E+02 -0.17272594098E+02  0.36177403474E+01  0.37723065754E+02  0.00000000000E+00 0. -1.
         -5    1    5    5    0  502  0.11872414532E+03 -0.16639883366E+02  0.15709307170E+03  0.19766798319E+03  0.47000000000E+01 0.  1.
         11    1    6    6    0    0  0.30449217906E+01 -0.12982057897E+02  0.44624336172E+02  0.46573992257E+02  0.00000000000E+00 0. -1.
        -12    1    6    6    0    0  0.38106564644E+02  0.10012288152E+03  0.13140666382E+03  0.16954177352E+03  0.00000000000E+00 0.  1.
</event>
<event>
12    1  0.8724767E-002  0.1877756E+03  0.7818608E-02  0.1160685E+00
         21   -1    0    0  501  502  0.00000000000E+00  0.00000000000E+00  0.18919785181E+03  0.18919785181E+03  0.00000000000E+00 0.  1.
         21   -1    0    0  502  503 -0.00000000000E+00 -0.00000000000E+00 -0.24116350139E+03  0.24116350139E+03  0.00000000000E+00 0.  1.
         -6    2    1    2    0  503  0.63056174415E+02  0.37357761502E+02 -0.12941779916E+03  0.22805406347E+03  0.17288147862E+03 0.  0.
        -24    2    3    3    0    0  0.11532062424E+02  0.10361194836E+02  0.58940955280E+01  0.80694138215E+02  0.78971265394E+02 0.  0.
          6    2    1    2  501    0 -0.63056174415E+02 -0.37357761502E+02  0.77452149576E+02  0.20230728974E+03  0.17192358922E+03 0.  0.
         24    2    5    5    0    0 -0.79070062146E+02 -0.47686673222E+02  0.10975134643E+03  0.16451232797E+03  0.80578250662E+02 0.  0.
          5    1    5    5  501    0  0.16013887731E+02  0.10328911720E+02 -0.32299196855E+02  0.37794961768E+02  0.47000000000E+01 0. -1.
        -13    1    6    6    0    0 -0.40644294465E+02  0.11794722277E+02  0.73852151964E+02  0.85118825743E+02  0.00000000000E+00 0.  1.
         14    1    6    6    0    0 -0.38425767681E+02 -0.59481395499E+02  0.35899194466E+02  0.79393502226E+02  0.00000000000E+00 0. -1.
         -5    1    3    3    0  503  0.51524111991E+02  0.26996566667E+02 -0.13531189468E+03  0.14735992525E+03  0.47000000000E+01 0.  1.
         11    1    4    4    0    0 -0.32450269243E+02 -0.67998483717E+01  0.45263847809E+01  0.33462607056E+02  0.00000000000E+00 0. -1.
        -12    1    4    4    0    0  0.43982331667E+02  0.17161043207E+02  0.13677107470E+01  0.47231531158E+02  0.00000000000E+00 0.  1.
</event>
<event>
12    1  0.8724767E-002  0.2087942E+03  0.7818608E-02  0.1142558E+00
         21   -1    0    0  501  502  0.00000000000E+00  0.00000000000E+00  0.69236270619E+03  0.69236270619E+03  0.00000000000E+00 0. -1.
         21   -1    0    0  502  503 -0.00000000000E+00 -0.00000000000E+00 -0.63163657086E+02  0.63163657086E+02  0.00000000000E+00 0.  1.
         -6    2    1    2    0  503  0.67564281599E+02 -0.97980453814E+02  0.33815864450E+03  0.39733711790E+03  0.17134881071E+03 0.  0.
        -24    2    3    3    0    0  0.55095224664E+01 -0.13522158359E+02  0.61568101113E+02  0.10151890430E+03  0.79386732216E+02 0.  0.
          6    2    1    2  501    0 -0.67564281599E+02  0.97980453814E+02  0.29104040460E+03  0.35818924537E+03  0.17155149931E+03 0.  0.
         24    2    5    5    0    0 -0.15458385000E+02  0.10587280707E+03  0.27012543300E+03  0.30129601434E+03  0.79771710271E+02 0.  0.
          5    1    5    5  501    0 -0.52105896599E+02 -0.78923532552E+01  0.20914971594E+02  0.56893231030E+02  0.47000000000E+01 0. -1.
        -11    1    6    6    0    0  0.27578239581E+02  0.28859796824E+02  0.48872865805E+02  0.63103123402E+02  0.00000000000E+00 0.  1.
         12    1    6    6    0    0 -0.43036624581E+02  0.77013010244E+02  0.22125256720E+03  0.23819289094E+03  0.00000000000E+00 0. -1.
         -5    1    3    3    0  503  0.62054759133E+02 -0.84458295455E+02  0.27659054339E+03  0.29581821360E+03  0.47000000000E+01 0.  1.
         11    1    4    4    0    0 -0.17469268329E+02 -0.24701986771E+02  0.68633396264E+02  0.75006043551E+02  0.00000000000E+00 0. -1.
        -12    1    4    4    0    0  0.22978790796E+02  0.11179828412E+02 -0.70652951511E+01  0.26512860753E+02  0.00000000000E+00 0.  1.
</event>
<event>
12    1  0.8724767E-002  0.2490134E+03  0.7818608E-02  0.1113959E+00
         21   -1    0    0  503  502  0.00000000000E+00  0.00000000000E+00  0.12185480398E+04  0.12185480398E+04  0.00000000000E+00 0.  1.
         21   -1    0    0  501  503 -0.00000000000E+00 -0.00000000000E+00 -0.50982632301E+02  0.50982632301E+02  0.00000000000E+00 0.  1.
          6    2    1    2  501    0  0.13953836048E+03  0.11355897650E+03  0.61653499545E+03  0.66492337155E+03  0.17216589160E+03 0.  0.
         24    2    3    3    0    0  0.17711710660E+02  0.56456192826E+02  0.15498717514E+03  0.18414177774E+03  0.79913474771E+02 0.  0.
         -6    2    1    2    0  502 -0.13953836048E+03 -0.11355897650E+03  0.55103041208E+03  0.60460730058E+03  0.17189786994E+03 0.  0.
        -24    2    5    5    0    0 -0.11491969518E+02 -0.29273997214E+02  0.28030582442E+03  0.29345825537E+03  0.80977528772E+02 0.  0.
          5    1    3    3  501    0  0.12182664982E+03  0.57102783670E+02  0.46154782031E+03  0.48078159381E+03  0.47000000000E+01 0. -1.
        -13    1    4    4    0    0  0.33510949796E+02  0.66560981027E+02  0.14467420317E+03  0.16273897202E+03  0.00000000000E+00 0.  1.
         14    1    4    4    0    0 -0.15799239136E+02 -0.10104788201E+02  0.10312971964E+02  0.21402805718E+02  0.00000000000E+00 0. -1.
         -5    1    5    5    0  502 -0.12804639096E+03 -0.84284979281E+02  0.27072458766E+03  0.31114904521E+03  0.47000000000E+01 0.  1.
         11    1    6    6    0    0  0.16526992873E+01  0.27049684120E+02  0.12045347981E+03  0.12346439820E+03  0.00000000000E+00 0. -1.
        -12    1    6    6    0    0 -0.13144668805E+02 -0.56323681335E+02  0.15985234461E+03  0.16999385717E+03  0.00000000000E+00 0.  1.
</event>
<event>
12    1  0.8724767E-002  0.2405900E+03  0.7818608E-02  0.1119536E+00
         21   -1    0    0  501  502  0.00000000000E+00  0.00000000000E+00  0.13475410018E+03  0.13475410018E+03  0.00000000000E+00 0. -1.
         21   -1    0    0  502  503 -0.00000000000E+00 -0.00000000000E+00 -0.22598079095E+04  0.22598079095E+04  0.00000000000E+00 0.  1.
         -6    2    1    2    0  503  0.25899298647E+02 -0.16528430625E+03 -0.21401113669E+04  0.21535013164E+04  0.17176024486E+03 0.  0.
        -24    2    3    3    0    0  0.22650486552E+02 -0.15039773010E+02 -0.99888036031E+03  0.10024086725E+04  0.79510585518E+02 0.  0.
          6    2    1    2  501    0 -0.25899298647E+02  0.16528430625E+03  0.15057557492E+02  0.24106069331E+03  0.17289838709E+03 0.  0.
         24    2    5    5    0    0 -0.28533937317E+02  0.18185442363E+02  0.33607929541E+02  0.92698894383E+02  0.79490227066E+02 0.  0.
          5    1    5    5  501    0  0.26346386703E+01  0.14709886388E+03 -0.18550372050E+02  0.14836179892E+03  0.47000000000E+01 0. -1.
        -11    1    6    6    0    0  0.16766295276E+02 -0.75006655887E+01 -0.13247594341E+02  0.22646575842E+02  0.00000000000E+00 0.  1.
         12    1    6    6    0    0 -0.45300232593E+02  0.25686107952E+02  0.46855523882E+02  0.70052318541E+02  0.00000000000E+00 0. -1.
         -5    1    3    3    0  503  0.32488120955E+01 -0.15024453324E+03 -0.11412310065E+04  0.11510926439E+04  0.47000000000E+01 0.  1.
         11    1    4    4    0    0 -0.13029406093E+01  0.20396154728E+02 -0.81216924426E+02  0.83748967726E+02  0.00000000000E+00 0. -1.
        -12    1    4    4    0    0  0.23953427161E+02 -0.35435927738E+02 -0.91766343589E+03  0.91865970479E+03  0.00000000000E+00 0.  1.
</event>
<event>
12    1  0.8724767E-002  0.2243790E+03  0.7818608E-02  0.1130697E+00
         21   -1    0    0  501  502  0.00000000000E+00  0.00000000000E+00  0.48534443398E+03  0.48534443398E+03  0.00000000000E+00 0. -1.
         21   -1    0    0  502  503 -0.00000000000E+00 -0.00000000000E+00 -0.23302888451E+03  0.23302888451E+03  0.00000000000E+00 0. -1.
         -6    2    1    2    0  503 -0.12828456411E+03 -0.65397635126E+02 -0.14151784669E+03  0.26510666383E+03  0.17181519783E+03 0.  0.
        -24    2    3    3    0    0 -0.36618693078E+02  0.14792527274E+02 -0.10526583781E+03  0.13794773883E+03  0.79930810669E+02 0.  0.
          6    2    1    2  501    0  0.12828456411E+03  0.65397635126E+02  0.39383339616E+03  0.45326665467E+03  0.17208177196E+03 0.  0.
         24    2    5    5    0    0  0.33046393006E+02  0.12522486807E+02  0.28996655134E+03  0.30267946399E+03  0.79280390129E+02 0.  0.
          5    1    5    5  501    0  0.95238171103E+02  0.52875148318E+02  0.10386684481E+03  0.15058719068E+03  0.47000000000E+01 0. -1.
        -11    1    6    6    0    0  0.24905245549E+02  0.34551268157E+02  0.26500807868E+03  0.26840891034E+03  0.00000000000E+00 0.  1.
         12    1    6    6    0    0  0.81411474570E+01 -0.22028781350E+02  0.24958472664E+02  0.34270553649E+02  0.00000000000E+00 0. -1.
         -5    1    3    3    0  503 -0.91665871031E+02 -0.80190162400E+02 -0.36252008880E+02  0.12715892499E+03  0.47000000000E+01 0.  1.
         13    1    4    4    0    0 -0.51473034548E+01 -0.20545747072E+02 -0.82982500623E+02  0.85642967401E+02  0.00000000000E+00 0. -1.
        -14    1    4    4    0    0 -0.31471389624E+02  0.35338274346E+02 -0.22283337184E+02  0.52304771433E+02  0.00000000000E+00 0.  1.
</event>
<event>
12    1  0.8724767E-002  0.2454927E+03  0.7818608E-02  0.1116214E+00
         21   -1    0    0  503  502  0.00000000000E+00  0.00000000000E+00  0.41094558882E+03  0.41094558882E+03  0.00000000000E+00 0.  1.
         21   -1    0    0  501  503 -0.00000000000E+00 -0.00000000000E+00 -0.23519249843E+03  0.23519249843E+03  0.00000000000E+00 0.  1.
          6    2    1    2  501    0  0.17047242411E+03  0.39088594856E+02 -0.11047341320E+03  0.26905419432E+03  0.17203784127E+03 0.  0.
         24    2    3    3    0    0  0.12438530905E+03  0.11633910054E+02 -0.14436517512E+03  0.20542618620E+03  0.75839048121E+02 0.  0.
         -6    2    1    2    0  502 -0.17047242411E+03 -0.39088594856E+02  0.28622650359E+03  0.37708389292E+03  0.17227270622E+03 0.  0.
        -24    2    5    5    0    0 -0.18159035155E+03 -0.32838455820E+01  0.27215864759E+03  0.33676537417E+03  0.79716675610E+02 0.  0.
          5    1    3    3  501    0  0.46087115061E+02  0.27454684802E+02  0.33891761914E+02  0.63628008124E+02  0.47000000000E+01 0. -1.
        -11    1    4    4    0    0  0.63158973796E+02 -0.16256345016E+02 -0.27921351689E+02  0.70943122319E+02  0.00000000000E+00 0.  1.
         12    1    4    4    0    0  0.61226335251E+02  0.27890255069E+02 -0.11644382343E+03  0.13448306388E+03  0.00000000000E+00 0. -1.
         -5    1    5    5    0  502  0.11117927437E+02 -0.35804749274E+02  0.14067856007E+02  0.40318518744E+02  0.47000000000E+01 0.  1.
         11    1    6    6    0    0  0.78452900064E+01 -0.14412138592E+00  0.19038775578E+02  0.20592336482E+02  0.00000000000E+00 0. -1.
        -12    1    6    6    0    0 -0.18943564155E+03 -0.31397241961E+01  0.25311987201E+03  0.31617303769E+03  0.00000000000E+00 0.  1.
</event>
<event>
12    1  0.8724767E-002  0.1936732E+03  0.7818608E-02  0.1155687E+00
         21   -1    0    0  501  502  0.00000000000E+00  0.00000000000E+00  0.55488676055E+03  0.55488676055E+03  0.00000000000E+00 0. -1.
         21   -1    0    0  502  503 -0.00000000000E+00 -0.00000000000E+00 -0.98481876729E+02  0.98481876729E+02  0.00000000000E+00 0. -1.
         -6    2    1    2    0  503  0.80951109804E+02 -0.34355977024E+02  0.42052821703E+02  0.19598813500E+03  0.17002792098E+03 0.  0.
        -24    2    3    3    0    0  0.98049625589E+02 -0.74419566496E+02  0.91821626794E+01  0.14121569058E+03  0.68597071354E+02 0.  0.
          6    2    1    2  501    0 -0.80951109804E+02  0.34355977024E+02  0.41435206212E+03  0.45738050228E+03  0.17255688091E+03 0.  0.
         24    2    5    5    0    0 -0.41794684822E+02 -0.70318617823E+01  0.37874136767E+03  0.39002777125E+03  0.82948152484E+02 0.  0.
          5    1    5    5  501    0 -0.39156424982E+02  0.41387838806E+02  0.35610694451E+02  0.67352731034E+02  0.47000000000E+01 0. -1.
        -11    1    6    6    0    0  0.14947586069E+02  0.93501505882E+01  0.20891330190E+02  0.27336849168E+02  0.00000000000E+00 0.  1.
         12    1    6    6    0    0 -0.56742270890E+02 -0.16382012371E+02  0.35785003748E+03  0.36269092208E+03  0.00000000000E+00 0. -1.
         -5    1    3    3    0  503 -0.17098515785E+02  0.40063589472E+02  0.32870659024E+02  0.54772444423E+02  0.47000000000E+01 0.  1.
         11    1    4    4    0    0  0.34736394927E+02  0.66545900990E+01  0.14468633827E+02  0.38213113806E+02  0.00000000000E+00 0. -1.
        -12    1    4    4    0    0  0.63313230662E+02 -0.81074156595E+02 -0.52864711480E+01  0.10300257677E+03  0.00000000000E+00 0.  1.
</event>
<event>
12    1  0.8724767E-002  0.1888556E+03  0.7818608E-02  0.1159503E+00
         21   -1    0    0  503  502  0.00000000000E+00  0.00000000000E+00  0.12844942356E+03  0.12844942356E+03  0.00000000000E+00 0.  1.
         21   -1    0    0  501  503 -0.00000000000E+00 -0.00000000000E+00 -0.36273538191E+03  0.36273538191E+03  0.00000000000E+00 0.  1.
          6    2    1    2  501    0  0.73475174737E+02  0.30349730555E+02 -0.23609236812E+03  0.30232059568E+03  0.17128464275E+03 0.  0.
         24    2    3    3    0    0  0.66683447828E+02  0.41091103616E+02 -0.25521845319E+03  0.27888127444E+03  0.80642081902E+02 0.  0.
         -6    2    1    2    0  502 -0.73475174737E+02 -0.30349730555E+02  0.18064097640E+01  0.18886420980E+03  0.17130884151E+03 0.  0.
        -24    2    5    5    0    0 -0.53265721679E+02  0.41389320319E+02  0.30966164194E+02  0.10869379947E+03  0.79404822126E+02 0.  0.
          5    1    3    3  501    0  0.67917269087E+01 -0.10741373061E+02  0.19126085077E+02  0.23439321236E+02  0.47000000000E+01 0. -1.
        -13    1    4    4    0    0  0.54632837905E+02  0.79764775790E+01 -0.64361752775E+02  0.84798622585E+02  0.00000000000E+00 0.  1.
         14    1    4    4    0    0  0.12050609923E+02  0.33114626037E+02 -0.19085670042E+03  0.19408265186E+03  0.00000000000E+00 0. -1.
         -5    1    5    5    0  502 -0.20209453057E+02 -0.71739050874E+02 -0.29159754429E+02  0.80170410325E+02  0.47000000000E+01 0.  1.
         13    1    6    6    0    0  0.11247917163E+01  0.48047062419E+02  0.58482081147E+01  0.48414738476E+02  0.00000000000E+00 0. -1.
        -14    1    6    6    0    0 -0.54390513395E+02 -0.66577421001E+01  0.25117956079E+02  0.60279060999E+02  0.00000000000E+00 0.  1.
</event>
<event>
12    1  0.8724767E-002  0.1741362E+03  0.7818608E-02  0.1175518E+00
         21   -1    0    0  503  502  0.00000000000E+00  0.00000000000E+00  0.87756856157E+02  0.87756856157E+02  0.00000000000E+00 0.  1.
         21   -1    0    0  501  503 -0.00000000000E+00 -0.00000000000E+00 -0.46300787860E+03  0.46300787860E+03  0.00000000000E+00 0.  1.
          6    2    1    2  501    0 -0.18389149083E+02  0.20207231869E+02 -0.33173185600E+03  0.37127286063E+03  0.16447194207E+03 0.  0.
         24    2    3    3    0    0 -0.24888447290E+02 -0.11046091451E+02 -0.77449324740E+02  0.11495136952E+03  0.80460975061E+02 0.  0.
         -6    2    1    2    0  502  0.18389149083E+02 -0.20207231869E+02 -0.43519166444E+02  0.17949187413E+03  0.17197942321E+03 0.  0.
        -24    2    5    5    0    0  0.38087153798E+02 -0.64130892989E+02  0.70300787285E+01  0.10953034482E+03  0.79900386171E+02 0.  0.
          5    1    3    3  501    0  0.64992982068E+01  0.31253323320E+02 -0.25428253126E+03  0.25632149110E+03  0.47000000000E+01 0. -1.
        -11    1    4    4    0    0 -0.35027024508E+01  0.15372365899E+02 -0.79357334842E+02  0.80908375036E+02  0.00000000000E+00 0.  1.
         12    1    4    4    0    0 -0.21385744839E+02 -0.26418457350E+02  0.19080101023E+01  0.34042994487E+02  0.00000000000E+00 0. -1.
         -5    1    5    5    0  502 -0.19698004714E+02  0.43923661120E+02 -0.50549245172E+02  0.69961529310E+02  0.47000000000E+01 0.  1.
         13    1    6    6    0    0  0.45458484107E+02 -0.11213530511E+02  0.25105568205E+02  0.53127267940E+02  0.00000000000E+00 0. -1.
        -14    1    6    6    0    0 -0.73713303094E+01 -0.52917362478E+02 -0.18075489477E+02  0.56403076884E+02  0.00000000000E+00 0.  1.
</event>
<event>
12    1  0.8724767E-002  0.2346424E+03  0.7818608E-02  0.1123537E+00
         21   -1    0    0  503  502  0.00000000000E+00  0.00000000000E+00  0.52199893094E+03  0.52199893094E+03  0.00000000000E+00 0. -1.
         21   -1    0    0  501  503 -0.00000000000E+00 -0.00000000000E+00 -0.11920295409E+03  0.11920295409E+03  0.00000000000E+00 0. -1.
          6    2    1    2  501    0 -0.15557081478E+03 -0.30002572201E+02  0.31119526933E+03  0.38931350339E+03  0.17210483874E+03 0.  0.
         24    2    3    3    0    0 -0.95344929716E+02 -0.64223870793E+02  0.11730722580E+03  0.18336953545E+03  0.81535514367E+02 0.  0.
         -6    2    1    2    0  502  0.15557081478E+03  0.30002572201E+02  0.91600707518E+02  0.25188838164E+03  0.17307407211E+03 0.  0.
        -24    2    5    5    0    0  0.13239504131E+03 -0.65410312417E+01  0.49245050565E+01  0.15489660105E+03  0.79984212281E+02 0.  0.
          5    1    3    3  501    0 -0.60225885066E+02  0.34221298592E+02  0.19388804352E+03  0.20594396794E+03  0.47000000000E+01 0. -1.
        -11    1    4    4    0    0 -0.15985411650E+02 -0.42359360208E+02  0.71231180338E+01  0.45832167670E+02  0.00000000000E+00 0.  1.
         12    1    4    4    0    0 -0.79359518066E+02 -0.21864510585E+02  0.11018410777E+03  0.13753736778E+03  0.00000000000E+00 0. -1.
         -5    1    5    5    0  502  0.23175773473E+02  0.36543603443E+02  0.86676202462E+02  0.96991780589E+02  0.47000000000E+01 0.  1.
         13    1    6    6    0    0  0.13099091240E+03  0.67795306450E+01  0.22205356735E+02  0.13303254878E+03  0.00000000000E+00 0. -1.
        -14    1    6    6    0    0  0.14041289080E+01 -0.13320561887E+02 -0.17280851678E+02  0.21864052271E+02  0.00000000000E+00 0.  1.
</event>
<event>
12    1  0.8724767E-002  0.2367196E+03  0.7818608E-02  0.1122358E+00
         21   -1    0    0  503  502  0.00000000000E+00  0.00000000000E+00  0.37223774784E+03  0.37223774784E+03  0.00000000000E+00 0. -1.
         21   -1    0    0  501  503 -0.00000000000E+00 -0.00000000000E+00 -0.18059582966E+03  0.18059582966E+03  0.00000000000E+00 0. -1.
          6    2    1    2  501    0 -0.10543274006E+03 -0.12016870109E+03 -0.19078764981E+02  0.23748715154E+03  0.17458398688E+03 0.  0.
         24    2    3    3    0    0 -0.23806769041E+02  0.12318082940E+02 -0.21636707044E+02  0.81781724031E+02  0.74172810883E+02 0.  0.
         -6    2    1    2    0  502  0.10543274006E+03  0.12016870109E+03  0.21072068316E+03  0.31534642596E+03  0.17170784098E+03 0.  0.
        -24    2    5    5    0    0  0.13063722968E+03  0.83129301094E+02  0.11463263352E+03  0.20922297551E+03  0.81590724575E+02 0.  0.
          5    1    3    3  501    0 -0.81625971019E+02 -0.13248678403E+03  0.25579420622E+01  0.15570542751E+03  0.47000000000E+01 0. -1.
        -13    1    4    4    0    0  0.17199387012E+02  0.23853083677E+02 -0.25614678233E+02  0.38998721203E+02  0.00000000000E+00 0.  1.
         14    1    4    4    0    0 -0.41006156053E+02 -0.11535000737E+02  0.39779711896E+01  0.42783002828E+02  0.00000000000E+00 0. -1.
         -5    1    5    5    0  502 -0.25204489621E+02  0.37039399998E+02  0.96088049645E+02  0.10612345044E+03  0.47000000000E+01 0.  1.
         11    1    6    6    0    0  0.90106961306E+02  0.73674669954E+02  0.12010112221E+03  0.16724682665E+03  0.00000000000E+00 0. -1.
        -12    1    6    6    0    0  0.40530268375E+02  0.94546311400E+01 -0.54684886967E+01  0.41976148861E+02  0.00000000000E+00 0.  1.
</event>
<event>
12    1  0.8724767E-002  0.1899966E+03  0.7818608E-02  0.1158975E+00
         21   -1    0    0  503  502  0.00000000000E+00  0.00000000000E+00  0.46561100398E+02  0.46561100398E+02  0.00000000000E+00 0. -1.
         21   -1    0    0  501  503 -0.00000000000E+00 -0.00000000000E+00 -0.79054999464E+03  0.79054999464E+03  0.00000000000E+00 0. -1.
          6    2    1    2  501    0 -0.65742674669E+02  0.35237300470E+02 -0.44339614980E+03  0.48150638609E+03  0.17229186740E+03 0.  0.
         24    2    3    3    0    0 -0.20301623111E+02  0.75712287600E+02 -0.18530826904E+03  0.21629975355E+03  0.79384648489E+02 0.  0.
         -6    2    1    2    0  502  0.65742674669E+02 -0.35237300470E+02 -0.30059274444E+03  0.35560470894E+03  0.17474250884E+03 0.  0.
        -24    2    5    5    0    0  0.10405393864E+03  0.84257363415E+01 -0.21705261025E+03  0.25374569976E+03  0.79855052131E+02 0.  0.
          5    1    3    3  501    0 -0.45441051557E+02 -0.40474987130E+02 -0.25808788076E+03  0.26520663254E+03  0.47000000000E+01 0. -1.
        -11    1    4    4    0    0 -0.15082656479E+01  0.45050938169E+02 -0.24071101400E+02  0.51100683144E+02  0.00000000000E+00 0.  1.
         12    1    4    4    0    0 -0.18793357463E+02  0.30661349431E+02 -0.16123716764E+03  0.16519907041E+03  0.00000000000E+00 0. -1.
         -5    1    5    5    0  502 -0.38311263976E+02 -0.43663036812E+02 -0.83540134187E+02  0.10185900918E+03  0.47000000000E+01 0.  1.
         11    1    6    6    0    0  0.13387517428E+02  0.20861607260E+02 -0.11069024591E+03  0.11343175402E+03  0.00000000000E+00 0. -1.
        -12    1    6    6    0    0  0.90666421217E+02 -0.12435870919E+02 -0.10636236434E+03  0.14031394574E+03  0.00000000000E+00 0.  1.
</event>
<event>
12    1  0.8724767E-002  0.1942089E+03  0.7818608E-02  0.1154851E+00
         21   -1    0    0  503  502  0.00000000000E+00  0.00000000000E+00  0.38374547671E+02  0.38374547671E+02  0.00000000000E+00 0.  1.
         21   -1    0    0  501  503 -0.00000000000E+00 -0.00000000000E+00 -0.10229137250E+04  0.10229137250E+04  0.00000000000E+00 0.  1.
          6    2    1    2  501    0 -0.88731162493E+02 -0.65379856268E+01 -0.60191572163E+03  0.63247106783E+03  0.17263009947E+03 0.  0.
         24    2    3    3    0    0 -0.81288861440E+01 -0.21625655355E+02 -0.13683772098E+03  0.16019572291E+03  0.80027245338E+02 0.  0.
         -6    2    1    2    0  502  0.88731162493E+02  0.65379856268E+01 -0.38262345570E+03  0.42881720484E+03  0.17195209177E+03 0.  0.
        -24    2    5    5    0    0  0.87212428794E+02 -0.51115558633E+02 -0.31153429490E+03  0.33715479979E+03  0.80005837587E+02 0.  0.
          5    1    3    3  501    0 -0.80602276349E+02  0.15087669729E+02 -0.46507800064E+03  0.47227534491E+03  0.47000000000E+01 0. -1.
        -11    1    4    4    0    0 -0.32024717098E+02 -0.37790681963E+02 -0.58162002883E+02  0.76397229844E+02  0.00000000000E+00 0.  1.
         12    1    4    4    0    0  0.23895830954E+02  0.16165026607E+02 -0.78675718098E+02  0.83798493068E+02  0.00000000000E+00 0. -1.
         -5    1    5    5    0  502  0.15187336991E+01  0.57653544260E+02 -0.71089160799E+02  0.91662405057E+02  0.47000000000E+01 0.  1.
         13    1    6    6    0    0  0.54473604565E+02 -0.57418381016E+02 -0.12707998188E+03  0.14971160899E+03  0.00000000000E+00 0. -1.
        -14    1    6    6    0    0  0.32738824229E+02  0.63028223835E+01 -0.18445431302E+03  0.18744319079E+03  0.00000000000E+00 0.  1.
</event>
<event>
12    1  0.8724767E-002  0.1654037E+03  0.7818608E-02  0.1185785E+00
         21   -1    0    0  503  502  0.00000000000E+00  0.00000000000E+00  0.61051750821E+03  0.61051750821E+03  0.00000000000E+00 0. -1.
         21   -1    0    0  501  503 -0.00000000000E+00 -0.00000000000E+00 -0.10223653043E+03  0.10223653043E+03  0.00000000000E+00 0. -1.
          6    2    1    2  501    0 -0.24808577843E+02 -0.13985623148E+02 -0.16007067868E+02  0.16617643613E+03  0.16293347880E+03 0.  0.
         24    2    3    3    0    0 -0.61172357379E+02 -0.48640210901E+02 -0.23181723585E+02  0.11521732901E+03  0.81423050616E+02 0.  0.
         -6    2    1    2    0  502  0.24808577843E+02  0.13985623148E+02  0.52428804565E+03  0.54657760250E+03  0.15184879835E+03 0.  0.
        -24    2    5    5    0    0  0.28324682642E+02 -0.68563903816E+01  0.51701483182E+03  0.52373592655E+03  0.78394430300E+02 0.  0.
          5    1    3    3  501    0  0.36363779536E+02  0.34654587753E+02  0.71746557174E+01  0.50959107127E+02  0.47000000000E+01 0. -1.
        -13    1    4    4    0    0 -0.66594291498E+02 -0.25859425643E+02  0.12513430019E+02  0.72526515741E+02  0.00000000000E+00 0.  1.
         14    1    4    4    0    0  0.54219341193E+01 -0.22780785258E+02 -0.35695153604E+02  0.42690813267E+02  0.00000000000E+00 0. -1.
         -5    1    5    5    0  502 -0.35161047985E+01  0.20842013530E+02  0.72732138261E+01  0.22841675952E+02  0.47000000000E+01 0.  1.
         13    1    6    6    0    0  0.39859942549E+02 -0.96914151336E+01  0.12535949131E+03  0.13190049511E+03  0.00000000000E+00 0. -1.
        -14    1    6    6    0    0 -0.11535259908E+02  0.28350247520E+01  0.39165534051E+03  0.39183543145E+03  0.00000000000E+00 0.  1.
</event>
<event>
12    1  0.8724767E-002  0.2514877E+03  0.7818608E-02  0.1112502E+00
         21   -1    0    0  501  502  0.00000000000E+00  0.00000000000E+00  0.23104182466E+03  0.23104182466E+03  0.00000000000E+00 0. -1.
         21   -1    0    0  502  503 -0.00000000000E+00 -0.00000000000E+00 -0.35495368470E+03  0.35495368470E+03  0.00000000000E+00 0.  1.
         -6    2    1    2    0  503 -0.11756811060E+03 -0.13964954178E+03  0.79071819497E+02  0.26281069309E+03  0.17173483226E+03 0.  0.
        -24    2    3    3    0    0 -0.94344259768E+02 -0.23820801880E+02  0.70980418949E+02  0.14430666363E+03  0.79485365568E+02 0.  0.
          6    2    1    2  501    0  0.11756811060E+03  0.13964954178E+03 -0.20298367954E+03  0.32318481627E+03  0.17297917839E+03 0.  0.
         24    2    5    5    0    0  0.43340576531E+02  0.14820093540E+02 -0.31267578850E+02  0.98238984570E+02  0.81087581389E+02 0.  0.
          5    1    5    5  501    0  0.74227534073E+02  0.12482944824E+03 -0.17171610069E+03  0.22494583170E+03  0.47000000000E+01 0. -1.
        -13    1    6    6    0    0  0.66603593627E+02  0.13686950102E+02 -0.31522688147E+02  0.74946988966E+02  0.00000000000E+00 0.  1.
         14    1    6    6    0    0 -0.23263017095E+02  0.11331434384E+01  0.25510929716E+00  0.23291995603E+02  0.00000000000E+00 0. -1.
         -5    1    3    3    0  503 -0.23223850836E+02 -0.11582873990E+03  0.80914005480E+01  0.11850402946E+03  0.47000000000E+01 0.  1.
         11    1    4    4    0    0  0.11609893565E+02  0.80195937869E+01  0.13931666576E+02  0.19829141350E+02  0.00000000000E+00 0. -1.
        -12    1    4    4    0    0 -0.10595415333E+03 -0.31840395667E+02  0.57048752373E+02  0.12447752228E+03  0.00000000000E+00 0.  1.
</event>
<event>
12    1  0.8724767E-002  0.2146010E+03  0.7818608E-02  0.1138802E+00
         21   -1    0    0  503  502  0.00000000000E+00  0.00000000000E+00  0.12101336001E+03  0.12101336001E+03  0.00000000000E+00 0.  1.
         21   -1    0    0  501  503 -0.00000000000E+00 -0.00000000000E+00 -0.38513921852E+03  0.38513921852E+03  0.00000000000E+00 0. -1.
          6    2    1    2  501    0  0.10484933120E+03  0.60852625281E+02 -0.17561330588E+03  0.27401453691E+03  0.17189388873E+03 0.  0.
         24    2    3    3    0    0  0.51248327524E+02  0.75644533223E+02 -0.17985324659E+03  0.21805084125E+03  0.82767702514E+02 0.  0.
         -6    2    1    2    0  502 -0.10484933120E+03 -0.60852625281E+02 -0.88512552625E+02  0.23213804162E+03  0.17707957008E+03 0.  0.
        -24    2    5    5    0    0  0.51159494436E+01 -0.63162490823E+02 -0.64536695557E+02  0.11946759231E+03  0.78050287335E+02 0.  0.
          5    1    3    3  501    0  0.53601003675E+02 -0.14791907942E+02  0.42399407082E+01  0.55963695667E+02  0.47000000000E+01 0. -1.
        -13    1    4    4    0    0  0.60438529814E+01  0.45103295240E+02 -0.21052030763E+02  0.50140037890E+02  0.00000000000E+00 0.  1.
         14    1    4    4    0    0  0.45204474542E+02  0.30541237983E+02 -0.15880121583E+03  0.16791080336E+03  0.00000000000E+00 0. -1.
         -5    1    5    5    0  502 -0.10996528064E+03  0.23098655418E+01 -0.23975857068E+02  0.11267044931E+03  0.47000000000E+01 0.  1.
         13    1    6    6    0    0 -0.24146849485E+02  0.36535844166E+01 -0.41495182886E+01  0.24771708080E+02  0.00000000000E+00 0. -1.
        -14    1    6    6    0    0  0.29262798929E+02 -0.66816075239E+02 -0.60387177269E+02  0.94695884230E+02  0.00000000000E+00 0.  1.
</event>
<event>
12    1  0.8724767E-002  0.1965150E+03  0.7818608E-02  0.1153083E+00
         21   -1    0    0  501  502  0.00000000000E+00  0.00000000000E+00  0.78337551327E+02  0.78337551327E+02  0.00000000000E+00 0. -1.
         21   -1    0    0  502  503 -0.00000000000E+00 -0.00000000000E+00 -0.48889877532E+03  0.48889877532E+03  0.00000000000E+00 0. -1.
         -6    2    1    2    0  503 -0.62207453548E+02  0.70222518448E+02 -0.20047857612E+03  0.28073084752E+03  0.17267651807E+03 0.  0.
        -24    2    3    3    0    0 -0.32672566483E+02  0.92968257079E+02 -0.70177233120E+02  0.14512034583E+03  0.80152837138E+02 0.  0.
          6    2    1    2  501    0  0.62207453548E+02 -0.70222518448E+02 -0.21008264787E+03  0.28650547913E+03  0.17073283591E+03 0.  0.
         24    2    5    5    0    0  0.80132126288E+02 -0.58364921617E+02 -0.70655511609E+02  0.14535338803E+03  0.79421560998E+02 0.  0.
          5    1    5    5  501    0 -0.17924672740E+02 -0.11857596831E+02 -0.13942713626E+03  0.14115209110E+03  0.47000000000E+01 0. -1.
        -11    1    6    6    0    0  0.12863749846E+02  0.16560550925E+02 -0.30359963479E+02  0.36897903592E+02  0.00000000000E+00 0.  1.
         12    1    6    6    0    0  0.67268376442E+02 -0.74925472542E+02 -0.40295548130E+02  0.10845548443E+03  0.00000000000E+00 0. -1.
         -5    1    3    3    0  503 -0.29534887064E+02 -0.22745738632E+02 -0.13030134300E+03  0.13561050168E+03  0.47000000000E+01 0.  1.
         11    1    4    4    0    0 -0.26746262899E+02 -0.63559333487E+01 -0.13860982957E+02  0.30787778684E+02  0.00000000000E+00 0. -1.
        -12    1    4    4    0    0 -0.59263035848E+01  0.99324190428E+02 -0.56316250163E+02  0.11433256715E+03  0.00000000000E+00 0.  1.
</event>
<event>
12    1  0.8724767E-002  0.2074375E+03  0.7818608E-02  0.1145063E+00
         21   -1    0    0  503  502  0.00000000000E+00  0.00000000000E+00  0.16579283349E+03  0.16579283349E+03  0.00000000000E+00 0.  1.
         21   -1    0    0  501  503 -0.00000000000E+00 -0.00000000000E+00 -0.40859698425E+03  0.40859698425E+03  0.00000000000E+00 0.  1.
          6    2    1    2  501    0 -0.10243923110E+03 -0.46833605737E+02 -0.30117846858E+03  0.36570316054E+03  0.17419285002E+03 0.  0.
         24    2    3    3    0    0 -0.10705439562E+02 -0.63059356939E+02 -0.21643337782E+03  0.23967862356E+03  0.80692915576E+02 0.  0.
         -6    2    1    2    0  502  0.10243923110E+03  0.46833605737E+02  0.58374317823E+02  0.20868665720E+03  0.16569664214E+03 0.  0.
        -24    2    5    5    0    0 -0.22848806996E+01  0.81164938600E+01 -0.65086886639E+01  0.79465726714E+02  0.78748590728E+02 0.  0.
          5    1    3    3  501    0 -0.91733791542E+02  0.16225751202E+02 -0.84745090761E+02  0.12602453698E+03  0.47000000000E+01 0. -1.
        -11    1    4    4    0    0 -0.21380689145E+02 -0.72108524516E+01 -0.85009958440E+01  0.24112179324E+02  0.00000000000E+00 0.  1.
         12    1    4    4    0    0  0.10675249584E+02 -0.55848504487E+02 -0.20793238197E+03  0.21556644424E+03  0.00000000000E+00 0. -1.
         -5    1    5    5    0  502  0.10472411180E+03  0.38717111877E+02  0.64883006487E+02  0.12922093049E+03  0.47000000000E+01 0.  1.
         11    1    6    6    0    0  0.17545014450E+02 -0.30819151681E+02 -0.41861770162E+01  0.35709546628E+02  0.00000000000E+00 0. -1.
        -12    1    6    6    0    0 -0.19829895149E+02  0.38935645541E+02 -0.23225116477E+01  0.43756180086E+02  0.00000000000E+00 0.  1.
</event>
<event>
12    1  0.8724767E-002  0.1914878E+03  0.7818608E-02  0.1157129E+00
         21   -1    0    0  503  502  0.00000000000E+00  0.00000000000E+00  0.23811421075E+03  0.23811421075E+03  0.00000000000E+00 0.  1.
         21   -1    0    0  501  503 -0.00000000000E+00 -0.00000000000E+00 -0.27050418010E+03  0.27050418010E+03  0.00000000000E+00 0.  1.
          6    2    1    2  501    0  0.33016316290E+02  0.80398800037E+02 -0.18310426384E+03  0.26493340518E+03  0.17061211433E+03 0.  0.
         24    2    3    3    0    0 -0.21079693041E+02 -0.23006689159E+01 -0.44860824093E+02  0.94936584551E+02  0.80937105284E+02 0.  0.
         -6    2    1    2    0  502 -0.33016316290E+02 -0.80398800037E+02  0.15071429449E+03  0.24368498568E+03  0.17062687212E+03 0.  0.
        -24    2    5    5    0    0 -0.87409705361E+02 -0.53783930840E+02  0.98283798997E+02  0.16344759480E+03  0.80760406712E+02 0.  0.
          5    1    3    3  501    0  0.54096009332E+02  0.82699468953E+02 -0.13824343974E+03  0.16999682063E+03  0.47000000000E+01 0. -1.
        -13    1    4    4    0    0 -0.18159463532E+02 -0.93844916149E+01 -0.67767058521E+02  0.70782829975E+02  0.00000000000E+00 0.  1.
         14    1    4    4    0    0 -0.29202295097E+01  0.70838226990E+01  0.22906234428E+02  0.24153754576E+02  0.00000000000E+00 0. -1.
         -5    1    5    5    0  502  0.54393389070E+02 -0.26614869197E+02  0.52430495495E+02  0.80237390878E+02  0.47000000000E+01 0.  1.
         13    1    6    6    0    0 -0.18962857748E+02 -0.15878308149E+01 -0.12787231621E+02  0.22926501547E+02  0.00000000000E+00 0. -1.
        -14    1    6    6    0    0 -0.68446847613E+02 -0.52196100025E+02  0.11107103062E+03  0.14052109325E+03  0.00000000000E+00 0.  1.
</event>
<event>
12    1  0.8724767E-002  0.1800245E+03  0.7818608E-02  0.1167953E+00
         21   -1    0    0  503  502  0.00000000000E+00  0.00000000000E+00  0.23855224961E+02  0.23855224961E+02  0.00000000000E+00 0. -1.
         21   -1    0    0  501  503 -0.00000000000E+00 -0.00000000000E+00 -0.15019257298E+04  0.15019257298E+04  0.00000000000E+00 0. -1.
          6    2    1    2  501    0 -0.29776813131E+02  0.40770526499E+02 -0.97779685677E+03  0.99410195988E+03  0.17205556984E+03 0.  0.
         24    2    3    3    0    0 -0.89929737920E+01 -0.84806484607E+01 -0.21636096299E+03  0.23077741781E+03  0.79330670528E+02 0.  0.
         -6    2    1    2    0  502  0.29776813131E+02 -0.40770526499E+02 -0.50027364810E+03  0.53167899490E+03  0.17280027837E+03 0.  0.
        -24    2    5    5    0    0  0.77906971631E+02 -0.18418930984E+01 -0.38731294365E+03  0.40278306244E+03  0.78421873670E+02 0.  0.
          5    1    3    3  501    0 -0.20783839339E+02  0.49251174960E+02 -0.76143589377E+03  0.76332454208E+03  0.47000000000E+01 0. -1.
        -11    1    4    4    0    0  0.31216979658E+02 -0.17069852452E+02 -0.67007648334E+02  0.75867678341E+02  0.00000000000E+00 0.  1.
         12    1    4    4    0    0 -0.40209953450E+02  0.85892039914E+01 -0.14935331466E+03  0.15490973947E+03  0.00000000000E+00 0. -1.
         -5    1    5    5    0  502 -0.48130158500E+02 -0.38928633401E+02 -0.11296070445E+03  0.12889593246E+03  0.47000000000E+01 0.  1.
         13    1    6    6    0    0 -0.12198154401E+02 -0.15011908091E+02 -0.60178546975E+02  0.63210836661E+02  0.00000000000E+00 0. -1.
        -14    1    6    6    0    0  0.90105126032E+02  0.13170014993E+02 -0.32713439667E+03  0.33957222577E+03  0.00000000000E+00 0.  1.
</event>
<event>
12    1  0.8724767E-002  0.1910625E+03  0.7818608E-02  0.1158129E+00
         21   -1    0    0  503  502  0.00000000000E+00  0.00000000000E+00  0.14603493426E+03  0.14603493426E+03  0.00000000000E+00 0.  1.
         21   -1    0    0  501  503 -0.00000000000E+00 -0.00000000000E+00 -0.35647793594E+03  0.35647793594E+03  0.00000000000E+00 0.  1.
          6    2    1    2  501    0  0.80266817548E+02 -0.20102521801E+02 -0.24432508760E+03  0.30846941740E+03  0.16915010984E+03 0.  0.
         24    2    3    3    0    0  0.14595709798E+02  0.45142130121E+02 -0.16939016995E+03  0.18927675453E+03  0.69869975490E+02 0.  0.
         -6    2    1    2    0  502 -0.80266817548E+02  0.20102521801E+02  0.33882085922E+02  0.19404345281E+03  0.17221496000E+03 0.  0.
        -24    2    5    5    0    0 -0.12344080313E+03 -0.14932048892E+02  0.26837036251E+02  0.13780168097E+03  0.52995082788E+02 0.  0.
          5    1    3    3  501    0  0.65671107751E+02 -0.65244651922E+02 -0.74934917645E+02  0.11919266286E+03  0.47000000000E+01 0. -1.
        -11    1    4    4    0    0  0.29355147282E+02  0.52244136763E+01 -0.12195932755E+03  0.12555117182E+03  0.00000000000E+00 0.  1.
         12    1    4    4    0    0 -0.14759437484E+02  0.39917716444E+02 -0.47430842405E+02  0.63725582714E+02  0.00000000000E+00 0. -1.
         -5    1    5    5    0  502  0.43173985586E+02  0.35034570693E+02  0.70450496701E+01  0.56241771841E+02  0.47000000000E+01 0.  1.
         11    1    6    6    0    0 -0.28404217895E+01 -0.51924960792E+01 -0.97430646930E+01  0.11399882503E+02  0.00000000000E+00 0. -1.
        -12    1    6    6    0    0 -0.12060038134E+03 -0.97395528123E+01  0.36580100944E+02  0.12640179846E+03  0.00000000000E+00 0.  1.
</event>
<event>
12    1  0.8724767E-002  0.2023921E+03  0.7818608E-02  0.1147761E+00
         21   -1    0    0  503  502  0.00000000000E+00  0.00000000000E+00  0.27032769250E+03  0.27032769250E+03  0.00000000000E+00 0.  1.
         21   -1    0    0  501  503 -0.00000000000E+00 -0.00000000000E+00 -0.23301837445E+03  0.23301837445E+03  0.00000000000E+00 0.  1.
          6    2    1    2  501    0  0.33101212392E+02 -0.10321599933E+03 -0.13025905305E+03  0.24058815253E+03  0.17078057693E+03 0.  0.
         24    2    3    3    0    0 -0.21526008137E+02 -0.93081143160E+02 -0.13646565486E+03  0.18448592050E+03  0.79276173401E+02 0.  0.
         -6    2    1    2    0  502 -0.33101212392E+02  0.10321599933E+03  0.16756837110E+03  0.26275791442E+03  0.17091907389E+03 0.  0.
        -24    2    5    5    0    0  0.35408678929E+02  0.44459336284E+02  0.13495257007E+03  0.16667549596E+03  0.79612295902E+02 0.  0.
          5    1    3    3  501    0  0.54627220529E+02 -0.10134856166E+02  0.62066018127E+01  0.56102232026E+02  0.47000000000E+01 0. -1.
        -13    1    4    4    0    0  0.25577556461E+02 -0.11079259387E+02 -0.44926325673E+02  0.52870938346E+02  0.00000000000E+00 0.  1.
         14    1    4    4    0    0 -0.47103564598E+02 -0.82001883773E+02 -0.91539329185E+02  0.13161498216E+03  0.00000000000E+00 0. -1.
         -5    1    5    5    0  502 -0.68509891321E+02  0.58756663042E+02  0.32615801030E+02  0.96082418462E+02  0.47000000000E+01 0.  1.
         13    1    6    6    0    0  0.23835908984E+02 -0.23943642142E+01  0.65000950930E+00  0.23964683379E+02  0.00000000000E+00 0. -1.
        -14    1    6    6    0    0  0.11572769945E+02  0.46853700498E+02  0.13430256056E+03  0.14271081258E+03  0.00000000000E+00 0.  1.
</event>
<event>
12    1  0.8724767E-002  0.1788394E+03  0.7818608E-02  0.1169555E+00
         21   -1    0    0  503  502  0.00000000000E+00  0.00000000000E+00  0.38121070836E+02  0.38121070836E+02  0.00000000000E+00 0. -1.
         21   -1    0    0  501  503 -0.00000000000E+00 -0.00000000000E+00 -0.87101879629E+03  0.87101879629E+03  0.00000000000E+00 0. -1.
          6    2    1    2  501    0 -0.30218913290E+02 -0.15457698255E+02 -0.52131388365E+03  0.55113672902E+03  0.17558874003E+03 0.  0.
         24    2    3    3    0    0  0.46311581923E+02 -0.17713297157E+02 -0.20645504197E+03  0.22706855006E+03  0.80485517682E+02 0.  0.
         -6    2    1    2    0  502  0.30218913290E+02  0.15457698255E+02 -0.31158384180E+03  0.35800313811E+03  0.17300183025E+03 0.  0.
        -24    2    5    5    0    0  0.36233911856E+01  0.64775695966E+01 -0.48945390605E+02  0.93827040490E+02  0.79704293448E+02 0.  0.
          5    1    3    3  501    0 -0.76530495213E+02  0.22555989019E+01 -0.31485884169E+03  0.32406817896E+03  0.47000000000E+01 0. -1.
        -13    1    4    4    0    0  0.64879536172E+02 -0.75131205821E+00 -0.17595671854E+03  0.18753849067E+03  0.00000000000E+00 0.  1.
         14    1    4    4    0    0 -0.18567954249E+02 -0.16961985098E+02 -0.30498323428E+02  0.39530059390E+02  0.00000000000E+00 0. -1.
         -5    1    5    5    0  502  0.26595522105E+02  0.89801286582E+01 -0.26263845119E+03  0.26417609762E+03  0.47000000000E+01 0.  1.
         11    1    6    6    0    0  0.30652676909E+02  0.30938294620E+02 -0.25109055131E+02  0.50271555827E+02  0.00000000000E+00 0. -1.
        -12    1    6    6    0    0 -0.27029285723E+02 -0.24460725024E+02 -0.23836335474E+02  0.43555484663E+02  0.00000000000E+00 0.  1.
</event>
<event>
12    1  0.8724767E-002  0.2072238E+03  0.7818608E-02  0.1143893E+00
         21   -1    0    0  501  502  0.00000000000E+00  0.00000000000E+00  0.79125650215E+03  0.79125650215E+03  0.00000000000E+00 0.  1.
         21   -1    0    0  502  503 -0.00000000000E+00 -0.00000000000E+00 -0.75139069676E+02  0.75139069676E+02  0.00000000000E+00 0.  1.
         -6    2    1    2    0  503  0.11480030638E+03  0.13111470159E+02  0.12932313725E+03  0.24426659185E+03  0.17201939737E+03 0.  0.
        -24    2    3    3    0    0  0.52769419622E+02  0.52178887515E+02  0.13403083363E+03  0.17065717386E+03  0.75182169954E+02 0.  0.
          6    2    1    2  501    0 -0.11480030638E+03 -0.13111470159E+02  0.58679429523E+03  0.62212897998E+03  0.17136482084E+03 0.  0.
         24    2    5    5    0    0 -0.12799627289E+03 -0.20356485911E+02  0.31581988202E+03  0.35069602988E+03  0.80299907233E+02 0.  0.
          5    1    5    5  501    0  0.13195966510E+02  0.72450157512E+01  0.27097441321E+03  0.27143295010E+03  0.47000000000E+01 0. -1.
        -13    1    6    6    0    0 -0.12305820561E+03 -0.34142081555E+02  0.30937585445E+03  0.33469750973E+03  0.00000000000E+00 0.  1.
         14    1    6    6    0    0 -0.49380672804E+01  0.13785595645E+02  0.64440275707E+01  0.15998520153E+02  0.00000000000E+00 0. -1.
         -5    1    3    3    0  503  0.62030886760E+02 -0.39067417356E+02 -0.47076963769E+01  0.73609417987E+02  0.47000000000E+01 0.  1.
         13    1    4    4    0    0  0.62607064970E+02  0.64452668460E+02  0.11205229962E+03  0.14362976330E+03  0.00000000000E+00 0. -1.
        -14    1    4    4    0    0 -0.98376453475E+01 -0.12273780945E+02  0.21978534003E+02  0.27027410560E+02  0.00000000000E+00 0.  1.
</event>
<event>
12    1  0.8724767E-002  0.2270312E+03  0.7818608E-02  0.1128794E+00
         21   -1    0    0  503  502  0.00000000000E+00  0.00000000000E+00  0.18904140371E+03  0.18904140371E+03  0.00000000000E+00 0. -1.
         21   -1    0    0  501  503 -0.00000000000E+00 -0.00000000000E+00 -0.39407898350E+03  0.39407898350E+03  0.00000000000E+00 0. -1.
          6    2    1    2  501    0  0.12931732206E+03  0.73599419555E+02 -0.26452870336E+03  0.34842412175E+03  0.17112594592E+03 0.  0.
         24    2    3    3    0    0  0.43030463229E+02  0.13886609411E+02 -0.40245057919E+02  0.10076248702E+03  0.80554052764E+02 0.  0.
         -6    2    1    2    0  502 -0.12931732206E+03 -0.73599419555E+02  0.59491123578E+02  0.23469626547E+03  0.17147390150E+03 0.  0.
        -24    2    5    5    0    0 -0.99244219935E+02 -0.87151876989E+00 -0.14066863197E+02  0.12686952276E+03  0.77767759582E+02 0.  0.
          5    1    3    3  501    0  0.86286858830E+02  0.59712810143E+02 -0.22428364544E+03  0.24766163473E+03  0.47000000000E+01 0. -1.
        -13    1    4    4    0    0  0.10940899463E+02 -0.23209440154E+02 -0.44668754299E+02  0.51513871956E+02  0.00000000000E+00 0.  1.
         14    1    4    4    0    0  0.32089563766E+02  0.37096049565E+02  0.44236963791E+01  0.49248615064E+02  0.00000000000E+00 0. -1.
         -5    1    5    5    0  502 -0.30073102124E+02 -0.72727900785E+02  0.73557986775E+02  0.10782674270E+03  0.47000000000E+01 0.  1.
         13    1    6    6    0    0 -0.49407208563E+02 -0.33959871904E+02  0.12780728368E+02  0.61300017743E+02  0.00000000000E+00 0. -1.
        -14    1    6    6    0    0 -0.49837011372E+02  0.33088353134E+02 -0.26847591565E+02  0.65569505019E+02  0.00000000000E+00 0.  1.
</event>
<event>
12    1  0.8724767E-002  0.1817272E+03  0.7818608E-02  0.1166907E+00
         21   -1    0    0  503  502  0.00000000000E+00  0.00000000000E+00  0.41232971965E+02  0.41232971965E+02  0.00000000000E+00 0.  1.
         21   -1    0    0  501  503 -0.00000000000E+00 -0.00000000000E+00 -0.11144797287E+04  0.11144797287E+04  0.00000000000E+00 0.  1.
          6    2    1    2  501    0  0.42194589356E+02  0.36324899869E+02 -0.84651178835E+03  0.86513824316E+03  0.16965285217E+03 0.  0.
         24    2    3    3    0    0  0.82327991894E+02 -0.35618322162E+01 -0.44145063822E+03  0.45611713523E+03  0.79834767885E+02 0.  0.
         -6    2    1    2    0  502 -0.42194589356E+02 -0.36324899869E+02 -0.22673496842E+03  0.29057445754E+03  0.17298811447E+03 0.  0.
        -24    2    5    5    0    0 -0.64484938298E+02  0.25740956616E+02 -0.18262814992E+03  0.21109784692E+03  0.79927190091E+02 0.  0.
          5    1    3    3  501    0 -0.40133402539E+02  0.39886732085E+02 -0.40506115013E+03  0.40902110794E+03  0.47000000000E+01 0. -1.
        -11    1    4    4    0    0  0.58058397977E+02 -0.13824735435E+02 -0.41318895061E+03  0.41747695720E+03  0.00000000000E+00 0.  1.
         12    1    4    4    0    0  0.24269593918E+02  0.10262903218E+02 -0.28261687611E+02  0.38640178028E+02  0.00000000000E+00 0. -1.
         -5    1    5    5    0  502  0.22290348943E+02 -0.62065856486E+02 -0.44106818509E+02  0.79476610624E+02  0.47000000000E+01 0.  1.
         13    1    6    6    0    0 -0.10112731107E+02  0.41800614793E+02 -0.44981203961E+02  0.62232366477E+02  0.00000000000E+00 0. -1.
        -14    1    6    6    0    0 -0.54372207191E+02 -0.16059658177E+02 -0.13764694595E+03  0.14886548044E+03  0.00000000000E+00 0.  1.
</event>
<event>
12    1  0.8724767E-002  0.1880906E+03  0.7818608E-02  0.1164958E+00
         21   -1    0    0  503  502  0.00000000000E+00  0.00000000000E+00  0.14616423297E+03  0.14616423297E+03  0.00000000000E+00 0.  1.
         21   -1    0    0  501  503 -0.00000000000E+00 -0.00000000000E+00 -0.24001929722E+03  0.24001929722E+03  0.00000000000E+00 0.  1.
          6    2    1    2  501    0  0.57535625015E+02 -0.46282582675E+02 -0.10845451560E+03  0.21711851443E+03  0.17299029380E+03 0.  0.
         24    2    3    3    0    0 -0.72645156549E+01 -0.76630499521E+02 -0.44440523034E+02  0.12099393104E+03  0.82094851343E+02 0.  0.
         -6    2    1    2    0  502 -0.57535625015E+02  0.46282582675E+02  0.14599451342E+02  0.16906501576E+03  0.15138497273E+03 0.  0.
        -24    2    5    5    0    0  0.41973562176E+01  0.52977412530E+02 -0.20748663624E+02  0.97459422750E+02  0.79016504624E+02 0.  0.
          5    1    3    3  501    0  0.64800140670E+02  0.30347916846E+02 -0.64013992561E+02  0.96124583387E+02  0.47000000000E+01 0. -1.
        -11    1    4    4    0    0  0.25207003615E+02 -0.75950927616E+02 -0.32948096723E+02  0.86541975449E+02  0.00000000000E+00 0.  1.
         12    1    4    4    0    0 -0.32471519270E+02 -0.67957190557E+00 -0.11492426311E+02  0.34451955594E+02  0.00000000000E+00 0. -1.
         -5    1    5    5    0  502 -0.61732981232E+02 -0.66948298545E+01  0.35348114966E+02  0.71605593010E+02  0.47000000000E+01 0.  1.
         13    1    6    6    0    0 -0.14839788907E+02 -0.12205341711E+02  0.11385363591E+02  0.22334193632E+02  0.00000000000E+00 0. -1.
        -14    1    6    6    0    0  0.19037145124E+02  0.65182754241E+02 -0.32134027215E+02  0.75125229118E+02  0.00000000000E+00 0.  1.
</event>
<event>
12    1  0.8724767E-002  0.2014913E+03  0.7818608E-02  0.1149405E+00
         21   -1    0    0  503  502  0.00000000000E+00  0.00000000000E+00  0.80647381474E+03  0.80647381474E+03  0.00000000000E+00 0. -1.
         21   -1    0    0  501  503 -0.00000000000E+00 -0.00000000000E+00 -0.80538158722E+02  0.80538158722E+02  0.00000000000E+00 0.  1.
          6    2    1    2  501    0 -0.96758301841E+02  0.52563965990E+01  0.63692051316E+03  0.66673386099E+03  0.17168722324E+03 0.  0.
         24    2    3    3    0    0 -0.27493268908E+02 -0.62739552264E+02  0.37171867191E+03  0.38428882129E+03  0.69361342740E+02 0.  0.
         -6    2    1    2    0  502  0.96758301841E+02 -0.52563965990E+01  0.89015142852E+02  0.22027811247E+03  0.17666055727E+03 0.  0.
        -24    2    5    5    0    0  0.69723582398E+02 -0.54136554687E+01  0.13595175277E+03  0.16590867127E+03  0.64436965417E+02 0.  0.
          5    1    3    3  501    0 -0.69265032933E+02  0.67995948863E+02  0.26520184125E+03  0.28244503970E+03  0.47000000000E+01 0. -1.
        -11    1    4    4    0    0 -0.24272329137E+02 -0.66428515732E+01  0.23685502286E+03  0.23818810905E+03  0.00000000000E+00 0.  1.
         12    1    4    4    0    0 -0.32209397715E+01 -0.56096700691E+02  0.13486364905E+03  0.14610071224E+03  0.00000000000E+00 0. -1.
         -5    1    5    5    0  502  0.27034719443E+02  0.15725886971E+00 -0.46936609920E+02  0.54369441200E+02  0.47000000000E+01 0.  1.
         11    1    6    6    0    0  0.21211083156E+02  0.28586882101E+02  0.57011759936E+02  0.67212057310E+02  0.00000000000E+00 0. -1.
        -12    1    6    6    0    0  0.48512499243E+02 -0.34000537569E+02  0.78939992836E+02  0.98696613958E+02  0.00000000000E+00 0.  1.
</event>
<event>
12    1  0.8724767E-002  0.1832065E+03  0.7818608E-02  0.1164945E+00
         21   -1    0    0  501  502  0.00000000000E+00  0.00000000000E+00  0.23926924634E+03  0.23926924634E+03  0.00000000000E+00 0.  1.
         21   -1    0    0  502  503 -0.00000000000E+00 -0.00000000000E+00 -0.37105769847E+03  0.37105769847E+03  0.00000000000E+00 0.  1.
         -6    2    1    2    0  503 -0.57990165155E+02 -0.12082871536E+02 -0.30696818233E+03  0.35748299948E+03  0.17336601430E+03 0.  0.
        -24    2    3    3    0    0 -0.10265068570E+02  0.29514898159E+02 -0.27215447810E+03  0.28508035250E+03  0.78906568719E+02 0.  0.
          6    2    1    2  501    0  0.57990165155E+02  0.12082871536E+02  0.17517973020E+03  0.25284394532E+03  0.17243337198E+03 0.  0.
         24    2    5    5    0    0  0.93174138433E+02 -0.25617630214E+01  0.17618473349E+03  0.21443200279E+03  0.79069847626E+02 0.  0.
          5    1    5    5  501    0 -0.35183973278E+02  0.14644634557E+02 -0.10050032915E+01  0.38411942525E+02  0.47000000000E+01 0. -1.
        -11    1    6    6    0    0  0.56333946687E+02  0.16892665842E+02  0.37800295408E+02  0.69912359719E+02  0.00000000000E+00 0.  1.
         12    1    6    6    0    0  0.36840191746E+02 -0.19454428863E+02  0.13838443809E+03  0.14451964307E+03  0.00000000000E+00 0. -1.
         -5    1    3    3    0  503 -0.47725096586E+02 -0.41597769695E+02 -0.34813704238E+02  0.72402646985E+02  0.47000000000E+01 0.  1.
         13    1    4    4    0    0  0.16407408911E+02  0.14314436230E+01 -0.83829390267E+01  0.18480415708E+02  0.00000000000E+00 0. -1.
        -14    1    4    4    0    0 -0.26672477481E+02  0.28083454536E+02 -0.26377153907E+03  0.26659993679E+03  0.00000000000E+00 0.  1.
</event>
<event>
12    1  0.8724767E-002  0.2318705E+03  0.7818608E-02  0.1125378E+00
         21   -1    0    0  503  502  0.00000000000E+00  0.00000000000E+00  0.40602421258E+02  0.40602421258E+02  0.00000000000E+00 0.  1.
         21   -1    0    0  501  503 -0.00000000000E+00 -0.00000000000E+00 -0.15166134974E+04  0.15166134974E+04  0.00000000000E+00 0. -1.
          6    2    1    2  501    0 -0.14667077081E+03 -0.53650098153E+02 -0.10168660820E+04  0.10429671911E+04  0.17138636127E+03 0.  0.
         24    2    3    3    0    0 -0.14702865865E+03 -0.91378875683E+02 -0.77922112691E+03  0.80229977858E+03  0.80819828724E+02 0.  0.
         -6    2    1    2    0  502  0.14667077081E+03  0.53650098153E+02 -0.45914499411E+03  0.51424872758E+03  0.17101748496E+03 0.  0.
        -24    2    5    5    0    0  0.32539818558E+02 -0.26164306561E+02 -0.18194669470E+03  0.20399528174E+03  0.82256091143E+02 0.  0.
          5    1    3    3  501    0  0.35788784364E+00  0.37728777530E+02 -0.23764495514E+03  0.24066741250E+03  0.47000000000E+01 0. -1.
        -13    1    4    4    0    0 -0.91244182271E+01 -0.19325281074E+02 -0.28491462667E+02  0.35615796235E+02  0.00000000000E+00 0.  1.
         14    1    4    4    0    0 -0.13790424043E+03 -0.72053594608E+02 -0.75072966424E+03  0.76668398235E+03  0.00000000000E+00 0. -1.
         -5    1    5    5    0  502  0.11413095225E+03  0.79814404714E+02 -0.27719829941E+03  0.31025344585E+03  0.47000000000E+01 0.  1.
         11    1    6    6    0    0 -0.14107073476E+02  0.11296109586E+02 -0.74856390526E+01  0.19561349797E+02  0.00000000000E+00 0. -1.
        -12    1    6    6    0    0  0.46646892034E+02 -0.37460416147E+02 -0.17446105565E+03  0.18443393194E+03  0.00000000000E+00 0.  1.
</event>
<event>
12    1  0.8724767E-002  0.1926122E+03  0.7818608E-02  0.1156396E+00
         21   -1    0    0  503  502  0.00000000000E+00  0.00000000000E+00  0.98032988483E+03  0.98032988483E+03  0.00000000000E+00 0. -1.
         21   -1    0    0  501  503 -0.00000000000E+00 -0.00000000000E+00 -0.47705980239E+02  0.47705980239E+02  0.00000000000E+00 0. -1.
          6    2    1    2  501    0 -0.38132393242E+02  0.76808239579E+02  0.22863042520E+03  0.29816855912E+03  0.17111117216E+03 0.  0.
         24    2    3    3    0    0 -0.57059845398E+01  0.10108123014E+03  0.22190057014E+03  0.25684022742E+03  0.80480221463E+02 0.  0.
         -6    2    1    2    0  502  0.38132393242E+02 -0.76808239579E+02  0.70399347938E+03  0.72986730594E+03  0.17246993996E+03 0.  0.
        -24    2    5    5    0    0  0.78399490565E+02 -0.87346699097E+01  0.36949234192E+03  0.38611077731E+03  0.79587480412E+02 0.  0.
          5    1    3    3  501    0 -0.32426408702E+02 -0.24272990560E+02  0.67298550647E+01  0.41328331701E+02  0.47000000000E+01 0. -1.
        -11    1    4    4    0    0  0.26057426038E+02  0.28569721888E+02  0.12957975709E+03  0.13522622492E+03  0.00000000000E+00 0.  1.
         12    1    4    4    0    0 -0.31763410578E+02  0.72511508251E+02  0.92320813052E+02  0.12161400250E+03  0.00000000000E+00 0. -1.
         -5    1    5    5    0  502 -0.40267097323E+02 -0.68073569670E+02  0.33450113747E+03  0.34375652864E+03  0.47000000000E+01 0.  1.
         13    1    6    6    0    0  0.56858086996E+02 -0.39404018633E+02  0.17768963258E+03  0.19068068667E+03  0.00000000000E+00 0. -1.
        -14    1    6    6    0    0  0.21541403569E+02  0.30669348724E+02  0.19180270933E+03  0.19543009064E+03  0.00000000000E+00 0.  1.
</event>
<event>
12    1  0.8724767E-002  0.1922753E+03  0.7818608E-02  0.1156930E+00
         21   -1    0    0  501  502  0.00000000000E+00  0.00000000000E+00  0.40906912847E+03  0.40906912847E+03  0.00000000000E+00 0.  1.
         21   -1    0    0  502  503 -0.00000000000E+00 -0.00000000000E+00 -0.10308719097E+03  0.10308719097E+03  0.00000000000E+00 0.  1.
         -6    2    1    2    0  503 -0.40172106808E+02  0.73738403126E+02  0.58613222346E+02  0.19884963624E+03  0.17045385809E+03 0.  0.
        -24    2    3    3    0    0 -0.70436189798E+02  0.72155888385E+02  0.89042109271E+02  0.15564748083E+03  0.78293754567E+02 0.  0.
          6    2    1    2  501    0  0.40172106808E+02 -0.73738403126E+02  0.24736871516E+03  0.31330668320E+03  0.17297007325E+03 0.  0.
         24    2    5    5    0    0 -0.39564995587E+02 -0.66082746069E+02  0.16608542545E+03  0.19908900608E+03  0.78228802806E+02 0.  0.
          5    1    5    5  501    0  0.79737102395E+02 -0.76556570571E+01  0.81283289703E+02  0.11421767713E+03  0.47000000000E+01 0. -1.
        -13    1    6    6    0    0  0.57537422597E+01 -0.27467074757E+02  0.12151938414E+03  0.12471770712E+03  0.00000000000E+00 0.  1.
         14    1    6    6    0    0 -0.45318737846E+02 -0.38615671312E+02  0.44566041309E+02  0.74371298959E+02  0.00000000000E+00 0. -1.
         -5    1    3    3    0  503  0.30264082990E+02  0.15825147414E+01 -0.30428886925E+02  0.43202155405E+02  0.47000000000E+01 0.  1.
         13    1    4    4    0    0  0.11250403227E+02 -0.63262345303E+00  0.28400975508E+02  0.30554659137E+02  0.00000000000E+00 0. -1.
        -14    1    4    4    0    0 -0.81686593025E+02  0.72788511838E+02  0.60641133763E+02  0.12509282170E+03  0.00000000000E+00 0.  1.
</event>
<event>
12    1  0.8724767E-002  0.1834787E+03  0.7818608E-02  0.1164827E+00
         21   -1    0    0  501  502  0.00000000000E+00  0.00000000000E+00  0.10810385670E+03  0.10810385670E+03  0.00000000000E+00 0. -1.
         21   -1    0    0  502  503 -0.00000000000E+00 -0.00000000000E+00 -0.30926838686E+03  0.30926838686E+03  0.00000000000E+00 0.  1.
         -6    2    1    2    0  503 -0.28519331090E+02  0.58030281689E+02 -0.93092281850E+02  0.20443084738E+03  0.17013210333E+03 0.  0.
        -24    2    3    3    0    0 -0.11626285585E+02  0.77979723123E+02 -0.12089036164E+03  0.16598376115E+03  0.81976348377E+02 0.  0.
          6    2    1    2  501    0  0.28519331090E+02 -0.58030281689E+02 -0.10807224831E+03  0.21294139617E+03  0.17170777941E+03 0.  0.
         24    2    5    5    0    0  0.60711719568E+02 -0.87601491520E+02 -0.97321509140E+02  0.16768131752E+03  0.85355807625E+02 0.  0.
          5    1    5    5  501    0 -0.32192388478E+02  0.29571209830E+02 -0.10750739171E+02  0.45260078651E+02  0.47000000000E+01 0. -1.
        -13    1    6    6    0    0 -0.80450663984E+01 -0.16471390404E+02 -0.58674334220E+02  0.61471190743E+02  0.00000000000E+00 0.  1.
         14    1    6    6    0    0  0.68756785966E+02 -0.71130101116E+02 -0.38647174920E+02  0.10621012678E+03  0.00000000000E+00 0. -1.
         -5    1    3    3    0  503 -0.16893045505E+02 -0.19949441433E+02  0.27798079789E+02  0.38447086234E+02  0.47000000000E+01 0.  1.
         13    1    4    4    0    0 -0.35240430139E+02  0.29540147123E+02 -0.17142685383E+02  0.49075247025E+02  0.00000000000E+00 0. -1.
        -14    1    4    4    0    0  0.23614144555E+02  0.48439575999E+02 -0.10374767626E+03  0.11690851412E+03  0.00000000000E+00 0.  1.
</event>
<event>
12    1  0.8724767E-002  0.2043898E+03  0.7818608E-02  0.1146117E+00
         21   -1    0    0  501  502  0.00000000000E+00  0.00000000000E+00  0.23346542081E+04  0.23346542081E+04  0.00000000000E+00 0.  1.
         21   -1    0    0  502  503 -0.00000000000E+00 -0.00000000000E+00 -0.46137888352E+02  0.46137888352E+02  0.00000000000E+00 0.  1.
         -6    2    1    2    0  503 -0.92876359865E+02 -0.56862909130E+02  0.21251445619E+03  0.29475304405E+03  0.17279338595E+03 0.  0.
        -24    2    3    3    0    0 -0.30207614990E+02 -0.23943448926E+01  0.19606722471E+02  0.84682389736E+02  0.76605813582E+02 0.  0.
          6    2    1    2  501    0  0.92876359865E+02  0.56862909130E+02  0.20760018636E+04  0.20860390524E+04  0.17296179349E+03 0.  0.
         24    2    5    5    0    0  0.12862761617E+03  0.60041917339E+02  0.18256020202E+04  0.18330362264E+04  0.83958177684E+02 0.  0.
          5    1    5    5  501    0 -0.35751256307E+02 -0.31790082085E+01  0.25039984337E+03  0.25300282603E+03  0.47000000000E+01 0. -1.
        -13    1    6    6    0    0  0.79306339944E+02  0.69506188024E+02  0.91627119074E+03  0.92231963045E+03  0.00000000000E+00 0.  1.
         14    1    6    6    0    0  0.49321276228E+02 -0.94642706855E+01  0.90933082949E+03  0.91071659597E+03  0.00000000000E+00 0. -1.
         -5    1    3    3    0  503 -0.62668744875E+02 -0.54468564238E+02  0.19290773372E+03  0.21007065431E+03  0.47000000000E+01 0.  1.
         11    1    4    4    0    0  0.29376478337E+00  0.74664091331E+01  0.43855943070E+02  0.44487945622E+02  0.00000000000E+00 0. -1.
        -12    1    4    4    0    0 -0.30501379774E+02 -0.98607540257E+01 -0.24249220599E+02  0.40194444115E+02  0.00000000000E+00 0.  1.
</event>
<event>
12    1  0.8724767E-002  0.2100185E+03  0.7818608E-02  0.1141718E+00
         21   -1    0    0  501  502  0.00000000000E+00  0.00000000000E+00  0.13812262005E+03  0.13812262005E+03  0.00000000000E+00 0. -1.
         21   -1    0    0  502  503 -0.00000000000E+00 -0.00000000000E+00 -0.34328865843E+03  0.34328865843E+03  0.00000000000E+00 0.  1.
         -6    2    1    2    0  503  0.90228094469E+02  0.79113619090E+02 -0.16764549703E+03  0.26806750390E+03  0.17133330154E+03 0.  0.
        -24    2    3    3    0    0 -0.59910730463E+01  0.68935127211E+02 -0.12276524852E+03  0.16130582257E+03  0.78487689683E+02 0.  0.
          6    2    1    2  501    0 -0.90228094469E+02 -0.79113619090E+02 -0.37520541344E+02  0.21334377457E+03  0.17235922189E+03 0.  0.
         24    2    5    5    0    0 -0.12932174069E+03 -0.63842408185E+02 -0.16387350265E+02  0.16611851838E+03  0.80788929957E+02 0.  0.
          5    1    5    5  501    0  0.39093646218E+02 -0.15271210905E+02 -0.21133191079E+02  0.47225256191E+02  0.47000000000E+01 0. -1.
        -11    1    6    6    0    0 -0.75107473513E+02  0.77265863092E+01 -0.62115758199E+01  0.75758936025E+02  0.00000000000E+00 0.  1.
         12    1    6    6    0    0 -0.54214267173E+02 -0.71568994494E+02 -0.10175774445E+02  0.90359582356E+02  0.00000000000E+00 0. -1.
         -5    1    3    3    0  503  0.96219167515E+02  0.10178491879E+02 -0.44880248514E+02  0.10676168133E+03  0.47000000000E+01 0.  1.
         11    1    4    4    0    0 -0.51726693222E+01  0.29700295031E+02  0.22933618998E+01  0.30234476044E+02  0.00000000000E+00 0. -1.
        -12    1    4    4    0    0 -0.81840372408E+00  0.39234832180E+02 -0.12505861042E+03  0.13107134653E+03  0.00000000000E+00 0.  1.
</event>
<event>
12    1  0.8724767E-002  0.2635943E+03  0.7818608E-02  0.1105136E+00
         21   -1    0    0  501  502  0.00000000000E+00  0.00000000000E+00  0.11721029479E+04  0.11721029479E+04  0.00000000000E+00 0. -1.
         21   -1    0    0  502  503 -0.00000000000E+00 -0.00000000000E+00 -0.59474709209E+02  0.59474709209E+02  0.00000000000E+00 0. -1.
         -6    2    1    2    0  503  0.16909021225E+03 -0.10679998981E+03  0.50690535977E+03  0.57134488236E+03  0.17170961865E+03 0.  0.
        -24    2    3    3    0    0  0.44127430199E+02 -0.80586081672E+02  0.15443530669E+03  0.19643143342E+03  0.79332826931E+02 0.  0.
          6    2    1    2  501    0 -0.16909021225E+03  0.10679998981E+03  0.60572287893E+03  0.66023277476E+03  0.17032138181E+03 0.  0.
         24    2    5    5    0    0 -0.51573793081E+02  0.10954367076E+03  0.34543882701E+03  0.37459749290E+03  0.79596649068E+02 0.  0.
          5    1    5    5  501    0 -0.11751641917E+03 -0.27436809515E+01  0.26028405192E+03  0.28563528186E+03  0.47000000000E+01 0. -1.
        -13    1    6    6    0    0 -0.41945177303E+01  0.10440989575E+01 -0.38503723564E+01  0.57887381099E+01  0.00000000000E+00 0.  1.
         14    1    6    6    0    0 -0.47379275351E+02  0.10849957180E+03  0.34928919937E+03  0.36880875479E+03  0.00000000000E+00 0. -1.
         -5    1    3    3    0  503  0.12496278205E+03 -0.26213908139E+02  0.35247005308E+03  0.37491344894E+03  0.47000000000E+01 0.  1.
         11    1    4    4    0    0  0.56528113599E+02 -0.65238103752E+02  0.74274113130E+02  0.11387748544E+03  0.00000000000E+00 0. -1.
        -12    1    4    4    0    0 -0.12400683400E+02 -0.15347977920E+02  0.80161193561E+02  0.82553947987E+02  0.00000000000E+00 0.  1.
</event>
<event>
12    1  0.8724767E-002  0.3433584E+03  0.7818608E-02  0.1065421E+00
         21   -1    0    0  503  502  0.00000000000E+00  0.00000000000E+00  0.28512937316E+03  0.28512937316E+03  0.00000000000E+00 0.  1.
         21   -1    0    0  501  503 -0.00000000000E+00 -0.00000000000E+00 -0.16387733046E+04  0.16387733046E+04  0.00000000000E+00 0. -1.
          6    2    1    2  501    0 -0.27856022896E+03 -0.10026409479E+03 -0.15086832952E+04  0.15471638095E+04  0.17303721674E+03 0.  0.
         24    2    3    3    0    0 -0.68700863864E+02 -0.58253367200E+02 -0.72098337048E+03  0.73089233766E+03  0.79204325991E+02 0.  0.
         -6    2    1    2    0  502  0.27856022896E+03  0.10026409479E+03  0.15503936374E+03  0.37673886828E+03  0.17391457876E+03 0.  0.
        -24    2    5    5    0    0  0.21333848716E+03  0.41160247783E+02  0.45060706342E+02  0.23579726543E+03  0.79764697849E+02 0.  0.
          5    1    3    3  501    0 -0.20985936509E+03 -0.42010727587E+02 -0.78769992473E+03  0.81627147186E+03  0.47000000000E+01 0. -1.
        -11    1    4    4    0    0 -0.75257869448E+02 -0.42280334359E+02 -0.69036694944E+03  0.69574269559E+03  0.00000000000E+00 0.  1.
         12    1    4    4    0    0  0.65570055838E+01 -0.15973032841E+02 -0.30616421040E+02  0.35149642070E+02  0.00000000000E+00 0. -1.
         -5    1    5    5    0  502  0.65221741791E+02  0.59103847004E+02  0.10997865740E+03  0.14094160286E+03  0.47000000000E+01 0.  1.
         13    1    6    6    0    0  0.56577352593E+01 -0.26707564583E+01 -0.14121441572E+02  0.15445323577E+02  0.00000000000E+00 0. -1.
        -14    1    6    6    0    0  0.20768075191E+03  0.43831004241E+02  0.59182147914E+02  0.22035194185E+03  0.00000000000E+00 0.  1.
</event>
<event>
12    1  0.8724767E-002  0.1713175E+03  0.7818608E-02  0.1176615E+00
         21   -1    0    0  501  502  0.00000000000E+00  0.00000000000E+00  0.10590796761E+04  0.10590796761E+04  0.00000000000E+00 0. -1.
         21   -1    0    0  502  503 -0.00000000000E+00 -0.00000000000E+00 -0.36902633586E+02  0.36902633586E+02  0.00000000000E+00 0. -1.
         -6    2    1    2    0  503  0.75329954974E+01 -0.42350015363E+01  0.23695731704E+03  0.29240120973E+03  0.17109943334E+03 0.  0.
        -24    2    3    3    0    0  0.69889240891E+02  0.93948053501E+01  0.16171615597E+03  0.19362168100E+03  0.79777640307E+02 0.  0.
          6    2    1    2  501    0 -0.75329954974E+01  0.42350015363E+01  0.78521972548E+03  0.80358109997E+03  0.17058102381E+03 0.  0.
         24    2    5    5    0    0  0.60819024245E+02 -0.11517673428E+02  0.41025843775E+03  0.42208640451E+03  0.77545706595E+02 0.  0.
          5    1    5    5  501    0 -0.68352019742E+02  0.15752674964E+02  0.37496128773E+03  0.38149469546E+03  0.47000000000E+01 0. -1.
        -11    1    6    6    0    0 -0.52160411417E+01 -0.23021384737E+02  0.45902964992E+02  0.51616600386E+02  0.00000000000E+00 0.  1.
         12    1    6    6    0    0  0.66035065386E+02  0.11503711310E+02  0.36435547276E+03  0.37046980412E+03  0.00000000000E+00 0. -1.
         -5    1    3    3    0  503 -0.62356245394E+02 -0.13629806886E+02  0.75241161074E+02  0.98779528725E+02  0.47000000000E+01 0.  1.
         11    1    4    4    0    0  0.44926623897E+02  0.42009196336E+02  0.70337153936E+02  0.93437087580E+02  0.00000000000E+00 0. -1.
        -12    1    4    4    0    0  0.24962616994E+02 -0.32614390986E+02  0.91379002035E+02  0.10018459342E+03  0.00000000000E+00 0.  1.
</event>
<event>
12    1  0.8724767E-002  0.1798650E+03  0.7818608E-02  0.1168910E+00
         21   -1    0    0  501  502  0.00000000000E+00  0.00000000000E+00  0.27795489625E+03  0.27795489625E+03  0.00000000000E+00 0. -1.
         21   -1    0    0  502  503 -0.00000000000E+00 -0.00000000000E+00 -0.16873361383E+03  0.16873361383E+03  0.00000000000E+00 0. -1.
         -6    2    1    2    0  503  0.25494166526E+02  0.22164687087E+02 -0.73200393979E+02  0.19050677446E+03  0.17260737978E+03 0.  0.
        -24    2    3    3    0    0 -0.22019842277E+00 -0.45526173544E+02 -0.37975686705E+01  0.90096997351E+02  0.77655434060E+02 0.  0.
          6    2    1    2  501    0 -0.25494166526E+02 -0.22164687087E+02  0.18242167640E+03  0.25618173562E+03  0.17666405339E+03 0.  0.
         24    2    5    5    0    0 -0.32011816744E+02 -0.32120268334E+02  0.20028115515E+02  0.93284983102E+02  0.79022114703E+02 0.  0.
          5    1    5    5  501    0  0.65176502181E+01  0.99555812470E+01  0.16239356089E+03  0.16289675251E+03  0.47000000000E+01 0. -1.
        -11    1    6    6    0    0  0.18659714857E+02  0.23996743349E+01  0.25544421242E+02  0.31724767171E+02  0.00000000000E+00 0.  1.
         12    1    6    6    0    0 -0.50671531601E+02 -0.34519942669E+02 -0.55163057267E+01  0.61560215931E+02  0.00000000000E+00 0. -1.
         -5    1    3    3    0  503  0.25714364948E+02  0.67690860631E+02 -0.69402825309E+02  0.10040977711E+03  0.47000000000E+01 0.  1.
         13    1    4    4    0    0  0.18088176583E+02  0.26835236718E+01 -0.27752802425E+02  0.33235545337E+02  0.00000000000E+00 0. -1.
        -14    1    4    4    0    0 -0.18308375006E+02 -0.48209697215E+02  0.23955233754E+02  0.56861452015E+02  0.00000000000E+00 0.  1.
</event>
<event>
12    1  0.8724767E-002  0.1934906E+03  0.7818608E-02  0.1156469E+00
         21   -1    0    0  501  502  0.00000000000E+00  0.00000000000E+00  0.20635273074E+03  0.20635273074E+03  0.00000000000E+00 0. -1.
         21   -1    0    0  502  503 -0.00000000000E+00 -0.00000000000E+00 -0.25468015977E+03  0.25468015977E+03  0.00000000000E+00 0.  1.
         -6    2    1    2    0  503 -0.83763351937E+02 -0.32722183474E+02  0.10355050919E+03  0.21505417181E+03  0.16564585247E+03 0.  0.
        -24    2    3    3    0    0 -0.11205903927E+02  0.33878521098E+02  0.54678738909E+02  0.10500519616E+03  0.82237462616E+02 0.  0.
          6    2    1    2  501    0  0.83763351937E+02  0.32722183474E+02 -0.15187793821E+03  0.24597871870E+03  0.17132303266E+03 0.  0.
         24    2    5    5    0    0  0.60146470643E+02  0.78447855966E+01 -0.17700063618E+03  0.20320159911E+03  0.79262387534E+02 0.  0.
          5    1    5    5  501    0  0.23616881294E+02  0.24877397877E+02  0.25122697974E+02  0.42777119593E+02  0.47000000000E+01 0. -1.
        -13    1    6    6    0    0  0.59471739910E+02  0.30249801538E+02 -0.16454452905E+03  0.17755799160E+03  0.00000000000E+00 0.  1.
         14    1    6    6    0    0  0.67473073331E+00 -0.22405015942E+02 -0.12456107134E+02  0.25643607504E+02  0.00000000000E+00 0. -1.
         -5    1    3    3    0  503 -0.72557448010E+02 -0.66600704572E+02  0.48871770278E+02  0.11004897565E+03  0.47000000000E+01 0.  1.
         13    1    4    4    0    0 -0.34195677220E+02  0.24701669640E+02  0.65565085558E+02  0.77963435454E+02  0.00000000000E+00 0. -1.
        -14    1    4    4    0    0  0.22989773293E+02  0.91768514579E+01 -0.10886346649E+02  0.27041760707E+02  0.00000000000E+00 0.  1.
</event>
<event>
12    1  0.8724767E-002  0.2020653E+03  0.7818608E-02  0.1148385E+00
         21   -1    0    0  501  502  0.00000000000E+00  0.00000000000E+00  0.10629937977E+04  0.10629937977E+04  0.00000000000E+00 0. -1.
         21   -1    0    0  502  503 -0.00000000000E+00 -0.00000000000E+00 -0.34139734878E+03  0.34139734878E+03  0.00000000000E+00 0. -1.
         -6    2    1    2    0  503  0.93033755741E+02  0.50742979366E+02 -0.30126892617E+03  0.36175796742E+03  0.16992860693E+03 0.  0.
        -24    2    3    3    0    0  0.51120357094E+02 -0.25394782797E+02 -0.79865669491E+02  0.12386054440E+03  0.75529619305E+02 0.  0.
          6    2    1    2  501    0 -0.93033755741E+02 -0.50742979366E+02  0.10228653751E+04  0.10426331790E+04  0.17204720527E+03 0.  0.
         24    2    5    5    0    0 -0.54972387507E+02  0.37619049385E+02  0.58511408894E+03  0.59440913418E+03  0.80787161448E+02 0.  0.
          5    1    5    5  501    0 -0.38061368235E+02 -0.88362028751E+02  0.43775128611E+03  0.44822404484E+03  0.47000000000E+01 0. -1.
        -13    1    6    6    0    0  0.42893715859E+00  0.36884308626E+02  0.10878940262E+03  0.11487284419E+03  0.00000000000E+00 0.  1.
         14    1    6    6    0    0 -0.55401324665E+02  0.73474075915E+00  0.47632468632E+03  0.47953628999E+03  0.00000000000E+00 0. -1.
         -5    1    3    3    0  503  0.41913398647E+02  0.76137762163E+02 -0.22140325668E+03  0.23789742303E+03  0.47000000000E+01 0.  1.
         13    1    4    4    0    0  0.48264879660E+02 -0.53066463338E+00 -0.85521052269E+02  0.98201988752E+02  0.00000000000E+00 0. -1.
        -14    1    4    4    0    0  0.28554774345E+01 -0.24864118164E+02  0.56553827784E+01  0.25658555645E+02  0.00000000000E+00 0.  1.
</event>
<event>
12    1  0.8724767E-002  0.2195299E+03  0.7818608E-02  0.1134246E+00
         21   -1    0    0  503  502  0.00000000000E+00  0.00000000000E+00  0.95620626294E+02  0.95620626294E+02  0.00000000000E+00 0. -1.
         21   -1    0    0  501  503 -0.00000000000E+00 -0.00000000000E+00 -0.94596534151E+03  0.94596534151E+03  0.00000000000E+00 0.  1.
          6    2    1    2  501    0  0.12952144252E+03  0.42564820518E+02 -0.78123597825E+03  0.81149433141E+03  0.17206344231E+03 0.  0.
         24    2    3    3    0    0  0.10255549426E+03  0.16067132653E+01 -0.72566948603E+03  0.73723496181E+03  0.79993593719E+02 0.  0.
         -6    2    1    2    0  502 -0.12952144252E+03 -0.42564820518E+02 -0.69108736965E+02  0.23009163639E+03  0.17198423066E+03 0.  0.
        -24    2    5    5    0    0 -0.12051391167E+03 -0.86914927113E+02 -0.29989430609E+02  0.17008765572E+03  0.77153335759E+02 0.  0.
          5    1    3    3  501    0  0.26965948257E+02  0.40958107253E+02 -0.55566492225E+02  0.74259369600E+02  0.47000000000E+01 0. -1.
        -11    1    4    4    0    0  0.78501579857E+02  0.15667203818E+02 -0.67212548091E+03  0.67687563216E+03  0.00000000000E+00 0.  1.
         12    1    4    4    0    0  0.24053914404E+02 -0.14060490553E+02 -0.53544005117E+02  0.60359329658E+02  0.00000000000E+00 0. -1.
         -5    1    5    5    0  502 -0.90075308472E+01  0.44350106594E+02 -0.39119306355E+02  0.60003980673E+02  0.47000000000E+01 0.  1.
         13    1    6    6    0    0 -0.48407692371E+02 -0.75181405527E+02  0.40124653029E+01  0.89507811366E+02  0.00000000000E+00 0. -1.
        -14    1    6    6    0    0 -0.72106219300E+02 -0.11733521586E+02 -0.34001895912E+02  0.80579844354E+02  0.00000000000E+00 0.  1.
</event>
<event>
12    1  0.8724767E-002  0.1820189E+03  0.7818608E-02  0.1166216E+00
         21   -1    0    0  503  502  0.00000000000E+00  0.00000000000E+00  0.53586592633E+03  0.53586592633E+03  0.00000000000E+00 0. -1.
         21   -1    0    0  501  503 -0.00000000000E+00 -0.00000000000E+00 -0.62157778854E+02  0.62157778854E+02  0.00000000000E+00 0. -1.
          6    2    1    2  501    0  0.66342301028E+01  0.57432505473E+02  0.27046320530E+03  0.32518786068E+03  0.17103886581E+03 0.  0.
         24    2    3    3    0    0 -0.41802286099E+02 -0.15172404394E+02  0.12110733764E+03  0.15213632430E+03  0.80627792748E+02 0.  0.
         -6    2    1    2    0  502 -0.66342301028E+01 -0.57432505473E+02  0.20324494217E+03  0.27283584450E+03  0.17259312220E+03 0.  0.
        -24    2    5    5    0    0  0.26250336818E+02 -0.96297991774E+02  0.12841774508E+03  0.18220957794E+03  0.82139087145E+02 0.  0.
          5    1    3    3  501    0  0.48436516201E+02  0.72604909867E+02  0.14935586766E+03  0.17305153638E+03  0.47000000000E+01 0. -1.
        -13    1    4    4    0    0  0.17253980954E+02 -0.68248243977E+01  0.73548415343E+02  0.75852801440E+02  0.00000000000E+00 0.  1.
         14    1    4    4    0    0 -0.59056267053E+02 -0.83475799959E+01  0.47558922293E+02  0.76283522858E+02  0.00000000000E+00 0. -1.
         -5    1    5    5    0  502 -0.32884566920E+02  0.38865486301E+02  0.74827197088E+02  0.90626266562E+02  0.47000000000E+01 0.  1.
         11    1    6    6    0    0  0.54951009874E+02 -0.77261034045E+02  0.93002377980E+02  0.13280934898E+03  0.00000000000E+00 0. -1.
        -12    1    6    6    0    0 -0.28700673057E+02 -0.19036957730E+02  0.35415367104E+02  0.49400228953E+02  0.00000000000E+00 0.  1.
</event>
<event>
12    1  0.8724767E-002  0.1940848E+03  0.7818608E-02  0.1154995E+00
         21   -1    0    0  501  502  0.00000000000E+00  0.00000000000E+00  0.13761126318E+03  0.13761126318E+03  0.00000000000E+00 0. -1.
         21   -1    0    0  502  503 -0.00000000000E+00 -0.00000000000E+00 -0.84751351705E+03  0.84751351705E+03  0.00000000000E+00 0.  1.
         -6    2    1    2    0  503 -0.87134858336E+02  0.13424957088E+02 -0.76038946469E+03  0.78458081436E+03  0.17205290825E+03 0.  0.
        -24    2    3    3    0    0 -0.18479607961E+02  0.44772354307E+02 -0.21708640668E+03  0.23604047349E+03  0.79009730667E+02 0.  0.
          6    2    1    2  501    0  0.87134858336E+02 -0.13424957088E+02  0.50487210821E+02  0.20054396586E+03  0.17290520749E+03 0.  0.
         24    2    5    5    0    0  0.15409992906E+02  0.41336395847E+02  0.61540681403E+02  0.10950808663E+03  0.79111314401E+02 0.  0.
          5    1    5    5  501    0  0.71724865430E+02 -0.54761352935E+02 -0.11053470582E+02  0.91035879235E+02  0.47000000000E+01 0. -1.
        -11    1    6    6    0    0 -0.24038833352E+02  0.43181998190E+02  0.23691434409E+02  0.54807248982E+02  0.00000000000E+00 0.  1.
         12    1    6    6    0    0  0.39448826258E+02 -0.18456023433E+01  0.37849246993E+02  0.54700837645E+02  0.00000000000E+00 0. -1.
         -5    1    3    3    0  503 -0.68655250375E+02 -0.31347397219E+02 -0.54330305801E+03  0.54854034087E+03  0.47000000000E+01 0.  1.
         13    1    4    4    0    0  0.51876989563E+01  0.49143753103E+02 -0.20125399161E+03  0.20723221233E+03  0.00000000000E+00 0. -1.
        -14    1    4    4    0    0 -0.23667306917E+02 -0.43713987966E+01 -0.15832415077E+02  0.28808261165E+02  0.00000000000E+00 0.  1.
</event>
<event>
12    1  0.8724767E-002  0.1914362E+03  0.7818608E-02  0.1157297E+00
         21   -1    0    0  503  502  0.00000000000E+00  0.00000000000E+00  0.17891404505E+03  0.17891404505E+03  0.00000000000E+00 0. -1.
         21   -1    0    0  501  503 -0.00000000000E+00 -0.00000000000E+00 -0.26485358651E+03  0.26485358651E+03  0.00000000000E+00 0. -1.
          6    2    1    2  501    0  0.57070585916E+02  0.59727997797E+02 -0.14916469884E+03  0.24268897141E+03  0.17269436577E+03 0.  0.
         24    2    3    3    0    0  0.50602309963E+02  0.52947261591E+02 -0.18159693116E+02  0.11126515888E+03  0.81768911224E+02 0.  0.
         -6    2    1    2    0  502 -0.57070585916E+02 -0.59727997797E+02  0.63225157380E+02  0.20107866015E+03  0.17207766137E+03 0.  0.
        -24    2    5    5    0    0 -0.14948107416E+02 -0.98628671759E+02  0.65479357642E+02  0.14350490702E+03  0.79718575342E+02 0.  0.
          5    1    3    3  501    0  0.64682759533E+01  0.67807362064E+01 -0.13100500572E+03  0.13142381253E+03  0.47000000000E+01 0. -1.
        -11    1    4    4    0    0 -0.19105844007E+01 -0.18795644328E+02 -0.11478994569E+02  0.22106422026E+02  0.00000000000E+00 0.  1.
         12    1    4    4    0    0  0.52512894364E+02  0.71742905919E+02 -0.66806985470E+01  0.89158736853E+02  0.00000000000E+00 0. -1.
         -5    1    5    5    0  502 -0.42122478500E+02  0.38900673962E+02 -0.22542002616E+01  0.57573753121E+02  0.47000000000E+01 0.  1.
         13    1    6    6    0    0 -0.28449576582E+02 -0.60024188448E+02  0.14413728853E+00  0.66425163771E+02  0.00000000000E+00 0. -1.
        -14    1    6    6    0    0  0.13501469165E+02 -0.38604483312E+02  0.65335220353E+02  0.77079743253E+02  0.00000000000E+00 0.  1.
</event>
<event>
12    1  0.8724767E-002  0.2647681E+03  0.7818608E-02  0.1104403E+00
         21   -1    0    0  503  502  0.00000000000E+00  0.00000000000E+00  0.98971664039E+03  0.98971664039E+03  0.00000000000E+00 0. -1.
         21   -1    0    0  501  503 -0.00000000000E+00 -0.00000000000E+00 -0.14079515115E+03  0.14079515115E+03  0.00000000000E+00 0.  1.
          6    2    1    2  501    0 -0.20010058673E+03 -0.22644454841E+02  0.25772764248E+02  0.26601950250E+03  0.17189858694E+03 0.  0.
         24    2    3    3    0    0 -0.41422913743E+02  0.24513396083E+02  0.35928369596E+02  0.10010478607E+03  0.80083432009E+02 0.  0.
         -6    2    1    2    0  502  0.20010058673E+03  0.22644454841E+02  0.82314872500E+03  0.86449228904E+03  0.17093881419E+03 0.  0.
        -24    2    5    5    0    0  0.19024385161E+03  0.43035399066E+02  0.53179841043E+03  0.57222521660E+03  0.81162679409E+02 0.  0.
          5    1    3    3  501    0 -0.15867767299E+03 -0.47157850924E+02 -0.10155605348E+02  0.16591471643E+03  0.47000000000E+01 0. -1.
        -13    1    4    4    0    0 -0.64187666489E+02  0.26544521002E+02  0.20120045131E+02  0.72315173654E+02  0.00000000000E+00 0.  1.
         14    1    4    4    0    0  0.22764752746E+02 -0.20311249187E+01  0.15808324465E+02  0.27789612419E+02  0.00000000000E+00 0. -1.
         -5    1    5    5    0  502  0.98567351210E+01 -0.20390944224E+02  0.29135031457E+03  0.29226707244E+03  0.47000000000E+01 0.  1.
         11    1    6    6    0    0  0.78144850629E+02  0.47331991684E+02  0.16438604860E+03  0.18806836015E+03  0.00000000000E+00 0. -1.
        -12    1    6    6    0    0  0.11209900098E+03 -0.42965926185E+01  0.36741236183E+03  0.38415685644E+03  0.00000000000E+00 0.  1.
</event>
<event>
12    1  0.8724767E-002  0.1776470E+03  0.7818608E-02  0.1170985E+00
         21   -1    0    0  501  502  0.00000000000E+00  0.00000000000E+00  0.46144204085E+02  0.46144204085E+02  0.00000000000E+00 0. -1.
         21   -1    0    0  502  503 -0.00000000000E+00 -0.00000000000E+00 -0.67690492021E+03  0.67690492021E+03  0.00000000000E+00 0. -1.
         -6    2    1    2    0  503 -0.18468262995E+02  0.31078390826E+02 -0.27648007597E+03  0.32672447430E+03  0.17029593825E+03 0.  0.
        -24    2    3    3    0    0  0.39063892035E+02 -0.22978981365E+02 -0.17644950288E+03  0.19920838158E+03  0.80594857028E+02 0.  0.
          6    2    1    2  501    0  0.18468262995E+02 -0.31078390826E+02 -0.35428064016E+03  0.39632465000E+03  0.17392962108E+03 0.  0.
         24    2    5    5    0    0 -0.29180173902E+02  0.39683373295E+02 -0.16594442309E+03  0.18951502386E+03  0.77150113745E+02 0.  0.
          5    1    5    5  501    0  0.47648436897E+02 -0.70761764121E+02 -0.18833621707E+03  0.20680962614E+03  0.47000000000E+01 0. -1.
        -13    1    6    6    0    0 -0.46578782656E+02  0.68653705103E+01 -0.54381676529E+02  0.71931099311E+02  0.00000000000E+00 0.  1.
         14    1    6    6    0    0  0.17398608754E+02  0.32818002785E+02 -0.11156274656E+03  0.11758392455E+03  0.00000000000E+00 0. -1.
         -5    1    3    3    0  503 -0.57532155030E+02  0.54057372191E+02 -0.10003057308E+03  0.12751609272E+03  0.47000000000E+01 0.  1.
         13    1    4    4    0    0  0.48550200838E+02  0.16076872661E+02 -0.83134305792E+02  0.97605843245E+02  0.00000000000E+00 0. -1.
        -14    1    4    4    0    0 -0.94863088029E+01 -0.39055854027E+02 -0.93315197091E+02  0.10160253834E+03  0.00000000000E+00 0.  1.
</event>
<event>
12    1  0.8724767E-002  0.2592777E+03  0.7818608E-02  0.1107922E+00
         21   -1    0    0  503  502  0.00000000000E+00  0.00000000000E+00  0.19362423889E+03  0.19362423889E+03  0.00000000000E+00 0.  1.
         21   -1    0    0  501  503 -0.00000000000E+00 -0.00000000000E+00 -0.34542293116E+03  0.34542293116E+03  0.00000000000E+00 0. -1.
          6    2    1    2  501    0  0.48012088625E+01 -0.19493371610E+03 -0.92570103037E+02  0.27530741557E+03  0.17088810319E+03 0.  0.
         24    2    3    3    0    0 -0.33051011181E+02 -0.12618807728E+03 -0.11698754495E+03  0.19298454579E+03  0.80877370456E+02 0.  0.
         -6    2    1    2    0  502 -0.48012088625E+01  0.19493371610E+03 -0.59228589232E+02  0.26373975447E+03  0.16741692575E+03 0.  0.
        -24    2    5    5    0    0 -0.52757845893E+02  0.14738806533E+03 -0.81766256717E+02  0.19239226399E+03  0.76304851756E+02 0.  0.
          5    1    3    3  501    0  0.37852220044E+02 -0.68745638820E+02  0.24417441917E+02  0.82322869780E+02  0.47000000000E+01 0. -1.
        -13    1    4    4    0    0  0.25509522294E+02 -0.48374013347E+02 -0.29848832784E+02  0.62303561002E+02  0.00000000000E+00 0.  1.
         14    1    4    4    0    0 -0.58560533475E+02 -0.77814063931E+02 -0.87138712170E+02  0.13068098479E+03  0.00000000000E+00 0. -1.
         -5    1    5    5    0  502  0.47956637030E+02  0.47545650773E+02  0.22537667485E+02  0.71347490484E+02  0.47000000000E+01 0.  1.
         11    1    6    6    0    0 -0.69527302837E+01  0.43015641336E+02 -0.63416095108E+02  0.76943401125E+02  0.00000000000E+00 0. -1.
        -12    1    6    6    0    0 -0.45805115609E+02  0.10437242399E+03 -0.18350161609E+02  0.11544886286E+03  0.00000000000E+00 0.  1.
</event>
<event>
12    1  0.8724767E-002  0.1762744E+03  0.7818608E-02  0.1171939E+00
         21   -1    0    0  503  502  0.00000000000E+00  0.00000000000E+00  0.25938948785E+03  0.25938948785E+03  0.00000000000E+00 0.  1.
         21   -1    0    0  501  503 -0.00000000000E+00 -0.00000000000E+00 -0.11884416788E+03  0.11884416788E+03  0.00000000000E+00 0.  1.
          6    2    1    2  501    0 -0.18524736724E+02  0.15007515666E+02  0.80225916328E+02  0.19192455632E+03  0.17271492776E+03 0.  0.
         24    2    3    3    0    0  0.41824930068E+02 -0.15402587910E+02  0.84763248874E+02  0.12403100679E+03  0.78818258006E+02 0.  0.
         -6    2    1    2    0  502  0.18524736724E+02 -0.15007515666E+02  0.60319403638E+02  0.18630909941E+03  0.17465468408E+03 0.  0.
        -24    2    5    5    0    0 -0.12446121024E+02 -0.12177749646E+02 -0.32724798370E+02  0.88092424995E+02  0.79913449420E+02 0.  0.
          5    1    3    3  501    0 -0.60349666793E+02  0.30410103576E+02 -0.45373325458E+01  0.67893549532E+02  0.47000000000E+01 0. -1.
        -13    1    4    4    0    0  0.50142165118E+01 -0.31301053325E+02  0.16406413600E+01  0.31742558349E+02  0.00000000000E+00 0.  1.
         14    1    4    4    0    0  0.36810713557E+02  0.15898465415E+02  0.83122607514E+02  0.92288448437E+02  0.00000000000E+00 0. -1.
         -5    1    5    5    0  502  0.30970857749E+02 -0.28297660195E+01  0.93044202009E+02  0.98216674414E+02  0.47000000000E+01 0.  1.
         11    1    6    6    0    0  0.16113941659E+02 -0.29597326355E+02  0.87408245181E+01  0.34814693111E+02  0.00000000000E+00 0. -1.
        -12    1    6    6    0    0 -0.28560062683E+02  0.17419576709E+02 -0.41465622889E+02  0.53277731884E+02  0.00000000000E+00 0.  1.
</event>
<event>
12    1  0.8724767E-002  0.3450961E+03  0.7818608E-02  0.1065093E+00
         21   -1    0    0  501  502  0.00000000000E+00  0.00000000000E+00  0.80935724996E+03  0.80935724996E+03  0.00000000000E+00 0. -1.
         21   -1    0    0  502  503 -0.00000000000E+00 -0.00000000000E+00 -0.19979960358E+03  0.19979960358E+03  0.00000000000E+00 0.  1.
         -6    2    1    2    0  503  0.29185909356E+03  0.31862180183E+02  0.42718527619E+02  0.34773001608E+03  0.18136803044E+03 0.  0.
        -24    2    3    3    0    0  0.22110154586E+03  0.44967388928E+02  0.96284669383E+02  0.25789795835E+03  0.79578010259E+02 0.  0.
          6    2    1    2  501    0 -0.29185909356E+03 -0.31862180183E+02  0.56683911876E+03  0.66142683745E+03  0.17315295472E+03 0.  0.
         24    2    5    5    0    0 -0.15491930266E+03 -0.82444043167E+02  0.28853914809E+03  0.34712762512E+03  0.80285350807E+02 0.  0.
          5    1    5    5  501    0 -0.13693979090E+03  0.50581862984E+02  0.27829997067E+03  0.31429921233E+03  0.47000000000E+01 0. -1.
        -13    1    6    6    0    0 -0.92967771335E+01 -0.37254900667E+02  0.80586102615E+02  0.89266329730E+02  0.00000000000E+00 0.  1.
         14    1    6    6    0    0 -0.14562252553E+03 -0.45189142500E+02  0.20795304547E+03  0.25786129539E+03  0.00000000000E+00 0. -1.
         -5    1    3    3    0  503  0.70757547699E+02 -0.13105208746E+02 -0.53566141764E+02  0.89832057731E+02  0.47000000000E+01 0.  1.
         11    1    4    4    0    0  0.13611531852E+03 -0.35905856073E+01  0.29265866740E+02  0.13927226284E+03  0.00000000000E+00 0. -1.
        -12    1    4    4    0    0  0.84986227339E+02  0.48557974536E+02  0.67018802643E+02  0.11862569551E+03  0.00000000000E+00 0.  1.
</event>
<event>
12    1  0.8724767E-002  0.2465029E+03  0.7818608E-02  0.1116285E+00
         21   -1    0    0  501  502  0.00000000000E+00  0.00000000000E+00  0.59866869411E+02  0.59866869411E+02  0.00000000000E+00 0. -1.
         21   -1    0    0  502  503 -0.00000000000E+00 -0.00000000000E+00 -0.12451137815E+04  0.12451137815E+04  0.00000000000E+00 0.  1.
         -6    2    1    2    0  503  0.16886499990E+03 -0.25510806041E+02 -0.87994575155E+03  0.91258736737E+03  0.17130378862E+03 0.  0.
        -24    2    3    3    0    0  0.23962931537E+02  0.26500931394E+02 -0.37890134255E+03  0.38840283876E+03  0.77550089076E+02 0.  0.
          6    2    1    2  501    0 -0.16886499990E+03  0.25510806041E+02 -0.30530116058E+03  0.39239328358E+03  0.17775685903E+03 0.  0.
         24    2    5    5    0    0 -0.19216946039E+03 -0.30974674696E+01 -0.24207667600E+03  0.31903827938E+03  0.79029177105E+02 0.  0.
          5    1    5    5  501    0  0.23304460486E+02  0.28608273511E+02 -0.63224484575E+02  0.73355004203E+02  0.47000000000E+01 0. -1.
        -13    1    6    6    0    0 -0.13116138708E+03 -0.19922721861E+02 -0.20920810010E+03  0.24772616627E+03  0.00000000000E+00 0.  1.
         14    1    6    6    0    0 -0.61008073311E+02  0.16825254391E+02 -0.32868575903E+02  0.71312113111E+02  0.00000000000E+00 0. -1.
         -5    1    3    3    0  503  0.14490206836E+03 -0.52011737436E+02 -0.50104440900E+03  0.52418452861E+03  0.47000000000E+01 0.  1.
         13    1    4    4    0    0  0.23941990286E+02  0.50927994410E+02 -0.31509000382E+03  0.32007591290E+03  0.00000000000E+00 0. -1.
        -14    1    4    4    0    0  0.20941250928E-01 -0.24427063016E+02 -0.63811338727E+02  0.68326925851E+02  0.00000000000E+00 0.  1.
</event>
<event>
12    1  0.8724767E-002  0.1849387E+03  0.7818608E-02  0.1163346E+00
         21   -1    0    0  501  502  0.00000000000E+00  0.00000000000E+00  0.37098108742E+03  0.37098108742E+03  0.00000000000E+00 0. -1.
         21   -1    0    0  502  503 -0.00000000000E+00 -0.00000000000E+00 -0.18606213325E+03  0.18606213325E+03  0.00000000000E+00 0.  1.
         -6    2    1    2    0  503  0.56117143482E+02  0.29511466800E+02 -0.10577741079E+03  0.21305205223E+03  0.17373041144E+03 0.  0.
        -24    2    3    3    0    0 -0.25630209400E+02  0.53274081525E+02 -0.36852348925E+02  0.10341608315E+03  0.76431375998E+02 0.  0.
          6    2    1    2  501    0 -0.56117143482E+02 -0.29511466800E+02  0.29069636495E+03  0.34399116844E+03  0.17264265668E+03 0.  0.
         24    2    5    5    0    0 -0.99938090681E+02  0.10530806960E+01  0.18093348199E+03  0.22182551266E+03  0.80504050915E+02 0.  0.
          5    1    5    5  501    0  0.43820947199E+02 -0.30564547496E+02  0.10976288296E+03  0.12216565578E+03  0.47000000000E+01 0. -1.
        -11    1    6    6    0    0 -0.61961207440E+02 -0.12233784515E+02  0.38837308024E+02  0.74143059052E+02  0.00000000000E+00 0.  1.
         12    1    6    6    0    0 -0.37976883240E+02  0.13286865211E+02  0.14209617397E+03  0.14768245361E+03  0.00000000000E+00 0. -1.
         -5    1    3    3    0  503  0.81747352882E+02 -0.23762614725E+02 -0.68925061866E+02  0.10963596907E+03  0.47000000000E+01 0.  1.
         13    1    4    4    0    0 -0.23264557074E+02  0.72566986344E+02 -0.23182765310E+02  0.79653297046E+02  0.00000000000E+00 0. -1.
        -14    1    4    4    0    0 -0.23656523264E+01 -0.19292904819E+02 -0.13669583616E+02  0.23762786106E+02  0.00000000000E+00 0.  1.
</event>
<event>
12    1  0.8724767E-002  0.1861517E+03  0.7818608E-02  0.1162025E+00
         21   -1    0    0  503  502  0.00000000000E+00  0.00000000000E+00  0.91238515239E+02  0.91238515239E+02  0.00000000000E+00 0.  1.
         21   -1    0    0  501  503 -0.00000000000E+00 -0.00000000000E+00 -0.40436025677E+03  0.40436025677E+03  0.00000000000E+00 0.  1.
          6    2    1    2  501    0  0.69017180225E+02  0.66847730675E+01 -0.95063232067E+02  0.20902027777E+03  0.17275532140E+03 0.  0.
         24    2    3    3    0    0  0.33104168822E+02  0.67960622115E+02 -0.73062157917E+02  0.13451785279E+03  0.83919256722E+02 0.  0.
         -6    2    1    2    0  502 -0.69017180225E+02 -0.66847730675E+01 -0.21805850946E+03  0.28657849423E+03  0.17253887229E+03 0.  0.
        -24    2    5    5    0    0 -0.48962191180E+02  0.62997254529E+02 -0.10797750038E+03  0.15467812988E+03  0.76812974371E+02 0.  0.
          5    1    3    3  501    0  0.35913011403E+02 -0.61275849047E+02 -0.22001074149E+02  0.74502424982E+02  0.47000000000E+01 0. -1.
        -13    1    4    4    0    0  0.19084866159E+02  0.39236923206E+02  0.10648505203E+02  0.44912792410E+02  0.00000000000E+00 0.  1.
         14    1    4    4    0    0  0.14019302663E+02  0.28723698909E+02 -0.83710663120E+02  0.89605060383E+02  0.00000000000E+00 0. -1.
         -5    1    5    5    0  502 -0.20054989044E+02 -0.69682027596E+02 -0.11008100909E+03  0.13190036436E+03  0.47000000000E+01 0.  1.
         11    1    6    6    0    0 -0.30640322004E+02 -0.11871903740E+02 -0.24008233919E+02  0.40696028391E+02  0.00000000000E+00 0. -1.
        -12    1    6    6    0    0 -0.18321869177E+02  0.74869158269E+02 -0.83969266459E+02  0.11398210149E+03  0.00000000000E+00 0.  1.
</event>
<event>
12    1  0.8724767E-002  0.2152180E+03  0.7818608E-02  0.1137713E+00
         21   -1    0    0  503  502  0.00000000000E+00  0.00000000000E+00  0.31464895178E+03  0.31464895178E+03  0.00000000000E+00 0. -1.
         21   -1    0    0  501  503 -0.00000000000E+00 -0.00000000000E+00 -0.18995901091E+03  0.18995901091E+03  0.00000000000E+00 0.  1.
          6    2    1    2  501    0  0.79327447574E+02  0.10009636053E+03 -0.58531360034E+02  0.22196181931E+03  0.17184005293E+03 0.  0.
         24    2    3    3    0    0  0.20174797322E+02  0.84171421559E+02 -0.94446473849E+02  0.15079563975E+03  0.79544565430E+02 0.  0.
         -6    2    1    2    0  502 -0.79327447574E+02 -0.10009636053E+03  0.18322130091E+03  0.28264614338E+03  0.17322433989E+03 0.  0.
        -24    2    5    5    0    0  0.79719023309E+01 -0.11855237323E+02  0.35999435768E+02  0.90022053779E+02  0.81264462788E+02 0.  0.
          5    1    3    3  501    0  0.59152650252E+02  0.15924938973E+02  0.35915113814E+02  0.71166179562E+02  0.47000000000E+01 0. -1.
        -13    1    4    4    0    0 -0.27095961323E+02  0.56388824086E+02 -0.54288842282E+02  0.82832173690E+02  0.00000000000E+00 0.  1.
         14    1    4    4    0    0  0.47270758645E+02  0.27782597473E+02 -0.40157631567E+02  0.67963466056E+02  0.00000000000E+00 0. -1.
         -5    1    5    5    0  502 -0.87299349905E+02 -0.88241123209E+02  0.14722186514E+03  0.19262408960E+03  0.47000000000E+01 0.  1.
         11    1    6    6    0    0 -0.38650138574E+01 -0.35302203811E+01 -0.25915271814E+02  0.26438647871E+02  0.00000000000E+00 0. -1.
        -12    1    6    6    0    0  0.11836916188E+02 -0.83250169424E+01  0.61914707582E+02  0.63583405908E+02  0.00000000000E+00 0.  1.
</event>
<event>
12    1  0.8724767E-002  0.2128701E+03  0.7818608E-02  0.1139826E+00
         21   -1    0    0  501  502  0.00000000000E+00  0.00000000000E+00  0.64358845047E+03  0.64358845047E+03  0.00000000000E+00 0.  1.
         21   -1    0    0  502  503 -0.00000000000E+00 -0.00000000000E+00 -0.98517257124E+02  0.98517257124E+02  0.00000000000E+00 0. -1.
         -6    2    1    2    0  503 -0.16172030239E+02  0.12264954468E+03  0.72505202907E+02  0.22487930308E+03  0.17323178442E+03 0.  0.
        -24    2    3    3    0    0 -0.41022192083E+02  0.34507926498E+02 -0.16701566792E+02  0.96948020119E+02  0.79033910679E+02 0.  0.
          6    2    1    2  501    0  0.16172030239E+02 -0.12264954468E+03  0.47256599044E+03  0.51722640451E+03  0.17000027305E+03 0.  0.
         24    2    5    5    0    0 -0.22604619640E+02 -0.13173396279E+03  0.43445417128E+03  0.46190230499E+03  0.82088407426E+02 0.  0.
          5    1    5    5  501    0  0.38776649879E+02  0.90844181140E+01  0.38111819159E+02  0.55324099522E+02  0.47000000000E+01 0. -1.
        -11    1    6    6    0    0  0.27434079688E+00 -0.13174411292E+03  0.33790649859E+03  0.36268083536E+03  0.00000000000E+00 0.  1.
         12    1    6    6    0    0 -0.22878960437E+02  0.10150122106E-01  0.96547672688E+02  0.99221469628E+02  0.00000000000E+00 0. -1.
         -5    1    3    3    0  503  0.24850161845E+02  0.88141618182E+02  0.89206769700E+02  0.12793128296E+03  0.47000000000E+01 0.  1.
         13    1    4    4    0    0 -0.18424050045E+02  0.43133617188E+02  0.21607699001E+02  0.51641526003E+02  0.00000000000E+00 0. -1.
        -14    1    4    4    0    0 -0.22598142039E+02 -0.86256906906E+01 -0.38309265793E+02  0.45306494116E+02  0.00000000000E+00 0.  1.
</event>
<event>
12    1  0.8724767E-002  0.5188993E+03  0.7818608E-02  0.1009046E+00
         21   -1    0    0  503  502  0.00000000000E+00  0.00000000000E+00  0.58057228746E+03  0.58057228746E+03  0.00000000000E+00 0.  1.
         21   -1    0    0  501  503 -0.00000000000E+00 -0.00000000000E+00 -0.50331260179E+03  0.50331260179E+03  0.00000000000E+00 0. -1.
          6    2    1    2  501    0 -0.45534155594E+03 -0.18111954199E+03 -0.11555540157E+03  0.53161030790E+03  0.17063483693E+03 0.  0.
         24    2    3    3    0    0 -0.25710473788E+03 -0.12875985911E+03 -0.13253734611E+03  0.32581951882E+03  0.76878236037E+02 0.  0.
         -6    2    1    2    0  502  0.45534155594E+03  0.18111954199E+03  0.19281508723E+03  0.55227458135E+03  0.16640112464E+03 0.  0.
        -24    2    5    5    0    0  0.24285745111E+03  0.12024755533E+03  0.43608000851E+02  0.28555424430E+03  0.78742317593E+02 0.  0.
          5    1    3    3  501    0 -0.19823681806E+03 -0.52359682883E+02  0.16981944542E+02  0.20579078907E+03  0.47000000000E+01 0. -1.
        -13    1    4    4    0    0 -0.16617141708E+03 -0.44412443673E+02 -0.93595906342E+02  0.19582032247E+03  0.00000000000E+00 0.  1.
         14    1    4    4    0    0 -0.90933320796E+02 -0.84347415436E+02 -0.38941439766E+02  0.12999919635E+03  0.00000000000E+00 0. -1.
         -5    1    5    5    0  502  0.21248410483E+03  0.60871986658E+02  0.14920708638E+03  0.26672033705E+03  0.47000000000E+01 0.  1.
         13    1    6    6    0    0 -0.36859663423E+01  0.12295393057E+02 -0.37904161175E+00  0.12841600790E+02  0.00000000000E+00 0. -1.
        -14    1    6    6    0    0  0.24654341745E+03  0.10795216228E+03  0.43987042463E+02  0.27271264351E+03  0.00000000000E+00 0.  1.
</event>
<event>
12    1  0.8724767E-002  0.2259458E+03  0.7818608E-02  0.1129968E+00
         21   -1    0    0  501  502  0.00000000000E+00  0.00000000000E+00  0.11574102906E+04  0.11574102906E+04  0.00000000000E+00 0.  1.
         21   -1    0    0  502  503 -0.00000000000E+00 -0.00000000000E+00 -0.12553838073E+04  0.12553838073E+04  0.00000000000E+00 0.  1.
         -6    2    1    2    0  503 -0.11204289683E+03 -0.93617885680E+02 -0.12342232253E+04  0.12542972709E+04  0.16922397772E+03 0.  0.
        -24    2    3    3    0    0 -0.76091387411E+02 -0.13117908406E+03 -0.92765787542E+03  0.94331856036E+03  0.79390938773E+02 0.  0.
          6    2    1    2  501    0  0.11204289683E+03  0.93617885680E+02  0.11362497085E+04  0.11584968270E+04  0.17243427386E+03 0.  0.
         24    2    5    5    0    0  0.11730263740E+03  0.27134938677E+02  0.94512855858E+03  0.95601959107E+03  0.78798811127E+02 0.  0.
          5    1    5    5  501    0 -0.52597405703E+01  0.66482947003E+02  0.19112114995E+03  0.20247723594E+03  0.47000000000E+01 0. -1.
        -13    1    6    6    0    0  0.10307633215E+03  0.51777300505E+02  0.74429684084E+03  0.75318218671E+03  0.00000000000E+00 0.  1.
         14    1    6    6    0    0  0.14226305253E+02 -0.24642361828E+02  0.20083171774E+03  0.20283740436E+03  0.00000000000E+00 0. -1.
         -5    1    3    3    0  503 -0.35951509418E+02  0.37561198383E+02 -0.30656534986E+03  0.31097871050E+03  0.47000000000E+01 0.  1.
         11    1    4    4    0    0 -0.18377626007E+02 -0.16498712480E+02 -0.44639557355E+02  0.51016024267E+02  0.00000000000E+00 0. -1.
        -12    1    4    4    0    0 -0.57713761404E+02 -0.11468037158E+03 -0.88301831807E+03  0.89230253610E+03  0.00000000000E+00 0.  1.
</event>
<event>
12    1  0.8724767E-002  0.1954244E+03  0.7818608E-02  0.1153907E+00
         21   -1    0    0  503  502  0.00000000000E+00  0.00000000000E+00  0.19861306696E+03  0.19861306696E+03  0.00000000000E+00 0.  1.
         21   -1    0    0  501  503 -0.00000000000E+00 -0.00000000000E+00 -0.24511454931E+03  0.24511454931E+03  0.00000000000E+00 0.  1.
          6    2    1    2  501    0 -0.35688569789E+02  0.83167643609E+02 -0.12738998795E+03  0.23327861395E+03  0.17320557653E+03 0.  0.
         24    2    3    3    0    0 -0.29049731083E+02  0.26777209604E+02  0.46804069569E+01  0.89443171737E+02  0.80107858109E+02 0.  0.
         -6    2    1    2    0  502  0.35688569789E+02 -0.83167643609E+02  0.80888505601E+02  0.21044900231E+03  0.17191655324E+03 0.  0.
        -24    2    5    5    0    0  0.88419125930E+02 -0.59780783896E+02  0.73405430476E+02  0.15209197042E+03  0.79698972946E+02 0.  0.
          5    1    3    3  501    0 -0.66388387055E+01  0.56390434004E+02 -0.13207039491E+03  0.14383544222E+03  0.47000000000E+01 0. -1.
        -13    1    4    4    0    0  0.64602068488E+01  0.44202300973E+02  0.17328841572E+02  0.47915200448E+02  0.00000000000E+00 0.  1.
         14    1    4    4    0    0 -0.35509937932E+02 -0.17425091368E+02 -0.12648434615E+02  0.41527971288E+02  0.00000000000E+00 0. -1.
         -5    1    5    5    0  502 -0.52730556142E+02 -0.23386859713E+02  0.74830751253E+01  0.58357031895E+02  0.47000000000E+01 0.  1.
         13    1    6    6    0    0  0.40639329057E+02  0.30778349589E+01 -0.47061422353E+01  0.41026526894E+02  0.00000000000E+00 0. -1.
        -14    1    6    6    0    0  0.47779796873E+02 -0.62858618855E+02  0.78111572711E+02  0.11106544352E+03  0.00000000000E+00 0.  1.
</event>
<event>
12    1  0.8724767E-002  0.1786738E+03  0.7818608E-02  0.1169572E+00
         21   -1    0    0  503  502  0.00000000000E+00  0.00000000000E+00  0.11736196299E+03  0.11736196299E+03  0.00000000000E+00 0.  1.
         21   -1    0    0  501  503 -0.00000000000E+00 -0.00000000000E+00 -0.13839988904E+04  0.13839988904E+04  0.00000000000E+00 0.  1.
          6    2    1    2  501    0 -0.69606098440E+01 -0.42847054904E+02 -0.13077664113E+04  0.13199156421E+04  0.17332050017E+03 0.  0.
         24    2    3    3    0    0 -0.37901303866E+02 -0.43793258833E+02 -0.43794668782E+03  0.44953258675E+03  0.83233928323E+02 0.  0.
         -6    2    1    2    0  502  0.69606098440E+01  0.42847054904E+02  0.41129483843E+02  0.18144521125E+03  0.17130793922E+03 0.  0.
        -24    2    5    5    0    0 -0.32524839145E+02  0.81218602415E+02  0.22273403810E+02  0.12305755763E+03  0.83622553380E+02 0.  0.
          5    1    3    3  501    0  0.30940694022E+02  0.94620392956E+00 -0.86981972343E+03  0.87038305539E+03  0.47000000000E+01 0. -1.
        -13    1    4    4    0    0 -0.30442893403E+02 -0.30306031081E+02 -0.43009664237E+03  0.43223644809E+03  0.00000000000E+00 0.  1.
         14    1    4    4    0    0 -0.74584104626E+01 -0.13487227752E+02 -0.78500454517E+01  0.17296138663E+02  0.00000000000E+00 0. -1.
         -5    1    5    5    0  502  0.39485448989E+02 -0.38371547511E+02  0.18856080033E+02  0.58387653614E+02  0.47000000000E+01 0.  1.
         11    1    6    6    0    0 -0.18117983950E+02  0.28414374631E+02 -0.31643666804E+02  0.46227261188E+02  0.00000000000E+00 0. -1.
        -12    1    6    6    0    0 -0.14406855195E+02  0.52804227784E+02  0.53917070614E+02  0.76830296446E+02  0.00000000000E+00 0.  1.
</event>
<event>
12    1  0.8724767E-002  0.2188499E+03  0.7818608E-02  0.1134935E+00
         21   -1    0    0  503  502  0.00000000000E+00  0.00000000000E+00  0.36047554286E+03  0.36047554286E+03  0.00000000000E+00 0. -1.
         21   -1    0    0  501  503 -0.00000000000E+00 -0.00000000000E+00 -0.13247310456E+03  0.13247310456E+03  0.00000000000E+00 0.  1.
          6    2    1    2  501    0  0.11953609957E+03  0.60195241420E+02  0.12383923574E+03  0.25057448955E+03  0.17186934664E+03 0.  0.
         24    2    3    3    0    0  0.82868359135E+02  0.10429867134E+03  0.58470419792E+02  0.16348368741E+03  0.74583833839E+02 0.  0.
         -6    2    1    2    0  502 -0.11953609957E+03 -0.60195241420E+02  0.10416320256E+03  0.24237415787E+03  0.17315574910E+03 0.  0.
        -24    2    5    5    0    0 -0.14586602653E+03 -0.17673762737E+02  0.69894337302E+02  0.18156473155E+03  0.80568441530E+02 0.  0.
          5    1    3    3  501    0  0.36667740434E+02 -0.44103429918E+02  0.65368815952E+02  0.87090802144E+02  0.47000000000E+01 0. -1.
        -11    1    4    4    0    0  0.86761931587E+02  0.81425526994E+02  0.69496169011E+02  0.13779501706E+03  0.00000000000E+00 0.  1.
         12    1    4    4    0    0 -0.38935724526E+01  0.22873144344E+02 -0.11025749218E+02  0.25688670352E+02  0.00000000000E+00 0. -1.
         -5    1    5    5    0  502  0.26329926963E+02 -0.42521478684E+02  0.34268865253E+02  0.60809426317E+02  0.47000000000E+01 0.  1.
         11    1    6    6    0    0 -0.13071411037E+03  0.13258283470E+02  0.44298418358E+02  0.13865176017E+03  0.00000000000E+00 0. -1.
        -12    1    6    6    0    0 -0.15151916166E+02 -0.30932046207E+02  0.25595918944E+02  0.42912971380E+02  0.00000000000E+00 0.  1.
</event>
<event>
12    1  0.8724767E-002  0.1913532E+03  0.7818608E-02  0.1157323E+00
         21   -1    0    0  501  502  0.00000000000E+00  0.00000000000E+00  0.28833751440E+03  0.28833751440E+03  0.00000000000E+00 0.  1.
         21   -1    0    0  502  503 -0.00000000000E+00 -0.00000000000E+00 -0.33057407266E+03  0.33057407266E+03  0.00000000000E+00 0.  1.
         -6    2    1    2    0  503  0.70735290956E+02  0.46250753057E+02 -0.26410873821E+03  0.32614331643E+03  0.17167825635E+03 0.  0.
        -24    2    3    3    0    0  0.21370687696E+02 -0.34488002503E+02 -0.82459272845E+02  0.12126718562E+03  0.79120604282E+02 0.  0.
          6    2    1    2  501    0 -0.70735290956E+02 -0.46250753057E+02  0.22187217996E+03  0.29276827063E+03  0.17129910246E+03 0.  0.
         24    2    5    5    0    0 -0.44111103152E+02  0.37708237730E+02  0.99748669367E+02  0.14212232362E+03  0.82953343620E+02 0.  0.
          5    1    5    5  501    0 -0.26624187805E+02 -0.83958990787E+02  0.12212351059E+03  0.15064594701E+03  0.47000000000E+01 0. -1.
        -13    1    6    6    0    0  0.84235971744E+01  0.31861648681E+02  0.78527186723E+02  0.85162437147E+02  0.00000000000E+00 0.  1.
         14    1    6    6    0    0 -0.52534700326E+02  0.58465890487E+01  0.21221482643E+02  0.56959886477E+02  0.00000000000E+00 0. -1.
         -5    1    3    3    0  503  0.49364603260E+02  0.80738755560E+02 -0.18164946537E+03  0.20487613080E+03  0.47000000000E+01 0.  1.
         13    1    4    4    0    0  0.21224263030E+02 -0.57213931604E+01  0.10208730871E+02  0.24236787470E+02  0.00000000000E+00 0. -1.
        -14    1    4    4    0    0  0.14642466584E+00 -0.28766609342E+02 -0.92668003716E+02  0.97030398154E+02  0.00000000000E+00 0.  1.
</event>
<event>
12    1  0.8724767E-002  0.3436647E+03  0.7818608E-02  0.1065610E+00
         21   -1    0    0  503  502  0.00000000000E+00  0.00000000000E+00  0.14894006985E+03  0.14894006985E+03  0.00000000000E+00 0.  1.
         21   -1    0    0  501  503 -0.00000000000E+00 -0.00000000000E+00 -0.10828163915E+04  0.10828163915E+04  0.00000000000E+00 0.  1.
          6    2    1    2  501    0  0.15329462132E+03 -0.25184844189E+03 -0.79161245389E+03  0.86299229499E+03  0.17657447562E+03 0.  0.
         24    2    3    3    0    0  0.15653994939E+03 -0.14741151558E+03 -0.63001277512E+03  0.67049774984E+03  0.80101342324E+02 0.  0.
         -6    2    1    2    0  502 -0.15329462132E+03  0.25184844189E+03 -0.14226386776E+03  0.36876416636E+03  0.16976785241E+03 0.  0.
        -24    2    5    5    0    0 -0.53986804229E+02  0.12583646043E+03 -0.89565170269E+01  0.16011613314E+03  0.82507981981E+02 0.  0.
          5    1    3    3  501    0 -0.32453280735E+01 -0.10443692632E+03 -0.16159967877E+03  0.19249454515E+03  0.47000000000E+01 0. -1.
        -11    1    4    4    0    0  0.56772005239E+02 -0.93167815744E+02 -0.39003587723E+03  0.40500776288E+03  0.00000000000E+00 0.  1.
         12    1    4    4    0    0  0.99767944150E+02 -0.54243699833E+02 -0.23997689789E+03  0.26548998696E+03  0.00000000000E+00 0. -1.
         -5    1    5    5    0  502 -0.99307817087E+02  0.12601198146E+03 -0.13330735073E+03  0.20864803322E+03  0.47000000000E+01 0.  1.
         11    1    6    6    0    0 -0.50478377672E+02  0.13539771994E+03  0.28428722935E+01  0.14452920501E+03  0.00000000000E+00 0. -1.
        -12    1    6    6    0    0 -0.35084265563E+01 -0.95612595096E+01 -0.11799389320E+02  0.15586928134E+02  0.00000000000E+00 0.  1.
</event>
<event>
12    1  0.8724767E-002  0.2196570E+03  0.7818608E-02  0.1134400E+00
         21   -1    0    0  501  502  0.00000000000E+00  0.00000000000E+00  0.90285589709E+03  0.90285589709E+03  0.00000000000E+00 0. -1.
         21   -1    0    0  502  503 -0.00000000000E+00 -0.00000000000E+00 -0.11464806860E+03  0.11464806860E+03  0.00000000000E+00 0.  1.
         -6    2    1    2    0  503  0.13263718261E+03  0.33385701447E+02  0.21931471200E+02  0.22074917416E+03  0.17187780889E+03 0.  0.
        -24    2    3    3    0    0  0.89492215445E+02  0.87695041436E+02  0.23262312340E+02  0.15121606161E+03  0.81399540520E+02 0.  0.
          6    2    1    2  501    0 -0.13263718261E+03 -0.33385701447E+02  0.76627635730E+03  0.79675479153E+03  0.17009266534E+03 0.  0.
         24    2    5    5    0    0 -0.14415411348E+03 -0.70568229059E+02  0.63034834318E+03  0.65528502417E+03  0.79367157948E+02 0.  0.
          5    1    5    5  501    0  0.11516930868E+02  0.37182527613E+02  0.13592801412E+03  0.14146976736E+03  0.47000000000E+01 0. -1.
        -13    1    6    6    0    0 -0.51097136170E+02 -0.29348618005E+02  0.10719535334E+03  0.12232376090E+03  0.00000000000E+00 0.  1.
         14    1    6    6    0    0 -0.93056977313E+02 -0.41219611055E+02  0.52315298984E+03  0.53296126326E+03  0.00000000000E+00 0. -1.
         -5    1    3    3    0  503  0.43144967169E+02 -0.54309339990E+02 -0.13308411399E+01  0.69533112546E+02  0.47000000000E+01 0.  1.
         13    1    4    4    0    0  0.27336941199E+02 -0.13169655077E+02 -0.64337766088E+00  0.30350652444E+02  0.00000000000E+00 0. -1.
        -14    1    4    4    0    0  0.62155274246E+02  0.10086469651E+03  0.23905690001E+02  0.12086540917E+03  0.00000000000E+00 0.  1.
</event>
<event>
12    1  0.8724767E-002  0.2498151E+03  0.7818608E-02  0.1113514E+00
         21   -1    0    0  501  502  0.00000000000E+00  0.00000000000E+00  0.43167978471E+03  0.43167978471E+03  0.00000000000E+00 0.  1.
         21   -1    0    0  502  503 -0.00000000000E+00 -0.00000000000E+00 -0.29815772156E+03  0.29815772156E+03  0.00000000000E+00 0. -1.
         -6    2    1    2    0  503 -0.16194575767E+03  0.78526091854E+02 -0.19539762731E+03  0.31715583910E+03  0.17324785132E+03 0.  0.
        -24    2    3    3    0    0 -0.14562395224E+03  0.43024331726E+02 -0.79980675646E+02  0.19521347961E+03  0.93026692722E+02 0.  0.
          6    2    1    2  501    0  0.16194575767E+03 -0.78526091854E+02  0.32891969046E+03  0.41268166718E+03  0.17241003486E+03 0.  0.
         24    2    5    5    0    0  0.17235852877E+03 -0.17089339556E+02  0.22013072752E+03  0.28722239572E+03  0.63558315265E+02 0.  0.
          5    1    5    5  501    0 -0.10412771103E+02 -0.61436752298E+02  0.10878896295E+03  0.12545927146E+03  0.47000000000E+01 0. -1.
        -11    1    6    6    0    0  0.23773099805E+02 -0.22989778436E+02  0.61258592002E+02  0.69615409795E+02  0.00000000000E+00 0.  1.
         12    1    6    6    0    0  0.14858542897E+03  0.59004388800E+01  0.15887213551E+03  0.21760698593E+03  0.00000000000E+00 0. -1.
         -5    1    3    3    0  503 -0.16321805429E+02  0.35501760128E+02 -0.11541695167E+03  0.12194235949E+03  0.47000000000E+01 0.  1.
         13    1    4    4    0    0 -0.13928167257E+03  0.48366334053E+01 -0.62398706372E+02  0.15269700683E+03  0.00000000000E+00 0. -1.
        -14    1    4    4    0    0 -0.63422796683E+01  0.38187698321E+02 -0.17581969274E+02  0.42516472784E+02  0.00000000000E+00 0.  1.
</event>
<event>
12    1  0.8724767E-002  0.1778595E+03  0.7818608E-02  0.1170047E+00
         21   -1    0    0  503  502  0.00000000000E+00  0.00000000000E+00  0.19252217253E+03  0.19252217253E+03  0.00000000000E+00 0. -1.
         21   -1    0    0  501  503 -0.00000000000E+00 -0.00000000000E+00 -0.17470357779E+03  0.17470357779E+03  0.00000000000E+00 0. -1.
          6    2    1    2  501    0 -0.23819719991E+02 -0.33500166859E+02 -0.37125478058E+02  0.18107293819E+03  0.17239335133E+03 0.  0.
         24    2    3    3    0    0  0.67808979578E+01  0.41240569944E+02 -0.42426932261E+02  0.10000031042E+03  0.80332137510E+02 0.  0.
         -6    2    1    2    0  502  0.23819719991E+02  0.33500166859E+02  0.54944072790E+02  0.18615281213E+03  0.17304443964E+03 0.  0.
        -24    2    5    5    0    0  0.13533553666E+02 -0.44518274964E+02  0.53982961777E+01  0.93042359105E+02  0.80390951640E+02 0.  0.
          5    1    3    3  501    0 -0.30600617949E+02 -0.74740736804E+02  0.53014542036E+01  0.81072627770E+02  0.47000000000E+01 0. -1.
        -13    1    4    4    0    0 -0.12291627984E+02  0.46316639410E+02  0.54365985912E+01  0.48227293196E+02  0.00000000000E+00 0.  1.
         14    1    4    4    0    0  0.19072525942E+02 -0.50760694659E+01 -0.47863530853E+02  0.51773017226E+02  0.00000000000E+00 0. -1.
         -5    1    5    5    0  502  0.10286166325E+02  0.78018441823E+02  0.49545776612E+02  0.93110453024E+02  0.47000000000E+01 0.  1.
         11    1    6    6    0    0  0.90637891123E+00  0.16153189098E+02  0.23455198883E+02  0.28493743093E+02  0.00000000000E+00 0. -1.
        -12    1    6    6    0    0  0.12627174755E+02 -0.60671464062E+02 -0.18056902706E+02  0.64548616012E+02  0.00000000000E+00 0.  1.
</event>
<event>
12    1  0.8724767E-002  0.2164028E+03  0.7818608E-02  0.1136831E+00
         21   -1    0    0  501  502  0.00000000000E+00  0.00000000000E+00  0.31276653813E+02  0.31276653813E+02  0.00000000000E+00 0.  1.
         21   -1    0    0  502  503 -0.00000000000E+00 -0.00000000000E+00 -0.16802059538E+04  0.16802059538E+04  0.00000000000E+00 0.  1.
         -6    2    1    2    0  503  0.12158474395E+03  0.45117693308E+02 -0.11154529872E+04  0.11362506454E+04  0.17323887093E+03 0.  0.
        -24    2    3    3    0    0  0.11424662340E+03 -0.28060169911E+02 -0.68431011465E+03  0.69885481301E+03  0.79234162835E+02 0.  0.
          6    2    1    2  501    0 -0.12158474395E+03 -0.45117693308E+02 -0.53347631280E+03  0.57523196219E+03  0.17168685969E+03 0.  0.
         24    2    5    5    0    0 -0.14062419572E+03 -0.62402462498E+02 -0.51875200822E+03  0.54522931039E+03  0.67097862354E+02 0.  0.
          5    1    5    5  501    0  0.19039451762E+02  0.17284769190E+02 -0.14724304586E+02  0.30002651798E+02  0.47000000000E+01 0. -1.
        -13    1    6    6    0    0 -0.12910285340E+03 -0.49394007341E+02 -0.36160807456E+03  0.38712751685E+03  0.00000000000E+00 0.  1.
         14    1    6    6    0    0 -0.11521342314E+02 -0.13008455158E+02 -0.15714393366E+03  0.15810179354E+03  0.00000000000E+00 0. -1.
         -5    1    3    3    0  503  0.73381205570E+01  0.73177863219E+02 -0.43114287251E+03  0.43739583239E+03  0.47000000000E+01 0.  1.
         11    1    4    4    0    0 -0.75463933650E+01 -0.17996912661E+02 -0.10428114321E+03  0.10609144050E+03  0.00000000000E+00 0. -1.
        -12    1    4    4    0    0  0.12179301676E+03 -0.10063257250E+02 -0.58002897145E+03  0.59276337252E+03  0.00000000000E+00 0.  1.
</event>
<event>
12    1  0.8724767E-002  0.3090499E+03  0.7818608E-02  0.1080842E+00
         21   -1    0    0  501  502  0.00000000000E+00  0.00000000000E+00  0.93009213022E+03  0.93009213022E+03  0.00000000000E+00 0. -1.
         21   -1    0    0  502  503 -0.00000000000E+00 -0.00000000000E+00 -0.16912192824E+03  0.16912192824E+03  0.00000000000E+00 0. -1.
         -6    2    1    2    0  503  0.23040887021E+03 -0.11369811465E+03  0.35615682847E+02  0.31076556563E+03  0.17114687017E+03 0.  0.
        -24    2    3    3    0    0  0.10315110975E+03 -0.62213871213E+02  0.82263110906E+02  0.16570269145E+03  0.78609448064E+02 0.  0.
          6    2    1    2  501    0 -0.23040887021E+03  0.11369811465E+03  0.72535451914E+03  0.78844849283E+03  0.17174498145E+03 0.  0.
         24    2    5    5    0    0 -0.23452691846E+03  0.13341697533E+03  0.70494546955E+03  0.75938974039E+03  0.83196742676E+02 0.  0.
          5    1    5    5  501    0  0.41180482451E+01 -0.19718860676E+02  0.20409049593E+02  0.29058752433E+02  0.47000000000E+01 0. -1.
        -11    1    6    6    0    0 -0.13168220888E+03  0.48450273277E+02  0.45401523289E+03  0.47520255136E+03  0.00000000000E+00 0.  1.
         12    1    6    6    0    0 -0.10284470957E+03  0.84966702051E+02  0.25093023665E+03  0.28418718903E+03  0.00000000000E+00 0. -1.
         -5    1    3    3    0  503  0.12725776047E+03 -0.51484243439E+02 -0.46647428059E+02  0.14506287418E+03  0.47000000000E+01 0.  1.
         11    1    4    4    0    0  0.85898071641E+02 -0.68401917935E+02  0.35381362522E+02  0.11536525431E+03  0.00000000000E+00 0. -1.
        -12    1    4    4    0    0  0.17253038107E+02  0.61880467222E+01  0.46881748384E+02  0.50337437139E+02  0.00000000000E+00 0.  1.
</event>
<event>
12    1  0.8724767E-002  0.1831286E+03  0.7818608E-02  0.1165030E+00
         21   -1    0    0  503  502  0.00000000000E+00  0.00000000000E+00  0.89474229790E+02  0.89474229790E+02  0.00000000000E+00 0. -1.
         21   -1    0    0  501  503 -0.00000000000E+00 -0.00000000000E+00 -0.43436381017E+03  0.43436381017E+03  0.00000000000E+00 0. -1.
          6    2    1    2  501    0 -0.45373289618E+01  0.60444453934E+02 -0.27133924297E+03  0.32735465240E+03  0.17280614661E+03 0.  0.
         24    2    3    3    0    0 -0.69648040904E+02  0.28344709683E+02 -0.14244417949E+03  0.17934848436E+03  0.78874979561E+02 0.  0.
         -6    2    1    2    0  502  0.45373289618E+01 -0.60444453934E+02 -0.73550337408E+02  0.19648338756E+03  0.17181952767E+03 0.  0.
        -24    2    5    5    0    0 -0.51018873351E+02 -0.62846428381E+02 -0.13239832396E+02  0.11431460935E+03  0.79623726060E+02 0.  0.
          5    1    3    3  501    0  0.65110711942E+02  0.32099744251E+02 -0.12889506348E+03  0.14800616805E+03  0.47000000000E+01 0. -1.
        -11    1    4    4    0    0 -0.36617894753E+02  0.11673634344E+02 -0.13658394967E+03  0.14188840425E+03  0.00000000000E+00 0.  1.
         12    1    4    4    0    0 -0.33030146151E+02  0.16671075339E+02 -0.58602298264E+01  0.37460080103E+02  0.00000000000E+00 0. -1.
         -5    1    5    5    0  502  0.55556202313E+02  0.24019744469E+01 -0.60310505012E+02  0.82168778204E+02  0.47000000000E+01 0.  1.
         11    1    6    6    0    0 -0.34662126586E+02 -0.45915418145E+02 -0.46218235082E+02  0.73795757988E+02  0.00000000000E+00 0. -1.
        -12    1    6    6    0    0 -0.16356746765E+02 -0.16931010235E+02  0.32978402686E+02  0.40518851366E+02  0.00000000000E+00 0.  1.
</event>
<event>
12    1  0.8724767E-002  0.1874818E+03  0.7818608E-02  0.1160835E+00
         21   -1    0    0  503  502  0.00000000000E+00  0.00000000000E+00  0.93725361281E+02  0.93725361281E+02  0.00000000000E+00 0.  1.
         21   -1    0    0  501  503 -0.00000000000E+00 -0.00000000000E+00 -0.43870541012E+03  0.43870541012E+03  0.00000000000E+00 0.  1.
          6    2    1    2  501    0 -0.14306065968E+01  0.74429775388E+02 -0.27462472052E+03  0.33251792989E+03  0.17206858654E+03 0.  0.
         24    2    3    3    0    0  0.21543440625E+02 -0.93208403290E+00 -0.22237670809E+03  0.23786508257E+03  0.81629704114E+02 0.  0.
         -6    2    1    2    0  502  0.14306065968E+01 -0.74429775388E+02 -0.70355328321E+02  0.19991284152E+03  0.17167828599E+03 0.  0.
        -24    2    5    5    0    0  0.39168709383E+02 -0.32975270372E+02  0.14897772849E+02  0.97771656646E+02  0.81949966177E+02 0.  0.
          5    1    3    3  501    0 -0.22974047222E+02  0.75361859421E+02 -0.52248012438E+02  0.94652847315E+02  0.47000000000E+01 0. -1.
        -13    1    4    4    0    0  0.29255222878E+02 -0.15629801564E+01 -0.20305566603E+02  0.35645855407E+02  0.00000000000E+00 0.  1.
         14    1    4    4    0    0 -0.77117822530E+01  0.63089612350E+00 -0.20207114148E+03  0.20221922717E+03  0.00000000000E+00 0. -1.
         -5    1    5    5    0  502 -0.37738102786E+02 -0.41454505015E+02 -0.85253101171E+02  0.10214118487E+03  0.47000000000E+01 0.  1.
         11    1    6    6    0    0  0.39709856662E+02 -0.58467980640E+02  0.67333526004E+01  0.70997996545E+02  0.00000000000E+00 0. -1.
        -12    1    6    6    0    0 -0.54114727860E+00  0.25492710268E+02  0.81644202491E+01  0.26773660100E+02  0.00000000000E+00 0.  1.
</event>
<event>
12    1  0.8724767E-002  0.1987776E+03  0.7818608E-02  0.1153550E+00
         21   -1    0    0  503  502  0.00000000000E+00  0.00000000000E+00  0.63480620265E+02  0.63480620265E+02  0.00000000000E+00 0.  1.
         21   -1    0    0  501  503 -0.00000000000E+00 -0.00000000000E+00 -0.18580975406E+04  0.18580975406E+04  0.00000000000E+00 0.  1.
          6    2    1    2  501    0  0.51915118821E+01  0.75079450758E+02 -0.17021281442E+04  0.17136956439E+04  0.18398006673E+03 0.  0.
         24    2    3    3    0    0  0.61988090271E+02  0.17597776521E+02 -0.61984601044E+03  0.62839075530E+03  0.80707246328E+02 0.  0.
         -6    2    1    2    0  502 -0.51915118821E+01 -0.75079450758E+02 -0.92488776121E+02  0.20788251694E+03  0.17028532356E+03 0.  0.
        -24    2    5    5    0    0 -0.61986459648E+02 -0.64424336029E+02 -0.87249897780E+02  0.14966968839E+03  0.82435761100E+02 0.  0.
          5    1    3    3  501    0 -0.56796578389E+02  0.57481674236E+02 -0.10822821337E+04  0.10853048886E+04  0.47000000000E+01 0. -1.
        -13    1    4    4    0    0 -0.19874261986E+02  0.35628481901E+01 -0.12710515048E+03  0.12869887123E+03  0.00000000000E+00 0.  1.
         14    1    4    4    0    0  0.81862352257E+02  0.14034928331E+02 -0.49274085996E+03  0.49969188407E+03  0.00000000000E+00 0. -1.
         -5    1    5    5    0  502  0.56794947766E+02 -0.10655114729E+02 -0.52388783407E+01  0.58212828551E+02  0.47000000000E+01 0.  1.
         13    1    6    6    0    0 -0.16651042253E+02  0.17852415606E+02 -0.52398986887E+01  0.24968429853E+02  0.00000000000E+00 0. -1.
        -14    1    6    6    0    0 -0.45335417395E+02 -0.82276751635E+02 -0.82009999091E+02  0.12470125854E+03  0.00000000000E+00 0.  1.
</event>
<event>
12    1  0.8724767E-002  0.1962152E+03  0.7818608E-02  0.1153206E+00
         21   -1    0    0  501  502  0.00000000000E+00  0.00000000000E+00  0.11042512014E+03  0.11042512014E+03  0.00000000000E+00 0.  1.
         21   -1    0    0  502  503 -0.00000000000E+00 -0.00000000000E+00 -0.49272427687E+03  0.49272427687E+03  0.00000000000E+00 0. -1.
         -6    2    1    2    0  503  0.10269330907E+00 -0.91724635447E+02 -0.26630207804E+02  0.19694650724E+03  0.17223628959E+03 0.  0.
        -24    2    3    3    0    0  0.19377508080E+02 -0.58817649623E+02 -0.81247204169E+02  0.13016706061E+03  0.80668158254E+02 0.  0.
          6    2    1    2  501    0 -0.10269330907E+00  0.91724635447E+02 -0.35566894893E+03  0.40620288977E+03  0.17345595156E+03 0.  0.
         24    2    5    5    0    0 -0.32293555138E+02  0.20295717022E+02 -0.83038474817E+02  0.12249915806E+03  0.81583488477E+02 0.  0.
          5    1    5    5  501    0  0.32190861829E+02  0.71428918425E+02 -0.27263047411E+03  0.28370373171E+03  0.47000000000E+01 0. -1.
        -13    1    6    6    0    0 -0.87325126609E+01  0.36729755458E+02 -0.34802574311E+01  0.37913637456E+02  0.00000000000E+00 0.  1.
         14    1    6    6    0    0 -0.23561042477E+02 -0.16434038435E+02 -0.79558217386E+02  0.84585520602E+02  0.00000000000E+00 0. -1.
         -5    1    3    3    0  503 -0.19274814771E+02 -0.32906985824E+02  0.54616996365E+02  0.66779446631E+02  0.47000000000E+01 0.  1.
         13    1    4    4    0    0  0.42824912466E+01  0.20065063935E+02 -0.10083827373E+02  0.22861104445E+02  0.00000000000E+00 0. -1.
        -14    1    4    4    0    0  0.15095016833E+02 -0.78882713558E+02 -0.71163376796E+02  0.10730595616E+03  0.00000000000E+00 0.  1.
</event>
<event>
12    1  0.8724767E-002  0.2019032E+03  0.7818608E-02  0.1149237E+00
         21   -1    0    0  501  502  0.00000000000E+00  0.00000000000E+00  0.28138966255E+03  0.28138966255E+03  0.00000000000E+00 0.  1.
         21   -1    0    0  502  503 -0.00000000000E+00 -0.00000000000E+00 -0.29394714415E+03  0.29394714415E+03  0.00000000000E+00 0.  1.
         -6    2    1    2    0  503 -0.74124932772E+02 -0.75315362748E+02 -0.21369379274E+03  0.29398966487E+03  0.17204062448E+03 0.  0.
        -24    2    3    3    0    0  0.25879443010E+02 -0.25608817125E+02 -0.64018061370E+02  0.10718353431E+03  0.77874519329E+02 0.  0.
          6    2    1    2  501    0  0.74124932772E+02  0.75315362748E+02  0.20113631113E+03  0.28134714183E+03  0.16593218203E+03 0.  0.
         24    2    5    5    0    0 -0.61980450129E+01  0.77900190339E+02  0.84949282571E+02  0.13999659284E+03  0.79220009969E+02 0.  0.
          5    1    5    5  501    0  0.80322977785E+02 -0.25848275913E+01  0.11618702856E+03  0.14135054899E+03  0.47000000000E+01 0. -1.
        -11    1    6    6    0    0  0.23653886103E+02  0.37608238439E+02  0.37828258651E+01  0.44589188126E+02  0.00000000000E+00 0.  1.
         12    1    6    6    0    0 -0.29851931115E+02  0.40291951900E+02  0.81166456706E+02  0.95407404710E+02  0.00000000000E+00 0. -1.
         -5    1    3    3    0  503 -0.10000437578E+03 -0.49706545623E+02 -0.14967573137E+03  0.18680613056E+03  0.47000000000E+01 0.  1.
         13    1    4    4    0    0  0.37225812874E+02 -0.47791099610E+02 -0.50312210865E+02  0.78746866021E+02  0.00000000000E+00 0. -1.
        -14    1    4    4    0    0 -0.11346369865E+02  0.22182282485E+02 -0.13705850505E+02  0.28436668289E+02  0.00000000000E+00 0.  1.
</event>
<event>
12    1  0.8724767E-002  0.2484823E+03  0.7818608E-02  0.1114469E+00
         21   -1    0    0  503  502  0.00000000000E+00  0.00000000000E+00  0.39001453363E+03  0.39001453363E+03  0.00000000000E+00 0. -1.
         21   -1    0    0  501  503 -0.00000000000E+00 -0.00000000000E+00 -0.19494719009E+03  0.19494719009E+03  0.00000000000E+00 0.  1.
          6    2    1    2  501    0 -0.84386081252E+02  0.15691978506E+03 -0.30437444830E+02  0.25033956549E+03  0.17320112688E+03 0.  0.
         24    2    3    3    0    0 -0.98115497537E+02  0.15762820354E+03 -0.65582227676E+02  0.21231004420E+03  0.79380254933E+02 0.  0.
         -6    2    1    2    0  502  0.84386081252E+02 -0.15691978506E+03  0.22550478837E+03  0.33462215823E+03  0.17139063438E+03 0.  0.
        -24    2    5    5    0    0  0.10830737235E+03 -0.14996229156E+03  0.23198425725E+03  0.30845522490E+03  0.84313429305E+02 0.  0.
          5    1    3    3  501    0  0.13729416285E+02 -0.70841848609E+00  0.35144782846E+02  0.38029521290E+02  0.47000000000E+01 0. -1.
        -11    1    4    4    0    0 -0.15173448776E+02  0.29949147927E+02 -0.48660024330E+02  0.59118381043E+02  0.00000000000E+00 0.  1.
         12    1    4    4    0    0 -0.82942048761E+02  0.12767905562E+03 -0.16922203346E+02  0.15319166316E+03  0.00000000000E+00 0. -1.
         -5    1    5    5    0  502 -0.23921291094E+02 -0.69574934992E+01 -0.64794688777E+01  0.26166933338E+02  0.47000000000E+01 0.  1.
         13    1    6    6    0    0  0.41814507939E+01 -0.33696738303E+02  0.94661672938E+02  0.10056732584E+03  0.00000000000E+00 0. -1.
        -14    1    6    6    0    0  0.10412592155E+03 -0.11626555325E+03  0.13732258431E+03  0.20788789906E+03  0.00000000000E+00 0.  1.
</event>
<event>
12    1  0.8724767E-002  0.1744275E+03  0.7818608E-02  0.1173670E+00
         21   -1    0    0  501  502  0.00000000000E+00  0.00000000000E+00  0.13552215096E+04  0.13552215096E+04  0.00000000000E+00 0. -1.
         21   -1    0    0  502  503 -0.00000000000E+00 -0.00000000000E+00 -0.49178642325E+02  0.49178642325E+02  0.00000000000E+00 0. -1.
         -6    2    1    2    0  503 -0.21977928713E+02 -0.43988988509E+01  0.13478630402E+03  0.22043659549E+03  0.17298140137E+03 0.  0.
        -24    2    3    3    0    0 -0.55543533747E+02  0.38446537038E+02  0.42439859004E+02  0.11314103582E+03  0.80228000122E+02 0.  0.
          6    2    1    2  501    0  0.21977928713E+02  0.43988988509E+01  0.11712565632E+04  0.11839635564E+04  0.17153829405E+03 0.  0.
         24    2    5    5    0    0  0.17548579579E+02  0.64641788827E+01  0.26913727075E+03  0.28181878289E+03  0.81469120713E+02 0.  0.
          5    1    5    5  501    0  0.44293491346E+01 -0.20652800318E+01  0.90211929246E+03  0.90214477350E+03  0.47000000000E+01 0. -1.
        -13    1    6    6    0    0 -0.23202450065E+02  0.28599306609E+02  0.13270241327E+03  0.13771784385E+03  0.00000000000E+00 0.  1.
         14    1    6    6    0    0  0.40751029644E+02 -0.22135127726E+02  0.13643485748E+03  0.14410093904E+03  0.00000000000E+00 0. -1.
         -5    1    3    3    0  503  0.33565605034E+02 -0.42845435889E+02  0.92346445012E+02  0.10729555967E+03  0.47000000000E+01 0.  1.
         11    1    4    4    0    0 -0.71861444755E+01 -0.26248960432E+01  0.48783203586E+02  0.49379466418E+02  0.00000000000E+00 0. -1.
        -12    1    4    4    0    0 -0.48357389271E+02  0.41071433081E+02 -0.63433445822E+01  0.63761569405E+02  0.00000000000E+00 0.  1.
</event>
<event>
12    1  0.8724767E-002  0.1778625E+03  0.7818608E-02  0.1169958E+00
         21   -1    0    0  501  502  0.00000000000E+00  0.00000000000E+00  0.28580490136E+03  0.28580490136E+03  0.00000000000E+00 0. -1.
         21   -1    0    0  502  503 -0.00000000000E+00 -0.00000000000E+00 -0.11421576991E+03  0.11421576991E+03  0.00000000000E+00 0. -1.
         -6    2    1    2    0  503  0.44585831205E+02  0.70964963693E+01  0.49702938230E+02  0.18440225580E+03  0.17174269496E+03 0.  0.
        -24    2    3    3    0    0  0.53856346824E+02  0.13458090350E+02  0.94439476497E+02  0.13803567092E+03  0.83984554744E+02 0.  0.
          6    2    1    2  501    0 -0.44585831205E+02 -0.70964963693E+01  0.12188619322E+03  0.21561841547E+03  0.17203720640E+03 0.  0.
         24    2    5    5    0    0 -0.45251008657E+02 -0.65289550690E+02  0.49029279275E+02  0.12225303676E+03  0.78940202411E+02 0.  0.
          5    1    5    5  501    0  0.66517745151E+00  0.58193054321E+02  0.72856913945E+02  0.93365378711E+02  0.47000000000E+01 0. -1.
        -13    1    6    6    0    0  0.15855589628E+02  0.69640023243E+01  0.63509546244E+01  0.18445370028E+02  0.00000000000E+00 0.  1.
         14    1    6    6    0    0 -0.61106598284E+02 -0.72253553014E+02  0.42678324650E+02  0.10380766673E+03  0.00000000000E+00 0. -1.
         -5    1    3    3    0  503 -0.92705156191E+01 -0.63615939809E+01 -0.44736538267E+02  0.46366584885E+02  0.47000000000E+01 0.  1.
         11    1    4    4    0    0  0.50177687242E+02 -0.27865930283E+02  0.41756840557E+02  0.70978476320E+02  0.00000000000E+00 0. -1.
        -12    1    4    4    0    0  0.36786595821E+01  0.41324020633E+02  0.52682635940E+02  0.67057194597E+02  0.00000000000E+00 0.  1.
</event>
<event>
12    1  0.8724767E-002  0.2118535E+03  0.7818608E-02  0.1140257E+00
         21   -1    0    0  501  502  0.00000000000E+00  0.00000000000E+00  0.60643016351E+03  0.60643016351E+03  0.00000000000E+00 0. -1.
         21   -1    0    0  502  503 -0.00000000000E+00 -0.00000000000E+00 -0.91168978176E+02  0.91168978176E+02  0.00000000000E+00 0. -1.
         -6    2    1    2    0  503  0.10557630460E+03  0.63882169402E+02  0.10475939262E+03  0.23565367617E+03  0.17126248009E+03 0.  0.
        -24    2    3    3    0    0  0.66963056467E+02  0.80683717193E+02  0.11572892754E+02  0.13328625607E+03  0.81470123721E+02 0.  0.
          6    2    1    2  501    0 -0.10557630460E+03 -0.63882169402E+02  0.41050179272E+03  0.46194546552E+03  0.17220512080E+03 0.  0.
         24    2    5    5    0    0 -0.19483106306E+02  0.44546317409E+01  0.27660404310E+03  0.28864614488E+03  0.80046018745E+02 0.  0.
          5    1    5    5  501    0 -0.86093198297E+02 -0.68336801143E+02  0.13389774961E+03  0.17329932064E+03  0.47000000000E+01 0. -1.
        -13    1    6    6    0    0  0.23047587479E+02  0.55860517512E+01  0.29230917493E+02  0.37640959077E+02  0.00000000000E+00 0.  1.
         14    1    6    6    0    0 -0.42530693785E+02 -0.11314200103E+01  0.24737312561E+03  0.25100518580E+03  0.00000000000E+00 0. -1.
         -5    1    3    3    0  503  0.38613248137E+02 -0.16801547791E+02  0.93186499865E+02  0.10236742010E+03  0.47000000000E+01 0.  1.
         11    1    4    4    0    0  0.30942314295E+02 -0.83381931283E+01 -0.12307710065E+02  0.34328297447E+02  0.00000000000E+00 0. -1.
        -12    1    4    4    0    0  0.36020742172E+02  0.89021910322E+02  0.23880602819E+02  0.98957958624E+02  0.00000000000E+00 0.  1.
</event>
<event>
12    1  0.8724767E-002  0.2171430E+03  0.7818608E-02  0.1136660E+00
         21   -1    0    0  501  502  0.00000000000E+00  0.00000000000E+00  0.30858147058E+03  0.30858147058E+03  0.00000000000E+00 0.  1.
         21   -1    0    0  502  503 -0.00000000000E+00 -0.00000000000E+00 -0.44642336059E+03  0.44642336059E+03  0.00000000000E+00 0. -1.
         -6    2    1    2    0  503 -0.16846192834E+02 -0.13353953461E+03 -0.37609533286E+03  0.43264510746E+03  0.16618510191E+03 0.  0.
        -24    2    3    3    0    0  0.52697222132E+01 -0.14711989821E+03 -0.36864719176E+03  0.40523881658E+03  0.81521236828E+02 0.  0.
          6    2    1    2  501    0  0.16846192834E+02  0.13353953461E+03  0.23825344284E+03  0.32235972370E+03  0.17039509067E+03 0.  0.
         24    2    5    5    0    0  0.21105097748E+02  0.98073337117E+02  0.25292899322E+03  0.28345662338E+03  0.79440399817E+02 0.  0.
          5    1    5    5  501    0 -0.42589049135E+01  0.35466197493E+02 -0.14675550381E+02  0.38903100322E+02  0.47000000000E+01 0. -1.
        -13    1    6    6    0    0 -0.21010410237E+02  0.66048651163E+00  0.30962873737E+02  0.37424231867E+02  0.00000000000E+00 0.  1.
         14    1    6    6    0    0  0.42115507984E+02  0.97412850605E+02  0.22196611949E+03  0.24603239152E+03  0.00000000000E+00 0. -1.
         -5    1    3    3    0  503 -0.22115915047E+02  0.13580363602E+02 -0.74481411017E+01  0.27406290880E+02  0.47000000000E+01 0.  1.
         11    1    4    4    0    0  0.26004281018E+02 -0.13484089694E+02 -0.10392276155E+03  0.10797214305E+03  0.00000000000E+00 0. -1.
        -12    1    4    4    0    0 -0.20734558804E+02 -0.13363580852E+03 -0.26472443021E+03  0.29726667354E+03  0.00000000000E+00 0.  1.
</event>
<event>
12    1  0.8724767E-002  0.1750919E+03  0.7818608E-02  0.1172840E+00
         21   -1    0    0  503  502  0.00000000000E+00  0.00000000000E+00  0.54729442330E+02  0.54729442330E+02  0.00000000000E+00 0.  1.
         21   -1    0    0  501  503 -0.00000000000E+00 -0.00000000000E+00 -0.61144544452E+03  0.61144544452E+03  0.00000000000E+00 0.  1.
          6    2    1    2  501    0  0.16824215927E+02  0.18951060204E+02 -0.17894211449E+03  0.24979730212E+03  0.17244191742E+03 0.  0.
         24    2    3    3    0    0  0.77384425575E+02  0.11067463954E+02 -0.11540732209E+03  0.16154510709E+03  0.81652517116E+02 0.  0.
         -6    2    1    2    0  502 -0.16824215927E+02 -0.18951060204E+02 -0.37777388770E+03  0.41637758473E+03  0.17324833597E+03 0.  0.
        -24    2    5    5    0    0  0.52801765744E+02  0.13132615937E+02 -0.19951316491E+03  0.22227422338E+03  0.81485184794E+02 0.  0.
          5    1    3    3  501    0 -0.60560209647E+02  0.78835962505E+01 -0.63534792400E+02  0.88252195030E+02  0.47000000000E+01 0. -1.
        -13    1    4    4    0    0  0.77823410040E+02  0.25757386672E+02 -0.53432811545E+02  0.97851885358E+02  0.00000000000E+00 0.  1.
         14    1    4    4    0    0 -0.43898446532E+00 -0.14689922719E+02 -0.61974510544E+02  0.63693221727E+02  0.00000000000E+00 0. -1.
         -5    1    5    5    0  502 -0.69625981671E+02 -0.32083676141E+02 -0.17826072279E+03  0.19410336135E+03  0.47000000000E+01 0.  1.
         11    1    6    6    0    0  0.58756420529E+02 -0.19753596713E+02 -0.10387880235E+03  0.12096828970E+03  0.00000000000E+00 0. -1.
        -12    1    6    6    0    0 -0.59546547850E+01  0.32886212650E+02 -0.95634362556E+02  0.10130593367E+03  0.00000000000E+00 0.  1.
</event>
<event>
12    1  0.8724767E-002  0.1902266E+03  0.7818608E-02  0.1158343E+00
         21   -1    0    0  503  502  0.00000000000E+00  0.00000000000E+00  0.81879497777E+03  0.81879497777E+03  0.00000000000E+00 0.  1.
         21   -1    0    0  501  503 -0.00000000000E+00 -0.00000000000E+00 -0.52975649265E+02  0.52975649265E+02  0.00000000000E+00 0.  1.
          6    2    1    2  501    0  0.92448130059E+01 -0.80449050838E+02  0.20423034717E+03  0.27883863339E+03  0.17170740349E+03 0.  0.
         24    2    3    3    0    0 -0.26927900285E+02 -0.86498243663E+02  0.68147383718E+02  0.13782189373E+03  0.78382080304E+02 0.  0.
         -6    2    1    2    0  502 -0.92448130059E+01  0.80449050838E+02  0.56158898133E+03  0.59293199365E+03  0.17212974406E+03 0.  0.
        -24    2    5    5    0    0 -0.45759206608E+02  0.98101461443E+02  0.32392553096E+03  0.35178698711E+03  0.84312116329E+02 0.  0.
          5    1    3    3  501    0  0.36172713291E+02  0.60491928245E+01  0.13608296346E+03  0.14101673966E+03  0.47000000000E+01 0. -1.
        -11    1    4    4    0    0  0.10818210962E+02  0.10717603869E+02  0.56524004476E+01  0.16243471056E+02  0.00000000000E+00 0.  1.
         12    1    4    4    0    0 -0.37746111247E+02 -0.97215847532E+02  0.62494983270E+02  0.12157842267E+03  0.00000000000E+00 0. -1.
         -5    1    5    5    0  502  0.36514393602E+02 -0.17652410605E+02  0.23766345036E+03  0.24114500654E+03  0.47000000000E+01 0.  1.
         13    1    6    6    0    0  0.11880078184E+02 -0.52235216095E+01  0.10242252978E+02  0.16532549161E+02  0.00000000000E+00 0. -1.
        -14    1    6    6    0    0 -0.57639284792E+02  0.10332498305E+03  0.31368327799E+03  0.33525443795E+03  0.00000000000E+00 0.  1.
</event>
<event>
12    1  0.8724767E-002  0.1851639E+03  0.7818608E-02  0.1163114E+00
         21   -1    0    0  501  502  0.00000000000E+00  0.00000000000E+00  0.98574897778E+02  0.98574897778E+02  0.00000000000E+00 0.  1.
         21   -1    0    0  502  503 -0.00000000000E+00 -0.00000000000E+00 -0.34610842116E+03  0.34610842116E+03  0.00000000000E+00 0. -1.
         -6    2    1    2    0  503  0.31468862694E+02  0.60221725550E+02 -0.12115473366E+03  0.22050194945E+03  0.17124746620E+03 0.  0.
        -24    2    3    3    0    0  0.71769869970E+02  0.34289860420E+02 -0.12893202625E+03  0.17172481243E+03  0.80865536838E+02 0.  0.
          6    2    1    2  501    0 -0.31468862694E+02 -0.60221725550E+02 -0.12637878973E+03  0.22418136949E+03  0.17224616798E+03 0.  0.
         24    2    5    5    0    0 -0.73013068048E+02 -0.63277414501E+02 -0.45834680663E+02  0.13338102952E+03  0.79716634349E+02 0.  0.
          5    1    5    5  501    0  0.41544205354E+02  0.30556889509E+01 -0.80544109065E+02  0.90800339969E+02  0.47000000000E+01 0. -1.
        -13    1    6    6    0    0 -0.55984125686E+02 -0.27027411372E+02 -0.64159576674E+02  0.89337307847E+02  0.00000000000E+00 0.  1.
         14    1    6    6    0    0 -0.17028942362E+02 -0.36250003129E+02  0.18324896011E+02  0.44043721671E+02  0.00000000000E+00 0. -1.
         -5    1    3    3    0  503 -0.40301007277E+02  0.25931865129E+02  0.77772925887E+01  0.48777137028E+02  0.47000000000E+01 0.  1.
         13    1    4    4    0    0  0.35563846154E+02 -0.24238816002E+02 -0.36161426502E+02  0.56213487004E+02  0.00000000000E+00 0. -1.
        -14    1    4    4    0    0  0.36206023816E+02  0.58528676422E+02 -0.92770599743E+02  0.11551132542E+03  0.00000000000E+00 0.  1.
</event>
<event>
12    1  0.8724767E-002  0.1745403E+03  0.7818608E-02  0.1173573E+00
         21   -1    0    0  501  502  0.00000000000E+00  0.00000000000E+00  0.27768734398E+03  0.27768734398E+03  0.00000000000E+00 0.  1.
         21   -1    0    0  502  503 -0.00000000000E+00 -0.00000000000E+00 -0.13158677903E+03  0.13158677903E+03  0.00000000000E+00 0.  1.
         -6    2    1    2    0  503  0.44141704995E+01 -0.19450858006E+02 -0.12426446463E+02  0.17348789808E+03  0.17188895669E+03 0.  0.
        -24    2    3    3    0    0 -0.23479308101E+02  0.43603151989E+02  0.25873575884E+01  0.10276761360E+03  0.90010972740E+02 0.  0.
          6    2    1    2  501    0 -0.44141704995E+01  0.19450858006E+02  0.15852701141E+03  0.23578622493E+03  0.17339697155E+03 0.  0.
         24    2    5    5    0    0  0.19834410385E+02 -0.28581797410E+02  0.16073121492E+03  0.18172997484E+03  0.77336519990E+02 0.  0.
          5    1    5    5  501    0 -0.24248580884E+02  0.48032655416E+02 -0.22042035119E+01  0.54056250095E+02  0.47000000000E+01 0. -1.
        -13    1    6    6    0    0 -0.70283817486E+01  0.86237260566E+00  0.13296862342E+03  0.13315703755E+03  0.00000000000E+00 0.  1.
         14    1    6    6    0    0  0.26862792133E+02 -0.29444170015E+02  0.27762591509E+02  0.48572937284E+02  0.00000000000E+00 0. -1.
         -5    1    3    3    0  503  0.27893478600E+02 -0.63054009995E+02 -0.15013804051E+02  0.70720284480E+02  0.47000000000E+01 0.  1.
         13    1    4    4    0    0  0.22593878462E+02  0.46723260611E+01  0.28882634716E+02  0.36966478909E+02  0.00000000000E+00 0. -1.
        -14    1    4    4    0    0 -0.46073186562E+02  0.38930825928E+02 -0.26295277128E+02  0.65801134692E+02  0.00000000000E+00 0.  1.
</event>
<event>
12    1  0.8724767E-002  0.1837019E+03  0.7818608E-02  0.1167588E+00
         21   -1    0    0  501  502  0.00000000000E+00  0.00000000000E+00  0.36781448392E+02  0.36781448392E+02  0.00000000000E+00 0. -1.
         21   -1    0    0  502  503 -0.00000000000E+00 -0.00000000000E+00 -0.24437110150E+04  0.24437110150E+04  0.00000000000E+00 0.  1.
         -6    2    1    2    0  503  0.59242344024E+02 -0.21408552435E+02 -0.22204568820E+04  0.22280429011E+04  0.17256425792E+03 0.  0.
        -24    2    3    3    0    0  0.94207428523E+02  0.23627171772E+02 -0.13819529434E+04  0.13875896195E+04  0.78598546705E+02 0.  0.
          6    2    1    2  501    0 -0.59242344024E+02  0.21408552435E+02 -0.18647268458E+03  0.25244956221E+03  0.15808459104E+03 0.  0.
         24    2    5    5    0    0  0.33280427998E+01  0.31575188510E+02 -0.16541515962E+03  0.18548745984E+03  0.77687542945E+02 0.  0.
          5    1    5    5  501    0 -0.62570386824E+02 -0.10166636075E+02 -0.21057524963E+02  0.66962102371E+02  0.47000000000E+01 0. -1.
        -13    1    6    6    0    0 -0.79578850418E+01  0.53039347115E+02 -0.77214243504E+02  0.94013507948E+02  0.00000000000E+00 0.  1.
         14    1    6    6    0    0  0.11285927842E+02 -0.21464158605E+02 -0.88200916112E+02  0.91473951892E+02  0.00000000000E+00 0. -1.
         -5    1    3    3    0  503 -0.34965084499E+02 -0.45035724206E+02 -0.83850393857E+03  0.84045328162E+03  0.47000000000E+01 0.  1.
         11    1    4    4    0    0  0.46850300891E+02  0.70392446318E+01 -0.24550326996E+03  0.25003271230E+03  0.00000000000E+00 0. -1.
        -12    1    4    4    0    0  0.47357127633E+02  0.16587927140E+02 -0.11364496735E+04  0.11375569072E+04  0.00000000000E+00 0.  1.
</event>
<event>
12    1  0.8724767E-002  0.1786162E+03  0.7818608E-02  0.1169452E+00
         21   -1    0    0  501  502  0.00000000000E+00  0.00000000000E+00  0.33210617903E+03  0.33210617903E+03  0.00000000000E+00 0. -1.
         21   -1    0    0  502  503 -0.00000000000E+00 -0.00000000000E+00 -0.45684715556E+03  0.45684715556E+03  0.00000000000E+00 0. -1.
         -6    2    1    2    0  503 -0.29758219462E+01 -0.46090444025E+02 -0.41320397915E+03  0.44966781012E+03  0.17126128146E+03 0.  0.
        -24    2    3    3    0    0 -0.61353076144E+02  0.12142741369E+01 -0.20952856795E+03  0.23252407133E+03  0.79997178375E+02 0.  0.
          6    2    1    2  501    0  0.29758219462E+01  0.46090444025E+02  0.28846300263E+03  0.33928552446E+03  0.17254152740E+03 0.  0.
         24    2    5    5    0    0  0.49754066087E+02  0.60009139582E+02  0.12108621235E+03  0.16487504847E+03  0.80282917624E+02 0.  0.
          5    1    5    5  501    0 -0.46778244140E+02 -0.13918695557E+02  0.16737679028E+03  0.17441047599E+03  0.47000000000E+01 0. -1.
        -11    1    6    6    0    0  0.68342879101E+02  0.29468137546E+02  0.67622004417E+02  0.10055772340E+03  0.00000000000E+00 0.  1.
         12    1    6    6    0    0 -0.18588813014E+02  0.30541002036E+02  0.53464207928E+02  0.64317325069E+02  0.00000000000E+00 0. -1.
         -5    1    3    3    0  503  0.58377254198E+02 -0.47304718162E+02 -0.20367541120E+03  0.21714373879E+03  0.47000000000E+01 0.  1.
         13    1    4    4    0    0 -0.14125222978E+02  0.91856012570E+01 -0.16883944601E+03  0.16967809441E+03  0.00000000000E+00 0. -1.
        -14    1    4    4    0    0 -0.47227853166E+02 -0.79713271201E+01 -0.40689121938E+02  0.62845976918E+02  0.00000000000E+00 0.  1.
</event>
<event>
12    1  0.8724767E-002  0.2308820E+03  0.7818608E-02  0.1126098E+00
         21   -1    0    0  501  502  0.00000000000E+00  0.00000000000E+00  0.10618218549E+03  0.10618218549E+03  0.00000000000E+00 0.  1.
         21   -1    0    0  502  503 -0.00000000000E+00 -0.00000000000E+00 -0.61813975294E+03  0.61813975294E+03  0.00000000000E+00 0. -1.
         -6    2    1    2    0  503  0.11067468036E+02  0.15302749664E+03 -0.41338762371E+03  0.47327903595E+03  0.17194131225E+03 0.  0.
        -24    2    3    3    0    0 -0.20342297974E+02  0.14917657651E+03 -0.40409013258E+03  0.43996332903E+03  0.87243541715E+02 0.  0.
          6    2    1    2  501    0 -0.11067468036E+02 -0.15302749664E+03 -0.98569943738E+02  0.25104290248E+03  0.17253000173E+03 0.  0.
         24    2    5    5    0    0 -0.53980361725E+02 -0.13787686168E+03 -0.32622838424E+02  0.17077977966E+03  0.78597551588E+02 0.  0.
          5    1    5    5  501    0  0.42912893690E+02 -0.15150634959E+02 -0.65947105314E+02  0.80263122814E+02  0.47000000000E+01 0. -1.
        -13    1    6    6    0    0 -0.51681040503E+02 -0.48813121075E+02 -0.39669101392E+02  0.81408158939E+02  0.00000000000E+00 0.  1.
         14    1    6    6    0    0 -0.22993212223E+01 -0.89063740607E+02  0.70462629685E+01  0.89371620724E+02  0.00000000000E+00 0. -1.
         -5    1    3    3    0  503  0.31409766010E+02  0.38509201282E+01 -0.92974911265E+01  0.33315706925E+02  0.47000000000E+01 0.  1.
         13    1    4    4    0    0  0.70826088637E+01  0.37695796900E+02 -0.21770621965E+03  0.22105911998E+03  0.00000000000E+00 0. -1.
        -14    1    4    4    0    0 -0.27424906838E+02  0.11148077961E+03 -0.18638391293E+03  0.21890420905E+03  0.00000000000E+00 0.  1.
</event>
<event>
12    1  0.8724767E-002  0.2290544E+03  0.7818608E-02  0.1127597E+00
         21   -1    0    0  501  502  0.00000000000E+00  0.00000000000E+00  0.83560576475E+03  0.83560576475E+03  0.00000000000E+00 0. -1.
         21   -1    0    0  502  503 -0.00000000000E+00 -0.00000000000E+00 -0.10181664424E+03  0.10181664424E+03  0.00000000000E+00 0.  1.
         -6    2    1    2    0  503 -0.13005248652E+03 -0.76648793526E+02  0.75849709150E+02  0.24128636295E+03  0.17227084422E+03 0.  0.
        -24    2    3    3    0    0 -0.15791030321E+03 -0.77396953613E+02  0.76828919656E+02  0.21300798698E+03  0.92432501493E+02 0.  0.
          6    2    1    2  501    0  0.13005248652E+03  0.76648793526E+02  0.65793941137E+03  0.69613604604E+03  0.17009538140E+03 0.  0.
         24    2    5    5    0    0  0.60366105030E+02 -0.16309397332E+02  0.40992387945E+03  0.42221778984E+03  0.79499761211E+02 0.  0.
          5    1    5    5  501    0  0.69686381486E+02  0.92958190858E+02  0.24801553191E+03  0.27391825621E+03  0.47000000000E+01 0. -1.
        -13    1    6    6    0    0  0.72017607599E+02  0.82777529169E+01  0.32720761768E+03  0.33514158510E+03  0.00000000000E+00 0.  1.
         14    1    6    6    0    0 -0.11651502569E+02 -0.24587150249E+02  0.82716261774E+02  0.87076204737E+02  0.00000000000E+00 0. -1.
         -5    1    3    3    0  503  0.27857816692E+02  0.74816008728E+00 -0.97921050590E+00  0.28278375972E+02  0.47000000000E+01 0.  1.
         13    1    4    4    0    0 -0.33046274223E+02 -0.18224485897E+02  0.63922539910E+02  0.74231255107E+02  0.00000000000E+00 0. -1.
        -14    1    4    4    0    0 -0.12486402899E+03 -0.59172467717E+02  0.12906379746E+02  0.13877673187E+03  0.00000000000E+00 0.  1.
</event>
<event>
12    1  0.8724767E-002  0.3056564E+03  0.7818608E-02  0.1082459E+00
         21   -1    0    0  501  502  0.00000000000E+00  0.00000000000E+00  0.23702041374E+03  0.23702041374E+03  0.00000000000E+00 0.  1.
         21   -1    0    0  502  503 -0.00000000000E+00 -0.00000000000E+00 -0.40223799443E+03  0.40223799443E+03  0.00000000000E+00 0.  1.
         -6    2    1    2    0  503  0.39500724445E+02 -0.24919091399E+03 -0.12825561343E+03  0.33147448942E+03  0.17253815784E+03 0.  0.
        -24    2    3    3    0    0 -0.26682486981E+02 -0.11553054908E+03 -0.22014128731E+02  0.14829519557E+03  0.86299364331E+02 0.  0.
          6    2    1    2  501    0 -0.39500724445E+02  0.24919091399E+03 -0.36961967268E+02  0.30778391875E+03  0.17236105931E+03 0.  0.
         24    2    5    5    0    0 -0.50049895954E+02  0.81507534579E+02  0.23333694428E+02  0.12921556329E+03  0.83688292027E+02 0.  0.
          5    1    5    5  501    0  0.10549171509E+02  0.16768337942E+03 -0.60295661695E+02  0.17856835546E+03  0.47000000000E+01 0. -1.
        -11    1    6    6    0    0 -0.32703285195E+02  0.95321654092E+02  0.31500963599E+02  0.10558424745E+03  0.00000000000E+00 0.  1.
         12    1    6    6    0    0 -0.17346610758E+02 -0.13814119513E+02 -0.81672691713E+01  0.23631315842E+02  0.00000000000E+00 0. -1.
         -5    1    3    3    0  503  0.66183211425E+02 -0.13366036492E+03 -0.10624148470E+03  0.18317929385E+03  0.47000000000E+01 0.  1.
         11    1    4    4    0    0  0.73718782209E+01 -0.85705558688E+02  0.17990661024E+02  0.87883168256E+02  0.00000000000E+00 0. -1.
        -12    1    4    4    0    0 -0.34054365201E+02 -0.29824990391E+02 -0.40004789755E+02  0.60412027316E+02  0.00000000000E+00 0.  1.
</event>
<event>
12    1  0.8724767E-002  0.1865083E+03  0.7818608E-02  0.1162594E+00
         21   -1    0    0  501  502  0.00000000000E+00  0.00000000000E+00  0.10467795001E+03  0.10467795001E+03  0.00000000000E+00 0. -1.
         21   -1    0    0  502  503 -0.00000000000E+00 -0.00000000000E+00 -0.37943509020E+03  0.37943509020E+03  0.00000000000E+00 0. -1.
         -6    2    1    2    0  503  0.33381692870E+02  0.52492433431E+02 -0.22764721491E+03  0.29174704679E+03  0.17153218901E+03 0.  0.
        -24    2    3    3    0    0  0.46611624377E+02 -0.26065318443E+02 -0.16012427749E+03  0.18721098342E+03  0.80969893903E+02 0.  0.
          6    2    1    2  501    0 -0.33381692870E+02 -0.52492433431E+02 -0.47109925285E+02  0.19236599342E+03  0.17582814729E+03 0.  0.
         24    2    5    5    0    0  0.23549190727E+02 -0.69204743569E+02  0.10630682947E+02  0.10944136104E+03  0.80749855535E+02 0.  0.
          5    1    5    5  501    0 -0.56930883597E+02  0.16712310137E+02 -0.57740608232E+02  0.82924632385E+02  0.47000000000E+01 0. -1.
        -13    1    6    6    0    0  0.26123270390E+02 -0.86448765485E+01 -0.26628141792E+02  0.38291214158E+02  0.00000000000E+00 0.  1.
         14    1    6    6    0    0 -0.25740796630E+01 -0.60559867020E+02  0.37258824740E+02  0.71150146877E+02  0.00000000000E+00 0. -1.
         -5    1    3    3    0  503 -0.13229931507E+02  0.78557751874E+02 -0.67522937426E+02  0.10453606337E+03  0.47000000000E+01 0.  1.
         13    1    4    4    0    0 -0.40687467894E+01  0.21409660841E+02 -0.70742645088E+02  0.74023307896E+02  0.00000000000E+00 0. -1.
        -14    1    4    4    0    0  0.50680371167E+02 -0.47474979284E+02 -0.89381632398E+02  0.11318767552E+03  0.00000000000E+00 0.  1.
</event>
<event>
12    1  0.8724767E-002  0.2037850E+03  0.7818608E-02  0.1146713E+00
         21   -1    0    0  503  502  0.00000000000E+00  0.00000000000E+00  0.16024926200E+04  0.16024926200E+04  0.00000000000E+00 0. -1.
         21   -1    0    0  501  503 -0.00000000000E+00 -0.00000000000E+00 -0.30882540325E+02  0.30882540325E+02  0.00000000000E+00 0. -1.
          6    2    1    2  501    0 -0.10517197461E+03  0.31850681426E+02  0.45665374585E+03  0.50006096929E+03  0.17161794563E+03 0.  0.
         24    2    3    3    0    0 -0.20910003525E+02  0.69682621331E+02  0.29105021799E+03  0.31038241519E+03  0.79587174236E+02 0.  0.
         -6    2    1    2    0  502  0.10517197461E+03 -0.31850681426E+02  0.11149563338E+04  0.11333141910E+04  0.17087369341E+03 0.  0.
        -24    2    5    5    0    0  0.12611230165E+03  0.10849927733E+02  0.73505660239E+03  0.75042029546E+03  0.82464401796E+02 0.  0.
          5    1    3    3  501    0 -0.84261971088E+02 -0.37831939905E+02  0.16560352786E+03  0.18967855410E+03  0.47000000000E+01 0. -1.
        -11    1    4    4    0    0  0.14354477118E+02  0.13659125827E+02  0.18008160922E+03  0.18116845396E+03  0.00000000000E+00 0.  1.
         12    1    4    4    0    0 -0.35264480643E+02  0.56023495504E+02  0.11096860877E+03  0.12921396123E+03  0.00000000000E+00 0. -1.
         -5    1    5    5    0  502 -0.20940327038E+02 -0.42700609159E+02  0.37989973141E+03  0.38289389554E+03  0.47000000000E+01 0.  1.
         11    1    6    6    0    0  0.99795197783E+02 -0.26272078203E+02  0.56687675229E+03  0.57619315848E+03  0.00000000000E+00 0. -1.
        -12    1    6    6    0    0  0.26317103868E+02  0.37122005936E+02  0.16817985011E+03  0.17422713699E+03  0.00000000000E+00 0.  1.
</event>
<event>
12    1  0.8724767E-002  0.1805581E+03  0.7818608E-02  0.1167345E+00
         21   -1    0    0  503  502  0.00000000000E+00  0.00000000000E+00  0.43748030311E+02  0.43748030311E+02  0.00000000000E+00 0.  1.
         21   -1    0    0  501  503 -0.00000000000E+00 -0.00000000000E+00 -0.82381776136E+03  0.82381776136E+03  0.00000000000E+00 0.  1.
          6    2    1    2  501    0  0.33945580287E+02 -0.40863932483E+02 -0.25519232910E+03  0.31260893448E+03  0.17256609658E+03 0.  0.
         24    2    3    3    0    0 -0.23876715725E+02  0.30257761279E+02 -0.14427410606E+03  0.16864138452E+03  0.78353488896E+02 0.  0.
         -6    2    1    2    0  502 -0.33945580287E+02  0.40863932483E+02 -0.52487740195E+03  0.55495685719E+03  0.17221690644E+03 0.  0.
        -24    2    5    5    0    0  0.49065388603E+02  0.20996085843E+02 -0.25538655227E+03  0.27223268004E+03  0.77718035350E+02 0.  0.
          5    1    3    3  501    0  0.57822296012E+02 -0.71121693762E+02 -0.11091822303E+03  0.14396754996E+03  0.47000000000E+01 0. -1.
        -11    1    4    4    0    0 -0.13996705695E+02  0.42223352829E+02 -0.14637276914E+03  0.15298270112E+03  0.00000000000E+00 0.  1.
         12    1    4    4    0    0 -0.98800100303E+01 -0.11965591549E+02  0.20986630793E+01  0.15658683407E+02  0.00000000000E+00 0. -1.
         -5    1    5    5    0  502 -0.83010968890E+02  0.19867846639E+02 -0.26949084968E+03  0.28272417716E+03  0.47000000000E+01 0.  1.
         11    1    6    6    0    0  0.64374850541E+01  0.44849589733E+02 -0.12978858035E+03  0.13747000583E+03  0.00000000000E+00 0. -1.
        -12    1    6    6    0    0  0.42627903549E+02 -0.23853503890E+02 -0.12559797192E+03  0.13476267421E+03  0.00000000000E+00 0.  1.
</event>
<event>
12    1  0.8724767E-002  0.1884303E+03  0.7818608E-02  0.1159905E+00
         21   -1    0    0  503  502  0.00000000000E+00  0.00000000000E+00  0.39218351001E+03  0.39218351001E+03  0.00000000000E+00 0.  1.
         21   -1    0    0  501  503 -0.00000000000E+00 -0.00000000000E+00 -0.11511897205E+04  0.11511897205E+04  0.00000000000E+00 0.  1.
          6    2    1    2  501    0 -0.58865377917E+02  0.50625073233E+02 -0.11202460249E+04  0.11359828885E+04  0.17169139719E+03 0.  0.
         24    2    3    3    0    0 -0.73360983992E+02  0.89910948613E+02 -0.96027772536E+03  0.97055783156E+03  0.79896069583E+02 0.  0.
         -6    2    1    2    0  502  0.58865377917E+02 -0.50625073233E+02  0.36123981440E+03  0.40739034202E+03  0.17159445359E+03 0.  0.
        -24    2    5    5    0    0  0.83377133361E+02  0.71782041958E+01  0.15973302572E+03  0.19627634219E+03  0.77501548479E+02 0.  0.
          5    1    3    3  501    0  0.14495606075E+02 -0.39285875380E+02 -0.15996829959E+03  0.16542505697E+03  0.47000000000E+01 0. -1.
        -11    1    4    4    0    0 -0.45033810446E+02  0.88331811628E+02 -0.87685383423E+03  0.88244161259E+03  0.00000000000E+00 0.  1.
         12    1    4    4    0    0 -0.28327173546E+02  0.15791369850E+01 -0.83423891124E+02  0.88116218966E+02  0.00000000000E+00 0. -1.
         -5    1    5    5    0  502 -0.24511755445E+02 -0.57803277429E+02  0.20150678869E+03  0.21111399983E+03  0.47000000000E+01 0.  1.
         13    1    6    6    0    0  0.23036481436E+02  0.12544807645E+02  0.85908351581E+00  0.26244803301E+02  0.00000000000E+00 0. -1.
        -14    1    6    6    0    0  0.60340651925E+02 -0.53666034496E+01  0.15887394220E+03  0.17003153889E+03  0.00000000000E+00 0.  1.
</event>
<event>
12    1  0.8724767E-002  0.1974020E+03  0.7818608E-02  0.1152504E+00
         21   -1    0    0  501  502  0.00000000000E+00  0.00000000000E+00  0.66007701803E+02  0.66007701803E+02  0.00000000000E+00 0. -1.
         21   -1    0    0  502  503 -0.00000000000E+00 -0.00000000000E+00 -0.59989300839E+03  0.59989300839E+03  0.00000000000E+00 0. -1.
         -6    2    1    2    0  503 -0.90521658883E+02 -0.30791325820E+02 -0.32160397967E+03  0.37601985538E+03  0.16976317455E+03 0.  0.
        -24    2    3    3    0    0 -0.11909903713E+03  0.55583454333E+01 -0.27706312892E+03  0.31164639398E+03  0.78383809712E+02 0.  0.
          6    2    1    2  501    0  0.90521658883E+02  0.30791325820E+02 -0.21228132692E+03  0.28988085481E+03  0.17269994717E+03 0.  0.
         24    2    5    5    0    0 -0.92523072009E+01  0.26660021124E+02 -0.53711081777E+02  0.10242812842E+03  0.82524416210E+02 0.  0.
          5    1    5    5  501    0  0.99773966084E+02  0.41313046962E+01 -0.15857024514E+03  0.18745272639E+03  0.47000000000E+01 0. -1.
        -11    1    6    6    0    0  0.17310128557E+02  0.49281770240E+02 -0.34503640659E+02  0.62600596222E+02  0.00000000000E+00 0.  1.
         12    1    6    6    0    0 -0.26562435758E+02 -0.22621749117E+02 -0.19207441118E+02  0.39827532196E+02  0.00000000000E+00 0. -1.
         -5    1    3    3    0  503  0.28577378247E+02 -0.36349671253E+02 -0.44540850746E+02  0.64373461402E+02  0.47000000000E+01 0.  1.
         13    1    4    4    0    0 -0.51479585376E+02  0.32695005065E+02 -0.18152421167E+03  0.19149451817E+03  0.00000000000E+00 0. -1.
        -14    1    4    4    0    0 -0.67619451755E+02 -0.27136659631E+02 -0.95538917248E+02  0.12015187581E+03  0.00000000000E+00 0.  1.
</event>
<event>
12    1  0.8724767E-002  0.2182878E+03  0.7818608E-02  0.1135208E+00
         21   -1    0    0  501  502  0.00000000000E+00  0.00000000000E+00  0.53071852776E+03  0.53071852776E+03  0.00000000000E+00 0.  1.
         21   -1    0    0  502  503 -0.00000000000E+00 -0.00000000000E+00 -0.15321702011E+03  0.15321702011E+03  0.00000000000E+00 0.  1.
         -6    2    1    2    0  503 -0.13334383562E+03  0.15002423384E+02 -0.31499429136E+02  0.22032869005E+03  0.17189201965E+03 0.  0.
        -24    2    3    3    0    0 -0.24510068679E+02 -0.28388152702E+02  0.24590589425E+02  0.90345186862E+02  0.78427833200E+02 0.  0.
          6    2    1    2  501    0  0.13334383562E+03 -0.15002423384E+02  0.40900093679E+03  0.46360685782E+03  0.17217404312E+03 0.  0.
         24    2    5    5    0    0  0.31526755754E+02  0.43942676237E+02  0.21943819456E+03  0.24045362401E+03  0.82097070249E+02 0.  0.
          5    1    5    5  501    0  0.10181707986E+03 -0.58945099621E+02  0.18956274223E+03  0.22315323382E+03  0.47000000000E+01 0. -1.
        -11    1    6    6    0    0  0.65610561681E+01 -0.13735702669E+02  0.13142550491E+03  0.13230412059E+03  0.00000000000E+00 0.  1.
         12    1    6    6    0    0  0.24965699585E+02  0.57678378906E+02  0.88012689657E+02  0.10814950342E+03  0.00000000000E+00 0. -1.
         -5    1    3    3    0  503 -0.10883376694E+03  0.43390576086E+02 -0.56090018561E+02  0.12998350319E+03  0.47000000000E+01 0.  1.
         11    1    4    4    0    0  0.19276769423E+02  0.10853836040E+02  0.22434927766E+02  0.31507547985E+02  0.00000000000E+00 0. -1.
        -12    1    4    4    0    0 -0.43786838102E+02 -0.39241988742E+02  0.21556616591E+01  0.58837638877E+02  0.00000000000E+00 0.  1.
</event>
<event>
12    1  0.8724767E-002  0.2247475E+03  0.7818608E-02  0.1130446E+00
         21   -1    0    0  501  502  0.00000000000E+00  0.00000000000E+00  0.35559129388E+03  0.35559129388E+03  0.00000000000E+00 0. -1.
         21   -1    0    0  502  503 -0.00000000000E+00 -0.00000000000E+00 -0.14441844949E+03  0.14441844949E+03  0.00000000000E+00 0. -1.
         -6    2    1    2    0  503  0.11306500223E+03  0.88474585068E+02  0.72263386801E+02  0.23579910868E+03  0.17253340445E+03 0.  0.
        -24    2    3    3    0    0  0.94476118781E+01 -0.52743009296E+01  0.54505953274E+01  0.80842804151E+02  0.79929809039E+02 0.  0.
          6    2    1    2  501    0 -0.11306500223E+03 -0.88474585068E+02  0.13890945759E+03  0.26421063469E+03  0.17291609278E+03 0.  0.
         24    2    5    5    0    0 -0.86132891129E+02 -0.27990678465E+02  0.15551998252E+03  0.19578811570E+03  0.77098432336E+02 0.  0.
          5    1    5    5  501    0 -0.26932111099E+02 -0.60483906603E+02 -0.16610524937E+02  0.68422518989E+02  0.47000000000E+01 0. -1.
        -13    1    6    6    0    0  0.12618078664E+02  0.39926194356E+01  0.81901758680E+01  0.15563929448E+02  0.00000000000E+00 0.  1.
         14    1    6    6    0    0 -0.98750969793E+02 -0.31983297901E+02  0.14732980666E+03  0.18022418625E+03  0.00000000000E+00 0. -1.
         -5    1    3    3    0  503  0.10361739035E+03  0.93748885997E+02  0.66812791474E+02  0.15495630453E+03  0.47000000000E+01 0.  1.
         11    1    4    4    0    0  0.34366666576E+02 -0.29934775176E+02  0.20929113477E+01  0.45623884252E+02  0.00000000000E+00 0. -1.
        -12    1    4    4    0    0 -0.24919054698E+02  0.24660474246E+02  0.33576839798E+01  0.35218919898E+02  0.00000000000E+00 0.  1.
</event>
<event>
12    1  0.8724767E-002  0.2371352E+03  0.7818608E-02  0.1122027E+00
         21   -1    0    0  503  502  0.00000000000E+00  0.00000000000E+00  0.19537220125E+04  0.19537220125E+04  0.00000000000E+00 0.  1.
         21   -1    0    0  501  503 -0.00000000000E+00 -0.00000000000E+00 -0.30649180661E+02  0.30649180661E+02  0.00000000000E+00 0. -1.
          6    2    1    2  501    0  0.12511397261E+03 -0.10372642297E+03  0.70601824080E+03  0.74477840606E+03  0.17268596014E+03 0.  0.
         24    2    3    3    0    0  0.37506779899E+02 -0.91922392053E+01  0.42521359201E+03  0.43577181568E+03  0.87173509249E+02 0.  0.
         -6    2    1    2    0  502 -0.12511397261E+03  0.10372642297E+03  0.12170545910E+04  0.12395927871E+04  0.17016381313E+03 0.  0.
        -24    2    5    5    0    0 -0.75250309339E+01  0.34772906229E+01  0.41723059392E+03  0.42496553239E+03  0.80284603636E+02 0.  0.
          5    1    3    3  501    0  0.87607192710E+02 -0.94534183760E+02  0.28080464879E+03  0.30900659037E+03  0.47000000000E+01 0. -1.
        -11    1    4    4    0    0  0.39627323900E+02  0.31824600706E+02  0.17580829644E+03  0.18300734167E+03  0.00000000000E+00 0.  1.
         12    1    4    4    0    0 -0.21205440012E+01 -0.41016839911E+02  0.24940529557E+03  0.25276447401E+03  0.00000000000E+00 0. -1.
         -5    1    5    5    0  502 -0.11758894167E+03  0.10024913234E+03  0.79982399708E+03  0.81462725466E+03  0.47000000000E+01 0.  1.
         13    1    6    6    0    0 -0.10135516628E+02 -0.36675219523E+02  0.15146515283E+03  0.15617135764E+03  0.00000000000E+00 0. -1.
        -14    1    6    6    0    0  0.26104856941E+01  0.40152510146E+02  0.26576544108E+03  0.26879417475E+03  0.00000000000E+00 0.  1.
</event>
<event>
12    1  0.8724767E-002  0.1955573E+03  0.7818608E-02  0.1153645E+00
         21   -1    0    0  503  502  0.00000000000E+00  0.00000000000E+00  0.60140636754E+03  0.60140636754E+03  0.00000000000E+00 0. -1.
         21   -1    0    0  501  503 -0.00000000000E+00 -0.00000000000E+00 -0.14188061417E+03  0.14188061417E+03  0.00000000000E+00 0. -1.
          6    2    1    2  501    0  0.90056868141E+02  0.25885790745E+02 -0.46703203491E+02  0.20059885511E+03  0.17110931533E+03 0.  0.
         24    2    3    3    0    0  0.84078425535E+02  0.64898633632E+02 -0.74463820289E+02  0.15211704893E+03  0.79458931243E+02 0.  0.
         -6    2    1    2    0  502 -0.90056868141E+02 -0.25885790745E+02  0.50622895686E+03  0.54268812660E+03  0.17164595051E+03 0.  0.
        -24    2    5    5    0    0 -0.62834883846E+02 -0.80698188720E+02  0.29511378342E+03  0.32283103243E+03  0.81653597862E+02 0.  0.
          5    1    3    3  501    0  0.59784426061E+01 -0.39012842887E+02  0.27760616798E+02  0.48481806187E+02  0.47000000000E+01 0. -1.
        -11    1    4    4    0    0  0.21014828252E+02  0.63472627217E+02 -0.22997690791E+02  0.70705665926E+02  0.00000000000E+00 0.  1.
         12    1    4    4    0    0  0.63063597283E+02  0.14260064152E+01 -0.51466129498E+02  0.81411383001E+02  0.00000000000E+00 0. -1.
         -5    1    5    5    0  502 -0.27221984294E+02  0.54812397975E+02  0.21111517344E+03  0.21985709417E+03  0.47000000000E+01 0.  1.
         11    1    6    6    0    0 -0.52582246548E+01 -0.67004075808E+02  0.19809151357E+03  0.20918279769E+03  0.00000000000E+00 0. -1.
        -12    1    6    6    0    0 -0.57576659192E+02 -0.13694112912E+02  0.97022269850E+02  0.11364823474E+03  0.00000000000E+00 0.  1.
</event>
<event>
12    1  0.8724767E-002  0.2063830E+03  0.7818608E-02  0.1144694E+00
         21   -1    0    0  501  502  0.00000000000E+00  0.00000000000E+00  0.50700132314E+02  0.50700132314E+02  0.00000000000E+00 0. -1.
         21   -1    0    0  502  503 -0.00000000000E+00 -0.00000000000E+00 -0.10559758326E+04  0.10559758326E+04  0.00000000000E+00 0.  1.
         -6    2    1    2    0  503 -0.87873451424E+02 -0.68085385709E+02 -0.75438347200E+03  0.78180543133E+03  0.17253389933E+03 0.  0.
        -24    2    3    3    0    0 -0.10293549025E+03 -0.88220942129E+01 -0.36495566693E+03  0.38757820231E+03  0.79691151255E+02 0.  0.
          6    2    1    2  501    0  0.87873451424E+02  0.68085385709E+02 -0.25089222825E+03  0.32487053354E+03  0.17388671645E+03 0.  0.
         24    2    5    5    0    0  0.30118769181E+02  0.64776125973E+02 -0.57275872604E+02  0.12274201578E+03  0.81743440731E+02 0.  0.
          5    1    5    5  501    0  0.57754682242E+02  0.33092597363E+01 -0.19361635564E+03  0.20212851776E+03  0.47000000000E+01 0. -1.
        -13    1    6    6    0    0  0.40333696128E+01  0.16863189753E+02 -0.65334773130E+02  0.67596359510E+02  0.00000000000E+00 0.  1.
         14    1    6    6    0    0  0.26085399569E+02  0.47912936220E+02  0.80589005263E+01  0.55145656271E+02  0.00000000000E+00 0. -1.
         -5    1    3    3    0  503  0.15062038828E+02 -0.59263291496E+02 -0.38942780507E+03  0.39422722901E+03  0.47000000000E+01 0.  1.
         13    1    4    4    0    0 -0.94305280305E+02  0.14142483284E+02 -0.20928529415E+03  0.22998658673E+03  0.00000000000E+00 0. -1.
        -14    1    4    4    0    0 -0.86302099467E+01 -0.22964577497E+02 -0.15567037277E+03  0.15759161559E+03  0.00000000000E+00 0.  1.
</event>
<event>
12    1  0.8724767E-002  0.2817229E+03  0.7818608E-02  0.1095004E+00
         21   -1    0    0  501  502  0.00000000000E+00  0.00000000000E+00  0.12814171020E+04  0.12814171020E+04  0.00000000000E+00 0.  1.
         21   -1    0    0  502  503 -0.00000000000E+00 -0.00000000000E+00 -0.19728161161E+03  0.19728161161E+03  0.00000000000E+00 0.  1.
         -6    2    1    2    0  503  0.13243226392E+02 -0.22338501363E+03 -0.70681188926E+02  0.29045418546E+03  0.17114776079E+03 0.  0.
        -24    2    3    3    0    0 -0.60383963086E+02 -0.12041273923E+03 -0.16819403298E+02  0.15280450592E+03  0.70148941091E+02 0.  0.
          6    2    1    2  501    0 -0.13243226392E+02  0.22338501363E+03  0.11548166793E+04  0.11882445281E+04  0.16806917763E+03 0.  0.
         24    2    5    5    0    0 -0.54764476767E+02  0.21201887395E+03  0.10362231651E+04  0.10619919441E+04  0.78213110196E+02 0.  0.
          5    1    5    5  501    0  0.41521250375E+02  0.11366139680E+02  0.11859351419E+03  0.12625258403E+03  0.47000000000E+01 0. -1.
        -13    1    6    6    0    0 -0.42963339839E+02  0.46805717381E+02  0.37468039765E+03  0.38002897802E+03  0.00000000000E+00 0.  1.
         14    1    6    6    0    0 -0.11801136928E+02  0.16521315657E+03  0.66154276747E+03  0.68196296610E+03  0.00000000000E+00 0. -1.
         -5    1    3    3    0  503  0.73627189478E+02 -0.10297227440E+03 -0.53861785628E+02  0.13764967954E+03  0.47000000000E+01 0.  1.
         11    1    4    4    0    0 -0.35993636435E+02 -0.24347867733E+02 -0.30020279668E+02  0.52816453102E+02  0.00000000000E+00 0. -1.
        -12    1    4    4    0    0 -0.24390326650E+02 -0.96064871497E+02  0.13200876370E+02  0.99988052820E+02  0.00000000000E+00 0.  1.
</event>
<event>
12    1  0.8724767E-002  0.2343325E+03  0.7818608E-02  0.1124245E+00
         21   -1    0    0  503  502  0.00000000000E+00  0.00000000000E+00  0.89177871319E+02  0.89177871319E+02  0.00000000000E+00 0.  1.
         21   -1    0    0  501  503 -0.00000000000E+00 -0.00000000000E+00 -0.76974957798E+03  0.76974957798E+03  0.00000000000E+00 0.  1.
          6    2    1    2  501    0  0.19611241188E+02 -0.15356433659E+03 -0.54016822189E+03  0.58880679564E+03  0.17591227475E+03 0.  0.
         24    2    3    3    0    0  0.17545824172E+02 -0.17967458636E+03 -0.39928892823E+03  0.44543637864E+03  0.79944394930E+02 0.  0.
         -6    2    1    2    0  502 -0.19611241188E+02  0.15356433659E+03 -0.14040348478E+03  0.27012065366E+03  0.17112984176E+03 0.  0.
        -24    2    5    5    0    0 -0.48216326837E+02  0.26841057304E+02 -0.37604179675E+02  0.10438946297E+03  0.80236083648E+02 0.  0.
          5    1    3    3  501    0  0.20654170160E+01  0.26110249768E+02 -0.14087929365E+03  0.14337041700E+03  0.47000000000E+01 0. -1.
        -13    1    4    4    0    0 -0.17587457754E+02 -0.10450797156E+03 -0.28607061688E+03  0.30506988156E+03  0.00000000000E+00 0.  1.
         14    1    4    4    0    0  0.35133281926E+02 -0.75166614800E+02 -0.11321831135E+03  0.14036649709E+03  0.00000000000E+00 0. -1.
         -5    1    5    5    0  502  0.28605085649E+02  0.12672327928E+03 -0.10279930510E+03  0.16573119069E+03  0.47000000000E+01 0.  1.
         13    1    6    6    0    0 -0.69090894011E+02  0.26930174343E+02 -0.19295206060E+02  0.76623044198E+02  0.00000000000E+00 0. -1.
        -14    1    6    6    0    0  0.20874567174E+02 -0.89117039193E-01 -0.18308973616E+02  0.27766418771E+02  0.00000000000E+00 0.  1.
</event>
<event>
12    1  0.8724767E-002  0.2059397E+03  0.7818608E-02  0.1144886E+00
         21   -1    0    0  501  502  0.00000000000E+00  0.00000000000E+00  0.19761806106E+03  0.19761806106E+03  0.00000000000E+00 0. -1.
         21   -1    0    0  502  503 -0.00000000000E+00 -0.00000000000E+00 -0.26308210459E+03  0.26308210459E+03  0.00000000000E+00 0. -1.
         -6    2    1    2    0  503  0.22470994993E+02  0.11015353903E+03 -0.13191914001E+03  0.24430371671E+03  0.17217113208E+03 0.  0.
        -24    2    3    3    0    0 -0.53787158044E+02  0.74393877726E+02 -0.69493549209E+02  0.13936038120E+03  0.78514043668E+02 0.  0.
          6    2    1    2  501    0 -0.22470994993E+02 -0.11015353903E+03  0.66455096474E+02  0.21639644894E+03  0.17254679217E+03 0.  0.
         24    2    5    5    0    0 -0.44245914056E+02 -0.24004318985E+02 -0.13376199488E+02  0.96851641315E+02  0.81654206701E+02 0.  0.
          5    1    5    5  501    0  0.21774919063E+02 -0.86149220048E+02  0.79831295961E+02  0.11954480762E+03  0.47000000000E+01 0. -1.
        -13    1    6    6    0    0 -0.41437158147E+02 -0.40847454785E+02 -0.36064270637E+02  0.68455710166E+02  0.00000000000E+00 0.  1.
         14    1    6    6    0    0 -0.28087559091E+01  0.16843135800E+02  0.22688071150E+02  0.28395931149E+02  0.00000000000E+00 0. -1.
         -5    1    3    3    0  503  0.76258153037E+02  0.35759661307E+02 -0.62425590797E+02  0.10494333551E+03  0.47000000000E+01 0.  1.
         13    1    4    4    0    0  0.80793789430E+00  0.21205332524E+02  0.14681109199E+02  0.25804144210E+02  0.00000000000E+00 0. -1.
        -14    1    4    4    0    0 -0.54595095938E+02  0.53188545202E+02 -0.84174658409E+02  0.11355623699E+03  0.00000000000E+00 0.  1.
</event>
<event>
12    1  0.8724767E-002  0.2387225E+03  0.7818608E-02  0.1121095E+00
         21   -1    0    0  503  502  0.00000000000E+00  0.00000000000E+00  0.98909091268E+02  0.98909091268E+02  0.00000000000E+00 0.  1.
         21   -1    0    0  501  503 -0.00000000000E+00 -0.00000000000E+00 -0.64269437928E+03  0.64269437928E+03  0.00000000000E+00 0. -1.
          6    2    1    2  501    0 -0.24847711115E+02  0.15992717610E+03 -0.39544421047E+03  0.46054565934E+03  0.17184897537E+03 0.  0.
         24    2    3    3    0    0  0.16611917124E+01  0.20652764346E+02 -0.21270480768E+03  0.22921070082E+03  0.82854776130E+02 0.  0.
         -6    2    1    2    0  502  0.24847711115E+02 -0.15992717610E+03 -0.14834107754E+03  0.28105781121E+03  0.17548306913E+03 0.  0.
        -24    2    5    5    0    0  0.52185616584E+02 -0.46249640407E+02 -0.11299636708E+03  0.15882327536E+03  0.87145200702E+02 0.  0.
          5    1    3    3  501    0 -0.26508902827E+02  0.13927441176E+03 -0.18273940279E+03  0.23133495852E+03  0.47000000000E+01 0. -1.
        -13    1    4    4    0    0  0.40734759213E+02  0.35863950071E+01 -0.80344065089E+02  0.90151825452E+02  0.00000000000E+00 0.  1.
         14    1    4    4    0    0 -0.39073567500E+02  0.17066369339E+02 -0.13236074259E+03  0.13905887537E+03  0.00000000000E+00 0. -1.
         -5    1    5    5    0  502 -0.27337905470E+02 -0.11367753570E+03 -0.35344710461E+02  0.12223453585E+03  0.47000000000E+01 0.  1.
         11    1    6    6    0    0  0.32748118364E+02 -0.67055332729E+02 -0.10577409245E+03  0.12944889160E+03  0.00000000000E+00 0. -1.
        -12    1    6    6    0    0  0.19437498220E+02  0.20805692322E+02 -0.72222746321E+01  0.29374383754E+02  0.00000000000E+00 0.  1.
</event>
<event>
12    1  0.8724767E-002  0.1795464E+03  0.7818608E-02  0.1168582E+00
         21   -1    0    0  503  502  0.00000000000E+00  0.00000000000E+00  0.71882265727E+02  0.71882265727E+02  0.00000000000E+00 0. -1.
         21   -1    0    0  501  503 -0.00000000000E+00 -0.00000000000E+00 -0.44518840058E+03  0.44518840058E+03  0.00000000000E+00 0. -1.
          6    2    1    2  501    0  0.24029973763E+02 -0.44425176378E+02 -0.18206537512E+03  0.25570434988E+03  0.17229590184E+03 0.  0.
         24    2    3    3    0    0  0.35105262352E+01  0.39688623601E+02 -0.69408832021E+02  0.11354329411E+03  0.80541809245E+02 0.  0.
         -6    2    1    2    0  502 -0.24029973763E+02  0.44425176378E+02 -0.19124075973E+03  0.26136631642E+03  0.17084579961E+03 0.  0.
        -24    2    5    5    0    0 -0.46830785887E+02 -0.26072964177E+02 -0.14453183269E+03  0.17365269878E+03  0.79955532431E+02 0.  0.
          5    1    3    3  501    0  0.20519447528E+02 -0.84113799979E+02 -0.11265654310E+03  0.14216105577E+03  0.47000000000E+01 0. -1.
        -13    1    4    4    0    0 -0.26008730606E+02  0.51556406991E+00  0.28923084596E+01  0.26174134605E+02  0.00000000000E+00 0.  1.
         14    1    4    4    0    0  0.29519256842E+02  0.39173059531E+02 -0.72301140481E+02  0.87369159503E+02  0.00000000000E+00 0. -1.
         -5    1    5    5    0  502  0.22800812124E+02  0.70498140554E+02 -0.46708927039E+02  0.87713617644E+02  0.47000000000E+01 0.  1.
         11    1    6    6    0    0 -0.12530833424E+02  0.26424010886E+02 -0.24191209283E+02  0.37953454970E+02  0.00000000000E+00 0. -1.
        -12    1    6    6    0    0 -0.34299952463E+02 -0.52496975062E+02 -0.12034062340E+03  0.13569924381E+03  0.00000000000E+00 0.  1.
</event>
<event>
12    1  0.8724767E-002  0.2083918E+03  0.7818608E-02  0.1143092E+00
         21   -1    0    0  503  502  0.00000000000E+00  0.00000000000E+00  0.35507391134E+02  0.35507391134E+02  0.00000000000E+00 0.  1.
         21   -1    0    0  501  503 -0.00000000000E+00 -0.00000000000E+00 -0.12171046390E+04  0.12171046390E+04  0.00000000000E+00 0.  1.
          6    2    1    2  501    0 -0.11567057984E+03  0.21934233625E+02 -0.61273692990E+03  0.64720453137E+03  0.17194873223E+03 0.  0.
         24    2    3    3    0    0 -0.11472472966E+03  0.66195971198E+02 -0.38951494212E+03  0.41958611851E+03  0.82382950355E+02 0.  0.
         -6    2    1    2    0  502  0.11567057984E+03 -0.21934233625E+02 -0.56886031798E+03  0.60540749878E+03  0.17045640076E+03 0.  0.
        -24    2    5    5    0    0  0.11538505020E+03 -0.49336055613E+02 -0.30901054447E+03  0.34407450015E+03  0.84569432249E+02 0.  0.
          5    1    3    3  501    0 -0.94585017996E+00 -0.44261737574E+02 -0.22322198777E+03  0.22761841286E+03  0.47000000000E+01 0. -1.
        -13    1    4    4    0    0  0.54466165304E+01  0.26802711334E+02 -0.45806820759E+02  0.53350874356E+02  0.00000000000E+00 0.  1.
         14    1    4    4    0    0 -0.12017134619E+03  0.39393259865E+02 -0.34370812136E+03  0.36623524415E+03  0.00000000000E+00 0. -1.
         -5    1    5    5    0  502  0.28552963405E+00  0.27401821988E+02 -0.25984977352E+03  0.26133299863E+03  0.47000000000E+01 0.  1.
         13    1    6    6    0    0  0.16406472448E+02 -0.13516991743E+02 -0.42901506781E+01  0.21686096855E+02  0.00000000000E+00 0. -1.
        -14    1    6    6    0    0  0.98978577756E+02 -0.35819063869E+02 -0.30472039379E+03  0.32238840330E+03  0.00000000000E+00 0.  1.
</event>
<event>
12    1  0.8724767E-002  0.2466311E+03  0.7818608E-02  0.1115756E+00
         21   -1    0    0  503  502  0.00000000000E+00  0.00000000000E+00  0.25886039015E+03  0.25886039015E+03  0.00000000000E+00 0. -1.
         21   -1    0    0  501  503 -0.00000000000E+00 -0.00000000000E+00 -0.26579623969E+03  0.26579623969E+03  0.00000000000E+00 0. -1.
          6    2    1    2  501    0 -0.12837569794E+03  0.11794939267E+03 -0.95331134200E+02  0.26266309853E+03  0.17178911236E+03 0.  0.
         24    2    3    3    0    0 -0.11102899117E+03  0.14581287460E+03 -0.50919002534E+02  0.20723919304E+03  0.82258780874E+02 0.  0.
         -6    2    1    2    0  502  0.12837569794E+03 -0.11794939267E+03  0.88395284652E+02  0.26199353131E+03  0.17445487968E+03 0.  0.
        -24    2    5    5    0    0  0.12131687523E+03 -0.82386597576E+02  0.26121754224E+00  0.16657737357E+03  0.79010236509E+02 0.  0.
          5    1    3    3  501    0 -0.17346706774E+02 -0.27863481927E+02 -0.44412131665E+02  0.55423905493E+02  0.47000000000E+01 0. -1.
        -11    1    4    4    0    0 -0.11779489968E+03  0.14582460237E+03 -0.59164704165E+02  0.19657292608E+03  0.00000000000E+00 0.  1.
         12    1    4    4    0    0  0.67659085076E+01 -0.11727770148E-01  0.82457016307E+01  0.10666266960E+02  0.00000000000E+00 0. -1.
         -5    1    5    5    0  502  0.70588227107E+01 -0.35562795098E+02  0.88134067110E+02  0.95416157743E+02  0.47000000000E+01 0.  1.
         13    1    6    6    0    0  0.35395816674E+02 -0.10130019995E+02 -0.33049410036E+02  0.49474686930E+02  0.00000000000E+00 0. -1.
        -14    1    6    6    0    0  0.85921058560E+02 -0.72256577582E+02  0.33310627578E+02  0.11710268664E+03  0.00000000000E+00 0.  1.
</event>
<event>
12    1  0.8724767E-002  0.2112360E+03  0.7818608E-02  0.1140776E+00
         21   -1    0    0  503  502  0.00000000000E+00  0.00000000000E+00  0.92614478424E+03  0.92614478424E+03  0.00000000000E+00 0. -1.
         21   -1    0    0  501  503 -0.00000000000E+00 -0.00000000000E+00 -0.56084471248E+02  0.56084471248E+02  0.00000000000E+00 0. -1.
          6    2    1    2  501    0 -0.46268053499E+02 -0.11304244051E+03  0.62271758830E+03  0.65756966201E+03  0.17234076562E+03 0.  0.
         24    2    3    3    0    0 -0.85147817624E+02 -0.42478721109E+02  0.29707186380E+03  0.32207286257E+03  0.80153876695E+02 0.  0.
         -6    2    1    2    0  502  0.46268053499E+02  0.11304244051E+03  0.24734272469E+03  0.32465959347E+03  0.17119025102E+03 0.  0.
        -24    2    5    5    0    0  0.41099736872E+01  0.21710213067E+02  0.19260955872E+03  0.21004419782E+03  0.80820156475E+02 0.  0.
          5    1    3    3  501    0  0.38879764125E+02 -0.70563719400E+02  0.32564572450E+03  0.33549679944E+03  0.47000000000E+01 0. -1.
        -11    1    4    4    0    0 -0.24295591946E+02  0.23805812668E+02  0.93747833031E+02  0.99727873249E+02  0.00000000000E+00 0.  1.
         12    1    4    4    0    0 -0.60852225678E+02 -0.66284533777E+02  0.20332403077E+03  0.22234498932E+03  0.00000000000E+00 0. -1.
         -5    1    5    5    0  502  0.42158079812E+02  0.91332227442E+02  0.54733165971E+02  0.11461539565E+03  0.47000000000E+01 0.  1.
         13    1    6    6    0    0  0.30643175320E+01  0.50508055329E+02  0.15235570639E+03  0.16053882697E+03  0.00000000000E+00 0. -1.
        -14    1    6    6    0    0  0.10456561552E+01 -0.28797842262E+02  0.40253852331E+02  0.49505370852E+02  0.00000000000E+00 0.  1.
</event>
<event>
12    1  0.8724767E-002  0.1910891E+03  0.7818608E-02  0.1157565E+00
         21   -1    0    0  503  502  0.00000000000E+00  0.00000000000E+00  0.25084441333E+04  0.25084441333E+04  0.00000000000E+00 0.  1.
         21   -1    0    0  501  503 -0.00000000000E+00 -0.00000000000E+00 -0.21132549424E+02  0.21132549424E+02  0.00000000000E+00 0.  1.
          6    2    1    2  501    0 -0.40922368210E+02 -0.72239112713E+02  0.53745246043E+03  0.57041228981E+03  0.17211014938E+03 0.  0.
         24    2    3    3    0    0 -0.36791778115E+02 -0.49204736374E+02  0.14175154650E+03  0.17399212439E+03  0.80031352582E+02 0.  0.
         -6    2    1    2    0  502  0.40922368210E+02  0.72239112713E+02  0.19498591234E+04  0.19591643929E+04  0.17170144886E+03 0.  0.
        -24    2    5    5    0    0 -0.20866844083E+02  0.34177778030E+02  0.15578258747E+04  0.15604430239E+04  0.80977956126E+02 0.  0.
          5    1    3    3  501    0 -0.41305900951E+01 -0.23034376339E+02  0.39570091393E+03  0.39642016542E+03  0.47000000000E+01 0. -1.
        -13    1    4    4    0    0 -0.28006416489E+02 -0.65626076189E+02  0.13746743075E+03  0.15488200592E+03  0.00000000000E+00 0.  1.
         14    1    4    4    0    0 -0.87853616262E+01  0.16421339815E+02  0.42841157497E+01  0.19110118471E+02  0.00000000000E+00 0. -1.
         -5    1    5    5    0  502  0.61789212293E+02  0.38061334683E+02  0.39203324873E+03  0.39872136896E+03  0.47000000000E+01 0.  1.
         13    1    6    6    0    0 -0.36487530081E+02 -0.87956329303E+01  0.41226057578E+03  0.41396556059E+03  0.00000000000E+00 0. -1.
        -14    1    6    6    0    0  0.15620685998E+02  0.42973410961E+02  0.11455652989E+04  0.11464774633E+04  0.00000000000E+00 0.  1.
</event>
<event>
12    1  0.8724767E-002  0.1982581E+03  0.7818608E-02  0.1151754E+00
         21   -1    0    0  501  502  0.00000000000E+00  0.00000000000E+00  0.30654944687E+03  0.30654944687E+03  0.00000000000E+00 0. -1.
         21   -1    0    0  502  503 -0.00000000000E+00 -0.00000000000E+00 -0.13999488151E+03  0.13999488151E+03  0.00000000000E+00 0. -1.
         -6    2    1    2    0  503 -0.95635858413E+02 -0.19820683590E+02  0.15183295837E+03  0.24774040280E+03  0.16965548331E+03 0.  0.
        -24    2    3    3    0    0 -0.76404660416E+00 -0.11905396511E+02  0.17646503118E+02  0.83145727245E+02  0.80370956530E+02 0.  0.
          6    2    1    2  501    0  0.95635858413E+02  0.19820683590E+02  0.14721606986E+02  0.19880392558E+03  0.17253173099E+03 0.  0.
         24    2    5    5    0    0  0.81308085179E+01  0.63316239719E+02 -0.45371927646E+01  0.99094404827E+02  0.75657509149E+02 0.  0.
          5    1    5    5  501    0  0.87505049896E+02 -0.43495556129E+02  0.19258799750E+02  0.99709520749E+02  0.47000000000E+01 0. -1.
        -13    1    6    6    0    0  0.31094647385E+01  0.42420763193E+02 -0.39505300887E+02  0.58050484227E+02  0.00000000000E+00 0.  1.
         14    1    6    6    0    0  0.50213437794E+01  0.20895476526E+02  0.34968108122E+02  0.41043920600E+02  0.00000000000E+00 0. -1.
         -5    1    3    3    0  503 -0.94871811809E+02 -0.79152870797E+01  0.13418645526E+03  0.16459467555E+03  0.47000000000E+01 0.  1.
         13    1    4    4    0    0 -0.29668328981E+02  0.88596992324E+01 -0.15398067620E+02  0.34580406323E+02  0.00000000000E+00 0. -1.
        -14    1    4    4    0    0  0.28904282377E+02 -0.20765095743E+02  0.33044570738E+02  0.48565320921E+02  0.00000000000E+00 0.  1.
</event>
<event>
12    1  0.8724767E-002  0.2426681E+03  0.7818608E-02  0.1118183E+00
         21   -1    0    0  503  502  0.00000000000E+00  0.00000000000E+00  0.16138192335E+03  0.16138192335E+03  0.00000000000E+00 0.  1.
         21   -1    0    0  501  503 -0.00000000000E+00 -0.00000000000E+00 -0.39921842555E+03  0.39921842555E+03  0.00000000000E+00 0. -1.
          6    2    1    2  501    0 -0.13317381561E+03 -0.10469224868E+03 -0.20257449913E+03  0.31538372721E+03  0.17243762813E+03 0.  0.
         24    2    3    3    0    0 -0.46217929898E+02 -0.12142364089E+03 -0.13107679140E+03  0.20147465051E+03  0.80815295218E+02 0.  0.
         -6    2    1    2    0  502  0.13317381561E+03  0.10469224868E+03 -0.35262003068E+02  0.24521662169E+03  0.17375859862E+03 0.  0.
        -24    2    5    5    0    0  0.97663752715E+02  0.14351849354E+03 -0.44435898071E+02  0.19160046548E+03  0.67826416328E+02 0.  0.
          5    1    3    3  501    0 -0.86955885713E+02  0.16731392212E+02 -0.71497707727E+02  0.11390907670E+03  0.47000000000E+01 0. -1.
        -13    1    4    4    0    0 -0.20598492878E+02  0.54109284867E+01 -0.32284303807E+02  0.38676250183E+02  0.00000000000E+00 0.  1.
         14    1    4    4    0    0 -0.25619437020E+02 -0.12683456938E+03 -0.98792487592E+02  0.16279840032E+03  0.00000000000E+00 0. -1.
         -5    1    5    5    0  502  0.35510062896E+02 -0.38826244862E+02  0.91738950031E+01  0.53616156207E+02  0.47000000000E+01 0.  1.
         13    1    6    6    0    0  0.28589817606E+02  0.70537889831E+02  0.10896408104E+02  0.76887601615E+02  0.00000000000E+00 0. -1.
        -14    1    6    6    0    0  0.69073935109E+02  0.72980603711E+02 -0.55332306175E+02  0.11471286386E+03  0.00000000000E+00 0.  1.
</event>
<event>
12    1  0.8724767E-002  0.2382824E+03  0.7818608E-02  0.1121984E+00
         21   -1    0    0  503  502  0.00000000000E+00  0.00000000000E+00  0.12150086983E+04  0.12150086983E+04  0.00000000000E+00 0.  1.
         21   -1    0    0  501  503 -0.00000000000E+00 -0.00000000000E+00 -0.47736695265E+02  0.47736695265E+02  0.00000000000E+00 0.  1.
          6    2    1    2  501    0 -0.12571913148E+03  0.10494129493E+03  0.71182558035E+03  0.74873184206E+03  0.16457745616E+03 0.  0.
         24    2    3    3    0    0 -0.13445774023E+03  0.93683642407E+02  0.71071954903E+03  0.73368487132E+03  0.79471405371E+02 0.  0.
         -6    2    1    2    0  502  0.12571913148E+03 -0.10494129493E+03  0.45544642272E+03  0.51401355153E+03  0.17309105059E+03 0.  0.
        -24    2    5    5    0    0  0.13618144735E+03 -0.92714210155E+02  0.28182907331E+03  0.33958868040E+03  0.93549633491E+02 0.  0.
          5    1    3    3  501    0  0.87386087501E+01  0.11257652518E+02  0.11060313176E+01  0.15046970738E+02  0.47000000000E+01 0. -1.
        -13    1    4    4    0    0 -0.10187320384E+03  0.39832745553E+02  0.32628504338E+03  0.34413184510E+03  0.00000000000E+00 0.  1.
         14    1    4    4    0    0 -0.32584536390E+02  0.53850896854E+02  0.38443450565E+03  0.38955302622E+03  0.00000000000E+00 0. -1.
         -5    1    5    5    0  502 -0.10462315865E+02 -0.12227084770E+02  0.17361734940E+03  0.17442487113E+03  0.47000000000E+01 0.  1.
         13    1    6    6    0    0  0.20145622810E+02  0.16865653991E+02  0.20278746400E+02  0.33189214491E+02  0.00000000000E+00 0. -1.
        -14    1    6    6    0    0  0.11603582454E+03 -0.10957986415E+03  0.26155032691E+03  0.30639946591E+03  0.00000000000E+00 0.  1.
</event>
<event>
12    1  0.8724767E-002  0.1882506E+03  0.7818608E-02  0.1163252E+00
         21   -1    0    0  503  502  0.00000000000E+00  0.00000000000E+00  0.90503753304E+03  0.90503753304E+03  0.00000000000E+00 0.  1.
         21   -1    0    0  501  503 -0.00000000000E+00 -0.00000000000E+00 -0.73851453558E+02  0.73851453558E+02  0.00000000000E+00 0.  1.
          6    2    1    2  501    0 -0.52484593940E+02  0.49950462919E+02  0.74784217675E+02  0.20256097828E+03  0.17374863844E+03 0.  0.
         24    2    3    3    0    0  0.77541146884E+01 -0.32272785059E+02  0.24874621909E+02  0.88972148392E+02  0.78712371482E+02 0.  0.
         -6    2    1    2    0  502  0.52484593940E+02 -0.49950462919E+02  0.75640186181E+03  0.77632800832E+03  0.15903370275E+03 0.  0.
        -24    2    5    5    0    0  0.67028405782E+02 -0.74946921653E+02  0.45206439360E+03  0.47058345814E+03  0.83526803270E+02 0.  0.
          5    1    3    3  501    0 -0.60238708628E+02  0.82223247978E+02  0.49909595766E+02  0.11358882989E+03  0.47000000000E+01 0. -1.
        -13    1    4    4    0    0  0.39100324240E+02 -0.26164829115E+02  0.31151209437E+02  0.56425450709E+02  0.00000000000E+00 0.  1.
         14    1    4    4    0    0 -0.31346209552E+02 -0.61079559434E+01 -0.62765875281E+01  0.32546697683E+02  0.00000000000E+00 0. -1.
         -5    1    5    5    0  502 -0.14543811842E+02  0.24996458733E+02  0.30433746820E+03  0.30574455018E+03  0.47000000000E+01 0.  1.
         11    1    6    6    0    0  0.74546882817E+02 -0.27710808682E+02  0.33082026917E+03  0.34024575993E+03  0.00000000000E+00 0. -1.
        -12    1    6    6    0    0 -0.75184770352E+01 -0.47236112971E+02  0.12124412443E+03  0.13033769821E+03  0.00000000000E+00 0.  1.
</event>
<event>
12    1  0.8724767E-002  0.2223706E+03  0.7818608E-02  0.1132622E+00
         21   -1    0    0  501  502  0.00000000000E+00  0.00000000000E+00  0.64295734438E+03  0.64295734438E+03  0.00000000000E+00 0. -1.
         21   -1    0    0  502  503 -0.00000000000E+00 -0.00000000000E+00 -0.80285022798E+02  0.80285022798E+02  0.00000000000E+00 0.  1.
         -6    2    1    2    0  503  0.11361715974E+03  0.76438624979E+02  0.36339332264E+03  0.42464432037E+03  0.17180328725E+03 0.  0.
        -24    2    3    3    0    0  0.12546948301E+03  0.12918459135E+02  0.20766128904E+03  0.25597350095E+03  0.80558950279E+02 0.  0.
          6    2    1    2  501    0 -0.11361715974E+03 -0.76438624979E+02  0.19927899894E+03  0.29859804680E+03  0.17520545585E+03 0.  0.
         24    2    5    5    0    0 -0.54149133282E+02 -0.20521911183E+02  0.20229435337E+02  0.10176318892E+03  0.81198762866E+02 0.  0.
          5    1    5    5  501    0 -0.59468026459E+02 -0.55916713796E+02  0.17904956360E+03  0.19683485789E+03  0.47000000000E+01 0. -1.
        -13    1    6    6    0    0 -0.63189354149E+02  0.13395031112E+02  0.11769159255E+02  0.65656945146E+02  0.00000000000E+00 0.  1.
         14    1    6    6    0    0  0.90402208669E+01 -0.33916942295E+02  0.84602760820E+01  0.36106243772E+02  0.00000000000E+00 0. -1.
         -5    1    3    3    0  503 -0.11852323264E+02  0.63520165844E+02  0.15573203360E+03  0.16867081942E+03  0.47000000000E+01 0.  1.
         13    1    4    4    0    0  0.10498817724E+03  0.27708188288E+02  0.20309736626E+03  0.23030154416E+03  0.00000000000E+00 0. -1.
        -14    1    4    4    0    0  0.20481305764E+02 -0.14789729153E+02  0.45639227732E+01  0.25671956787E+02  0.00000000000E+00 0.  1.
</event>
<event>
12    1  0.8724767E-002  0.1822959E+03  0.7818608E-02  0.1165823E+00
         21   -1    0    0  501  502  0.00000000000E+00  0.00000000000E+00  0.14910695437E+03  0.14910695437E+03  0.00000000000E+00 0.  1.
         21   -1    0    0  502  503 -0.00000000000E+00 -0.00000000000E+00 -0.37487037059E+03  0.37487037059E+03  0.00000000000E+00 0.  1.
         -6    2    1    2    0  503 -0.63172535635E+02 -0.40182749744E+01 -0.28016185803E+03  0.33373804558E+03  0.16995146537E+03 0.  0.
        -24    2    3    3    0    0 -0.56628106934E+02  0.29693333664E+02 -0.80848111905E+02  0.13143292578E+03  0.81546061962E+02 0.  0.
          6    2    1    2  501    0  0.63172535635E+02  0.40182749744E+01  0.54398441804E+02  0.19023927938E+03  0.17095285068E+03 0.  0.
         24    2    5    5    0    0  0.91369778722E+02  0.19891834792E+02  0.82772243044E+02  0.14694705126E+03  0.77447208467E+02 0.  0.
          5    1    5    5  501    0 -0.28197243087E+02 -0.15873559818E+02 -0.28373801239E+02  0.43292228122E+02  0.47000000000E+01 0. -1.
        -11    1    6    6    0    0 -0.10706081119E+02  0.15539759931E+02  0.17297212776E+02  0.25598786719E+02  0.00000000000E+00 0.  1.
         12    1    6    6    0    0  0.10207585984E+03  0.43520748613E+01  0.65475030267E+02  0.12134826454E+03  0.00000000000E+00 0. -1.
         -5    1    3    3    0  503 -0.65444287010E+01 -0.33711608638E+02 -0.19931374612E+03  0.20230511980E+03  0.47000000000E+01 0.  1.
         13    1    4    4    0    0 -0.41759359958E+02  0.19646414673E+02  0.24585136376E+01  0.46215474063E+02  0.00000000000E+00 0. -1.
        -14    1    4    4    0    0 -0.14868746976E+02  0.10046918991E+02 -0.83306625543E+02  0.85217451718E+02  0.00000000000E+00 0.  1.
</event>
<event>
12    1  0.8724767E-002  0.2019571E+03  0.7818608E-02  0.1148261E+00
         21   -1    0    0  503  502  0.00000000000E+00  0.00000000000E+00  0.42672832930E+03  0.42672832930E+03  0.00000000000E+00 0.  1.
         21   -1    0    0  501  503 -0.00000000000E+00 -0.00000000000E+00 -0.12322319109E+03  0.12322319109E+03  0.00000000000E+00 0.  1.
          6    2    1    2  501    0 -0.10353748976E+03  0.23457406113E+02  0.20874836112E+02  0.20303303847E+03  0.17180335922E+03 0.  0.
         24    2    3    3    0    0 -0.85183282870E+01  0.21531226283E+02 -0.36803261971E+02  0.91762178785E+02  0.80806322411E+02 0.  0.
         -6    2    1    2    0  502  0.10353748976E+03 -0.23457406113E+02  0.28263030210E+03  0.34691848192E+03  0.17088675707E+03 0.  0.
        -24    2    5    5    0    0  0.85969828138E+01 -0.44143129625E+02  0.19517298034E+03  0.21610383386E+03  0.81153254700E+02 0.  0.
          5    1    3    3  501    0 -0.95019161475E+02  0.19261798305E+01  0.57678098082E+02  0.11127085968E+03  0.47000000000E+01 0. -1.
        -11    1    4    4    0    0  0.45469974804E+00  0.50451421419E+02 -0.10240482937E+02  0.51482231555E+02  0.00000000000E+00 0.  1.
         12    1    4    4    0    0 -0.89730280350E+01 -0.28920195136E+02 -0.26562779034E+02  0.40279947230E+02  0.00000000000E+00 0. -1.
         -5    1    5    5    0  502  0.94940506948E+02  0.20685723512E+02  0.87457321763E+02  0.13081464806E+03  0.47000000000E+01 0.  1.
         13    1    6    6    0    0 -0.76321206865E+01  0.16660176083E+02  0.10764627170E+02  0.21252951122E+02  0.00000000000E+00 0. -1.
        -14    1    6    6    0    0  0.16229103500E+02 -0.60803305709E+02  0.18440835317E+03  0.19485088274E+03  0.00000000000E+00 0.  1.
</event>
<event>
12    1  0.8724767E-002  0.1817980E+03  0.7818608E-02  0.1166210E+00
         21   -1    0    0  501  502  0.00000000000E+00  0.00000000000E+00  0.12793369820E+03  0.12793369820E+03  0.00000000000E+00 0. -1.
         21   -1    0    0  502  503 -0.00000000000E+00 -0.00000000000E+00 -0.34569108949E+03  0.34569108949E+03  0.00000000000E+00 0. -1.
         -6    2    1    2    0  503 -0.17040981842E+02 -0.54453148167E+02 -0.22833965782E+03  0.29151901300E+03  0.17201393897E+03 0.  0.
        -24    2    3    3    0    0 -0.67750229882E+02 -0.36881475176E+01 -0.15948788534E+03  0.19196415525E+03  0.82523664785E+02 0.  0.
          6    2    1    2  501    0  0.17040981842E+02  0.54453148167E+02  0.10582266531E+02  0.18210577469E+03  0.17261224871E+03 0.  0.
         24    2    5    5    0    0 -0.51622289295E+02  0.46502630782E+02 -0.17488178442E+02  0.10735354789E+03  0.79947435473E+02 0.  0.
          5    1    5    5  501    0  0.68663271137E+02  0.79505173847E+01  0.28070444973E+02  0.74752226795E+02  0.47000000000E+01 0. -1.
        -13    1    6    6    0    0 -0.36937516153E+02  0.23323697555E+01  0.24729516554E+02  0.44512571676E+02  0.00000000000E+00 0.  1.
         14    1    6    6    0    0 -0.14684773142E+02  0.44170261027E+02 -0.42217694996E+02  0.62840976219E+02  0.00000000000E+00 0. -1.
         -5    1    3    3    0  503  0.50709248040E+02 -0.50765000650E+02 -0.68851772484E+02  0.99554857751E+02  0.47000000000E+01 0.  1.
         11    1    4    4    0    0 -0.51055821763E+02  0.30637914961E+02 -0.56311272679E+02  0.81953268390E+02  0.00000000000E+00 0. -1.
        -12    1    4    4    0    0 -0.16694408119E+02 -0.34326062479E+02 -0.10317661266E+03  0.11001088686E+03  0.00000000000E+00 0.  1.
</event>
<event>
12    1  0.8724767E-002  0.2066340E+03  0.7818608E-02  0.1144342E+00
         21   -1    0    0  503  502  0.00000000000E+00  0.00000000000E+00  0.50896340764E+03  0.50896340764E+03  0.00000000000E+00 0.  1.
         21   -1    0    0  501  503 -0.00000000000E+00 -0.00000000000E+00 -0.20157192303E+03  0.20157192303E+03  0.00000000000E+00 0. -1.
          6    2    1    2  501    0  0.10426444062E+03 -0.47499730138E+02 -0.11788446303E+03  0.23789567899E+03  0.17196019747E+03 0.  0.
         24    2    3    3    0    0  0.13277424567E+03 -0.52196571602E+02 -0.62317156415E+02  0.17508895269E+03  0.80120103422E+02 0.  0.
         -6    2    1    2    0  502 -0.10426444062E+03  0.47499730138E+02  0.42527594764E+03  0.47263965168E+03  0.17146810419E+03 0.  0.
        -24    2    5    5    0    0 -0.13771158624E+03  0.29391946160E+02  0.38128153269E+03  0.41429411254E+03  0.80222422248E+02 0.  0.
          5    1    3    3  501    0 -0.28509805042E+02  0.46968414637E+01 -0.55567306613E+02  0.62806726292E+02  0.47000000000E+01 0. -1.
        -11    1    4    4    0    0  0.49537091690E+02  0.99381571395E+01  0.58287660455E+01  0.50859265960E+02  0.00000000000E+00 0.  1.
         12    1    4    4    0    0  0.83237153977E+02 -0.62134728741E+02 -0.68145922460E+02  0.12422968673E+03  0.00000000000E+00 0. -1.
         -5    1    5    5    0  502  0.33447145615E+02  0.18107783978E+02  0.43994414952E+02  0.58345539138E+02  0.47000000000E+01 0.  1.
         11    1    6    6    0    0 -0.92056428437E+02  0.22861972087E+02  0.14305522205E+03  0.17164455232E+03  0.00000000000E+00 0. -1.
        -12    1    6    6    0    0 -0.45655157802E+02  0.65299740734E+01  0.23822631064E+03  0.24264956022E+03  0.00000000000E+00 0.  1.
</event>
<event>
12    1  0.8724767E-002  0.2270849E+03  0.7818608E-02  0.1129571E+00
         21   -1    0    0  501  502  0.00000000000E+00  0.00000000000E+00  0.18714576814E+03  0.18714576814E+03  0.00000000000E+00 0. -1.
         21   -1    0    0  502  503 -0.00000000000E+00 -0.00000000000E+00 -0.65394239020E+03  0.65394239020E+03  0.00000000000E+00 0.  1.
         -6    2    1    2    0  503  0.97933782393E+02 -0.10275751208E+03 -0.55673349151E+03  0.60126510543E+03  0.17724958230E+03 0.  0.
        -24    2    3    3    0    0  0.10478121276E+03 -0.13624894285E+02 -0.29994103653E+03  0.32931664379E+03  0.85557502243E+02 0.  0.
          6    2    1    2  501    0 -0.97933782393E+02  0.10275751208E+03  0.89936869450E+02  0.23982305290E+03  0.17110325594E+03 0.  0.
         24    2    5    5    0    0 -0.12110575757E+03  0.56695533516E+02  0.10356824160E+03  0.18628287538E+03  0.78063698057E+02 0.  0.
          5    1    5    5  501    0  0.23171975173E+02  0.46061978564E+02 -0.13631372152E+02  0.53540177525E+02  0.47000000000E+01 0. -1.
        -11    1    6    6    0    0 -0.50167315530E+02  0.52036447481E+02  0.16978690610E+02  0.74248416473E+02  0.00000000000E+00 0.  1.
         12    1    6    6    0    0 -0.70938442036E+02  0.46590860349E+01  0.86589550992E+02  0.11203445891E+03  0.00000000000E+00 0. -1.
         -5    1    3    3    0  503 -0.68474303676E+01 -0.89132617795E+02 -0.25679245498E+03  0.27194846165E+03  0.47000000000E+01 0.  1.
         13    1    4    4    0    0  0.31913977723E+00  0.16022737082E+02 -0.81577223418E+01  0.17982724699E+02  0.00000000000E+00 0. -1.
        -14    1    4    4    0    0  0.10446207298E+03 -0.29647631366E+02 -0.29178331418E+03  0.31133391909E+03  0.00000000000E+00 0.  1.
</event>
<event>
12    1  0.8724767E-002  0.1959095E+03  0.7818608E-02  0.1154032E+00
         21   -1    0    0  503  502  0.00000000000E+00  0.00000000000E+00  0.71397729100E+03  0.71397729100E+03  0.00000000000E+00 0. -1.
         21   -1    0    0  501  503 -0.00000000000E+00 -0.00000000000E+00 -0.15387462404E+03  0.15387462404E+03  0.00000000000E+00 0. -1.
          6    2    1    2  501    0 -0.88081535398E+02 -0.40564190639E+02 -0.72590364841E+02  0.20552193118E+03  0.16603039688E+03 0.  0.
         24    2    3    3    0    0  0.17580741863E+01 -0.52026143890E+02 -0.36361316497E+02  0.10786351748E+03  0.87192789797E+02 0.  0.
         -6    2    1    2    0  502  0.88081535398E+02  0.40564190639E+02  0.63269303181E+03  0.66232998386E+03  0.17022551095E+03 0.  0.
        -24    2    5    5    0    0  0.68313758214E+02  0.90695581530E+02  0.48354060462E+03  0.50367167837E+03  0.83553487036E+02 0.  0.
          5    1    3    3  501    0 -0.89839609584E+02  0.11461953251E+02 -0.36229048345E+02  0.97658413700E+02  0.47000000000E+01 0. -1.
        -13    1    4    4    0    0 -0.13992886274E+02 -0.68445344694E+01  0.25363319757E+02  0.29764853560E+02  0.00000000000E+00 0.  1.
         14    1    4    4    0    0  0.15750960460E+02 -0.45181609421E+02 -0.61724636254E+02  0.78098663919E+02  0.00000000000E+00 0. -1.
         -5    1    5    5    0  502  0.19767777184E+02 -0.50131390891E+02  0.14915242718E+03  0.15865830549E+03  0.47000000000E+01 0.  1.
         11    1    6    6    0    0  0.50588320589E+02  0.84506619421E+02  0.24020918915E+03  0.25961702844E+03  0.00000000000E+00 0. -1.
        -12    1    6    6    0    0  0.17725437625E+02  0.61889621088E+01  0.24333141548E+03  0.24405464992E+03  0.00000000000E+00 0.  1.
</event>
<event>
12    1  0.8724767E-002  0.2283509E+03  0.7818608E-02  0.1128367E+00
         21   -1    0    0  501  502  0.00000000000E+00  0.00000000000E+00  0.29010147726E+03  0.29010147726E+03  0.00000000000E+00 0. -1.
         21   -1    0    0  502  503 -0.00000000000E+00 -0.00000000000E+00 -0.23254326656E+03  0.23254326656E+03  0.00000000000E+00 0. -1.
         -6    2    1    2    0  503 -0.13395305597E+03 -0.58385128999E+02 -0.98756455060E+02  0.24591671595E+03  0.17137662989E+03 0.  0.
        -24    2    3    3    0    0 -0.62039648351E+02  0.44968162650E+01 -0.10602915072E+03  0.14999664851E+03  0.85951581938E+02 0.  0.
          6    2    1    2  501    0  0.13395305597E+03  0.58385128999E+02  0.15631466576E+03  0.27672802788E+03  0.17547615846E+03 0.  0.
         24    2    5    5    0    0  0.13850313954E+03 -0.49724726530E+01  0.13592117560E+03  0.20984848401E+03  0.79711825446E+02 0.  0.
          5    1    5    5  501    0 -0.45500835719E+01  0.63357601652E+02  0.20393490162E+02  0.66879543872E+02  0.47000000000E+01 0. -1.
        -11    1    6    6    0    0  0.31796336189E+02 -0.15445534808E+02  0.83137520479E+02  0.90340571462E+02  0.00000000000E+00 0.  1.
         12    1    6    6    0    0  0.10670680335E+03  0.10473062155E+02  0.52783655119E+02  0.11950791255E+03  0.00000000000E+00 0. -1.
         -5    1    3    3    0  503 -0.71913407621E+02 -0.62881945263E+02  0.72726956557E+01  0.95920067441E+02  0.47000000000E+01 0.  1.
         13    1    4    4    0    0 -0.46255969412E+02 -0.38552515552E+02 -0.61985663635E+02  0.86418364124E+02  0.00000000000E+00 0. -1.
        -14    1    4    4    0    0 -0.15783678939E+02  0.43049331817E+02 -0.44043487081E+02  0.63578284382E+02  0.00000000000E+00 0.  1.
</event>
<event>
12    1  0.8724767E-002  0.2020518E+03  0.7818608E-02  0.1148592E+00
         21   -1    0    0  503  502  0.00000000000E+00  0.00000000000E+00  0.48382826798E+03  0.48382826798E+03  0.00000000000E+00 0.  1.
         21   -1    0    0  501  503 -0.00000000000E+00 -0.00000000000E+00 -0.28775895806E+03  0.28775895806E+03  0.00000000000E+00 0.  1.
          6    2    1    2  501    0  0.95555346894E+02 -0.31718598685E+02 -0.22739697111E+03  0.30238723910E+03  0.17202257433E+03 0.  0.
         24    2    3    3    0    0 -0.92175569154E+01  0.42105588958E+01 -0.62159925682E+02  0.10340574017E+03  0.82013404862E+02 0.  0.
         -6    2    1    2    0  502 -0.95555346894E+02  0.31718598685E+02  0.42346628103E+03  0.46919998694E+03  0.17518002955E+03 0.  0.
        -24    2    5    5    0    0  0.12627072184E+02  0.42832111148E+02  0.22473675834E+03  0.24261124242E+03  0.79746922824E+02 0.  0.
          5    1    3    3  501    0  0.10477290381E+03 -0.35929157581E+02 -0.16523704543E+03  0.19898149893E+03  0.47000000000E+01 0. -1.
        -13    1    4    4    0    0  0.59387500225E+01  0.35857007201E+02 -0.57479245211E+02  0.68006303732E+02  0.00000000000E+00 0.  1.
         14    1    4    4    0    0 -0.15156306938E+02 -0.31646448305E+02 -0.46806804709E+01  0.35399436436E+02  0.00000000000E+00 0. -1.
         -5    1    5    5    0  502 -0.10818241908E+03 -0.11113512463E+02  0.19872952268E+03  0.22658874452E+03  0.47000000000E+01 0.  1.
         13    1    6    6    0    0 -0.12098906490E+02  0.60019688909E+02  0.14652910400E+03  0.15880656446E+03  0.00000000000E+00 0. -1.
        -14    1    6    6    0    0  0.24725978674E+02 -0.17187577761E+02  0.78207654340E+02  0.83804677961E+02  0.00000000000E+00 0.  1.
</event>
<event>
12    1  0.8724767E-002  0.1788919E+03  0.7818608E-02  0.1170000E+00
         21   -1    0    0  503  502  0.00000000000E+00  0.00000000000E+00  0.63286442543E+03  0.63286442543E+03  0.00000000000E+00 0.  1.
         21   -1    0    0  501  503 -0.00000000000E+00 -0.00000000000E+00 -0.28194064147E+03  0.28194064147E+03  0.00000000000E+00 0.  1.
          6    2    1    2  501    0 -0.43809163710E+02  0.56131450390E+01 -0.24042152570E+03  0.29699312845E+03  0.16867619305E+03 0.  0.
         24    2    3    3    0    0 -0.15832034161E+02  0.39546904759E+02 -0.23548100505E+03  0.25248786392E+03  0.80524572050E+02 0.  0.
         -6    2    1    2    0  502  0.43809163710E+02 -0.56131450390E+01  0.59134530966E+03  0.61781193845E+03  0.17335387452E+03 0.  0.
        -24    2    5    5    0    0  0.49708186526E+02  0.52783036633E+02  0.47775857262E+03  0.48987074361E+03  0.80393650093E+02 0.  0.
          5    1    3    3  501    0 -0.27977129549E+02 -0.33933759720E+02 -0.49405206501E+01  0.44505264529E+02  0.47000000000E+01 0. -1.
        -13    1    4    4    0    0 -0.37842752605E+02 -0.44671175724E+01 -0.68255903146E+02  0.78172228946E+02  0.00000000000E+00 0.  1.
         14    1    4    4    0    0  0.22010718444E+02  0.44014022331E+02 -0.16722510190E+03  0.17431563497E+03  0.00000000000E+00 0. -1.
         -5    1    5    5    0  502 -0.58990228153E+01 -0.58396181672E+02  0.11358673704E+03  0.12794119484E+03  0.47000000000E+01 0.  1.
         11    1    6    6    0    0 -0.20620226201E+02  0.18330341276E+02  0.84495070014E+02  0.88885386857E+02  0.00000000000E+00 0. -1.
        -12    1    6    6    0    0  0.70328412727E+02  0.34452695356E+02  0.39326350260E+03  0.40098535676E+03  0.00000000000E+00 0.  1.
</event>
<event>
12    1  0.8724767E-002  0.2461405E+03  0.7818608E-02  0.1116099E+00
         21   -1    0    0  503  502  0.00000000000E+00  0.00000000000E+00  0.45012956285E+02  0.45012956285E+02  0.00000000000E+00 0. -1.
         21   -1    0    0  501  503 -0.00000000000E+00 -0.00000000000E+00 -0.13433329622E+04  0.13433329622E+04  0.00000000000E+00 0.  1.
          6    2    1    2  501    0 -0.63630280488E+02 -0.16184217353E+03 -0.70708936109E+03  0.74870590596E+03  0.17419376376E+03 0.  0.
         24    2    3    3    0    0 -0.77741165087E+02 -0.11271582743E+03 -0.66124982298E+03  0.67988826143E+03  0.79045386576E+02 0.  0.
         -6    2    1    2    0  502  0.63630280488E+02  0.16184217353E+03 -0.59123064478E+03  0.63964001247E+03  0.17130081290E+03 0.  0.
        -24    2    5    5    0    0  0.10448326050E+03  0.95271662551E+02 -0.34266354516E+03  0.37904781781E+03  0.79154921462E+02 0.  0.
          5    1    3    3  501    0  0.14110884599E+02 -0.49126346099E+02 -0.45839538110E+02  0.68817644535E+02  0.47000000000E+01 0. -1.
        -13    1    4    4    0    0  0.28519884841E-01  0.17672309892E+01  0.18150638867E+01  0.25334513348E+01  0.00000000000E+00 0.  1.
         14    1    4    4    0    0 -0.77769684971E+02 -0.11448305842E+03 -0.66306488686E+03  0.67735481009E+03  0.00000000000E+00 0. -1.
         -5    1    5    5    0  502 -0.40852980010E+02  0.66570510983E+02 -0.24856709962E+03  0.26059219467E+03  0.47000000000E+01 0.  1.
         11    1    6    6    0    0  0.44418086235E+02 -0.51376375323E+01 -0.10584561522E+03  0.11490281095E+03  0.00000000000E+00 0. -1.
        -12    1    6    6    0    0  0.60065174262E+02  0.10040930008E+03 -0.23681792994E+03  0.26414500685E+03  0.00000000000E+00 0.  1.
</event>
<event>
12    1  0.8724767E-002  0.1869262E+03  0.7818608E-02  0.1161711E+00
         21   -1    0    0  501  502  0.00000000000E+00  0.00000000000E+00  0.22894470681E+03  0.22894470681E+03  0.00000000000E+00 0.  1.
         21   -1    0    0  502  503 -0.00000000000E+00 -0.00000000000E+00 -0.17144546978E+03  0.17144546978E+03  0.00000000000E+00 0.  1.
         -6    2    1    2    0  503 -0.67373376467E+02  0.18003223921E+02 -0.40172376390E+02  0.19119418780E+03  0.17343041744E+03 0.  0.
        -24    2    3    3    0    0 -0.35986282229E+02 -0.56572115165E+02 -0.35166604101E+02  0.10999210260E+03  0.79788193779E+02 0.  0.
          6    2    1    2  501    0  0.67373376467E+02 -0.18003223921E+02  0.97671613412E+02  0.20919598880E+03  0.17134739488E+03 0.  0.
         24    2    5    5    0    0 -0.18957354133E+02  0.16692014601E+02  0.75402194562E+02  0.11341096054E+03  0.80861303469E+02 0.  0.
          5    1    5    5  501    0  0.86330730601E+02 -0.34695238522E+02  0.22269418850E+02  0.95785028256E+02  0.47000000000E+01 0. -1.
        -13    1    6    6    0    0 -0.11324042888E+02  0.14322237530E+02  0.92633757613E+02  0.94415959905E+02  0.00000000000E+00 0.  1.
         14    1    6    6    0    0 -0.76333112452E+01  0.23697770714E+01 -0.17231563051E+02  0.18995000635E+02  0.00000000000E+00 0. -1.
         -5    1    3    3    0  503 -0.31387094238E+02  0.74575339086E+02 -0.50057722889E+01  0.81202085199E+02  0.47000000000E+01 0.  1.
         11    1    4    4    0    0  0.81605559640E+01  0.96292196960E+01 -0.27246109812E+02  0.30027771238E+02  0.00000000000E+00 0. -1.
        -12    1    4    4    0    0 -0.44146838193E+02 -0.66201334861E+02 -0.79204942886E+01  0.79964331358E+02  0.00000000000E+00 0.  1.
</event>
<event>
12    1  0.8724767E-002  0.1778262E+03  0.7818608E-02  0.1171521E+00
         21   -1    0    0  501  502  0.00000000000E+00  0.00000000000E+00  0.30696556386E+02  0.30696556386E+02  0.00000000000E+00 0.  1.
         21   -1    0    0  502  503 -0.00000000000E+00 -0.00000000000E+00 -0.16508768082E+04  0.16508768082E+04  0.00000000000E+00 0.  1.
         -6    2    1    2    0  503 -0.20052053385E+01 -0.96405667477E+01 -0.13494588212E+04  0.13611250026E+04  0.17755337574E+03 0.  0.
        -24    2    3    3    0    0 -0.83795585102E+01  0.50523248424E+02 -0.11190589603E+04  0.11228677825E+04  0.76917388819E+02 0.  0.
          6    2    1    2  501    0  0.20052053385E+01  0.96405667477E+01 -0.27072143061E+03  0.32044836197E+03  0.17117271489E+03 0.  0.
         24    2    5    5    0    0 -0.19587216577E+02  0.50671650766E+01 -0.43419259593E+02  0.92028757658E+02  0.78579417898E+02 0.  0.
          5    1    5    5  501    0  0.21592421916E+02  0.45734016711E+01 -0.22730217102E+03  0.22841960431E+03  0.47000000000E+01 0. -1.
        -11    1    6    6    0    0 -0.37753781545E+02  0.43440120448E+01 -0.57575394511E+02  0.68986553144E+02  0.00000000000E+00 0.  1.
         12    1    6    6    0    0  0.18166564968E+02  0.72315303188E+00  0.14156134918E+02  0.23042204514E+02  0.00000000000E+00 0. -1.
         -5    1    3    3    0  503  0.63743531717E+01 -0.60163815171E+02 -0.23039986092E+03  0.23825722013E+03  0.47000000000E+01 0.  1.
         11    1    4    4    0    0 -0.18993181729E+02 -0.62601506998E+01 -0.90286763382E+02  0.92475024093E+02  0.00000000000E+00 0. -1.
        -12    1    4    4    0    0  0.10613623219E+02  0.56783399124E+02 -0.10287721969E+04  0.10303927584E+04  0.00000000000E+00 0.  1.
</event>
<event>
12    1  0.8724767E-002  0.2792149E+03  0.7818608E-02  0.1096186E+00
         21   -1    0    0  501  502  0.00000000000E+00  0.00000000000E+00  0.12849722030E+04  0.12849722030E+04  0.00000000000E+00 0.  1.
         21   -1    0    0  502  503 -0.00000000000E+00 -0.00000000000E+00 -0.13478093264E+03  0.13478093264E+03  0.00000000000E+00 0. -1.
         -6    2    1    2    0  503  0.56978741873E+02  0.21180365104E+03  0.48555594739E+02  0.28340542105E+03  0.17278201087E+03 0.  0.
        -24    2    3    3    0    0 -0.26800171428E+02  0.14215450185E+03  0.23036384332E+01  0.16495186999E+03  0.79231692381E+02 0.  0.
          6    2    1    2  501    0 -0.56978741873E+02 -0.21180365104E+03  0.11016356756E+04  0.11363477145E+04  0.17198140314E+03 0.  0.
         24    2    5    5    0    0 -0.85073309560E+02 -0.21129947670E+03  0.86441224534E+03  0.89741968191E+03  0.79174609127E+02 0.  0.
          5    1    5    5  501    0  0.28094567686E+02 -0.50417433839E+00  0.23722343024E+03  0.23892803264E+03  0.47000000000E+01 0. -1.
        -11    1    6    6    0    0 -0.10019041640E+03 -0.18347375498E+03  0.76782098289E+03  0.79576994168E+03  0.00000000000E+00 0.  1.
         12    1    6    6    0    0  0.15117106837E+02 -0.27825721716E+02  0.96591262448E+02  0.10164974023E+03  0.00000000000E+00 0. -1.
         -5    1    3    3    0  503  0.83778913301E+02  0.69649149188E+02  0.46251956306E+02  0.11845355106E+03  0.47000000000E+01 0.  1.
         11    1    4    4    0    0  0.18515282524E+02  0.10061677530E+03 -0.80136492023E+01  0.10261953875E+03  0.00000000000E+00 0. -1.
        -12    1    4    4    0    0 -0.45315453951E+02  0.41537726543E+02  0.10317287635E+02  0.62332331236E+02  0.00000000000E+00 0.  1.
</event>
