<event>
12    1  0.1040325E-001  0.1725126E+03  0.7818608E-02  0.1175443E+00
         21   -1    0    0  503  502  0.00000000000E+00  0.00000000000E+00  0.34972473575E+02  0.34972473575E+02  0.00000000000E+00 0. -1.
         21   -1    0    0  501  503 -0.00000000000E+00 -0.00000000000E+00 -0.19426577170E+04  0.19426577170E+04  0.00000000000E+00 0. -1.
          6    2    1    2  501    0 -0.68718235176E+01 -0.41120902983E+01 -0.16972309644E+04  0.17059758350E+04  0.17232664316E+03 0.  0.
         24    2    3    3    0    0  0.40268042886E+00  0.98563650281E+01 -0.37388405337E+03  0.38252686620E+03  0.80250906043E+02 0.  0.
         -6    2    1    2    0  502  0.68718235176E+01  0.41120902983E+01 -0.21045427904E+03  0.27165435556E+03  0.17158366497E+03 0.  0.
        -24    2    5    5    0    0  0.59470457135E+02 -0.28552263101E+02 -0.10020235069E+03  0.14511916699E+03  0.81652278256E+02 0.  0.
          5    1    3    3  501    0 -0.72745039465E+01 -0.13968455326E+02 -0.13233469110E+04  0.13234489688E+04  0.47000000000E+01 0. -1.
        -13    1    4    4    0    0 -0.28224438028E+02  0.28379780693E+02 -0.12330454253E+03  0.12963811578E+03  0.00000000000E+00 0.  1.
         14    1    4    4    0    0  0.28627118456E+02 -0.18523415665E+02 -0.25057951083E+03  0.25288875042E+03  0.00000000000E+00 0. -1.
         -5    1    5    5    0  502 -0.52598633617E+02  0.32664353399E+02 -0.11025192834E+03  0.12653518856E+03  0.47000000000E+01 0.  1.
         13    1    6    6    0    0  0.28562228883E+02 -0.29581861516E+02 -0.91876719388E+00  0.41130664749E+02  0.00000000000E+00 0. -1.
        -14    1    6    6    0    0  0.30908228252E+02  0.10295984157E+01 -0.99283583500E+02  0.10398850224E+03  0.00000000000E+00 0.  1.
</event>
<event>
12    1  0.1040325E-001  0.1953932E+03  0.7818608E-02  0.1154163E+00
         21   -1    0    0  501  502  0.00000000000E+00  0.00000000000E+00  0.15870857623E+04  0.15870857623E+04  0.00000000000E+00 0.  1.
         21   -1    0    0  502  503 -0.00000000000E+00 -0.00000000000E+00 -0.43685850700E+02  0.43685850700E+02  0.00000000000E+00 0.  1.
         -6    2    1    2    0  503 -0.88486962632E+02 -0.16146214253E+02  0.22376501800E+03  0.29706783498E+03  0.17345856137E+03 0.  0.
        -24    2    3    3    0    0 -0.33154575282E+02 -0.46216033260E+02  0.21109869646E+03  0.23265981680E+03  0.79578785583E+02 0.  0.
          6    2    1    2  501    0  0.88486962632E+02  0.16146214253E+02  0.13196348936E+04  0.13337037780E+04  0.17099377853E+03 0.  0.
         24    2    5    5    0    0  0.48265994248E+02 -0.49681350847E+02  0.97340805299E+03  0.97895582555E+03  0.77675143500E+02 0.  0.
          5    1    5    5  501    0  0.40220968385E+02  0.65827565099E+02  0.34622684063E+03  0.35474795250E+03  0.47000000000E+01 0. -1.
        -13    1    6    6    0    0  0.60340672520E+02 -0.44659219213E+02  0.52322450072E+03  0.52858236896E+03  0.00000000000E+00 0.  1.
         14    1    6    6    0    0 -0.12074678272E+02 -0.50221316340E+01  0.45018355227E+03  0.45037345658E+03  0.00000000000E+00 0. -1.
         -5    1    3    3    0  503 -0.55332387350E+02  0.30069819007E+02  0.12666321542E+02  0.64408018184E+02  0.47000000000E+01 0.  1.
         13    1    4    4    0    0  0.22853046545E+02  0.15610230601E+01  0.67668099567E+02  0.71439976403E+02  0.00000000000E+00 0. -1.
        -14    1    4    4    0    0 -0.56007621828E+02 -0.47777056320E+02  0.14343059689E+03  0.16121984040E+03  0.00000000000E+00 0.  1.
</event>
<event>
12    1  0.1040325E-001  0.2320342E+03  0.7818608E-02  0.1125225E+00
         21   -1    0    0  503  502  0.00000000000E+00  0.00000000000E+00  0.16801948593E+03  0.16801948593E+03  0.00000000000E+00 0.  1.
         21   -1    0    0  501  503 -0.00000000000E+00 -0.00000000000E+00 -0.41171774689E+03  0.41171774689E+03  0.00000000000E+00 0. -1.
          6    2    1    2  501    0 -0.15181787028E+03  0.29813736692E+02 -0.25837754452E+03  0.34723917193E+03  0.17285416506E+03 0.  0.
         24    2    3    3    0    0 -0.74782943875E+02  0.18010128622E+02 -0.44183873178E+02  0.11925951518E+03  0.79710500467E+02 0.  0.
         -6    2    1    2    0  502  0.15181787028E+03 -0.29813736692E+02  0.14679283564E+02  0.23249806088E+03  0.17292293751E+03 0.  0.
        -24    2    5    5    0    0  0.13101659271E+03 -0.56794232162E+02  0.61212089235E+02  0.17463587731E+03  0.79748588725E+02 0.  0.
          5    1    3    3  501    0 -0.77034926407E+02  0.11803608071E+02 -0.21419367134E+03  0.22797965675E+03  0.47000000000E+01 0. -1.
        -11    1    4    4    0    0 -0.57083278335E+02  0.48783480379E+02 -0.26768777475E+02  0.79717602014E+02  0.00000000000E+00 0.  1.
         12    1    4    4    0    0 -0.17699665540E+02 -0.30773351757E+02 -0.17415095703E+02  0.39541913167E+02  0.00000000000E+00 0. -1.
         -5    1    5    5    0  502  0.20801277575E+02  0.26980495470E+02 -0.46532805670E+02  0.57862183575E+02  0.47000000000E+01 0.  1.
         13    1    6    6    0    0  0.12977801820E+02  0.10073218318E+02 -0.12125932078E+02  0.20418895566E+02  0.00000000000E+00 0. -1.
        -14    1    6    6    0    0  0.11803879089E+03 -0.66867450481E+02  0.73338021313E+02  0.15421698174E+03  0.00000000000E+00 0.  1.
</event>
<event>
12    1  0.1040325E-001  0.3867799E+03  0.7818608E-02  0.1048515E+00
         21   -1    0    0  501  502  0.00000000000E+00  0.00000000000E+00  0.27538468525E+03  0.27538468525E+03  0.00000000000E+00 0.  1.
         21   -1    0    0  502  503 -0.00000000000E+00 -0.00000000000E+00 -0.10078502957E+04  0.10078502957E+04  0.00000000000E+00 0. -1.
         -6    2    1    2    0  503  0.33272849994E+03 -0.97201700224E+02 -0.80246947173E+03  0.89081758678E+03  0.17158757138E+03 0.  0.
        -24    2    3    3    0    0  0.13337425293E+03 -0.10453269147E+03 -0.39565422645E+03  0.43769884624E+03  0.79512503178E+02 0.  0.
          6    2    1    2  501    0 -0.33272849994E+03  0.97201700224E+02  0.70003861311E+02  0.39241739415E+03  0.17010127993E+03 0.  0.
         24    2    5    5    0    0 -0.16527666925E+03  0.32504680536E+02  0.97743740313E+02  0.21071045745E+03  0.80449527361E+02 0.  0.
          5    1    5    5  501    0 -0.16745183069E+03  0.64697019688E+02 -0.27739879002E+02  0.18170693670E+03  0.47000000000E+01 0. -1.
        -13    1    6    6    0    0 -0.79427463323E+02  0.50362765253E+02  0.74539427350E+02  0.12000523440E+03  0.00000000000E+00 0.  1.
         14    1    6    6    0    0 -0.85849205926E+02 -0.17858084718E+02  0.23204312963E+02  0.90705223047E+02  0.00000000000E+00 0. -1.
         -5    1    3    3    0  503  0.19935424701E+03  0.73309912433E+01 -0.40681524528E+03  0.45311874054E+03  0.47000000000E+01 0.  1.
         11    1    4    4    0    0  0.66843299688E+02 -0.19099786352E+02 -0.22585014101E+03  0.23630724649E+03  0.00000000000E+00 0. -1.
        -12    1    4    4    0    0  0.66530953243E+02 -0.85432905115E+02 -0.16980408544E+03  0.20139159975E+03  0.00000000000E+00 0.  1.
</event>
<event>
12    1  0.1040325E-001  0.2470412E+03  0.7818608E-02  0.1115268E+00
         21   -1    0    0  501  502  0.00000000000E+00  0.00000000000E+00  0.64334245544E+03  0.64334245544E+03  0.00000000000E+00 0. -1.
         21   -1    0    0  502  503 -0.00000000000E+00 -0.00000000000E+00 -0.10322726867E+03  0.10322726867E+03  0.00000000000E+00 0.  1.
         -6    2    1    2    0  503  0.96852693179E+02  0.14919798249E+03  0.16285951087E+03  0.29589287663E+03  0.17143188737E+03 0.  0.
        -24    2    3    3    0    0  0.55986951901E+02  0.12154138946E+03  0.18521211359E+03  0.24151802218E+03  0.78234135028E+02 0.  0.
          6    2    1    2  501    0 -0.96852693179E+02 -0.14919798249E+03  0.37725567590E+03  0.45067684748E+03  0.17072578510E+03 0.  0.
         24    2    5    5    0    0 -0.97963848164E+02 -0.17386165826E+03  0.36294032463E+03  0.42175365869E+03  0.79534128598E+02 0.  0.
          5    1    5    5  501    0  0.11111549856E+01  0.24663675770E+02  0.14315351267E+02  0.28923188790E+02  0.47000000000E+01 0. -1.
        -13    1    6    6    0    0 -0.21195021274E+01 -0.81489809908E+02  0.12914835627E+03  0.15272321152E+03  0.00000000000E+00 0.  1.
         14    1    6    6    0    0 -0.95844346037E+02 -0.92371848350E+02  0.23379196836E+03  0.26903044717E+03  0.00000000000E+00 0. -1.
         -5    1    3    3    0  503  0.40865741278E+02  0.27656593026E+02 -0.22352602722E+02  0.54374854450E+02  0.47000000000E+01 0.  1.
         13    1    4    4    0    0 -0.49712816508E+01  0.73802273889E+02  0.11649712376E+03  0.13799662719E+03  0.00000000000E+00 0. -1.
        -14    1    4    4    0    0  0.60958233552E+02  0.47739115573E+02  0.68714989831E+02  0.10352139499E+03  0.00000000000E+00 0.  1.
</event>
<event>
12    1  0.1040325E-001  0.1813933E+03  0.7818608E-02  0.1167313E+00
         21   -1    0    0  503  502  0.00000000000E+00  0.00000000000E+00  0.22080010354E+03  0.22080010354E+03  0.00000000000E+00 0.  1.
         21   -1    0    0  501  503 -0.00000000000E+00 -0.00000000000E+00 -0.17140735187E+03  0.17140735187E+03  0.00000000000E+00 0.  1.
          6    2    1    2  501    0  0.43503204073E+02  0.36869829903E+02  0.99775550989E+02  0.20394708561E+03  0.16848542974E+03 0.  0.
         24    2    3    3    0    0  0.15636558567E+02 -0.22838088291E+01 -0.83389756469E+01  0.85539323084E+02  0.83652373142E+02 0.  0.
         -6    2    1    2    0  502 -0.43503204073E+02 -0.36869829903E+02 -0.50382799318E+02  0.18826036979E+03  0.17219647861E+03 0.  0.
        -24    2    5    5    0    0  0.30292566759E+02  0.40603664536E+01 -0.56286991837E+02  0.10353701849E+03  0.81348402386E+02 0.  0.
          5    1    3    3  501    0  0.27866645506E+02  0.39153638733E+02  0.10811452664E+03  0.11840776253E+03  0.47000000000E+01 0. -1.
        -13    1    4    4    0    0  0.48438207210E+02  0.95041314958E+01 -0.11033350898E+02  0.50579870159E+02  0.00000000000E+00 0.  1.
         14    1    4    4    0    0 -0.32801648644E+02 -0.11787940325E+02  0.26943752510E+01  0.34959452925E+02  0.00000000000E+00 0. -1.
         -5    1    5    5    0  502 -0.73795770831E+02 -0.40930196357E+02  0.59041925183E+01  0.84723351301E+02  0.47000000000E+01 0.  1.
         13    1    6    6    0    0  0.31359170131E+02 -0.21691001113E+01  0.12960918901E+02  0.34001293584E+02  0.00000000000E+00 0. -1.
        -14    1    6    6    0    0 -0.10666033728E+01  0.62294665649E+01 -0.69247910737E+02  0.69535724904E+02  0.00000000000E+00 0.  1.
</event>
<event>
12    1  0.1040325E-001  0.1856143E+03  0.7818608E-02  0.1162976E+00
         21   -1    0    0  501  502  0.00000000000E+00  0.00000000000E+00  0.24345516413E+03  0.24345516413E+03  0.00000000000E+00 0.  1.
         21   -1    0    0  502  503 -0.00000000000E+00 -0.00000000000E+00 -0.13992253832E+03  0.13992253832E+03  0.00000000000E+00 0. -1.
         -6    2    1    2    0  503  0.45216945495E+02 -0.51365054029E+02  0.48731640436E+02  0.18984267049E+03  0.17024254998E+03 0.  0.
        -24    2    3    3    0    0  0.20404714296E+02 -0.92398972837E+02  0.49948335248E+01  0.12477019099E+03  0.81170990198E+02 0.  0.
          6    2    1    2  501    0 -0.45216945495E+02  0.51365054029E+02  0.54800985371E+02  0.19353503197E+03  0.17253903809E+03 0.  0.
         24    2    5    5    0    0 -0.28444504992E+02 -0.29488387333E+02  0.68312483552E+02  0.10973023304E+03  0.75468362787E+02 0.  0.
          5    1    5    5  501    0 -0.16772440503E+02  0.80853441362E+02 -0.13511498181E+02  0.83804798929E+02  0.47000000000E+01 0. -1.
        -11    1    6    6    0    0 -0.21034102899E+02  0.18016043097E+02  0.52078385214E+02  0.58984485250E+02  0.00000000000E+00 0.  1.
         12    1    6    6    0    0 -0.74104020936E+01 -0.47504430431E+02  0.16234098337E+02  0.50745747788E+02  0.00000000000E+00 0. -1.
         -5    1    3    3    0  503  0.24812231199E+02  0.41033918808E+02  0.43736806911E+02  0.65072479502E+02  0.47000000000E+01 0.  1.
         11    1    4    4    0    0  0.45679736884E+02 -0.27371906653E+02 -0.78590725223E+01  0.53829589043E+02  0.00000000000E+00 0. -1.
        -12    1    4    4    0    0 -0.25275022588E+02 -0.65027066184E+02  0.12853906047E+02  0.70940601942E+02  0.00000000000E+00 0.  1.
</event>
<event>
12    1  0.1040325E-001  0.1730889E+03  0.7818608E-02  0.1174925E+00
         21   -1    0    0  501  502  0.00000000000E+00  0.00000000000E+00  0.68997800768E+03  0.68997800768E+03  0.00000000000E+00 0.  1.
         21   -1    0    0  502  503 -0.00000000000E+00 -0.00000000000E+00 -0.68627835108E+02  0.68627835108E+02  0.00000000000E+00 0.  1.
         -6    2    1    2    0  503  0.19288880258E+02 -0.15016471451E+02  0.79060610645E+02  0.18936272092E+03  0.17032352921E+03 0.  0.
        -24    2    3    3    0    0 -0.30539462596E+02 -0.50925075816E+01  0.10367042715E+03  0.13271396207E+03  0.76856007274E+02 0.  0.
          6    2    1    2  501    0 -0.19288880258E+02  0.15016471451E+02  0.54228956193E+03  0.56924312187E+03  0.17135404139E+03 0.  0.
         24    2    5    5    0    0  0.32635361091E+02  0.53962372321E+01  0.47708928906E+03  0.48520835925E+03  0.81968140034E+02 0.  0.
          5    1    5    5  501    0 -0.51924241349E+02  0.96202342192E+01  0.65200272873E+02  0.84034762621E+02  0.47000000000E+01 0. -1.
        -11    1    6    6    0    0  0.35981033998E+02 -0.28792316953E+02  0.36705600323E+03  0.36993748368E+03  0.00000000000E+00 0.  1.
         12    1    6    6    0    0 -0.33456729070E+01  0.34188554185E+02  0.11003328582E+03  0.11527087557E+03  0.00000000000E+00 0. -1.
         -5    1    3    3    0  503  0.49828342853E+02 -0.99239638697E+01 -0.24609816508E+02  0.56648758848E+02  0.47000000000E+01 0.  1.
         13    1    4    4    0    0  0.19874578542E+02  0.10050221391E+02  0.82744947855E+01  0.23758642347E+02  0.00000000000E+00 0. -1.
        -14    1    4    4    0    0 -0.50414041137E+02 -0.15142728972E+02  0.95395932368E+02  0.10895531973E+03  0.00000000000E+00 0.  1.
</event>
<event>
12    1  0.1040325E-001  0.1845027E+03  0.7818608E-02  0.1163567E+00
         21   -1    0    0  503  502  0.00000000000E+00  0.00000000000E+00  0.74350532921E+02  0.74350532921E+02  0.00000000000E+00 0. -1.
         21   -1    0    0  501  503 -0.00000000000E+00 -0.00000000000E+00 -0.97960464319E+03  0.97960464319E+03  0.00000000000E+00 0.  1.
          6    2    1    2  501    0 -0.63815888644E+02  0.17765242275E+02 -0.83755129616E+03  0.85763245304E+03  0.17220098532E+03 0.  0.
         24    2    3    3    0    0 -0.36934379517E+02 -0.20183427153E+02 -0.77213673100E+03  0.77723424175E+03  0.78271425646E+02 0.  0.
         -6    2    1    2    0  502  0.63815888644E+02 -0.17765242275E+02 -0.67702814117E+02  0.19632272307E+03  0.17196182448E+03 0.  0.
        -24    2    5    5    0    0 -0.61855995042E+01 -0.58048932721E+02 -0.49887236400E+02  0.11348270334E+03  0.83556252734E+02 0.  0.
          5    1    3    3  501    0 -0.26881509127E+02  0.37948669428E+02 -0.65414565158E+02  0.80398211293E+02  0.47000000000E+01 0. -1.
        -11    1    4    4    0    0 -0.33558803716E+02 -0.49107127918E+02 -0.54608756770E+03  0.54931715330E+03  0.00000000000E+00 0.  1.
         12    1    4    4    0    0 -0.33755758015E+01  0.28923700765E+02 -0.22604916330E+03  0.22791708845E+03  0.00000000000E+00 0. -1.
         -5    1    5    5    0  502  0.70001488148E+02  0.40283690446E+02 -0.17815577716E+02  0.82840019727E+02  0.47000000000E+01 0.  1.
         13    1    6    6    0    0 -0.33991781642E+01  0.16967656005E+02  0.76304605431E+01  0.18912421596E+02  0.00000000000E+00 0. -1.
        -14    1    6    6    0    0 -0.27864213400E+01 -0.75016588727E+02 -0.57517696943E+02  0.94570281747E+02  0.00000000000E+00 0.  1.
</event>
<event>
12    1  0.1040325E-001  0.2100430E+03  0.7818608E-02  0.1141658E+00
         21   -1    0    0  503  502  0.00000000000E+00  0.00000000000E+00  0.80810616026E+03  0.80810616026E+03  0.00000000000E+00 0. -1.
         21   -1    0    0  501  503 -0.00000000000E+00 -0.00000000000E+00 -0.17405659419E+03  0.17405659419E+03  0.00000000000E+00 0.  1.
          6    2    1    2  501    0 -0.10916595257E+03 -0.52200604463E+02 -0.90247011269E+02  0.22802510078E+03  0.17090586659E+03 0.  0.
         24    2    3    3    0    0 -0.14151859885E+03 -0.26649183529E+02 -0.54286633903E+02  0.17311783738E+03  0.79278333712E+02 0.  0.
         -6    2    1    2    0  502  0.10916595257E+03  0.52200604463E+02  0.72429657733E+03  0.75413765367E+03  0.17168564424E+03 0.  0.
        -24    2    5    5    0    0  0.85691388574E+02  0.17488611637E+02  0.68927174490E+03  0.69932153845E+03  0.79411650356E+02 0.  0.
          5    1    3    3  501    0  0.32352646284E+02 -0.25551420934E+02 -0.35960377365E+02  0.54907263395E+02  0.47000000000E+01 0. -1.
        -13    1    4    4    0    0 -0.91455800235E+02  0.22162936672E+02 -0.25446028171E+02  0.97482611312E+02  0.00000000000E+00 0.  1.
         14    1    4    4    0    0 -0.50062798616E+02 -0.48812120201E+02 -0.28840605732E+02  0.75635226071E+02  0.00000000000E+00 0. -1.
         -5    1    5    5    0  502  0.23474563992E+02  0.34711992825E+02  0.35024832434E+02  0.54816115217E+02  0.47000000000E+01 0.  1.
         13    1    6    6    0    0  0.14504594362E+02 -0.15585161648E+02  0.39918471740E+02  0.45241185962E+02  0.00000000000E+00 0. -1.
        -14    1    6    6    0    0  0.71186794213E+02  0.33073773285E+02  0.64935327316E+03  0.65408035249E+03  0.00000000000E+00 0.  1.
</event>
<event>
12    1  0.1040325E-001  0.2285095E+03  0.7818608E-02  0.1127779E+00
         21   -1    0    0  501  502  0.00000000000E+00  0.00000000000E+00  0.48646773290E+02  0.48646773290E+02  0.00000000000E+00 0.  1.
         21   -1    0    0  502  503 -0.00000000000E+00 -0.00000000000E+00 -0.12237312795E+04  0.12237312795E+04  0.00000000000E+00 0.  1.
         -6    2    1    2    0  503  0.21357133830E+02  0.14848671669E+03 -0.81167275619E+03  0.84309411526E+03  0.17172825000E+03 0.  0.
        -24    2    3    3    0    0  0.70784144443E+02  0.76805998880E+02 -0.59457610838E+03  0.60914070286E+03  0.81376229065E+02 0.  0.
          6    2    1    2  501    0 -0.21357133830E+02 -0.14848671669E+03 -0.36341175007E+03  0.42928393757E+03  0.17237217518E+03 0.  0.
         24    2    5    5    0    0 -0.73582741909E+02 -0.13415048205E+03 -0.25336503036E+03  0.30654269642E+03  0.79773519277E+02 0.  0.
          5    1    5    5  501    0  0.52225608079E+02 -0.14336234641E+02 -0.11004671970E+03  0.12274124115E+03  0.47000000000E+01 0. -1.
        -11    1    6    6    0    0  0.77273457879E+01 -0.63410807056E+00 -0.47087624834E+02  0.47721676191E+02  0.00000000000E+00 0.  1.
         12    1    6    6    0    0 -0.81310087697E+02 -0.13351637397E+03 -0.20627740553E+03  0.25882102023E+03  0.00000000000E+00 0. -1.
         -5    1    3    3    0  503 -0.49427010613E+02  0.71680717806E+02 -0.21709664780E+03  0.23395341239E+03  0.47000000000E+01 0.  1.
         13    1    4    4    0    0  0.15469946936E+02  0.70401213225E+02 -0.41214089736E+03  0.41839666509E+03  0.00000000000E+00 0. -1.
        -14    1    4    4    0    0  0.55314197507E+02  0.64047856552E+01 -0.18243521102E+03  0.19074403777E+03  0.00000000000E+00 0.  1.
</event>
<event>
12    1  0.1040325E-001  0.2015450E+03  0.7818608E-02  0.1148715E+00
         21   -1    0    0  503  502  0.00000000000E+00  0.00000000000E+00  0.21106152146E+03  0.21106152146E+03  0.00000000000E+00 0. -1.
         21   -1    0    0  501  503 -0.00000000000E+00 -0.00000000000E+00 -0.16849547041E+04  0.16849547041E+04  0.00000000000E+00 0.  1.
          6    2    1    2  501    0  0.10266341946E+03  0.10585805293E+02 -0.16298135284E+04  0.16422279204E+04  0.17311432123E+03 0.  0.
         24    2    3    3    0    0  0.92878618151E+02 -0.52056769801E+02 -0.12036879288E+04  0.12113857786E+04  0.85173526194E+02 0.  0.
         -6    2    1    2    0  502 -0.10266341946E+03 -0.10585805293E+02  0.15592034583E+03  0.25378830509E+03  0.17159694807E+03 0.  0.
        -24    2    5    5    0    0 -0.81998389760E+02 -0.22628528139E+02  0.18306098126E+03  0.21730852004E+03  0.80472876259E+02 0.  0.
          5    1    3    3  501    0  0.97848013086E+01  0.62642575095E+02 -0.42612559963E+03  0.43084214187E+03  0.47000000000E+01 0. -1.
        -11    1    4    4    0    0  0.79667823032E+02 -0.25962067659E+02 -0.11118500178E+04  0.11150028938E+04  0.00000000000E+00 0.  1.
         12    1    4    4    0    0  0.13210795119E+02 -0.26094702143E+02 -0.91837910986E+02  0.96382884797E+02  0.00000000000E+00 0. -1.
         -5    1    5    5    0  502 -0.20665029700E+02  0.12042722846E+02 -0.27140635427E+02  0.36479785051E+02  0.47000000000E+01 0.  1.
         11    1    6    6    0    0 -0.15408007301E+02  0.15533482870E+02  0.10714299588E+03  0.10935409158E+03  0.00000000000E+00 0. -1.
        -12    1    6    6    0    0 -0.66590382459E+02 -0.38162011009E+02  0.75917985381E+02  0.10795442846E+03  0.00000000000E+00 0.  1.
</event>
<event>
12    1  0.1040325E-001  0.2061231E+03  0.7818608E-02  0.1144955E+00
         21   -1    0    0  501  502  0.00000000000E+00  0.00000000000E+00  0.43692542305E+03  0.43692542305E+03  0.00000000000E+00 0. -1.
         21   -1    0    0  502  503 -0.00000000000E+00 -0.00000000000E+00 -0.51020599343E+03  0.51020599343E+03  0.00000000000E+00 0. -1.
         -6    2    1    2    0  503  0.45565166454E+02  0.10195922074E+03 -0.46305359036E+03  0.50685833807E+03  0.17324803100E+03 0.  0.
        -24    2    3    3    0    0 -0.46052938047E+01  0.30740082566E+02 -0.36825868409E+03  0.37802742184E+03  0.79524284605E+02 0.  0.
          6    2    1    2  501    0 -0.45565166454E+02 -0.10195922074E+03  0.38977301998E+03  0.44027307841E+03  0.17159693874E+03 0.  0.
         24    2    5    5    0    0 -0.28853680790E+00  0.62796969229E-03  0.24310597423E+03  0.25593888123E+03  0.80025701913E+02 0.  0.
          5    1    5    5  501    0 -0.45276629647E+02 -0.10195984871E+03  0.14666704575E+03  0.18433419718E+03  0.47000000000E+01 0. -1.
        -13    1    6    6    0    0  0.75069580429E+01  0.33747908920E+02  0.57220031537E+02  0.66853629554E+02  0.00000000000E+00 0.  1.
         14    1    6    6    0    0 -0.77954948508E+01 -0.33747280950E+02  0.18588594269E+03  0.18908525168E+03  0.00000000000E+00 0. -1.
         -5    1    3    3    0  503  0.50170460259E+02  0.71219138179E+02 -0.94794906261E+02  0.12883091624E+03  0.47000000000E+01 0.  1.
         13    1    4    4    0    0 -0.37158694041E+02  0.18861096218E+02 -0.11321946238E+03  0.12064475187E+03  0.00000000000E+00 0. -1.
        -14    1    4    4    0    0  0.32553400236E+02  0.11878986348E+02 -0.25503922171E+03  0.25738266996E+03  0.00000000000E+00 0.  1.
</event>
<event>
12    1  0.1040325E-001  0.2262914E+03  0.7818608E-02  0.1129710E+00
         21   -1    0    0  501  502  0.00000000000E+00  0.00000000000E+00  0.21658452727E+03  0.21658452727E+03  0.00000000000E+00 0.  1.
         21   -1    0    0  502  503 -0.00000000000E+00 -0.00000000000E+00 -0.27724234225E+03  0.27724234225E+03  0.00000000000E+00 0.  1.
         -6    2    1    2    0  503  0.82632384523E+02 -0.11766965110E+03 -0.12777328984E+03  0.25779240770E+03  0.17162940921E+03 0.  0.
        -24    2    3    3    0    0  0.37984838858E+02 -0.74503949156E+01 -0.46601457227E+01  0.86559747192E+02  0.77282058127E+02 0.  0.
          6    2    1    2  501    0 -0.82632384523E+02  0.11766965110E+03  0.67115474869E+02  0.23603446183E+03  0.17473844008E+03 0.  0.
         24    2    5    5    0    0 -0.48733622693E+02  0.15125898024E+03  0.59349179274E+02  0.18745695229E+03  0.79771791984E+02 0.  0.
          5    1    5    5  501    0 -0.33898761830E+02 -0.33589329139E+02  0.77662955949E+01  0.48577509538E+02  0.47000000000E+01 0. -1.
        -11    1    6    6    0    0 -0.32413428316E+02  0.83651762768E+02  0.74103889237E+02  0.11635993361E+03  0.00000000000E+00 0.  1.
         12    1    6    6    0    0 -0.16320194377E+02  0.67607217473E+02 -0.14754709963E+02  0.71097018679E+02  0.00000000000E+00 0. -1.
         -5    1    3    3    0  503  0.44647545665E+02 -0.11021925619E+03 -0.12311314412E+03  0.17123266051E+03  0.47000000000E+01 0.  1.
         13    1    4    4    0    0 -0.20712146835E+02  0.10929734428E+02 -0.85461344978E+01  0.24929671800E+02  0.00000000000E+00 0. -1.
        -14    1    4    4    0    0  0.58696985693E+02 -0.18380129344E+02  0.38859887750E+01  0.61630075392E+02  0.00000000000E+00 0.  1.
</event>
<event>
12    1  0.1040325E-001  0.1828842E+03  0.7818608E-02  0.1165141E+00
         21   -1    0    0  501  502  0.00000000000E+00  0.00000000000E+00  0.86968689780E+02  0.86968689780E+02  0.00000000000E+00 0. -1.
         21   -1    0    0  502  503 -0.00000000000E+00 -0.00000000000E+00 -0.38372128222E+03  0.38372128222E+03  0.00000000000E+00 0. -1.
         -6    2    1    2    0  503  0.28073719100E+02 -0.54553275863E+02 -0.15019634885E+03  0.23632834789E+03  0.17183699019E+03 0.  0.
        -24    2    3    3    0    0  0.18023771368E+02 -0.58566269826E+02 -0.16782409957E+02  0.10239375691E+03  0.80299239564E+02 0.  0.
          6    2    1    2  501    0 -0.28073719100E+02  0.54553275863E+02 -0.14655624359E+03  0.23436162411E+03  0.17228593880E+03 0.  0.
         24    2    5    5    0    0  0.34197074065E+01  0.78392191728E+01 -0.17607709216E+02  0.93564417026E+02  0.91493830140E+02 0.  0.
          5    1    5    5  501    0 -0.31493426507E+02  0.46714056690E+02 -0.12894853437E+03  0.14079720708E+03  0.47000000000E+01 0. -1.
        -11    1    6    6    0    0 -0.24140476342E+02 -0.13677729174E+02  0.25757667811E+02  0.37858953029E+02  0.00000000000E+00 0.  1.
         12    1    6    6    0    0  0.27560183748E+02  0.21516948346E+02 -0.43365377028E+02  0.55705463997E+02  0.00000000000E+00 0. -1.
         -5    1    3    3    0  503  0.10049947732E+02  0.40129939630E+01 -0.13341393889E+03  0.13393459098E+03  0.47000000000E+01 0.  1.
         13    1    4    4    0    0  0.34771997946E+02 -0.13163404746E+02  0.19430443559E+02  0.41951271763E+02  0.00000000000E+00 0. -1.
        -14    1    4    4    0    0 -0.16748226578E+02 -0.45402865080E+02 -0.36212853516E+02  0.60442485147E+02  0.00000000000E+00 0.  1.
</event>
<event>
12    1  0.1040325E-001  0.2131702E+03  0.7818608E-02  0.1139130E+00
         21   -1    0    0  501  502  0.00000000000E+00  0.00000000000E+00  0.10601439213E+04  0.10601439213E+04  0.00000000000E+00 0. -1.
         21   -1    0    0  502  503 -0.00000000000E+00 -0.00000000000E+00 -0.42811226376E+02  0.42811226376E+02  0.00000000000E+00 0. -1.
         -6    2    1    2    0  503 -0.91420156405E+02 -0.85384113454E+02  0.50932701420E+03  0.55213723546E+03  0.17260772739E+03 0.  0.
        -24    2    3    3    0    0 -0.78901712089E+01 -0.75938342878E+02  0.16062946202E+03  0.19341930461E+03  0.76028393441E+02 0.  0.
          6    2    1    2  501    0  0.91420156405E+02  0.85384113454E+02  0.50800568068E+03  0.55081791218E+03  0.17228612522E+03 0.  0.
         24    2    5    5    0    0  0.11420663378E+03  0.96132002211E+02  0.32393179445E+03  0.36496844014E+03  0.77366903748E+02 0.  0.
          5    1    5    5  501    0 -0.22786477372E+02 -0.10747888757E+02  0.18407388623E+03  0.18584947203E+03  0.47000000000E+01 0. -1.
        -11    1    6    6    0    0  0.28435400567E+02  0.10475282757E+02  0.16505368193E+02  0.34506966448E+02  0.00000000000E+00 0.  1.
         12    1    6    6    0    0  0.85771233210E+02  0.85656719454E+02  0.30742642626E+03  0.33046147370E+03  0.00000000000E+00 0. -1.
         -5    1    3    3    0  503 -0.83529985196E+02 -0.94457705769E+01  0.34869755219E+03  0.35871793084E+03  0.47000000000E+01 0.  1.
         11    1    4    4    0    0 -0.19330576100E+01 -0.44981243689E+02  0.15498609152E+03  0.16139311497E+03  0.00000000000E+00 0. -1.
        -12    1    4    4    0    0 -0.59571135989E+01 -0.30957099189E+02  0.56433704984E+01  0.32026189645E+02  0.00000000000E+00 0.  1.
</event>
<event>
12    1  0.1040325E-001  0.2248387E+03  0.7818608E-02  0.1130490E+00
         21   -1    0    0  501  502  0.00000000000E+00  0.00000000000E+00  0.11509841759E+04  0.11509841759E+04  0.00000000000E+00 0.  1.
         21   -1    0    0  502  503 -0.00000000000E+00 -0.00000000000E+00 -0.88485403736E+02  0.88485403736E+02  0.00000000000E+00 0.  1.
         -6    2    1    2    0  503  0.11495328064E+02 -0.14300852897E+03  0.90045388647E+02  0.24136236356E+03  0.17194195707E+03 0.  0.
        -24    2    3    3    0    0  0.70493896070E+02 -0.67028887176E+02  0.34234963349E+02  0.13004915425E+03  0.79236915056E+02 0.  0.
          6    2    1    2  501    0 -0.11495328064E+02  0.14300852897E+03  0.97245338352E+03  0.99810721608E+03  0.17311513436E+03 0.  0.
         24    2    5    5    0    0 -0.18785436211E+02  0.15639880296E+03  0.96404790259E+03  0.98007426779E+03  0.79647559370E+02 0.  0.
          5    1    5    5  501    0  0.72901081472E+01 -0.13390273988E+02  0.84054809239E+01  0.18032948285E+02  0.47000000000E+01 0. -1.
        -13    1    6    6    0    0 -0.78808908221E-01  0.75653540748E+02  0.24901478557E+03  0.26025339166E+03  0.00000000000E+00 0.  1.
         14    1    6    6    0    0 -0.18706627303E+02  0.80745262209E+02  0.71503311702E+03  0.71982087613E+03  0.00000000000E+00 0. -1.
         -5    1    3    3    0  503 -0.58998568007E+02 -0.75979641793E+02  0.55810425298E+02  0.11131320930E+03  0.47000000000E+01 0.  1.
         11    1    4    4    0    0  0.34933240025E+02 -0.45894894198E+02  0.58449926302E+02  0.82116176585E+02  0.00000000000E+00 0. -1.
        -12    1    4    4    0    0  0.35560656045E+02 -0.21133992978E+02 -0.24214962953E+02  0.47932977670E+02  0.00000000000E+00 0.  1.
</event>
<event>
12    1  0.1040325E-001  0.2172069E+03  0.7818608E-02  0.1136156E+00
         21   -1    0    0  503  502  0.00000000000E+00  0.00000000000E+00  0.13254327181E+04  0.13254327181E+04  0.00000000000E+00 0. -1.
         21   -1    0    0  501  503 -0.00000000000E+00 -0.00000000000E+00 -0.45384567627E+02  0.45384567627E+02  0.00000000000E+00 0. -1.
          6    2    1    2  501    0 -0.96176168731E+02 -0.89864895866E+02  0.31823228537E+03  0.38478046469E+03  0.17163526333E+03 0.  0.
         24    2    3    3    0    0 -0.82788940668E+01 -0.16582322377E+02  0.59960372701E+02  0.10225128506E+03  0.80725246980E+02 0.  0.
         -6    2    1    2    0  502  0.96176168731E+02  0.89864895866E+02  0.96181586507E+03  0.98603682100E+03  0.17278107281E+03 0.  0.
        -24    2    5    5    0    0  0.37440361792E+02  0.47954574623E+02  0.82777690680E+03  0.83373809356E+03  0.78760264809E+02 0.  0.
          5    1    3    3  501    0 -0.87897274665E+02 -0.73282573489E+02  0.25827191267E+03  0.28252917963E+03  0.47000000000E+01 0. -1.
        -11    1    4    4    0    0 -0.16956866159E+02  0.96379571407E+01  0.70151155165E+02  0.72812156256E+02  0.00000000000E+00 0.  1.
         12    1    4    4    0    0  0.86779720920E+01 -0.26220279517E+02 -0.10190782464E+02  0.29439128805E+02  0.00000000000E+00 0. -1.
         -5    1    5    5    0  502  0.58735806939E+02  0.41910321243E+02  0.13403895828E+03  0.15229872744E+03  0.47000000000E+01 0.  1.
         13    1    6    6    0    0  0.22092618406E+02  0.68593566618E+02  0.67190230407E+03  0.67575577496E+03  0.00000000000E+00 0. -1.
        -14    1    6    6    0    0  0.15347743386E+02 -0.20638991995E+02  0.15587460273E+03  0.15798231861E+03  0.00000000000E+00 0.  1.
</event>
<event>
12    1  0.1040325E-001  0.2303876E+03  0.7818608E-02  0.1126416E+00
         21   -1    0    0  503  502  0.00000000000E+00  0.00000000000E+00  0.19495733458E+02  0.19495733458E+02  0.00000000000E+00 0. -1.
         21   -1    0    0  501  503 -0.00000000000E+00 -0.00000000000E+00 -0.27197827647E+04  0.27197827647E+04  0.00000000000E+00 0. -1.
          6    2    1    2  501    0  0.10249748350E+03 -0.11330189984E+03 -0.13330200317E+04  0.13527826384E+04  0.17243957558E+03 0.  0.
         24    2    3    3    0    0  0.71390272928E+02 -0.91123229154E+02 -0.12773988869E+04  0.12851412773E+04  0.80250684841E+02 0.  0.
         -6    2    1    2    0  502 -0.10249748350E+03  0.11330189984E+03 -0.13672669996E+04  0.13864958598E+04  0.17207168984E+03 0.  0.
        -24    2    5    5    0    0 -0.11514955620E+03  0.45235053397E+02 -0.67912865562E+03  0.69486760635E+03  0.79496095020E+02 0.  0.
          5    1    3    3  501    0  0.31107210576E+02 -0.22178670685E+02 -0.55621144817E+02  0.67641361118E+02  0.47000000000E+01 0. -1.
        -11    1    4    4    0    0 -0.10205213485E+01 -0.12553497399E+02 -0.23191768063E+02  0.26391094457E+02  0.00000000000E+00 0.  1.
         12    1    4    4    0    0  0.72410794276E+02 -0.78569731755E+02 -0.12542071188E+04  0.12587501828E+04  0.00000000000E+00 0. -1.
         -5    1    5    5    0  502  0.12652072693E+02  0.68066846441E+02 -0.68813834395E+03  0.69162825343E+03  0.47000000000E+01 0.  1.
         11    1    6    6    0    0 -0.11666509391E+03  0.58333654648E+02 -0.64903204041E+03  0.66200917583E+03  0.00000000000E+00 0. -1.
        -12    1    6    6    0    0  0.15155377151E+01 -0.13098601251E+02 -0.30096615209E+02  0.32858430522E+02  0.00000000000E+00 0.  1.
</event>
<event>
12    1  0.1040325E-001  0.2226805E+03  0.7818608E-02  0.1132013E+00
         21   -1    0    0  501  502  0.00000000000E+00  0.00000000000E+00  0.78910602384E+03  0.78910602384E+03  0.00000000000E+00 0.  1.
         21   -1    0    0  502  503 -0.00000000000E+00 -0.00000000000E+00 -0.66734240556E+02  0.66734240556E+02  0.00000000000E+00 0. -1.
         -6    2    1    2    0  503 -0.12753904789E+03  0.57363832279E+02  0.25506869940E+03  0.33819290204E+03  0.17250385382E+03 0.  0.
        -24    2    3    3    0    0 -0.16054361921E+03  0.40586894617E+02  0.19000989608E+03  0.26318953375E+03  0.75785357312E+02 0.  0.
          6    2    1    2  501    0  0.12753904789E+03 -0.57363832279E+02  0.46730308388E+03  0.51764736236E+03  0.17329108909E+03 0.  0.
         24    2    5    5    0    0  0.77612607313E+02  0.34183421381E+02  0.27924928961E+03  0.30256628773E+03  0.79837144319E+02 0.  0.
          5    1    5    5  501    0  0.49926440582E+02 -0.91547253660E+02  0.18805379427E+03  0.21508107463E+03  0.47000000000E+01 0. -1.
        -11    1    6    6    0    0 -0.15111539873E+02  0.93913249086E+01  0.24061560498E+02  0.29925145187E+02  0.00000000000E+00 0.  1.
         12    1    6    6    0    0  0.92724147186E+02  0.24792096472E+02  0.25518772911E+03  0.27264114255E+03  0.00000000000E+00 0. -1.
         -5    1    3    3    0  503  0.33004571316E+02  0.16776937662E+02  0.65058803318E+02  0.75003368286E+02  0.47000000000E+01 0.  1.
         13    1    4    4    0    0 -0.71294241884E+01 -0.96473934801E+01 -0.21868174809E+01  0.12193566374E+02  0.00000000000E+00 0. -1.
        -14    1    4    4    0    0 -0.15341419502E+03  0.50234288097E+02  0.19219671356E+03  0.25099596738E+03  0.00000000000E+00 0.  1.
</event>
<event>
12    1  0.1040325E-001  0.4390522E+03  0.7818608E-02  0.1031088E+00
         21   -1    0    0  503  502  0.00000000000E+00  0.00000000000E+00  0.85619966452E+03  0.85619966452E+03  0.00000000000E+00 0. -1.
         21   -1    0    0  501  503 -0.00000000000E+00 -0.00000000000E+00 -0.47624441148E+03  0.47624441148E+03  0.00000000000E+00 0.  1.
          6    2    1    2  501    0 -0.37848718459E+03  0.14129294382E+03 -0.29416877133E+03  0.52795041122E+03  0.17023550103E+03 0.  0.
         24    2    3    3    0    0 -0.15877228670E+03  0.81846351154E+02 -0.67899412419E+02  0.20696996553E+03  0.79490705137E+02 0.  0.
         -6    2    1    2    0  502  0.37848718459E+03 -0.14129294382E+03  0.67412402437E+03  0.80449366479E+03  0.17190291323E+03 0.  0.
        -24    2    5    5    0    0  0.23065649962E+03 -0.15489099287E+03  0.47318520282E+03  0.55461905950E+03  0.80650012476E+02 0.  0.
          5    1    3    3  501    0 -0.21971489788E+03  0.59446592662E+02 -0.22626935891E+03  0.32098044569E+03  0.47000000000E+01 0. -1.
        -13    1    4    4    0    0 -0.90577278209E+02  0.31901119164E+02 -0.75420759376E+02  0.12210739403E+03  0.00000000000E+00 0.  1.
         14    1    4    4    0    0 -0.68195008492E+02  0.49945231990E+02  0.75213469572E+01  0.84862571501E+02  0.00000000000E+00 0. -1.
         -5    1    5    5    0  502  0.14783068497E+03  0.13598049056E+02  0.20093882156E+03  0.24987460528E+03  0.47000000000E+01 0.  1.
         13    1    6    6    0    0  0.17336849058E+03 -0.78887635846E+02  0.35504381559E+03  0.40290942357E+03  0.00000000000E+00 0. -1.
        -14    1    6    6    0    0  0.57288009038E+02 -0.76003357026E+02  0.11814138723E+03  0.15170963594E+03  0.00000000000E+00 0.  1.
</event>
<event>
12    1  0.1040325E-001  0.2221522E+03  0.7818608E-02  0.1132471E+00
         21   -1    0    0  501  502  0.00000000000E+00  0.00000000000E+00  0.12768888853E+03  0.12768888853E+03  0.00000000000E+00 0. -1.
         21   -1    0    0  502  503 -0.00000000000E+00 -0.00000000000E+00 -0.45355888661E+03  0.45355888661E+03  0.00000000000E+00 0.  1.
         -6    2    1    2    0  503  0.64526729417E+02  0.12412402281E+03 -0.49455279309E+02  0.22662589292E+03  0.17129798260E+03 0.  0.
        -24    2    3    3    0    0  0.68731695236E+01  0.31728445791E+02  0.29703569795E+02  0.91907338099E+02  0.80689045144E+02 0.  0.
          6    2    1    2  501    0 -0.64526729417E+02 -0.12412402281E+03 -0.27641471878E+03  0.35462188222E+03  0.17257204508E+03 0.  0.
         24    2    5    5    0    0 -0.86204461775E+02 -0.56478819929E+02 -0.24351203275E+03  0.27619692253E+03  0.79784482143E+02 0.  0.
          5    1    5    5  501    0  0.21677732358E+02 -0.67645202885E+02 -0.32902686020E+02  0.78424959681E+02  0.47000000000E+01 0. -1.
        -11    1    6    6    0    0 -0.38975297121E+02 -0.70489542414E+02 -0.13887679611E+03  0.16054474103E+03  0.00000000000E+00 0.  1.
         12    1    6    6    0    0 -0.47229164654E+02  0.14010722486E+02 -0.10463523665E+03  0.11565218151E+03  0.00000000000E+00 0. -1.
         -5    1    3    3    0  503  0.57653559894E+02  0.92395577023E+02 -0.79158849104E+02  0.13471855482E+03  0.47000000000E+01 0.  1.
         13    1    4    4    0    0  0.30747003312E+02  0.46332963059E+02  0.31417142464E+02  0.63868290403E+02  0.00000000000E+00 0. -1.
        -14    1    4    4    0    0 -0.23873833788E+02 -0.14604517268E+02 -0.17135726683E+01  0.28039047695E+02  0.00000000000E+00 0.  1.
</event>
<event>
12    1  0.1040325E-001  0.2596665E+03  0.7818608E-02  0.1107407E+00
         21   -1    0    0  503  502  0.00000000000E+00  0.00000000000E+00  0.26262175993E+03  0.26262175993E+03  0.00000000000E+00 0.  1.
         21   -1    0    0  501  503 -0.00000000000E+00 -0.00000000000E+00 -0.27074331895E+03  0.27074331895E+03  0.00000000000E+00 0. -1.
          6    2    1    2  501    0 -0.83176738219E+02  0.17669488006E+03  0.57481240533E+02  0.26553972409E+03  0.17049281990E+03 0.  0.
         24    2    3    3    0    0 -0.23632212198E+02  0.94562221428E+02 -0.32184598787E+02  0.13006508834E+03  0.79878555507E+02 0.  0.
         -6    2    1    2    0  502  0.83176738219E+02 -0.17669488006E+03 -0.65602799560E+02  0.26782535479E+03  0.17113515986E+03 0.  0.
        -24    2    5    5    0    0  0.91018432029E+02 -0.15411995380E+03 -0.10412315475E+03  0.22225094068E+03  0.80725052792E+02 0.  0.
          5    1    3    3  501    0 -0.59544526021E+02  0.82132658628E+02  0.89665839321E+02  0.13547463576E+03  0.47000000000E+01 0. -1.
        -11    1    4    4    0    0 -0.77842797702E+01  0.47911267870E+02  0.24986574209E+02  0.54593163411E+02  0.00000000000E+00 0.  1.
         12    1    4    4    0    0 -0.15847932428E+02  0.46650953558E+02 -0.57171172997E+02  0.75471924925E+02  0.00000000000E+00 0. -1.
         -5    1    5    5    0  502 -0.78416938100E+01 -0.22574926256E+02  0.38520355194E+02  0.45574414110E+02  0.47000000000E+01 0.  1.
         11    1    6    6    0    0  0.40841157739E+02 -0.12264663401E+03 -0.98954067257E+02  0.16279466953E+03  0.00000000000E+00 0. -1.
        -12    1    6    6    0    0  0.50177274290E+02 -0.31473319791E+02 -0.51690874966E+01  0.59456271153E+02  0.00000000000E+00 0.  1.
</event>
<event>
12    1  0.1040325E-001  0.2709873E+03  0.7818608E-02  0.1100911E+00
         21   -1    0    0  501  502  0.00000000000E+00  0.00000000000E+00  0.46624014607E+03  0.46624014607E+03  0.00000000000E+00 0.  1.
         21   -1    0    0  502  503 -0.00000000000E+00 -0.00000000000E+00 -0.16840288388E+03  0.16840288388E+03  0.00000000000E+00 0. -1.
         -6    2    1    2    0  503  0.94085701321E+02  0.18630480822E+03  0.64959342583E+02  0.27733892652E+03  0.17069142688E+03 0.  0.
        -24    2    3    3    0    0 -0.32610227255E+01  0.82191270878E+02 -0.11412658760E+02  0.11556505369E+03  0.80367864073E+02 0.  0.
          6    2    1    2  501    0 -0.94085701321E+02 -0.18630480822E+03  0.23287791961E+03  0.35730410344E+03  0.17283661687E+03 0.  0.
         24    2    5    5    0    0 -0.43868019548E+02 -0.17542692505E+03  0.23053499999E+03  0.30565409688E+03  0.87057633467E+02 0.  0.
          5    1    5    5  501    0 -0.50217681774E+02 -0.10877883171E+02  0.23429196141E+01  0.51650006557E+02  0.47000000000E+01 0. -1.
        -13    1    6    6    0    0 -0.67079641076E+02 -0.12457573963E+03  0.18860883522E+03  0.23577974017E+03  0.00000000000E+00 0.  1.
         14    1    6    6    0    0  0.23211621529E+02 -0.50851185426E+02  0.41926164769E+02  0.69874356709E+02  0.00000000000E+00 0. -1.
         -5    1    3    3    0  503  0.97346724047E+02  0.10411353735E+03  0.76372001343E+02  0.16177387283E+03  0.47000000000E+01 0.  1.
         13    1    4    4    0    0 -0.54412289299E+00  0.28544832941E+01 -0.33135945490E+02  0.33263118136E+02  0.00000000000E+00 0. -1.
        -14    1    4    4    0    0 -0.27168998325E+01  0.79336787584E+02  0.21723286730E+02  0.82301935549E+02  0.00000000000E+00 0.  1.
</event>
<event>
12    1  0.1040325E-001  0.2124201E+03  0.7818608E-02  0.1140425E+00
         21   -1    0    0  503  502  0.00000000000E+00  0.00000000000E+00  0.59792736004E+02  0.59792736004E+02  0.00000000000E+00 0.  1.
         21   -1    0    0  501  503 -0.00000000000E+00 -0.00000000000E+00 -0.24547097381E+04  0.24547097381E+04  0.00000000000E+00 0.  1.
          6    2    1    2  501    0  0.48510984395E+01 -0.12106808741E+03 -0.22446199330E+04  0.22542881126E+04  0.16975051187E+03 0.  0.
         24    2    3    3    0    0 -0.28903698547E+02 -0.12747143281E+03 -0.13161147617E+04  0.13251356320E+04  0.82109605337E+02 0.  0.
         -6    2    1    2    0  502 -0.48510984395E+01  0.12106808741E+03 -0.15029706916E+03  0.26021436152E+03  0.17447432475E+03 0.  0.
        -24    2    5    5    0    0 -0.49294494675E+02  0.45933212640E+02 -0.13646164432E+03  0.17170462275E+03  0.79504024271E+02 0.  0.
          5    1    3    3  501    0  0.33754796986E+02  0.64033453957E+01 -0.92850517128E+03  0.92915248063E+03  0.47000000000E+01 0. -1.
        -11    1    4    4    0    0  0.28984914483E+02 -0.39498357488E+02 -0.40159433371E+03  0.40457169251E+03  0.00000000000E+00 0.  1.
         12    1    4    4    0    0 -0.57888613030E+02 -0.87973075318E+02 -0.91452042797E+03  0.92056393949E+03  0.00000000000E+00 0. -1.
         -5    1    5    5    0  502  0.44443396235E+02  0.75134874770E+02 -0.13835424841E+02  0.88509738764E+02  0.47000000000E+01 0.  1.
         13    1    6    6    0    0  0.18358299155E+01  0.38217949288E+02 -0.10359308407E+03  0.11043327844E+03  0.00000000000E+00 0. -1.
        -14    1    6    6    0    0 -0.51130324590E+02  0.77152633524E+01 -0.32868560250E+02  0.61271344315E+02  0.00000000000E+00 0.  1.
</event>
<event>
12    1  0.1040325E-001  0.1883083E+03  0.7818608E-02  0.1160012E+00
         21   -1    0    0  503  502  0.00000000000E+00  0.00000000000E+00  0.27597584087E+03  0.27597584087E+03  0.00000000000E+00 0. -1.
         21   -1    0    0  501  503 -0.00000000000E+00 -0.00000000000E+00 -0.14143449167E+03  0.14143449167E+03  0.00000000000E+00 0.  1.
          6    2    1    2  501    0  0.17014461969E+02  0.75444800584E+02  0.40037045771E+01  0.18828131878E+03  0.17161706063E+03 0.  0.
         24    2    3    3    0    0 -0.56515388538E+02  0.42342437286E+02  0.47722082661E+01  0.10750331454E+03  0.80915496215E+02 0.  0.
         -6    2    1    2    0  502 -0.17014461969E+02 -0.75444800584E+02  0.13053764462E+03  0.22912901377E+03  0.17169338494E+03 0.  0.
        -24    2    5    5    0    0  0.51828976475E+02 -0.17041011136E+02  0.50288650497E+02  0.10824720083E+03  0.78815412559E+02 0.  0.
          5    1    3    3  501    0  0.73529850507E+02  0.33102363299E+02 -0.76850368899E+00  0.80778004243E+02  0.47000000000E+01 0. -1.
        -11    1    4    4    0    0  0.16211703536E+02 -0.52896923079E+01 -0.93168459354E+01  0.19432030116E+02  0.00000000000E+00 0.  1.
         12    1    4    4    0    0 -0.72727092074E+02  0.47632129594E+02  0.14089054201E+02  0.88071284420E+02  0.00000000000E+00 0. -1.
         -5    1    5    5    0  502 -0.68843438445E+02 -0.58403789449E+02  0.80248994128E+02  0.12088181293E+03  0.47000000000E+01 0.  1.
         11    1    6    6    0    0  0.65363247675E+01 -0.58777541795E+01  0.59965185267E+02  0.60606063886E+02  0.00000000000E+00 0. -1.
        -12    1    6    6    0    0  0.45292651708E+02 -0.11163256956E+02 -0.96765347701E+01  0.47641136949E+02  0.00000000000E+00 0.  1.
</event>
<event>
12    1  0.1040325E-001  0.1824656E+03  0.7818608E-02  0.1165588E+00
         21   -1    0    0  501  502  0.00000000000E+00  0.00000000000E+00  0.61371545173E+03  0.61371545173E+03  0.00000000000E+00 0.  1.
         21   -1    0    0  502  503 -0.00000000000E+00 -0.00000000000E+00 -0.11855650224E+03  0.11855650224E+03  0.00000000000E+00 0.  1.
         -6    2    1    2    0  503  0.56693339238E+02  0.26868679126E+02 -0.22664686617E+02  0.18324097379E+03  0.17066782305E+03 0.  0.
        -24    2    3    3    0    0 -0.30250157000E+02 -0.15303234316E+02 -0.15336125158E+02  0.86218091773E+02  0.77775970808E+02 0.  0.
          6    2    1    2  501    0 -0.56693339238E+02 -0.26868679126E+02  0.51782363611E+03  0.54903098018E+03  0.17134070868E+03 0.  0.
         24    2    5    5    0    0  0.17610280547E+02  0.18200211588E+02  0.33215777269E+03  0.34397943626E+03  0.85742037128E+02 0.  0.
          5    1    5    5  501    0 -0.74303619785E+02 -0.45068890714E+02  0.18566586342E+03  0.20505154392E+03  0.47000000000E+01 0. -1.
        -11    1    6    6    0    0  0.35727103251E+02  0.38432939669E+02  0.13298170140E+03  0.14296030801E+03  0.00000000000E+00 0.  1.
         12    1    6    6    0    0 -0.18116822704E+02 -0.20232728081E+02  0.19917607128E+03  0.20101912825E+03  0.00000000000E+00 0. -1.
         -5    1    3    3    0  503  0.86943496238E+02  0.42171913442E+02 -0.73285614590E+01  0.97022882015E+02  0.47000000000E+01 0.  1.
         11    1    4    4    0    0  0.13830281185E+02  0.17479759100E+02  0.11497513944E+02  0.25080101331E+02  0.00000000000E+00 0. -1.
        -12    1    4    4    0    0 -0.44080438185E+02 -0.32782993416E+02 -0.26833639102E+02  0.61137990443E+02  0.00000000000E+00 0.  1.
</event>
<event>
12    1  0.1040325E-001  0.2281550E+03  0.7818608E-02  0.1128343E+00
         21   -1    0    0  503  502  0.00000000000E+00  0.00000000000E+00  0.22741589821E+03  0.22741589821E+03  0.00000000000E+00 0. -1.
         21   -1    0    0  501  503 -0.00000000000E+00 -0.00000000000E+00 -0.56443692809E+03  0.56443692809E+03  0.00000000000E+00 0. -1.
          6    2    1    2  501    0  0.12159352476E+03 -0.81878373021E+02 -0.47445474403E+03  0.52550208846E+03  0.17191884018E+03 0.  0.
         24    2    3    3    0    0  0.76367673008E+02  0.22555485173E+02 -0.23667116251E+03  0.26184524701E+03  0.78796718357E+02 0.  0.
         -6    2    1    2    0  502 -0.12159352476E+03  0.81878373021E+02  0.13743371415E+03  0.26635073784E+03  0.17483030782E+03 0.  0.
        -24    2    5    5    0    0 -0.26418379080E+02  0.87869335933E+02  0.34404245424E+02  0.12588237337E+03  0.79017522559E+02 0.  0.
          5    1    3    3  501    0  0.45225851752E+02 -0.10443385819E+03 -0.23778358152E+03  0.26365684145E+03  0.47000000000E+01 0. -1.
        -13    1    4    4    0    0  0.67938644862E+02  0.28558611716E+02 -0.23993211759E+03  0.25099536813E+03  0.00000000000E+00 0.  1.
         14    1    4    4    0    0  0.84290281467E+01 -0.60031265433E+01  0.32609550769E+01  0.10849878884E+02  0.00000000000E+00 0. -1.
         -5    1    5    5    0  502 -0.95175145680E+02 -0.59909629117E+01  0.10302946872E+03  0.14046836447E+03  0.47000000000E+01 0.  1.
         11    1    6    6    0    0 -0.36309286301E+02  0.72986504667E+01  0.23784369216E+02  0.44015120009E+02  0.00000000000E+00 0. -1.
        -12    1    6    6    0    0  0.98909072209E+01  0.80570685466E+02  0.10619876208E+02  0.81867253361E+02  0.00000000000E+00 0.  1.
</event>
<event>
12    1  0.1040325E-001  0.2321446E+03  0.7818608E-02  0.1125287E+00
         21   -1    0    0  503  502  0.00000000000E+00  0.00000000000E+00  0.37617416994E+03  0.37617416994E+03  0.00000000000E+00 0.  1.
         21   -1    0    0  501  503 -0.00000000000E+00 -0.00000000000E+00 -0.20332225449E+03  0.20332225449E+03  0.00000000000E+00 0. -1.
          6    2    1    2  501    0  0.11204021248E+03  0.10712900429E+03 -0.71849594424E+02  0.24219839409E+03  0.17166264914E+03 0.  0.
         24    2    3    3    0    0  0.12754141717E+03  0.31175180386E+02 -0.45854598794E+02  0.16030150459E+03  0.79719653641E+02 0.  0.
         -6    2    1    2    0  502 -0.11204021248E+03 -0.10712900429E+03  0.24470150987E+03  0.33729803033E+03  0.17280480190E+03 0.  0.
        -24    2    5    5    0    0 -0.99079902413E+02 -0.76479345828E+02  0.26062239987E+03  0.30011018367E+03  0.80474652083E+02 0.  0.
          5    1    3    3  501    0 -0.15501204692E+02  0.75953823904E+02 -0.25994995630E+02  0.81896889503E+02  0.47000000000E+01 0. -1.
        -11    1    4    4    0    0  0.44837127226E+02  0.52333770727E+01  0.22005835290E+02  0.50219647552E+02  0.00000000000E+00 0.  1.
         12    1    4    4    0    0  0.82704289947E+02  0.25941803313E+02 -0.67860434084E+02  0.11008185704E+03  0.00000000000E+00 0. -1.
         -5    1    5    5    0  502 -0.12960310067E+02 -0.30649658462E+02 -0.15920889999E+02  0.37187846660E+02  0.47000000000E+01 0.  1.
         11    1    6    6    0    0  0.83422053652E+01 -0.15587086562E+02  0.90352484973E+01  0.19854102177E+02  0.00000000000E+00 0. -1.
        -12    1    6    6    0    0 -0.10742210778E+03 -0.60892259266E+02  0.25158715137E+03  0.28025608149E+03  0.00000000000E+00 0.  1.
</event>
<event>
12    1  0.1040325E-001  0.2061007E+03  0.7818608E-02  0.1145345E+00
         21   -1    0    0  501  502  0.00000000000E+00  0.00000000000E+00  0.10786959781E+03  0.10786959781E+03  0.00000000000E+00 0. -1.
         21   -1    0    0  502  503 -0.00000000000E+00 -0.00000000000E+00 -0.42870201046E+03  0.42870201046E+03  0.00000000000E+00 0. -1.
         -6    2    1    2    0  503  0.55557340608E+02  0.10002892379E+03 -0.76316133659E+02  0.21678151675E+03  0.16756392827E+03 0.  0.
        -24    2    3    3    0    0  0.84594119473E+02  0.39520064858E+02 -0.84749723150E+02  0.14897538157E+03  0.79329365080E+02 0.  0.
          6    2    1    2  501    0 -0.55557340608E+02 -0.10002892379E+03 -0.24451627899E+03  0.31979009153E+03  0.17142079296E+03 0.  0.
         24    2    5    5    0    0 -0.54924449345E+01 -0.10282726895E+03 -0.94557738950E+02  0.16160040082E+03  0.81054977397E+02 0.  0.
          5    1    5    5  501    0 -0.50064895674E+02  0.27983451547E+01 -0.14995854004E+03  0.15818969070E+03  0.47000000000E+01 0. -1.
        -13    1    6    6    0    0 -0.75865250156E+00 -0.78915417937E+02 -0.17577327718E+02  0.80852836632E+02  0.00000000000E+00 0.  1.
         14    1    6    6    0    0 -0.47337924330E+01 -0.23911851010E+02 -0.76980411232E+02  0.80747564192E+02  0.00000000000E+00 0. -1.
         -5    1    3    3    0  503 -0.29036778865E+02  0.60508858934E+02  0.84335894916E+01  0.67806135180E+02  0.47000000000E+01 0.  1.
         13    1    4    4    0    0  0.67987861584E+02  0.58037309214E+02 -0.40332791544E+02  0.98068408050E+02  0.00000000000E+00 0. -1.
        -14    1    4    4    0    0  0.16606257888E+02 -0.18517244357E+02 -0.44416931606E+02  0.50906973520E+02  0.00000000000E+00 0.  1.
</event>
<event>
12    1  0.1040325E-001  0.2018740E+03  0.7818608E-02  0.1149241E+00
         21   -1    0    0  503  502  0.00000000000E+00  0.00000000000E+00  0.46979028065E+03  0.46979028065E+03  0.00000000000E+00 0. -1.
         21   -1    0    0  501  503 -0.00000000000E+00 -0.00000000000E+00 -0.12025114599E+03  0.12025114599E+03  0.00000000000E+00 0.  1.
          6    2    1    2  501    0 -0.91229509043E+02 -0.54015025834E+02  0.33388036198E+03  0.38756105204E+03  0.16579211865E+03 0.  0.
         24    2    3    3    0    0 -0.27631779125E+02 -0.89588933763E+02  0.20181305999E+03  0.23665036179E+03  0.80530679143E+02 0.  0.
         -6    2    1    2    0  502  0.91229509043E+02  0.54015025834E+02  0.15658772686E+02  0.20248037460E+03  0.17179248703E+03 0.  0.
        -24    2    5    5    0    0  0.11551940572E+03  0.84247690455E+02  0.13791359561E+02  0.16337039732E+03  0.77828520987E+02 0.  0.
          5    1    3    3  501    0 -0.63597729919E+02  0.35573907928E+02  0.13206730200E+03  0.15091069025E+03  0.47000000000E+01 0. -1.
        -11    1    4    4    0    0  0.92187027122E+01 -0.83925927692E+02  0.11982143136E+03  0.14658008471E+03  0.00000000000E+00 0.  1.
         12    1    4    4    0    0 -0.36850481837E+02 -0.56630060707E+01  0.81991628622E+02  0.90070277081E+02  0.00000000000E+00 0. -1.
         -5    1    5    5    0  502 -0.24289896675E+02 -0.30232664620E+02  0.18674131248E+01  0.39109977273E+02  0.47000000000E+01 0.  1.
         11    1    6    6    0    0  0.23127642052E+02  0.15842128392E+00  0.29469508298E+02  0.37461511495E+02  0.00000000000E+00 0. -1.
        -12    1    6    6    0    0  0.92391763666E+02  0.84089269171E+02 -0.15678148736E+02  0.12590888583E+03  0.00000000000E+00 0.  1.
</event>
<event>
12    1  0.1040325E-001  0.1803160E+03  0.7818608E-02  0.1167819E+00
         21   -1    0    0  501  502  0.00000000000E+00  0.00000000000E+00  0.21977968788E+03  0.21977968788E+03  0.00000000000E+00 0. -1.
         21   -1    0    0  502  503 -0.00000000000E+00 -0.00000000000E+00 -0.19062174811E+03  0.19062174811E+03  0.00000000000E+00 0. -1.
         -6    2    1    2    0  503  0.21566672559E+02 -0.53632475495E+02 -0.83706814179E+02  0.19879813831E+03  0.17079902009E+03 0.  0.
        -24    2    3    3    0    0 -0.12968864486E+02  0.32072198648E+02 -0.39337973791E+02  0.96188789387E+02  0.80672111969E+02 0.  0.
          6    2    1    2  501    0 -0.21566672559E+02  0.53632475495E+02  0.11286475395E+03  0.21160329768E+03  0.16939875770E+03 0.  0.
         24    2    5    5    0    0 -0.32994887818E+02 -0.89616661648E+01  0.59665406368E+01  0.87112540257E+02  0.79900068713E+02 0.  0.
          5    1    5    5  501    0  0.11428215259E+02  0.62594141660E+02  0.10689821331E+03  0.12449075742E+03  0.47000000000E+01 0. -1.
        -11    1    6    6    0    0 -0.78768937534E+01  0.29715779900E+01 -0.35887861160E+02  0.36862098551E+02  0.00000000000E+00 0.  1.
         12    1    6    6    0    0 -0.25117994065E+02 -0.11933244155E+02  0.41854401797E+02  0.50250441706E+02  0.00000000000E+00 0. -1.
         -5    1    3    3    0  503  0.34535537044E+02 -0.85704674144E+02 -0.44368840388E+02  0.10260934892E+03  0.47000000000E+01 0.  1.
         11    1    4    4    0    0  0.12255052687E+02 -0.59050384196E+01 -0.47905920919E+02  0.49799930263E+02  0.00000000000E+00 0. -1.
        -12    1    4    4    0    0 -0.25223917172E+02  0.37977237068E+02  0.85679471285E+01  0.46388859124E+02  0.00000000000E+00 0.  1.
</event>
<event>
12    1  0.1040325E-001  0.1727437E+03  0.7818608E-02  0.1175202E+00
         21   -1    0    0  503  502  0.00000000000E+00  0.00000000000E+00  0.11240631270E+03  0.11240631270E+03  0.00000000000E+00 0. -1.
         21   -1    0    0  501  503 -0.00000000000E+00 -0.00000000000E+00 -0.31693407167E+03  0.31693407167E+03  0.00000000000E+00 0. -1.
          6    2    1    2  501    0 -0.31923934876E+01 -0.89911090824E+01 -0.18987927594E+03  0.25669931725E+03  0.17248005284E+03 0.  0.
         24    2    3    3    0    0  0.62441399939E+02  0.11318595172E-01 -0.85797283538E+02  0.13323276435E+03  0.80565917598E+02 0.  0.
         -6    2    1    2    0  502  0.31923934876E+01  0.89911090824E+01 -0.14648483031E+02  0.17264106712E+03  0.17175368579E+03 0.  0.
        -24    2    5    5    0    0 -0.35451685832E+02 -0.40930725572E+01 -0.59575222106E+02  0.11177184206E+03  0.87579462871E+02 0.  0.
          5    1    3    3  501    0 -0.65633793427E+02 -0.90024276775E+01 -0.10408199241E+03  0.12346655291E+03  0.47000000000E+01 0. -1.
        -13    1    4    4    0    0  0.52502980624E+02 -0.79779351133E+01 -0.71808943065E+01  0.53588950970E+02  0.00000000000E+00 0.  1.
         14    1    4    4    0    0  0.99384193154E+01  0.79892537085E+01 -0.78616389231E+02  0.79643813376E+02  0.00000000000E+00 0. -1.
         -5    1    5    5    0  502  0.38644079319E+02  0.13084181640E+02  0.44926739075E+02  0.60869225061E+02  0.47000000000E+01 0.  1.
         11    1    6    6    0    0  0.16939025407E+02 -0.14646801613E+02  0.95937177878E+01  0.24361830806E+02  0.00000000000E+00 0. -1.
        -12    1    6    6    0    0 -0.52390711238E+02  0.10553729056E+02 -0.69168939894E+02  0.87410011252E+02  0.00000000000E+00 0.  1.
</event>
<event>
12    1  0.1040325E-001  0.2330775E+03  0.7818608E-02  0.1124932E+00
         21   -1    0    0  503  502  0.00000000000E+00  0.00000000000E+00  0.68078584685E+02  0.68078584685E+02  0.00000000000E+00 0.  1.
         21   -1    0    0  501  503 -0.00000000000E+00 -0.00000000000E+00 -0.84608176962E+03  0.84608176962E+03  0.00000000000E+00 0.  1.
          6    2    1    2  501    0  0.15165839522E+03  0.36201346915E+02 -0.50933055660E+03  0.56012741507E+03  0.17324635311E+03 0.  0.
         24    2    3    3    0    0  0.16324783838E+03 -0.11356433978E+02 -0.37112403540E+03  0.41343320857E+03  0.80094587658E+02 0.  0.
         -6    2    1    2    0  502 -0.15165839522E+03 -0.36201346915E+02 -0.26867262833E+03  0.35403293923E+03  0.16983384377E+03 0.  0.
        -24    2    5    5    0    0 -0.60244726937E+02 -0.46457917712E+02 -0.56770779022E+02  0.12297853063E+03  0.78185883661E+02 0.  0.
          5    1    3    3  501    0 -0.11589443165E+02  0.47557780892E+02 -0.13820652120E+03  0.14669420650E+03  0.47000000000E+01 0. -1.
        -11    1    4    4    0    0  0.52666374112E+02 -0.41611993028E+02 -0.12365281015E+03  0.14069585063E+03  0.00000000000E+00 0.  1.
         12    1    4    4    0    0  0.11058146427E+03  0.30255559050E+02 -0.24747122524E+03  0.27273735794E+03  0.00000000000E+00 0. -1.
         -5    1    5    5    0  502 -0.91413668281E+02  0.10256570797E+02 -0.21190184931E+03  0.23105440860E+03  0.47000000000E+01 0.  1.
         13    1    6    6    0    0 -0.12142178765E+02 -0.42823345746E+02 -0.59911366117E+02  0.74636741864E+02  0.00000000000E+00 0. -1.
        -14    1    6    6    0    0 -0.48102548172E+02 -0.36345719658E+01  0.31405870950E+01  0.48341788768E+02  0.00000000000E+00 0.  1.
</event>
<event>
12    1  0.1040325E-001  0.2126467E+03  0.7818608E-02  0.1139752E+00
         21   -1    0    0  501  502  0.00000000000E+00  0.00000000000E+00  0.76850080474E+02  0.76850080474E+02  0.00000000000E+00 0. -1.
         21   -1    0    0  502  503 -0.00000000000E+00 -0.00000000000E+00 -0.58655287592E+03  0.58655287592E+03  0.00000000000E+00 0.  1.
         -6    2    1    2    0  503  0.10522557247E+03 -0.66768416219E+02 -0.23517718542E+03  0.31615244757E+03  0.17062713459E+03 0.  0.
        -24    2    3    3    0    0 -0.13685703518E+02 -0.19191283717E+02 -0.84547857329E+02  0.11837793057E+03  0.79431671367E+02 0.  0.
          6    2    1    2  501    0 -0.10522557247E+03  0.66768416219E+02 -0.27452561003E+03  0.34725050882E+03  0.17230253281E+03 0.  0.
         24    2    5    5    0    0 -0.14122568363E+03  0.50570788484E+02 -0.24479647545E+03  0.29760896784E+03  0.78381662269E+02 0.  0.
          5    1    5    5  501    0  0.36000111168E+02  0.16197627734E+02 -0.29729134573E+02  0.49641540979E+02  0.47000000000E+01 0. -1.
        -11    1    6    6    0    0 -0.83182883992E+02  0.18409617171E+02 -0.20043182857E+03  0.21778710728E+03  0.00000000000E+00 0.  1.
         12    1    6    6    0    0 -0.58042799642E+02  0.32161171313E+02 -0.44364646883E+02  0.79821860562E+02  0.00000000000E+00 0. -1.
         -5    1    3    3    0  503  0.11891127598E+03 -0.47577132501E+02 -0.15062932809E+03  0.19777451700E+03  0.47000000000E+01 0.  1.
         13    1    4    4    0    0  0.20325000965E+02 -0.24055712482E+02 -0.52101738739E+01  0.31920665391E+02  0.00000000000E+00 0. -1.
        -14    1    4    4    0    0 -0.34010704483E+02  0.48644287643E+01 -0.79337683455E+02  0.86457265181E+02  0.00000000000E+00 0.  1.
</event>
<event>
12    1  0.1040325E-001  0.2283082E+03  0.7818608E-02  0.1128080E+00
         21   -1    0    0  503  502  0.00000000000E+00  0.00000000000E+00  0.76995498096E+03  0.76995498096E+03  0.00000000000E+00 0. -1.
         21   -1    0    0  501  503 -0.00000000000E+00 -0.00000000000E+00 -0.14084043350E+03  0.14084043350E+03  0.00000000000E+00 0. -1.
          6    2    1    2  501    0  0.13887065126E+03 -0.54627188647E+02 -0.14979569319E+02  0.22743469068E+03  0.17097649986E+03 0.  0.
         24    2    3    3    0    0  0.70426063996E+02 -0.97856164860E+02 -0.16726620595E+02  0.14632644141E+03  0.81215688931E+02 0.  0.
         -6    2    1    2    0  502 -0.13887065126E+03  0.54627188647E+02  0.64409411678E+03  0.68336072378E+03  0.17278732597E+03 0.  0.
        -24    2    5    5    0    0 -0.12153647401E+03  0.16943302066E+02  0.61491348639E+03  0.63242794260E+03  0.82391242494E+02 0.  0.
          5    1    3    3  501    0  0.68444587268E+02  0.43228976212E+02  0.17470512762E+01  0.81108249265E+02  0.47000000000E+01 0. -1.
        -13    1    4    4    0    0  0.49833827236E+02 -0.22673727183E+02 -0.36631211913E+02  0.65873772683E+02  0.00000000000E+00 0.  1.
         14    1    4    4    0    0  0.20592236760E+02 -0.75182437677E+02  0.19904591318E+02  0.80452668728E+02  0.00000000000E+00 0. -1.
         -5    1    5    5    0  502 -0.17334177255E+02  0.37683886582E+02  0.29180630395E+02  0.50932781185E+02  0.47000000000E+01 0.  1.
         11    1    6    6    0    0 -0.10441167291E+03 -0.20320213766E+02  0.42153479253E+03  0.43474853633E+03  0.00000000000E+00 0. -1.
        -12    1    6    6    0    0 -0.17124801094E+02  0.37263515832E+02  0.19337869386E+03  0.19767940627E+03  0.00000000000E+00 0.  1.
</event>
<event>
12    1  0.1040325E-001  0.1836064E+03  0.7818608E-02  0.1164792E+00
         21   -1    0    0  501  502  0.00000000000E+00  0.00000000000E+00  0.11200953357E+04  0.11200953357E+04  0.00000000000E+00 0.  1.
         21   -1    0    0  502  503 -0.00000000000E+00 -0.00000000000E+00 -0.51702397931E+02  0.51702397931E+02  0.00000000000E+00 0.  1.
         -6    2    1    2    0  503  0.58251567532E+02 -0.14220531360E+02  0.15437905824E+03  0.23988373390E+03  0.17353917003E+03 0.  0.
        -24    2    3    3    0    0  0.63084163311E+02 -0.39706266117E+02  0.17579237174E+03  0.20592056777E+03  0.77098139004E+02 0.  0.
          6    2    1    2  501    0 -0.58251567532E+02  0.14220531360E+02  0.91401387952E+03  0.93191399972E+03  0.17160088080E+03 0.  0.
         24    2    5    5    0    0  0.10579618640E+02 -0.46300552494E+01  0.22439052587E+03  0.23859189802E+03  0.80259703211E+02 0.  0.
          5    1    5    5  501    0 -0.68831186172E+02  0.18850586610E+02  0.68962335365E+03  0.69332210170E+03  0.47000000000E+01 0. -1.
        -11    1    6    6    0    0  0.35504825062E+02 -0.18048891822E+02  0.18960750488E+03  0.19374560900E+03  0.00000000000E+00 0.  1.
         12    1    6    6    0    0 -0.24925206422E+02  0.13418836572E+02  0.34783020987E+02  0.44846289023E+02  0.00000000000E+00 0. -1.
         -5    1    3    3    0  503 -0.48325957791E+01  0.25485734757E+02 -0.21413313506E+02  0.33963166127E+02  0.47000000000E+01 0.  1.
         11    1    4    4    0    0  0.43329041728E+02 -0.40106462593E+02  0.46574008332E+02  0.75200215763E+02  0.00000000000E+00 0. -1.
        -12    1    4    4    0    0  0.19755121583E+02  0.40019647567E+00  0.12921836341E+03  0.13072035201E+03  0.00000000000E+00 0.  1.
</event>
<event>
12    1  0.1040325E-001  0.2098422E+03  0.7818608E-02  0.1142000E+00
         21   -1    0    0  501  502  0.00000000000E+00  0.00000000000E+00  0.11821680636E+03  0.11821680636E+03  0.00000000000E+00 0. -1.
         21   -1    0    0  502  503 -0.00000000000E+00 -0.00000000000E+00 -0.36994854691E+03  0.36994854691E+03  0.00000000000E+00 0. -1.
         -6    2    1    2    0  503 -0.10802422113E+03  0.50402510144E+02 -0.11953280044E+03  0.24015259528E+03  0.17080846951E+03 0.  0.
        -24    2    3    3    0    0 -0.85845504592E+02 -0.15069578972E+02 -0.12351907298E+03  0.17075180069E+03  0.79389376990E+02 0.  0.
          6    2    1    2  501    0  0.10802422113E+03 -0.50402510144E+02 -0.13219894011E+03  0.24801275799E+03  0.17269662122E+03 0.  0.
         24    2    5    5    0    0  0.30012012786E+02 -0.68771034428E+02 -0.21638911098E+02  0.11137851137E+03  0.79415075602E+02 0.  0.
          5    1    5    5  501    0  0.78012208345E+02  0.18368524285E+02 -0.11056002901E+03  0.13663424662E+03  0.47000000000E+01 0. -1.
        -11    1    6    6    0    0  0.39831535034E+01 -0.25016318417E+02 -0.47830957132E+02  0.54124690845E+02  0.00000000000E+00 0.  1.
         12    1    6    6    0    0  0.26028859283E+02 -0.43754716012E+02  0.26192046034E+02  0.57253820521E+02  0.00000000000E+00 0. -1.
         -5    1    3    3    0  503 -0.22178716539E+02  0.65472089116E+02  0.39862725390E+01  0.69400794587E+02  0.47000000000E+01 0.  1.
         11    1    4    4    0    0 -0.55664469331E+02  0.29771615808E+02 -0.75857223311E+02  0.98687388162E+02  0.00000000000E+00 0. -1.
        -12    1    4    4    0    0 -0.30181035261E+02 -0.44841194780E+02 -0.47661849671E+02  0.72064412527E+02  0.00000000000E+00 0.  1.
</event>
<event>
12    1  0.1040325E-001  0.2031598E+03  0.7818608E-02  0.1148051E+00
         21   -1    0    0  503  502  0.00000000000E+00  0.00000000000E+00  0.20126884632E+04  0.20126884632E+04  0.00000000000E+00 0.  1.
         21   -1    0    0  501  503 -0.00000000000E+00 -0.00000000000E+00 -0.89936978366E+02  0.89936978366E+02  0.00000000000E+00 0.  1.
          6    2    1    2  501    0  0.10186812740E+03  0.13674319915E+02  0.32221932026E+02  0.20121125747E+03  0.16995180147E+03 0.  0.
         24    2    3    3    0    0  0.10209347975E+02  0.54918231758E+02  0.49326966451E+01  0.96955876416E+02  0.79094042190E+02 0.  0.
         -6    2    1    2    0  502 -0.10186812740E+03 -0.13674319915E+02  0.18905295528E+04  0.19014141841E+04  0.17524213832E+03 0.  0.
        -24    2    5    5    0    0 -0.79259671210E+02  0.54883307253E+02  0.14039316049E+04  0.14094681064E+04  0.79259817025E+02 0.  0.
          5    1    3    3  501    0  0.91658779429E+02 -0.41243911843E+02  0.27289235381E+02  0.10425538105E+03  0.47000000000E+01 0. -1.
        -13    1    4    4    0    0  0.24294003841E+02 -0.12675090201E+02  0.53006226006E+01  0.27909731891E+02  0.00000000000E+00 0.  1.
         14    1    4    4    0    0 -0.14084655866E+02  0.67593321959E+02 -0.36792595543E+00  0.69046144526E+02  0.00000000000E+00 0. -1.
         -5    1    5    5    0  502 -0.22608456195E+02 -0.68557627168E+02  0.48659794787E+03  0.49194607774E+03  0.47000000000E+01 0.  1.
         11    1    6    6    0    0 -0.63863432824E+01  0.80857925751E+01  0.17309910973E+02  0.20144439431E+02  0.00000000000E+00 0. -1.
        -12    1    6    6    0    0 -0.72873327927E+02  0.46797514678E+02  0.13866216940E+04  0.13893236669E+04  0.00000000000E+00 0.  1.
</event>
<event>
12    1  0.1040325E-001  0.2987300E+03  0.7818608E-02  0.1085959E+00
         21   -1    0    0  503  502  0.00000000000E+00  0.00000000000E+00  0.12277700142E+04  0.12277700142E+04  0.00000000000E+00 0. -1.
         21   -1    0    0  501  503 -0.00000000000E+00 -0.00000000000E+00 -0.83857189651E+02  0.83857189651E+02  0.00000000000E+00 0. -1.
          6    2    1    2  501    0  0.74065669202E+02 -0.23168971337E+03  0.81248189791E+03  0.86543660827E+03  0.17230160149E+03 0.  0.
         24    2    3    3    0    0 -0.85460929433E+01 -0.15318654151E+03  0.60022509016E+03  0.62447500620E+03  0.78483898422E+02 0.  0.
         -6    2    1    2    0  502 -0.74065669202E+02  0.23168971337E+03  0.33143092669E+03  0.44619059563E+03  0.17341782441E+03 0.  0.
        -24    2    5    5    0    0 -0.10748858785E+03  0.22724340155E+03  0.27838643974E+03  0.38316148508E+03  0.78232689784E+02 0.  0.
          5    1    3    3  501    0  0.82611762145E+02 -0.78503171865E+02  0.21225680775E+03  0.24096160207E+03  0.47000000000E+01 0. -1.
        -13    1    4    4    0    0 -0.35339131557E+02 -0.70268701709E+02  0.37099428443E+03  0.37924042999E+03  0.00000000000E+00 0.  1.
         14    1    4    4    0    0  0.26793038614E+02 -0.82917839797E+02  0.22923080572E+03  0.24523457621E+03  0.00000000000E+00 0. -1.
         -5    1    5    5    0  502  0.33422918653E+02  0.44463118169E+01  0.53044486956E+02  0.63029110548E+02  0.47000000000E+01 0.  1.
         13    1    6    6    0    0 -0.62076355850E+02  0.17207743307E+03  0.15142152836E+03  0.23747125337E+03  0.00000000000E+00 0. -1.
        -14    1    6    6    0    0 -0.45412232005E+02  0.55165968486E+02  0.12696491138E+03  0.14569023171E+03  0.00000000000E+00 0.  1.
</event>
<event>
12    1  0.1040325E-001  0.1889547E+03  0.7818608E-02  0.1162207E+00
         21   -1    0    0  501  502  0.00000000000E+00  0.00000000000E+00  0.54580341496E+03  0.54580341496E+03  0.00000000000E+00 0. -1.
         21   -1    0    0  502  503 -0.00000000000E+00 -0.00000000000E+00 -0.16387790968E+03  0.16387790968E+03  0.00000000000E+00 0. -1.
         -6    2    1    2    0  503 -0.15503538122E+02  0.40895597028E+02 -0.87313156318E+02  0.20815247760E+03  0.18382344006E+03 0.  0.
        -24    2    3    3    0    0 -0.80077788266E+02  0.22536582486E+02 -0.79201018134E+02  0.14036764167E+03  0.80684098995E+02 0.  0.
          6    2    1    2  501    0  0.15503538122E+02 -0.40895597028E+02  0.46923866160E+03  0.50152884703E+03  0.17156180611E+03 0.  0.
         24    2    5    5    0    0  0.21407040275E+02  0.17317626740E+02  0.41034778338E+03  0.41837924513E+03  0.76796665690E+02 0.  0.
          5    1    5    5  501    0 -0.59035021532E+01 -0.58213223768E+02  0.58890878222E+02  0.83149601905E+02  0.47000000000E+01 0. -1.
        -11    1    6    6    0    0  0.50508504705E+02  0.10138897260E+02  0.26895768281E+03  0.27384693065E+03  0.00000000000E+00 0.  1.
         12    1    6    6    0    0 -0.29101464430E+02  0.71787294799E+01  0.14139010057E+03  0.14453231447E+03  0.00000000000E+00 0. -1.
         -5    1    3    3    0  503  0.64574250144E+02  0.18359014542E+02 -0.81121381840E+01  0.67784835934E+02  0.47000000000E+01 0.  1.
         11    1    4    4    0    0  0.51882089962E+01  0.28341518487E+02 -0.10331442547E+02  0.30608787755E+02  0.00000000000E+00 0. -1.
        -12    1    4    4    0    0 -0.85265997262E+02 -0.58049360007E+01 -0.68869575586E+02  0.10975885391E+03  0.00000000000E+00 0.  1.
</event>
<event>
12    1  0.1040325E-001  0.2118183E+03  0.7818608E-02  0.1140219E+00
         21   -1    0    0  503  502  0.00000000000E+00  0.00000000000E+00  0.47095419093E+03  0.47095419093E+03  0.00000000000E+00 0. -1.
         21   -1    0    0  501  503 -0.00000000000E+00 -0.00000000000E+00 -0.96661577009E+02  0.96661577009E+02  0.00000000000E+00 0.  1.
          6    2    1    2  501    0  0.74801026866E+02  0.99201367115E+02  0.22371203190E+03  0.30808123922E+03  0.17155428263E+03 0.  0.
         24    2    3    3    0    0  0.55037028462E+02  0.13202817450E+03  0.13783585211E+03  0.21392698722E+03  0.79407306778E+02 0.  0.
         -6    2    1    2    0  502 -0.74801026866E+02 -0.99201367115E+02  0.15058058203E+03  0.25953452872E+03  0.17101916575E+03 0.  0.
        -24    2    5    5    0    0 -0.50118675719E+02 -0.13626931778E+03  0.12120101656E+03  0.20597614663E+03  0.81579886877E+02 0.  0.
          5    1    3    3  501    0  0.19763998404E+02 -0.32826807386E+02  0.85876179782E+02  0.94154252002E+02  0.47000000000E+01 0. -1.
        -11    1    4    4    0    0  0.18832855242E+02  0.46567778171E+02  0.31125863909E+01  0.50328149125E+02  0.00000000000E+00 0.  1.
         12    1    4    4    0    0  0.36204173220E+02  0.85460396331E+02  0.13472326572E+03  0.16359883810E+03  0.00000000000E+00 0. -1.
         -5    1    5    5    0  502 -0.24682351146E+02  0.37067950664E+02  0.29379565466E+02  0.53558382084E+02  0.47000000000E+01 0.  1.
         13    1    6    6    0    0  0.22026374708E+01 -0.59364219585E+02  0.90056624285E+02  0.10788492831E+03  0.00000000000E+00 0. -1.
        -14    1    6    6    0    0 -0.52321313190E+02 -0.76905098193E+02  0.31144392277E+02  0.98091218325E+02  0.00000000000E+00 0.  1.
</event>
<event>
12    1  0.1040325E-001  0.2611226E+03  0.7818608E-02  0.1106657E+00
         21   -1    0    0  501  502  0.00000000000E+00  0.00000000000E+00  0.97840589810E+03  0.97840589810E+03  0.00000000000E+00 0.  1.
         21   -1    0    0  502  503 -0.00000000000E+00 -0.00000000000E+00 -0.11329837952E+03  0.11329837952E+03  0.00000000000E+00 0. -1.
         -6    2    1    2    0  503 -0.18495759778E+03  0.61382608121E+02  0.93251511153E+02  0.27727397765E+03  0.17380413341E+03 0.  0.
        -24    2    3    3    0    0 -0.27639366821E+02  0.12482225806E+02 -0.14505868416E+02  0.80362789456E+02  0.72993267849E+02 0.  0.
          6    2    1    2  501    0  0.18495759778E+03 -0.61382608121E+02  0.77185600743E+03  0.81443029997E+03  0.17192405226E+03 0.  0.
         24    2    5    5    0    0  0.68310655339E+02 -0.10071833316E+03  0.45033445047E+03  0.47011647504E+03  0.58291119048E+02 0.  0.
          5    1    5    5  501    0  0.11664694244E+03  0.39335725034E+02  0.32152155696E+03  0.34431382493E+03  0.47000000000E+01 0. -1.
        -11    1    6    6    0    0  0.27437970175E+02 -0.44163591818E+02  0.29877790606E+03  0.30326803689E+03  0.00000000000E+00 0.  1.
         12    1    6    6    0    0  0.40872685165E+02 -0.56554741337E+02  0.15155654440E+03  0.16684843815E+03  0.00000000000E+00 0. -1.
         -5    1    3    3    0  503 -0.15731823096E+03  0.48900382315E+02  0.10775737957E+03  0.19691118819E+03  0.47000000000E+01 0.  1.
         11    1    4    4    0    0 -0.43176979334E+02  0.21810675165E+02  0.10481097392E+02  0.49495560388E+02  0.00000000000E+00 0. -1.
        -12    1    4    4    0    0  0.15537612513E+02 -0.93284493585E+01 -0.24986965808E+02  0.30867229068E+02  0.00000000000E+00 0.  1.
</event>
<event>
12    1  0.1040325E-001  0.1816587E+03  0.7818608E-02  0.1166291E+00
         21   -1    0    0  503  502  0.00000000000E+00  0.00000000000E+00  0.75189490540E+03  0.75189490540E+03  0.00000000000E+00 0.  1.
         21   -1    0    0  501  503 -0.00000000000E+00 -0.00000000000E+00 -0.62532986854E+02  0.62532986854E+02  0.00000000000E+00 0.  1.
          6    2    1    2  501    0  0.34432259618E+02 -0.46017946485E+02  0.12205917368E+03  0.21885685853E+03  0.17232716195E+03 0.  0.
         24    2    3    3    0    0  0.17051776682E+01 -0.86073287105E+02  0.56536236954E+02  0.13524563056E+03  0.87655667888E+02 0.  0.
         -6    2    1    2    0  502 -0.34432259618E+02  0.46017946485E+02  0.56730274488E+03  0.59557103373E+03  0.17195702945E+03 0.  0.
        -24    2    5    5    0    0 -0.74813909471E+02  0.20085859694E+01  0.27798668333E+03  0.30011651113E+03  0.84806654674E+02 0.  0.
          5    1    3    3  501    0  0.32727081950E+02  0.40055340620E+02  0.65522936721E+02  0.83611227964E+02  0.47000000000E+01 0. -1.
        -11    1    4    4    0    0  0.37633897909E+02 -0.29772413432E+02  0.38266727648E+00  0.47988053801E+02  0.00000000000E+00 0.  1.
         12    1    4    4    0    0 -0.35928720241E+02 -0.56300873673E+02  0.56153569678E+02  0.87257576760E+02  0.00000000000E+00 0. -1.
         -5    1    5    5    0  502  0.40381649853E+02  0.44009360515E+02  0.28931606155E+03  0.29545452260E+03  0.47000000000E+01 0.  1.
         11    1    6    6    0    0 -0.80270549737E+02  0.28777980664E+02  0.22216232502E+03  0.23796561093E+03  0.00000000000E+00 0. -1.
        -12    1    6    6    0    0  0.54566402656E+01 -0.26769394695E+02  0.55824358305E+02  0.62150900198E+02  0.00000000000E+00 0.  1.
</event>
<event>
12    1  0.1040325E-001  0.2213842E+03  0.7818608E-02  0.1132860E+00
         21   -1    0    0  503  502  0.00000000000E+00  0.00000000000E+00  0.72349676837E+03  0.72349676837E+03  0.00000000000E+00 0. -1.
         21   -1    0    0  501  503 -0.00000000000E+00 -0.00000000000E+00 -0.99175299088E+02  0.99175299088E+02  0.00000000000E+00 0. -1.
          6    2    1    2  501    0 -0.11057732079E+03  0.84767816559E+02  0.80546484537E+02  0.23555862933E+03  0.17200931685E+03 0.  0.
         24    2    3    3    0    0 -0.57078796821E+01 -0.84642912155E+01  0.29077656422E+02  0.86022828043E+02  0.80313091867E+02 0.  0.
         -6    2    1    2    0  502  0.11057732079E+03 -0.84767816559E+02  0.54377498474E+03  0.58711343813E+03  0.17204077600E+03 0.  0.
        -24    2    5    5    0    0 -0.92675078364E+01 -0.19792999269E+02  0.26378392573E+03  0.27566265076E+03  0.77008363353E+02 0.  0.
          5    1    3    3  501    0 -0.10486944111E+03  0.93232107774E+02  0.51468828114E+02  0.14953580128E+03  0.47000000000E+01 0. -1.
        -11    1    4    4    0    0  0.11690232532E+01  0.11508843200E+02 -0.25227814664E+02  0.27753607332E+02  0.00000000000E+00 0.  1.
         12    1    4    4    0    0 -0.68769029353E+01 -0.19973134416E+02  0.54305471087E+02  0.58269220712E+02  0.00000000000E+00 0. -1.
         -5    1    5    5    0  502  0.11984482862E+03 -0.64974817290E+02  0.27999105901E+03  0.31145078738E+03  0.47000000000E+01 0. -1.
         11    1    6    6    0    0 -0.25789026956E+02  0.37319156815E+01  0.22926549317E+03  0.23074155989E+03  0.00000000000E+00 0. -1.
        -12    1    6    6    0    0  0.16521519120E+02 -0.23524914950E+02  0.34518432564E+02  0.44921090861E+02  0.00000000000E+00 0.  1.
</event>
<event>
12    1  0.1040325E-001  0.2072043E+03  0.7818608E-02  0.1143913E+00
         21   -1    0    0  503  502  0.00000000000E+00  0.00000000000E+00  0.62615978220E+02  0.62615978220E+02  0.00000000000E+00 0.  1.
         21   -1    0    0  501  503 -0.00000000000E+00 -0.00000000000E+00 -0.68776538029E+03  0.68776538029E+03  0.00000000000E+00 0. -1.
          6    2    1    2  501    0 -0.68629393970E+02  0.91539702843E+02 -0.34065532614E+03  0.39842897369E+03  0.17207581159E+03 0.  0.
         24    2    3    3    0    0  0.11200149519E+02  0.84709749446E+02 -0.14275940497E+03  0.18487736426E+03  0.80611457654E+02 0.  0.
         -6    2    1    2    0  502  0.68629393970E+02 -0.91539702843E+02 -0.28449407593E+03  0.35195238483E+03  0.17275442405E+03 0.  0.
        -24    2    5    5    0    0  0.25525846166E+01 -0.75465414756E+02 -0.82127658691E+02  0.13841366632E+03  0.81925857887E+02 0.  0.
          5    1    3    3  501    0 -0.79829543489E+02  0.68299533966E+01 -0.19789592116E+03  0.21355160943E+03  0.47000000000E+01 0. -1.
        -11    1    4    4    0    0 -0.26530272713E+02  0.29872996715E+02 -0.18752370441E+02  0.44135050698E+02  0.00000000000E+00 0.  1.
         12    1    4    4    0    0  0.37730422232E+02  0.54836752731E+02 -0.12400703453E+03  0.14074231356E+03  0.00000000000E+00 0. -1.
         -5    1    5    5    0  502  0.66076809353E+02 -0.16074288087E+02 -0.20236641724E+03  0.21353871850E+03  0.47000000000E+01 0.  1.
         11    1    6    6    0    0  0.18130129389E+02 -0.48333875658E+02 -0.92097133026E+02  0.10557815607E+03  0.00000000000E+00 0. -1.
        -12    1    6    6    0    0 -0.15577544773E+02 -0.27131539097E+02  0.99694743355E+01  0.32835510251E+02  0.00000000000E+00 0.  1.
</event>
<event>
12    1  0.1040325E-001  0.2493684E+03  0.7818608E-02  0.1113777E+00
         21   -1    0    0  501  502  0.00000000000E+00  0.00000000000E+00  0.92464560309E+02  0.92464560309E+02  0.00000000000E+00 0.  1.
         21   -1    0    0  502  503 -0.00000000000E+00 -0.00000000000E+00 -0.73333361753E+03  0.73333361753E+03  0.00000000000E+00 0. -1.
         -6    2    1    2    0  503  0.17670294769E+03  0.36347042387E+02 -0.20060491288E+03  0.32004205841E+03  0.17216140353E+03 0.  0.
        -24    2    3    3    0    0  0.19107484992E+03 -0.12925217522E+01 -0.18076901073E+03  0.27488852725E+03  0.79843586418E+02 0.  0.
          6    2    1    2  501    0 -0.17670294769E+03 -0.36347042387E+02 -0.44026414434E+03  0.50575611943E+03  0.17149838580E+03 0.  0.
         24    2    5    5    0    0 -0.75905674979E+02 -0.81787076478E+02 -0.23285316648E+03  0.27066828345E+03  0.81178353990E+02 0.  0.
          5    1    5    5  501    0 -0.10079727271E+03  0.45440034091E+02 -0.20741097786E+03  0.23508783598E+03  0.47000000000E+01 0. -1.
        -11    1    6    6    0    0  0.77823301286E+01 -0.36186894588E+01  0.24951586522E+01  0.89378628502E+01  0.00000000000E+00 0.  1.
         12    1    6    6    0    0 -0.83688005108E+02 -0.78168387019E+02 -0.23534832513E+03  0.26173042060E+03  0.00000000000E+00 0. -1.
         -5    1    3    3    0  503 -0.14371902221E+02  0.37639564139E+02 -0.19835902156E+02  0.45153531162E+02  0.47000000000E+01 0.  1.
         13    1    4    4    0    0  0.15211534362E+03  0.32463503918E+02 -0.13572080341E+03  0.20642939066E+03  0.00000000000E+00 0. -1.
        -14    1    4    4    0    0  0.38959506295E+02 -0.33756025670E+02 -0.45048207317E+02  0.68459136587E+02  0.00000000000E+00 0.  1.
</event>
<event>
12    1  0.1040325E-001  0.1849843E+03  0.7818608E-02  0.1163152E+00
         21   -1    0    0  503  502  0.00000000000E+00  0.00000000000E+00  0.98906758849E+03  0.98906758849E+03  0.00000000000E+00 0. -1.
         21   -1    0    0  501  503 -0.00000000000E+00 -0.00000000000E+00 -0.70437277080E+02  0.70437277080E+02  0.00000000000E+00 0. -1.
          6    2    1    2  501    0  0.44581595437E+02 -0.46215162783E+02  0.80835414472E+02  0.20153080828E+03  0.17308073991E+03 0.  0.
         24    2    3    3    0    0  0.84968997224E+02  0.89519401359E+01  0.54336156256E+02  0.12805392652E+03  0.78393382997E+02 0.  0.
         -6    2    1    2    0  502 -0.44581595437E+02  0.46215162783E+02  0.83779489694E+03  0.85797405729E+03  0.17348150832E+03 0.  0.
        -24    2    5    5    0    0  0.29940018852E+02  0.65553148067E+02  0.44323880488E+03  0.45594914705E+03  0.78964337517E+02 0.  0.
          5    1    3    3  501    0 -0.40387401787E+02 -0.55167102919E+02  0.26499258217E+02  0.73476881763E+02  0.47000000000E+01 0. -1.
        -11    1    4    4    0    0  0.50139256026E+02  0.42978330158E+02  0.22016090869E+02  0.69611709613E+02  0.00000000000E+00 0.  1.
         12    1    4    4    0    0  0.34829741198E+02 -0.34026390022E+02  0.32320065386E+02  0.58442216902E+02  0.00000000000E+00 0. -1.
         -5    1    5    5    0  502 -0.74521614289E+02 -0.19337985284E+02  0.39455609206E+03  0.40202491024E+03  0.47000000000E+01 0.  1.
         11    1    6    6    0    0  0.69702248691E+01  0.59882240013E+02  0.41386053938E+03  0.41822842175E+03  0.00000000000E+00 0. -1.
        -12    1    6    6    0    0  0.22969793983E+02  0.56709080538E+01  0.29378265497E+02  0.37720725303E+02  0.00000000000E+00 0.  1.
</event>
<event>
12    1  0.1040325E-001  0.1810147E+03  0.7818608E-02  0.1167020E+00
         21   -1    0    0  503  502  0.00000000000E+00  0.00000000000E+00  0.82974540401E+03  0.82974540401E+03  0.00000000000E+00 0.  1.
         21   -1    0    0  501  503 -0.00000000000E+00 -0.00000000000E+00 -0.74753727521E+02  0.74753727521E+02  0.00000000000E+00 0.  1.
          6    2    1    2  501    0 -0.51268584550E+02  0.77642392052E+01  0.66545020505E+02  0.19285892292E+03  0.17342887079E+03 0.  0.
         24    2    3    3    0    0 -0.41641620352E+02 -0.59937779781E+02  0.18930404816E+02  0.10939945107E+03  0.79267380920E+02 0.  0.
         -6    2    1    2    0  502  0.51268584550E+02 -0.77642392052E+01  0.68844665598E+03  0.71164020860E+03  0.17258110325E+03 0.  0.
        -24    2    5    5    0    0  0.53815580165E+02  0.37384881119E+02  0.24982344665E+03  0.27066703480E+03  0.80963838998E+02 0.  0.
          5    1    3    3  501    0 -0.96269641980E+01  0.67702018986E+02  0.47614615688E+02  0.83459471851E+02  0.47000000000E+01 0. -1.
        -11    1    4    4    0    0  0.94593126409E+01  0.56200690095E+01 -0.15850224596E+02  0.19294905832E+02  0.00000000000E+00 0.  1.
         12    1    4    4    0    0 -0.51100932993E+02 -0.65557848790E+02  0.34780629412E+02  0.90104545241E+02  0.00000000000E+00 0. -1.
         -5    1    5    5    0  502 -0.25469956145E+01 -0.45149120324E+02  0.43862320933E+03  0.44097317381E+03  0.47000000000E+01 0.  1.
         11    1    6    6    0    0  0.42933219461E+02  0.51587899776E+02  0.24200724223E+03  0.25114154978E+03  0.00000000000E+00 0. -1.
        -12    1    6    6    0    0  0.10882360704E+02 -0.14203018657E+02  0.78162044210E+01  0.19525485014E+02  0.00000000000E+00 0.  1.
</event>
<event>
12    1  0.1040325E-001  0.2201317E+03  0.7818608E-02  0.1134193E+00
         21   -1    0    0  503  502  0.00000000000E+00  0.00000000000E+00  0.48006819008E+02  0.48006819008E+02  0.00000000000E+00 0.  1.
         21   -1    0    0  501  503 -0.00000000000E+00 -0.00000000000E+00 -0.15173844704E+04  0.15173844704E+04  0.00000000000E+00 0.  1.
          6    2    1    2  501    0  0.60551876854E+02 -0.12027255662E+03 -0.11895673881E+04  0.12093691976E+04  0.17138047599E+03 0.  0.
         24    2    3    3    0    0  0.10391371080E+03 -0.66450715992E+02 -0.84004974325E+03  0.85305232563E+03  0.82467825144E+02 0.  0.
         -6    2    1    2    0  502 -0.60551876854E+02  0.12027255662E+03 -0.27981026327E+03  0.35602209181E+03  0.17414341434E+03 0.  0.
        -24    2    5    5    0    0  0.54147609261E+01  0.13377904397E+02 -0.16922078988E+03  0.18859991407E+03  0.82011974122E+02 0.  0.
          5    1    3    3  501    0 -0.43361833941E+02 -0.53821840624E+02 -0.34951764487E+03  0.35631687197E+03  0.47000000000E+01 0. -1.
        -13    1    4    4    0    0  0.61614507258E+02 -0.61038058127E+02 -0.72824110475E+03  0.73338741378E+03  0.00000000000E+00 0.  1.
         14    1    4    4    0    0  0.42299203537E+02 -0.54126578651E+01 -0.11180863850E+03  0.11966491185E+03  0.00000000000E+00 0. -1.
         -5    1    5    5    0  502 -0.65966637780E+02  0.10689465222E+03 -0.11058947339E+03  0.16742217774E+03  0.47000000000E+01 0.  1.
         11    1    6    6    0    0 -0.26892721821E+01 -0.32940647102E+02 -0.96481836643E+02  0.10198560300E+03  0.00000000000E+00 0. -1.
        -12    1    6    6    0    0  0.81040331082E+01  0.46318551499E+02 -0.72738953232E+02  0.86614311074E+02  0.00000000000E+00 0.  1.
</event>
<event>
12    1  0.1040325E-001  0.2304702E+03  0.7818608E-02  0.1127923E+00
         21   -1    0    0  503  502  0.00000000000E+00  0.00000000000E+00  0.51977607782E+02  0.51977607782E+02  0.00000000000E+00 0.  1.
         21   -1    0    0  501  503 -0.00000000000E+00 -0.00000000000E+00 -0.98248508570E+03  0.98248508570E+03  0.00000000000E+00 0. -1.
          6    2    1    2  501    0 -0.90639324934E+02 -0.12234428941E+03 -0.46095049745E+03  0.51139457860E+03  0.16082736568E+03 0.  0.
         24    2    3    3    0    0 -0.10557031587E+03 -0.74051501152E+02 -0.23320654947E+03  0.27806107538E+03  0.79397421296E+02 0.  0.
         -6    2    1    2    0  502  0.90639324934E+02  0.12234428941E+03 -0.46955698047E+03  0.52306811487E+03  0.17301122078E+03 0.  0.
        -24    2    5    5    0    0  0.81721107920E+02  0.10476860228E+03 -0.20332862216E+03  0.25606985994E+03  0.81082951822E+02 0.  0.
          5    1    3    3  501    0  0.14930990933E+02 -0.48292788262E+02 -0.22774394798E+03  0.23333350323E+03  0.47000000000E+01 0. -1.
        -13    1    4    4    0    0 -0.54277219846E+02  0.24463782375E+01 -0.12279312300E+03  0.13427640305E+03  0.00000000000E+00 0.  1.
         14    1    4    4    0    0 -0.51293096021E+02 -0.76497879389E+02 -0.11041342648E+03  0.14378467233E+03  0.00000000000E+00 0. -1.
         -5    1    5    5    0  502  0.89182170140E+01  0.17575687134E+02 -0.26622835830E+03  0.26699825493E+03  0.47000000000E+01 0.  1.
         13    1    6    6    0    0 -0.59402206590E+01 -0.58635600641E+01 -0.36955914136E+02  0.37886767449E+02  0.00000000000E+00 0. -1.
        -14    1    6    6    0    0  0.87661328579E+02  0.11063216234E+03 -0.16637270803E+03  0.21818309249E+03  0.00000000000E+00 0.  1.
</event>
<event>
12    1  0.1040325E-001  0.2044789E+03  0.7818608E-02  0.1146137E+00
         21   -1    0    0  501  502  0.00000000000E+00  0.00000000000E+00  0.15481289028E+03  0.15481289028E+03  0.00000000000E+00 0. -1.
         21   -1    0    0  502  503 -0.00000000000E+00 -0.00000000000E+00 -0.42360381870E+03  0.42360381870E+03  0.00000000000E+00 0. -1.
         -6    2    1    2    0  503  0.89937266221E+02  0.64092033986E+02 -0.30907485406E+03  0.37059263332E+03  0.17209048139E+03 0.  0.
        -24    2    3    3    0    0  0.74687682649E+01 -0.15455329269E+02 -0.17970943320E+03  0.19771597709E+03  0.80631740107E+02 0.  0.
          6    2    1    2  501    0 -0.89937266221E+02 -0.64092033986E+02  0.40283925640E+02  0.20782407565E+03  0.17138130318E+03 0.  0.
         24    2    5    5    0    0 -0.11300500086E+02 -0.55593633980E+02  0.72516510999E+02  0.12228464995E+03  0.80476939578E+02 0.  0.
          5    1    5    5  501    0 -0.78636766135E+02 -0.84984000065E+01 -0.32232585358E+02  0.85539425704E+02  0.47000000000E+01 0. -1.
        -11    1    6    6    0    0 -0.24776601529E+02 -0.51425331316E+01  0.64713488833E+02  0.69484971521E+02  0.00000000000E+00 0.  1.
         12    1    6    6    0    0  0.13476101443E+02 -0.50451100848E+02  0.78030221656E+01  0.52799678425E+02  0.00000000000E+00 0. -1.
         -5    1    3    3    0  503  0.82468497956E+02  0.79547363255E+02 -0.12936542086E+03  0.17287665623E+03  0.47000000000E+01 0.  1.
         13    1    4    4    0    0  0.98430634314E+01  0.32265441114E+02 -0.60161853977E+02  0.68973859265E+02  0.00000000000E+00 0. -1.
        -14    1    4    4    0    0 -0.23742951665E+01 -0.47720770383E+02 -0.11954757922E+03  0.12874211782E+03  0.00000000000E+00 0.  1.
</event>
<event>
12    1  0.1040325E-001  0.2186188E+03  0.7818608E-02  0.1136166E+00
         21   -1    0    0  501  502  0.00000000000E+00  0.00000000000E+00  0.11318311012E+03  0.11318311012E+03  0.00000000000E+00 0.  1.
         21   -1    0    0  502  503 -0.00000000000E+00 -0.00000000000E+00 -0.45090860547E+03  0.45090860547E+03  0.00000000000E+00 0.  1.
         -6    2    1    2    0  503  0.95292206667E+02 -0.93033543168E+02 -0.81315488749E+02  0.22713435971E+03  0.16505139758E+03 0.  0.
        -24    2    3    3    0    0  0.60452897134E+02  0.95607443687E+01 -0.24902597962E+02  0.10488923886E+03  0.81459514108E+02 0.  0.
          6    2    1    2  501    0 -0.95292206667E+02  0.93033543168E+02 -0.25641000659E+03  0.33695735588E+03  0.17337336415E+03 0.  0.
         24    2    5    5    0    0 -0.21558840231E+01  0.74281542061E+02 -0.19300119024E+03  0.22263859044E+03  0.82438384210E+02 0.  0.
          5    1    5    5  501    0 -0.93136322644E+02  0.18752001106E+02 -0.63408816357E+02  0.11431876545E+03  0.47000000000E+01 0. -1.
        -11    1    6    6    0    0 -0.34208922380E+02  0.61550829047E+02 -0.16041448776E+03  0.17519007623E+03  0.00000000000E+00 0.  1.
         12    1    6    6    0    0  0.32053038357E+02  0.12730713015E+02 -0.32586702476E+02  0.47448514203E+02  0.00000000000E+00 0. -1.
         -5    1    3    3    0  503  0.34839309533E+02 -0.10259428754E+03 -0.56412890786E+02  0.12224512085E+03  0.47000000000E+01 0.  1.
         13    1    4    4    0    0  0.21870365099E+02 -0.24847496127E+02 -0.39147130199E+02  0.51266058324E+02  0.00000000000E+00 0. -1.
        -14    1    4    4    0    0  0.38582532035E+02  0.34408240495E+02  0.14244532236E+02  0.53623180537E+02  0.00000000000E+00 0.  1.
</event>
<event>
12    1  0.1040325E-001  0.2748569E+03  0.7818608E-02  0.1098577E+00
         21   -1    0    0  501  502  0.00000000000E+00  0.00000000000E+00  0.10137622240E+04  0.10137622240E+04  0.00000000000E+00 0. -1.
         21   -1    0    0  502  503 -0.00000000000E+00 -0.00000000000E+00 -0.87464771056E+02  0.87464771056E+02  0.00000000000E+00 0. -1.
         -6    2    1    2    0  503  0.19117790373E+03  0.97311525941E+02  0.25038769788E+03  0.37156931219E+03  0.17132200838E+03 0.  0.
        -24    2    3    3    0    0  0.11985163748E+03  0.19196981917E+02  0.21858165568E+03  0.26101148766E+03  0.74940759040E+02 0.  0.
          6    2    1    2  501    0 -0.19117790373E+03 -0.97311525941E+02  0.67590975507E+03  0.72965768287E+03  0.17183658871E+03 0.  0.
         24    2    5    5    0    0 -0.13467452472E+03 -0.87404530378E+01  0.29078100926E+03  0.33042879157E+03  0.80099736759E+02 0.  0.
          5    1    5    5  501    0 -0.56503379015E+02 -0.88571072903E+02  0.38512874581E+03  0.39922889130E+03  0.47000000000E+01 0. -1.
        -13    1    6    6    0    0 -0.29269270195E+02 -0.20291250807E+02  0.22944022086E+02  0.42365707672E+02  0.00000000000E+00 0.  1.
         14    1    6    6    0    0 -0.10540525452E+03  0.11550797769E+02  0.26783698717E+03  0.28806308390E+03  0.00000000000E+00 0. -1.
         -5    1    3    3    0  503  0.71326266250E+02  0.78114544024E+02  0.31806042196E+02  0.11055782453E+03  0.47000000000E+01 0.  1.
         13    1    4    4    0    0  0.92839166808E+02  0.31192319224E+02  0.20748918886E+03  0.22944244413E+03  0.00000000000E+00 0. -1.
        -14    1    4    4    0    0  0.27012470676E+02 -0.11995337307E+02  0.11092466817E+02  0.31569043527E+02  0.00000000000E+00 0.  1.
</event>
<event>
12    1  0.1040325E-001  0.3042077E+03  0.7818608E-02  0.1083346E+00
         21   -1    0    0  501  502  0.00000000000E+00  0.00000000000E+00  0.40236255813E+03  0.40236255813E+03  0.00000000000E+00 0.  1.
         21   -1    0    0  502  503 -0.00000000000E+00 -0.00000000000E+00 -0.24789800621E+03  0.24789800621E+03  0.00000000000E+00 0.  1.
         -6    2    1    2    0  503  0.18074547815E+03 -0.17386025937E+03 -0.13113123698E+02  0.30295007941E+03  0.16944166826E+03 0.  0.
        -24    2    3    3    0    0  0.11514378435E+03 -0.12411894290E+03 -0.72288652991E+02  0.20145321217E+03  0.81817750397E+02 0.  0.
          6    2    1    2  501    0 -0.18074547815E+03  0.17386025937E+03  0.16757767561E+03  0.34731048493E+03  0.17218007410E+03 0.  0.
         24    2    5    5    0    0 -0.19639754996E+03  0.15476983125E+03  0.11056979396E+03  0.28500943864E+03  0.80492251067E+02 0.  0.
          5    1    5    5  501    0  0.15652071808E+02  0.19090428117E+02  0.57007881657E+02  0.62301046288E+02  0.47000000000E+01 0. -1.
        -11    1    6    6    0    0 -0.16342267204E+03  0.16042432400E+03  0.92448709652E+02  0.24696092279E+03  0.00000000000E+00 0.  1.
         12    1    6    6    0    0 -0.32974877915E+02 -0.56544927504E+01  0.18121084306E+02  0.38048515848E+02  0.00000000000E+00 0. -1.
         -5    1    3    3    0  503  0.65601693797E+02 -0.49741316474E+02  0.59175529293E+02  0.10149686725E+03  0.47000000000E+01 0.  1.
         11    1    4    4    0    0  0.78052118325E+02 -0.36567689807E+02 -0.61229772787E+02  0.10572801988E+03  0.00000000000E+00 0. -1.
        -12    1    4    4    0    0  0.37091666027E+02 -0.87551253091E+02 -0.11058880204E+02  0.95725192284E+02  0.00000000000E+00 0.  1.
</event>
<event>
12    1  0.1040325E-001  0.3182350E+03  0.7818608E-02  0.1076534E+00
         21   -1    0    0  501  502  0.00000000000E+00  0.00000000000E+00  0.38996206466E+03  0.38996206466E+03  0.00000000000E+00 0. -1.
         21   -1    0    0  502  503 -0.00000000000E+00 -0.00000000000E+00 -0.40965098229E+03  0.40965098229E+03  0.00000000000E+00 0. -1.
         -6    2    1    2    0  503  0.26188654357E+03  0.53882890016E+02 -0.25211902932E+03  0.40553533286E+03  0.17148461656E+03 0.  0.
        -24    2    3    3    0    0  0.10201002996E+03  0.70678668421E+02 -0.16993809126E+03  0.22492970073E+03  0.79453728859E+02 0.  0.
          6    2    1    2  501    0 -0.26188654357E+03 -0.53882890016E+02  0.23243011169E+03  0.39407771409E+03  0.17258493672E+03 0.  0.
         24    2    5    5    0    0 -0.49313877195E+02  0.90793628322E+01  0.94786938990E+02  0.13308132185E+03  0.78814853345E+02 0.  0.
          5    1    5    5  501    0 -0.21257266638E+03 -0.62962252849E+02  0.13764317270E+03  0.26099639225E+03  0.47000000000E+01 0. -1.
        -11    1    6    6    0    0  0.18433863240E+02 -0.12538314826E+02  0.21960619224E+02  0.31293536862E+02  0.00000000000E+00 0.  1.
         12    1    6    6    0    0 -0.67747740435E+02  0.21617677658E+02  0.72826319766E+02  0.10178778498E+03  0.00000000000E+00 0. -1.
         -5    1    3    3    0  503  0.15987651361E+03 -0.16795778405E+02 -0.82180938062E+02  0.18060563213E+03  0.47000000000E+01 0.  1.
         13    1    4    4    0    0  0.94803572954E+02  0.28601361072E+02 -0.14469428774E+03  0.17533451516E+03  0.00000000000E+00 0. -1.
        -14    1    4    4    0    0  0.72064570068E+01  0.42077307350E+02 -0.25243803511E+02  0.49595185573E+02  0.00000000000E+00 0.  1.
</event>
<event>
12    1  0.1040325E-001  0.2096129E+03  0.7818608E-02  0.1141899E+00
         21   -1    0    0  503  502  0.00000000000E+00  0.00000000000E+00  0.17386314516E+03  0.17386314516E+03  0.00000000000E+00 0. -1.
         21   -1    0    0  501  503 -0.00000000000E+00 -0.00000000000E+00 -0.26096561993E+03  0.26096561993E+03  0.00000000000E+00 0. -1.
          6    2    1    2  501    0  0.93029869656E+02 -0.76442856558E+02 -0.82592597129E+02  0.22529781426E+03  0.17157943071E+03 0.  0.
         24    2    3    3    0    0  0.12656434755E+03 -0.30650951807E+02 -0.26811459650E+02  0.14557902697E+03  0.59299104620E+02 0.  0.
         -6    2    1    2    0  502 -0.93029869656E+02  0.76442856558E+02 -0.45098776362E+01  0.20953095083E+03  0.17141999122E+03 0.  0.
        -24    2    5    5    0    0 -0.58479671888E+02  0.71805019392E+02 -0.64486785106E+02  0.14000005748E+03  0.82859144383E+02 0.  0.
          5    1    3    3  501    0 -0.33534477893E+02 -0.45791904751E+02 -0.55781137479E+02  0.79718787289E+02  0.47000000000E+01 0. -1.
        -13    1    4    4    0    0  0.63010903452E+02 -0.45451336968E+02 -0.17796893239E+02  0.79705253246E+02  0.00000000000E+00 0.  1.
         14    1    4    4    0    0  0.63553444097E+02  0.14800385161E+02 -0.90145664103E+01  0.65873773727E+02  0.00000000000E+00 0. -1.
         -5    1    5    5    0  502 -0.34550197768E+02  0.46378371657E+01  0.59976907470E+02  0.69530893343E+02  0.47000000000E+01 0.  1.
         13    1    6    6    0    0  0.56852088369E+01 -0.43824485145E+01  0.12292900361E+02  0.14235267956E+02  0.00000000000E+00 0. -1.
        -14    1    6    6    0    0 -0.64164880725E+02  0.76187467907E+02 -0.76779685467E+02  0.12576478953E+03  0.00000000000E+00 0.  1.
</event>
<event>
12    1  0.1040325E-001  0.1940905E+03  0.7818608E-02  0.1155926E+00
         21   -1    0    0  503  502  0.00000000000E+00  0.00000000000E+00  0.13193580443E+04  0.13193580443E+04  0.00000000000E+00 0.  1.
         21   -1    0    0  501  503 -0.00000000000E+00 -0.00000000000E+00 -0.34360854777E+02  0.34360854777E+02  0.00000000000E+00 0.  1.
          6    2    1    2  501    0 -0.57841116400E+02 -0.52077146485E+02  0.35411021358E+03  0.40381325937E+03  0.17780180299E+03 0.  0.
         24    2    3    3    0    0 -0.18041703106E+02  0.17382984514E+02  0.69690845414E+02  0.10830493447E+03  0.79028309445E+02 0.  0.
         -6    2    1    2    0  502  0.57841116400E+02  0.52077146485E+02  0.93088697596E+03  0.94990563973E+03  0.17237325327E+03 0.  0.
        -24    2    5    5    0    0  0.33048582242E+02  0.67600585309E+02  0.90206028946E+03  0.90856903661E+03  0.78248837338E+02 0.  0.
          5    1    3    3  501    0 -0.39799413294E+02 -0.69460130999E+02  0.28441936817E+03  0.29550832490E+03  0.47000000000E+01 0. -1.
        -11    1    4    4    0    0  0.22674445092E+02 -0.17841595080E+02  0.28076030927E+02  0.40258123253E+02  0.00000000000E+00 0.  1.
         12    1    4    4    0    0 -0.40716148197E+02  0.35224579594E+02  0.41614814487E+02  0.68046811214E+02  0.00000000000E+00 0. -1.
         -5    1    5    5    0  502  0.24792534158E+02 -0.15523438824E+02  0.28826686506E+02  0.41336603124E+02  0.47000000000E+01 0.  1.
         11    1    6    6    0    0 -0.48922911495E+01 -0.10233632395E+02  0.27710983838E+02  0.29942617955E+02  0.00000000000E+00 0. -1.
        -12    1    6    6    0    0  0.37940873391E+02  0.77834217704E+02  0.87434930562E+03  0.87862641865E+03  0.00000000000E+00 0.  1.
</event>
<event>
12    1  0.1040325E-001  0.1915203E+03  0.7818608E-02  0.1157826E+00
         21   -1    0    0  501  502  0.00000000000E+00  0.00000000000E+00  0.33390437765E+02  0.33390437765E+02  0.00000000000E+00 0.  1.
         21   -1    0    0  502  503 -0.00000000000E+00 -0.00000000000E+00 -0.12953699780E+04  0.12953699780E+04  0.00000000000E+00 0. -1.
         -6    2    1    2    0  503 -0.16293878715E+00  0.81076786698E+02 -0.90635120948E+03  0.92636522567E+03  0.17351237569E+03 0.  0.
        -24    2    3    3    0    0 -0.46412481339E+02  0.42573498314E+02 -0.77685449580E+03  0.78349111236E+03  0.79929933750E+02 0.  0.
          6    2    1    2  501    0  0.16293878715E+00 -0.81076786698E+02 -0.35562833074E+03  0.40239519008E+03  0.16993206726E+03 0.  0.
         24    2    5    5    0    0 -0.18138826424E+02 -0.35723994885E+02 -0.70008866354E+02  0.11258076882E+03  0.78536407509E+02 0.  0.
          5    1    5    5  501    0  0.18301765211E+02 -0.45352791813E+02 -0.28561946439E+03  0.28981442126E+03  0.47000000000E+01 0. -1.
        -13    1    6    6    0    0 -0.12365947680E+02 -0.59381239297E+02 -0.62510221087E+02  0.87100952824E+02  0.00000000000E+00 0.  1.
         14    1    6    6    0    0 -0.57728787438E+01  0.23657244412E+02 -0.74986452668E+01  0.25479815992E+02  0.00000000000E+00 0. -1.
         -5    1    3    3    0  503  0.46249542552E+02  0.38503288385E+02 -0.12949671368E+03  0.14287411332E+03  0.47000000000E+01 0.  1.
         13    1    4    4    0    0  0.16816895865E+02 -0.88378454708E+01 -0.20157134953E+03  0.20246462519E+03  0.00000000000E+00 0. -1.
        -14    1    4    4    0    0 -0.63229377204E+02  0.51411343785E+02 -0.57528314627E+03  0.58102648717E+03  0.00000000000E+00 0.  1.
</event>
<event>
12    1  0.1040325E-001  0.1879917E+03  0.7818608E-02  0.1160868E+00
         21   -1    0    0  503  502  0.00000000000E+00  0.00000000000E+00  0.15991606999E+03  0.15991606999E+03  0.00000000000E+00 0. -1.
         21   -1    0    0  501  503 -0.00000000000E+00 -0.00000000000E+00 -0.23324693912E+03  0.23324693912E+03  0.00000000000E+00 0. -1.
          6    2    1    2  501    0 -0.25580155115E+02  0.70178569008E+02  0.13774624060E+02  0.18597165541E+03  0.16975376422E+03 0.  0.
         24    2    3    3    0    0  0.49001303495E+02  0.33197694371E+02  0.24519858731E+02  0.10190305768E+03  0.79245157807E+02 0.  0.
         -6    2    1    2    0  502  0.25580155115E+02 -0.70178569008E+02 -0.87105493188E+02  0.20719135370E+03  0.17251525794E+03 0.  0.
        -24    2    5    5    0    0  0.15544961637E+02 -0.11540342547E+03 -0.66216739488E+02  0.15615780805E+03  0.80255890651E+02 0.  0.
          5    1    3    3  501    0 -0.74581458610E+02  0.36980874637E+02 -0.10745234670E+02  0.84068597737E+02  0.47000000000E+01 0. -1.
        -11    1    4    4    0    0 -0.13168064597E+02 -0.86013078697E+01 -0.10800561482E+02  0.19079637068E+02  0.00000000000E+00 0.  1.
         12    1    4    4    0    0  0.62169368092E+02  0.41799002241E+02  0.35320420213E+02  0.82823420609E+02  0.00000000000E+00 0. -1.
         -5    1    5    5    0  502  0.10035193478E+02  0.45224856465E+02 -0.20888753699E+02  0.51033545649E+02  0.47000000000E+01 0.  1.
         13    1    6    6    0    0 -0.10617717634E+02 -0.62850213162E+02 -0.73172505578E+02  0.97041747691E+02  0.00000000000E+00 0. -1.
        -14    1    6    6    0    0  0.26162679272E+02 -0.52553212311E+02  0.69557660897E+01  0.59116060362E+02  0.00000000000E+00 0.  1.
</event>
<event>
12    1  0.1040325E-001  0.1944986E+03  0.7818608E-02  0.1154517E+00
         21   -1    0    0  503  502  0.00000000000E+00  0.00000000000E+00  0.23968463879E+03  0.23968463879E+03  0.00000000000E+00 0. -1.
         21   -1    0    0  501  503 -0.00000000000E+00 -0.00000000000E+00 -0.16088710500E+03  0.16088710500E+03  0.00000000000E+00 0. -1.
          6    2    1    2  501    0  0.76830343099E+01  0.90626538968E+02  0.67875757669E+02  0.20600196971E+03  0.17192293176E+03 0.  0.
         24    2    3    3    0    0  0.40940999168E+02  0.51439190086E+02 -0.17011877426E+02  0.10665539890E+03  0.82242412734E+02 0.  0.
         -6    2    1    2    0  502 -0.76830343099E+01 -0.90626538968E+02  0.10921776123E+02  0.19456977407E+03  0.17165638120E+03 0.  0.
        -24    2    5    5    0    0  0.31912739851E+01  0.20756339246E+02  0.34908698992E+01  0.82312460247E+02  0.79511917916E+02 0.  0.
          5    1    3    3  501    0 -0.33257964858E+02  0.39187348882E+02  0.84887635095E+02  0.99346570806E+02  0.47000000000E+01 0. -1.
        -11    1    4    4    0    0 -0.94456965874E+01 -0.16187004640E+02  0.51933234801E+01  0.19447645410E+02  0.00000000000E+00 0.  1.
         12    1    4    4    0    0  0.50386695755E+02  0.67626194726E+02 -0.22205200906E+02  0.87207753494E+02  0.00000000000E+00 0. -1.
         -5    1    5    5    0  502 -0.10874308295E+02 -0.11138287821E+03  0.74309062234E+01  0.11225731383E+03  0.47000000000E+01 0.  1.
         13    1    6    6    0    0  0.34373344311E+02  0.24943258916E+01 -0.19387631932E+02  0.39542745639E+02  0.00000000000E+00 0. -1.
        -14    1    6    6    0    0 -0.31182070326E+02  0.18262013355E+02  0.22878501831E+02  0.42769714607E+02  0.00000000000E+00 0.  1.
</event>
<event>
12    1  0.1040325E-001  0.2076424E+03  0.7818608E-02  0.1143599E+00
         21   -1    0    0  503  502  0.00000000000E+00  0.00000000000E+00  0.13521316959E+04  0.13521316959E+04  0.00000000000E+00 0.  1.
         21   -1    0    0  501  503 -0.00000000000E+00 -0.00000000000E+00 -0.68611050327E+02  0.68611050327E+02  0.00000000000E+00 0.  1.
          6    2    1    2  501    0 -0.47278220629E+02  0.10542108645E+03  0.12068078932E+03  0.23950952752E+03  0.17161621500E+03 0.  0.
         24    2    3    3    0    0 -0.47928634974E+02  0.65022879344E+01  0.14013645504E+02  0.93957745303E+02  0.79323652483E+02 0.  0.
         -6    2    1    2    0  502  0.47278220629E+02 -0.10542108645E+03  0.11628398562E+04  0.11812332187E+04  0.17252985267E+03 0.  0.
        -24    2    5    5    0    0  0.34250426017E+02 -0.14175375120E+03  0.85317345201E+03  0.86913522467E+03  0.78891583136E+02 0.  0.
          5    1    3    3  501    0  0.65041434467E+00  0.98918798511E+02  0.10666714381E+03  0.14555178222E+03  0.47000000000E+01 0. -1.
        -11    1    4    4    0    0 -0.42566707599E+02  0.14064050690E+02  0.43852735268E+02  0.62711916795E+02  0.00000000000E+00 0.  1.
         12    1    4    4    0    0 -0.53619273749E+01 -0.75617627560E+01 -0.29839089764E+02  0.31245828507E+02  0.00000000000E+00 0. -1.
         -5    1    5    5    0  502  0.13027794613E+02  0.36332664759E+02  0.30966640422E+03  0.31209799401E+03  0.47000000000E+01 0.  1.
         13    1    6    6    0    0  0.57957062251E+02 -0.11948206366E+03  0.71013754363E+03  0.72244744824E+03  0.00000000000E+00 0. -1.
        -14    1    6    6    0    0 -0.23706636234E+02 -0.22271687540E+02  0.14303590838E+03  0.14668777643E+03  0.00000000000E+00 0.  1.
</event>
<event>
12    1  0.1040325E-001  0.2224024E+03  0.7818608E-02  0.1132136E+00
         21   -1    0    0  503  502  0.00000000000E+00  0.00000000000E+00  0.43706985280E+03  0.43706985280E+03  0.00000000000E+00 0. -1.
         21   -1    0    0  501  503 -0.00000000000E+00 -0.00000000000E+00 -0.13490960187E+03  0.13490960187E+03  0.00000000000E+00 0. -1.
          6    2    1    2  501    0 -0.13772291429E+03 -0.29607785887E+02  0.36091298983E+02  0.22531183128E+03  0.17210060240E+03 0.  0.
         24    2    3    3    0    0 -0.33083401697E+02 -0.43434896045E+02 -0.29814462516E+02  0.10078763295E+03  0.79297812822E+02 0.  0.
         -6    2    1    2    0  502  0.13772291429E+03  0.29607785887E+02  0.26606895195E+03  0.34666762338E+03  0.17187650161E+03 0.  0.
        -24    2    5    5    0    0  0.45495594415E+02  0.28457514753E+02  0.22680933258E+03  0.24631519756E+03  0.79680762719E+02 0.  0.
          5    1    3    3  501    0 -0.10463951259E+03  0.13827110158E+02  0.65905761499E+02  0.12452419833E+03  0.47000000000E+01 0. -1.
        -13    1    4    4    0    0  0.66734091004E+01  0.19481410864E+02 -0.13416469401E+02  0.24577660781E+02  0.00000000000E+00 0.  1.
         14    1    4    4    0    0 -0.39756810798E+02 -0.62916306909E+02 -0.16397993116E+02  0.76209972170E+02  0.00000000000E+00 0. -1.
         -5    1    5    5    0  502  0.92227319875E+02  0.11502711337E+01  0.39259619371E+02  0.10035242582E+03  0.47000000000E+01 0.  1.
         11    1    6    6    0    0  0.30110843307E+02  0.42034382285E+02  0.64277694849E+02  0.82493479947E+02  0.00000000000E+00 0. -1.
        -12    1    6    6    0    0  0.15384751109E+02 -0.13576867532E+02  0.16253163773E+03  0.16382171762E+03  0.00000000000E+00 0.  1.
</event>
<event>
12    1  0.1040325E-001  0.1870691E+03  0.7818608E-02  0.1161584E+00
         21   -1    0    0  501  502  0.00000000000E+00  0.00000000000E+00  0.54680608014E+02  0.54680608014E+02  0.00000000000E+00 0. -1.
         21   -1    0    0  502  503 -0.00000000000E+00 -0.00000000000E+00 -0.71729905687E+03  0.71729905687E+03  0.00000000000E+00 0.  1.
         -6    2    1    2    0  503  0.66899749084E+02 -0.69644792182E+01 -0.46491239168E+03  0.50113707391E+03  0.17455874231E+03 0.  0.
        -24    2    3    3    0    0  0.82678786935E+02 -0.62590728397E+02 -0.33089979814E+03  0.35510720416E+03  0.76505352408E+02 0.  0.
          6    2    1    2  501    0 -0.66899749084E+02  0.69644792182E+01 -0.19770605718E+03  0.27084259097E+03  0.17246432571E+03 0.  0.
         24    2    5    5    0    0 -0.90796008252E+02 -0.58454419806E+01 -0.20687124369E+03  0.24183886833E+03  0.86094381126E+02 0.  0.
          5    1    5    5  501    0  0.23896259169E+02  0.12809921199E+02  0.91651865123E+01  0.29003722644E+02  0.47000000000E+01 0. -1.
        -13    1    6    6    0    0 -0.43885309301E+02  0.39761955643E+02 -0.11028796715E+03  0.12518134521E+03  0.00000000000E+00 0.  1.
         14    1    6    6    0    0 -0.46910698951E+02 -0.45607397623E+02 -0.96583276541E+02  0.11665752312E+03  0.00000000000E+00 0. -1.
         -5    1    3    3    0  503 -0.15779037852E+02  0.55626249179E+02 -0.13401259353E+03  0.14602986975E+03  0.47000000000E+01 0.  1.
         11    1    4    4    0    0  0.13324856004E+02 -0.16290314981E+01 -0.20995994865E+01  0.13587267906E+02  0.00000000000E+00 0. -1.
        -12    1    4    4    0    0  0.69353930931E+02 -0.60961696899E+02 -0.32880019866E+03  0.34151993626E+03  0.00000000000E+00 0.  1.
</event>
<event>
12    1  0.1040325E-001  0.1846173E+03  0.7818608E-02  0.1163825E+00
         21   -1    0    0  501  502  0.00000000000E+00  0.00000000000E+00  0.21051453350E+03  0.21051453350E+03  0.00000000000E+00 0.  1.
         21   -1    0    0  502  503 -0.00000000000E+00 -0.00000000000E+00 -0.17226946855E+03  0.17226946855E+03  0.00000000000E+00 0.  1.
         -6    2    1    2    0  503 -0.61324529515E+02  0.14871675765E+02  0.69369786660E+02  0.19556145402E+03  0.17161075239E+03 0.  0.
        -24    2    3    3    0    0 -0.62138117810E+02 -0.13730378364E+02 -0.18947944340E+02  0.10260527598E+03  0.78224990189E+02 0.  0.
          6    2    1    2  501    0  0.61324529515E+02 -0.14871675765E+02 -0.31124721706E+02  0.18722254803E+03  0.17349832717E+03 0.  0.
         24    2    5    5    0    0  0.59573242695E+02 -0.10100116511E+02 -0.85787447812E+02  0.13212319768E+03  0.80287418475E+02 0.  0.
          5    1    5    5  501    0  0.17512868198E+01 -0.47715592540E+01  0.54662726106E+02  0.55099350346E+02  0.47000000000E+01 0. -1.
        -11    1    6    6    0    0 -0.69066739504E+01 -0.25500443788E+02 -0.46229921341E+02  0.53246412139E+02  0.00000000000E+00 0.  1.
         12    1    6    6    0    0  0.66479916645E+02  0.15400327277E+02 -0.39557526470E+02  0.78876785545E+02  0.00000000000E+00 0. -1.
         -5    1    3    3    0  503  0.81358829488E+00  0.28602054129E+02  0.88317730999E+02  0.92956178037E+02  0.47000000000E+01 0.  1.
         13    1    4    4    0    0 -0.73765506376E+02  0.72265200618E+01 -0.24390566912E+02  0.78028663179E+02  0.00000000000E+00 0. -1.
        -14    1    4    4    0    0  0.11627388567E+02 -0.20956898426E+02  0.54426225725E+01  0.24576612805E+02  0.00000000000E+00 0.  1.
</event>
<event>
12    1  0.1040325E-001  0.2900012E+03  0.7818608E-02  0.1090368E+00
         21   -1    0    0  503  502  0.00000000000E+00  0.00000000000E+00  0.22296171348E+04  0.22296171348E+04  0.00000000000E+00 0.  1.
         21   -1    0    0  501  503 -0.00000000000E+00 -0.00000000000E+00 -0.77839383626E+02  0.77839383626E+02  0.00000000000E+00 0. -1.
          6    2    1    2  501    0  0.12923120608E+03 -0.19369906888E+03  0.24726174694E+03  0.38098775548E+03  0.17260725481E+03 0.  0.
         24    2    3    3    0    0  0.99120574223E+02 -0.88706523406E+02  0.63967901834E+02  0.16756608739E+03  0.79326954109E+02 0.  0.
         -6    2    1    2    0  502 -0.12923120608E+03  0.19369906888E+03  0.19045160042E+04  0.19264687629E+04  0.17286020459E+03 0.  0.
        -24    2    5    5    0    0 -0.12902781071E+03  0.10663168393E+03  0.94152245766E+03  0.95953576029E+03  0.78904024247E+02 0.  0.
          5    1    3    3  501    0  0.30110631854E+02 -0.10499254547E+03  0.18329384511E+03  0.21342166809E+03  0.47000000000E+01 0. -1.
        -13    1    4    4    0    0 -0.69688674105E+01 -0.71809748641E+01  0.26943646621E+02  0.28741809377E+02  0.00000000000E+00 0.  1.
         14    1    4    4    0    0  0.10608944163E+03 -0.81525548542E+02  0.37024255213E+02  0.13882427801E+03  0.00000000000E+00 0. -1.
         -5    1    5    5    0  502 -0.20339536873E+00  0.87067384945E+02  0.96299354654E+03  0.96693300263E+03  0.47000000000E+01 0.  1.
         13    1    6    6    0    0 -0.46252296638E+02  0.86122334968E+02  0.43167193435E+03  0.44260251969E+03  0.00000000000E+00 0. -1.
        -14    1    6    6    0    0 -0.82775514070E+02  0.20509348967E+02  0.50985052331E+03  0.51693324061E+03  0.00000000000E+00 0.  1.
</event>
<event>
12    1  0.1040325E-001  0.1829273E+03  0.7818608E-02  0.1165087E+00
         21   -1    0    0  501  502  0.00000000000E+00  0.00000000000E+00  0.18198948000E+03  0.18198948000E+03  0.00000000000E+00 0. -1.
         21   -1    0    0  502  503 -0.00000000000E+00 -0.00000000000E+00 -0.32624334420E+03  0.32624334420E+03  0.00000000000E+00 0. -1.
         -6    2    1    2    0  503  0.61012886555E+02  0.77205584900E+01 -0.24025684570E+03  0.30196979505E+03  0.17227949927E+03 0.  0.
        -24    2    3    3    0    0  0.89257809314E+02  0.26653790933E+02 -0.23740399624E+03  0.26752459651E+03  0.80816899309E+02 0.  0.
          6    2    1    2  501    0 -0.61012886555E+02 -0.77205584900E+01  0.96002981494E+02  0.20626302915E+03  0.17188858423E+03 0.  0.
         24    2    5    5    0    0 -0.41511143105E+02 -0.73591296869E+02  0.49465395307E+02  0.12315400978E+03  0.74707635595E+02 0.  0.
          5    1    5    5  501    0 -0.19501743450E+02  0.65870738379E+02  0.46537586187E+02  0.83109019368E+02  0.47000000000E+01 0. -1.
        -13    1    6    6    0    0  0.20326714863E+02 -0.21223900138E+02  0.24792237585E+02  0.38448463151E+02  0.00000000000E+00 0.  1.
         14    1    6    6    0    0 -0.61837857968E+02 -0.52367396731E+02  0.24673157722E+02  0.84705546633E+02  0.00000000000E+00 0. -1.
         -5    1    3    3    0  503 -0.28244922759E+02 -0.18933232443E+02 -0.28528494609E+01  0.34445198540E+02  0.47000000000E+01 0.  1.
         13    1    4    4    0    0  0.30045305966E+01  0.34058646883E+02 -0.93889860597E+02  0.99921592033E+02  0.00000000000E+00 0. -1.
        -14    1    4    4    0    0  0.86253278717E+02 -0.74048559497E+01 -0.14351413564E+03  0.16760300448E+03  0.00000000000E+00 0.  1.
</event>
<event>
12    1  0.1040325E-001  0.2019391E+03  0.7818608E-02  0.1148368E+00
         21   -1    0    0  503  502  0.00000000000E+00  0.00000000000E+00  0.34132453621E+03  0.34132453621E+03  0.00000000000E+00 0. -1.
         21   -1    0    0  501  503 -0.00000000000E+00 -0.00000000000E+00 -0.13915940434E+03  0.13915940434E+03  0.00000000000E+00 0.  1.
          6    2    1    2  501    0 -0.13019219247E+02  0.10351731365E+03  0.19333622754E+03  0.27956805497E+03  0.17289900575E+03 0.  0.
         24    2    3    3    0    0 -0.40876181686E+02 -0.35607757629E+01  0.65900682356E+02  0.11073785695E+03  0.78971081252E+02 0.  0.
         -6    2    1    2    0  502  0.13019219247E+02 -0.10351731365E+03  0.88289043284E+01  0.20091588557E+03  0.17147568116E+03 0.  0.
        -24    2    5    5    0    0  0.73263397772E+02 -0.75060549646E+02  0.16991071636E+02  0.13362651465E+03  0.81029237542E+02 0.  0.
          5    1    3    3  501    0  0.27856962439E+02  0.10707808941E+03  0.12743554518E+03  0.16883019802E+03  0.47000000000E+01 0. -1.
        -11    1    4    4    0    0 -0.30340457300E+02  0.35183676471E+02  0.22525582085E+02  0.51631737212E+02  0.00000000000E+00 0.  1.
         12    1    4    4    0    0 -0.10535724386E+02 -0.38744452234E+02  0.43375100270E+02  0.59106119740E+02  0.00000000000E+00 0. -1.
         -5    1    5    5    0  502 -0.60244178525E+02 -0.28456764000E+02 -0.81621673077E+01  0.67289370918E+02  0.47000000000E+01 0.  1.
         13    1    6    6    0    0  0.74757688099E+02 -0.19978599532E+02  0.11878216031E+02  0.78287600457E+02  0.00000000000E+00 0. -1.
        -14    1    6    6    0    0 -0.14942903273E+01 -0.55081950114E+02  0.51128556047E+01  0.55338914196E+02  0.00000000000E+00 0.  1.
</event>
<event>
12    1  0.1040325E-001  0.1961812E+03  0.7818608E-02  0.1153150E+00
         21   -1    0    0  501  502  0.00000000000E+00  0.00000000000E+00  0.36295069076E+03  0.36295069076E+03  0.00000000000E+00 0. -1.
         21   -1    0    0  502  503 -0.00000000000E+00 -0.00000000000E+00 -0.30638411138E+03  0.30638411138E+03  0.00000000000E+00 0. -1.
         -6    2    1    2    0  503  0.39177703906E+02  0.83801383492E+02 -0.24260864562E+03  0.31157386640E+03  0.17222588346E+03 0.  0.
        -24    2    3    3    0    0  0.18881480717E+02  0.72174749373E+02 -0.54362547571E+02  0.12182192641E+03  0.79495851559E+02 0.  0.
          6    2    1    2  501    0 -0.39177703906E+02 -0.83801383492E+02  0.29917522500E+03  0.35776093575E+03  0.17300146687E+03 0.  0.
         24    2    5    5    0    0 -0.91520364656E+02 -0.60012924661E+02  0.23676243634E+03  0.27277216534E+03  0.79816506116E+02 0.  0.
          5    1    5    5  501    0  0.52342660751E+02 -0.23788458831E+02  0.62412788659E+02  0.84988770413E+02  0.47000000000E+01 0. -1.
        -13    1    6    6    0    0 -0.28563557368E+01 -0.23074313560E+02  0.78747635322E+01  0.24547802652E+02  0.00000000000E+00 0.  1.
         14    1    6    6    0    0 -0.88664008920E+02 -0.36938611101E+02  0.22888767281E+03  0.24822436269E+03  0.00000000000E+00 0. -1.
         -5    1    3    3    0  503  0.20296223188E+02  0.11626634119E+02 -0.18824609805E+03  0.18975193998E+03  0.47000000000E+01 0.  1.
         11    1    4    4    0    0  0.17399558018E+02 -0.12959011279E+02 -0.21528256917E+02  0.30563809292E+02  0.00000000000E+00 0. -1.
        -12    1    4    4    0    0  0.14819226999E+01  0.85133760652E+02 -0.32834290654E+02  0.91258117120E+02  0.00000000000E+00 0.  1.
</event>
<event>
12    1  0.1040325E-001  0.2155285E+03  0.7818608E-02  0.1137289E+00
         21   -1    0    0  501  502  0.00000000000E+00  0.00000000000E+00  0.39778065978E+03  0.39778065978E+03  0.00000000000E+00 0.  1.
         21   -1    0    0  502  503 -0.00000000000E+00 -0.00000000000E+00 -0.12815327544E+03  0.12815327544E+03  0.00000000000E+00 0.  1.
         -6    2    1    2    0  503 -0.12905209842E+03 -0.67352593816E+01  0.56243973230E+02  0.22274629577E+03  0.17248976761E+03 0.  0.
        -24    2    3    3    0    0 -0.23937736811E+02  0.51589424671E+02  0.40333120367E+02  0.10139538714E+03  0.73619154799E+02 0.  0.
          6    2    1    2  501    0  0.12905209842E+03  0.67352593816E+01  0.21338341111E+03  0.30318763944E+03  0.17230918939E+03 0.  0.
         24    2    5    5    0    0  0.20188363086E+02  0.48866910989E+01  0.16442040716E+03  0.18371297338E+03  0.79277591672E+02 0.  0.
          5    1    5    5  501    0  0.10886373534E+03  0.18485682827E+01  0.48963003952E+02  0.11947466607E+03  0.47000000000E+01 0. -1.
        -11    1    6    6    0    0  0.28442772144E+02  0.36042978696E+02  0.12258592940E+03  0.13090224477E+03  0.00000000000E+00 0.  1.
         12    1    6    6    0    0 -0.82544090575E+01 -0.31156287597E+02  0.41834477766E+02  0.52810728604E+02  0.00000000000E+00 0. -1.
         -5    1    3    3    0  503 -0.10511436161E+03 -0.58324684053E+02  0.15910852863E+02  0.12135090863E+03  0.47000000000E+01 0.  1.
         11    1    4    4    0    0 -0.41280164263E+02  0.45234516942E+02  0.48968195892E+01  0.61434455533E+02  0.00000000000E+00 0. -1.
        -12    1    4    4    0    0  0.17342427451E+02  0.63549077295E+01  0.35436300778E+02  0.39960931608E+02  0.00000000000E+00 0.  1.
</event>
<event>
12    1  0.1040325E-001  0.1880699E+03  0.7818608E-02  0.1160439E+00
         21   -1    0    0  501  502  0.00000000000E+00  0.00000000000E+00  0.45525001331E+03  0.45525001331E+03  0.00000000000E+00 0.  1.
         21   -1    0    0  502  503 -0.00000000000E+00 -0.00000000000E+00 -0.83570715288E+02  0.83570715288E+02  0.00000000000E+00 0.  1.
         -6    2    1    2    0  503  0.31894536557E+01 -0.76448484455E+02  0.26014879058E+03  0.32101043478E+03  0.17180152097E+03 0.  0.
        -24    2    3    3    0    0  0.12355737418E+02  0.21462908293E+02  0.16771388981E+03  0.18596613661E+03  0.76433856704E+02 0.  0.
          6    2    1    2  501    0 -0.31894536557E+01  0.76448484455E+02  0.11153050744E+03  0.21781029382E+03  0.17072705296E+03 0.  0.
         24    2    5    5    0    0  0.12263487411E+02  0.11105799268E+03  0.11555605253E+03  0.17940578287E+03  0.79680378955E+02 0.  0.
          5    1    5    5  501    0 -0.15452941066E+02 -0.34609508230E+02 -0.40255450872E+01  0.38404510943E+02  0.47000000000E+01 0. -1.
        -11    1    6    6    0    0  0.28205901131E+00  0.51206275317E+02  0.29155879272E+01  0.51289987737E+02  0.00000000000E+00 0.  1.
         12    1    6    6    0    0  0.11981428399E+02  0.59851717368E+02  0.11264046460E+03  0.12811579514E+03  0.00000000000E+00 0. -1.
         -5    1    3    3    0  503 -0.91662837622E+01 -0.97911392748E+02  0.92434900772E+02  0.13504429817E+03  0.47000000000E+01 0.  1.
         11    1    4    4    0    0 -0.19145423628E+02  0.19050177321E+02  0.14387449851E+03  0.14638759450E+03  0.00000000000E+00 0. -1.
        -12    1    4    4    0    0  0.31501161046E+02  0.24127309722E+01  0.23839391300E+02  0.39578542110E+02  0.00000000000E+00 0.  1.
</event>
<event>
12    1  0.1040325E-001  0.1777052E+03  0.7818608E-02  0.1170210E+00
         21   -1    0    0  503  502  0.00000000000E+00  0.00000000000E+00  0.10030068757E+04  0.10030068757E+04  0.00000000000E+00 0. -1.
         21   -1    0    0  501  503 -0.00000000000E+00 -0.00000000000E+00 -0.74898849505E+02  0.74898849505E+02  0.00000000000E+00 0. -1.
          6    2    1    2  501    0 -0.29572995014E+02 -0.27290926111E+02  0.52787984299E+02  0.18472919018E+03  0.17239183779E+03 0.  0.
         24    2    3    3    0    0 -0.54125946962E+02  0.25443941478E+02 -0.19680614409E+01  0.10470339275E+03  0.85918070829E+02 0.  0.
         -6    2    1    2    0  502  0.29572995014E+02  0.27290926111E+02  0.87532004191E+03  0.89317653504E+03  0.17308896642E+03 0.  0.
        -24    2    5    5    0    0  0.46295678203E+01 -0.43974183629E+02  0.32469206151E+03  0.33737607334E+03  0.80265299668E+02 0.  0.
          5    1    3    3  501    0  0.24552951948E+02 -0.52734867589E+02  0.54756045740E+02  0.80025797428E+02  0.47000000000E+01 0. -1.
        -13    1    4    4    0    0 -0.47852630219E+02  0.35022060663E+02  0.33031538890E+02  0.67878579194E+02  0.00000000000E+00 0.  1.
         14    1    4    4    0    0 -0.62733167432E+01 -0.95781191857E+01 -0.34999600331E+02  0.36824813556E+02  0.00000000000E+00 0. -1.
         -5    1    5    5    0  502  0.24943427194E+02  0.71265109740E+02  0.55062798040E+03  0.55580046170E+03  0.47000000000E+01 0.  1.
         13    1    6    6    0    0 -0.35329687749E+02 -0.35995964685E+02  0.16275188783E+03  0.17038800809E+03  0.00000000000E+00 0. -1.
        -14    1    6    6    0    0  0.39959255569E+02 -0.79782189442E+01  0.16194017368E+03  0.16698806525E+03  0.00000000000E+00 0.  1.
</event>
<event>
12    1  0.1040325E-001  0.2315804E+03  0.7818608E-02  0.1126340E+00
         21   -1    0    0  503  502  0.00000000000E+00  0.00000000000E+00  0.14828824616E+03  0.14828824616E+03  0.00000000000E+00 0. -1.
         21   -1    0    0  501  503 -0.00000000000E+00 -0.00000000000E+00 -0.42875990318E+03  0.42875990318E+03  0.00000000000E+00 0.  1.
          6    2    1    2  501    0 -0.18975644332E+02 -0.14823500963E+03 -0.26143558843E+03  0.34925354885E+03  0.17690613705E+03 0.  0.
         24    2    3    3    0    0  0.35113731152E+02 -0.10666316183E+03 -0.11257997510E+03  0.18544279618E+03  0.95418948093E+02 0.  0.
         -6    2    1    2    0  502  0.18975644332E+02  0.14823500963E+03 -0.19036068586E+02  0.22779460049E+03  0.17086343946E+03 0.  0.
        -24    2    5    5    0    0  0.46584307351E+02  0.19604619799E+02  0.66756823957E+01  0.93663322999E+02  0.78573624907E+02 0.  0.
          5    1    3    3  501    0 -0.54089375484E+02 -0.41571847804E+02 -0.14885561333E+03  0.16381075267E+03  0.47000000000E+01 0. -1.
        -11    1    4    4    0    0  0.28309524685E+02 -0.22959512108E+02 -0.92029993795E+02  0.98985292554E+02  0.00000000000E+00 0.  1.
         12    1    4    4    0    0  0.68042064670E+01 -0.83703649718E+02 -0.20549981309E+02  0.86457503628E+02  0.00000000000E+00 0. -1.
         -5    1    5    5    0  502 -0.27608663019E+02  0.12863038983E+03 -0.25711750982E+02  0.13413127749E+03  0.47000000000E+01 0.  1.
         11    1    6    6    0    0 -0.12601610046E+02  0.29741158755E+02 -0.44117474279E+01  0.32600622927E+02  0.00000000000E+00 0. -1.
        -12    1    6    6    0    0  0.59185917396E+02 -0.10136538956E+02  0.11087429824E+02  0.61062700073E+02  0.00000000000E+00 0.  1.
</event>
<event>
12    1  0.1040325E-001  0.1831541E+03  0.7818608E-02  0.1165441E+00
         21   -1    0    0  503  502  0.00000000000E+00  0.00000000000E+00  0.11106889447E+03  0.11106889447E+03  0.00000000000E+00 0.  1.
         21   -1    0    0  501  503 -0.00000000000E+00 -0.00000000000E+00 -0.69942387792E+03  0.69942387792E+03  0.00000000000E+00 0.  1.
          6    2    1    2  501    0  0.53396191573E+02 -0.52329664526E+01 -0.60042468430E+03  0.62694145993E+03  0.17224185161E+03 0.  0.
         24    2    3    3    0    0  0.22870611273E+02 -0.69103939963E+02 -0.33786040984E+03  0.35496094494E+03  0.80927106199E+02 0.  0.
         -6    2    1    2    0  502 -0.53396191573E+02  0.52329664526E+01  0.12069700854E+02  0.18355131247E+03  0.17511958605E+03 0.  0.
        -24    2    5    5    0    0 -0.10221774594E+02  0.52904791489E+02 -0.38179716293E+02  0.10179724769E+03  0.77469911983E+02 0.  0.
          5    1    3    3  501    0  0.30525580300E+02  0.63870973511E+02 -0.26256427446E+03  0.27198051499E+03  0.47000000000E+01 0. -1.
        -11    1    4    4    0    0 -0.94112979780E+01 -0.38917124651E+02 -0.27625523240E+03  0.27914166394E+03  0.00000000000E+00 0.  1.
         12    1    4    4    0    0  0.32281909251E+02 -0.30186815313E+02 -0.61605177442E+02  0.75819281000E+02  0.00000000000E+00 0. -1.
         -5    1    5    5    0  502 -0.43174416979E+02 -0.47671825036E+02  0.50249417147E+02  0.81754064776E+02  0.47000000000E+01 0.  1.
         13    1    6    6    0    0 -0.32645702275E+02  0.46845555842E+02 -0.49854192383E+02  0.75800319771E+02  0.00000000000E+00 0. -1.
        -14    1    6    6    0    0  0.22423927681E+02  0.60592356469E+01  0.11674476090E+02  0.25996927919E+02  0.00000000000E+00 0.  1.
</event>
<event>
12    1  0.1040325E-001  0.1866874E+03  0.7818608E-02  0.1162902E+00
         21   -1    0    0  501  502  0.00000000000E+00  0.00000000000E+00  0.20014411684E+03  0.20014411684E+03  0.00000000000E+00 0.  1.
         21   -1    0    0  502  503 -0.00000000000E+00 -0.00000000000E+00 -0.16954183833E+03  0.16954183833E+03  0.00000000000E+00 0.  1.
         -6    2    1    2    0  503 -0.56263426363E+02 -0.56744924992E+01  0.29710387065E+02  0.18903672084E+03  0.17791683932E+03 0.  0.
        -24    2    3    3    0    0  0.52365458505E+01 -0.13971012911E+02  0.85595311958E+02  0.10539287071E+03  0.59653073295E+02 0.  0.
          6    2    1    2  501    0  0.56263426363E+02  0.56744924992E+01  0.89189144276E+00  0.18064923434E+03  0.17156799639E+03 0.  0.
         24    2    5    5    0    0  0.48812387782E+02  0.68072472967E+01  0.65855213290E+02  0.11508152662E+03  0.80485159104E+02 0.  0.
          5    1    5    5  501    0  0.74510385805E+01 -0.11327547975E+01 -0.64963321848E+02  0.65567707714E+02  0.47000000000E+01 0. -1.
        -13    1    6    6    0    0  0.66413589476E+02  0.10537240554E+02  0.27375285664E+02  0.72603061717E+02  0.00000000000E+00 0.  1.
         14    1    6    6    0    0 -0.17601201693E+02 -0.37299932572E+01  0.38479927627E+02  0.42478464907E+02  0.00000000000E+00 0. -1.
         -5    1    3    3    0  503 -0.61499972213E+02  0.82965204121E+01 -0.55884924893E+02  0.83643850123E+02  0.47000000000E+01 0.  1.
         11    1    4    4    0    0  0.29658900031E+02 -0.18110526603E+02  0.62574153639E+02  0.71576296555E+02  0.00000000000E+00 0. -1.
        -12    1    4    4    0    0 -0.24422354181E+02  0.41395136915E+01  0.23021158318E+02  0.33816574156E+02  0.00000000000E+00 0.  1.
</event>
<event>
12    1  0.1040325E-001  0.2290534E+03  0.7818608E-02  0.1127409E+00
         21   -1    0    0  503  502  0.00000000000E+00  0.00000000000E+00  0.11484412917E+03  0.11484412917E+03  0.00000000000E+00 0.  1.
         21   -1    0    0  501  503 -0.00000000000E+00 -0.00000000000E+00 -0.11213463422E+04  0.11213463422E+04  0.00000000000E+00 0.  1.
          6    2    1    2  501    0  0.44393170645E+02 -0.14276863715E+03 -0.97972629104E+03  0.10061456475E+04  0.17352758065E+03 0.  0.
         24    2    3    3    0    0  0.76744807517E+02 -0.35033888468E+02 -0.51353167820E+03  0.52654903415E+03  0.80137145118E+02 0.  0.
         -6    2    1    2    0  502 -0.44393170645E+02  0.14276863715E+03 -0.26775921986E+02  0.23004482388E+03  0.17277162279E+03 0.  0.
        -24    2    5    5    0    0 -0.29672412790E+02  0.17393231468E+03 -0.19254831390E+02  0.19445645060E+03  0.79433371309E+02 0.  0.
          5    1    3    3  501    0 -0.32351636873E+02 -0.10773474868E+03 -0.46619461284E+03  0.47959661334E+03  0.47000000000E+01 0. -1.
        -13    1    4    4    0    0  0.47967847363E+02 -0.57531871294E+02 -0.40941038748E+03  0.41620631419E+03  0.00000000000E+00 0.  1.
         14    1    4    4    0    0  0.28776960155E+02  0.22497982826E+02 -0.10412129072E+03  0.11034271996E+03  0.00000000000E+00 0. -1.
         -5    1    5    5    0  502 -0.14720757854E+02 -0.31163677529E+02 -0.75210905956E+01  0.35588373279E+02  0.47000000000E+01 0.  1.
         11    1    6    6    0    0  0.19824673928E+02  0.75210522362E+02 -0.30294074926E+02  0.83470781391E+02  0.00000000000E+00 0. -1.
        -12    1    6    6    0    0 -0.49497086719E+02  0.98721792318E+02  0.11039243536E+02  0.11098566921E+03  0.00000000000E+00 0.  1.
</event>
<event>
12    1  0.1040325E-001  0.2260846E+03  0.7818608E-02  0.1129466E+00
         21   -1    0    0  501  502  0.00000000000E+00  0.00000000000E+00  0.23360472585E+03  0.23360472585E+03  0.00000000000E+00 0.  1.
         21   -1    0    0  502  503 -0.00000000000E+00 -0.00000000000E+00 -0.12802895096E+04  0.12802895096E+04  0.00000000000E+00 0. -1.
         -6    2    1    2    0  503  0.38415851940E+02 -0.14136973655E+03 -0.12126904133E+04  0.12335851296E+04  0.17220061970E+03 0.  0.
        -24    2    3    3    0    0  0.35548858786E+02 -0.13437532117E+03 -0.62590266162E+03  0.64672986892E+03  0.84763985435E+02 0.  0.
          6    2    1    2  501    0 -0.38415851940E+02  0.14136973655E+03  0.16600562957E+03  0.28030910581E+03  0.17191319222E+03 0.  0.
         24    2    5    5    0    0  0.50292733115E+02  0.37955516884E+02  0.61076185800E+02  0.10827424870E+03  0.63427377315E+02 0.  0.
          5    1    5    5  501    0 -0.88708585056E+02  0.10341421967E+03  0.10492944377E+03  0.17203485711E+03  0.47000000000E+01 0. -1.
        -13    1    6    6    0    0 -0.46399048625E+01  0.74155492508E-01  0.37070402096E+02  0.37359723336E+02  0.00000000000E+00 0.  1.
         14    1    6    6    0    0  0.54932637978E+02  0.37881361391E+02  0.24005783704E+02  0.70914525362E+02  0.00000000000E+00 0. -1.
         -5    1    3    3    0  503  0.28669931545E+01 -0.69944153828E+01 -0.58678775168E+03  0.58685526070E+03  0.47000000000E+01 0.  1.
         11    1    4    4    0    0  0.33913794821E+02 -0.12918447889E+03 -0.62709325402E+03  0.64115889162E+03  0.00000000000E+00 0. -1.
        -12    1    4    4    0    0  0.16350639642E+01 -0.51908422795E+01  0.11905924043E+01  0.55709772940E+01  0.00000000000E+00 0.  1.
</event>
<event>
12    1  0.1040325E-001  0.2035200E+03  0.7818608E-02  0.1147091E+00
         21   -1    0    0  501  502  0.00000000000E+00  0.00000000000E+00  0.11501880847E+04  0.11501880847E+04  0.00000000000E+00 0.  1.
         21   -1    0    0  502  503 -0.00000000000E+00 -0.00000000000E+00 -0.36672291629E+02  0.36672291629E+02  0.00000000000E+00 0.  1.
         -6    2    1    2    0  503 -0.10840777029E+03  0.91499824698E+01  0.65193953426E+03  0.68296818329E+03  0.17200120992E+03 0.  0.
        -24    2    3    3    0    0 -0.18291308241E+02  0.22437642206E+02  0.49015539694E+03  0.49724329072E+03  0.78489217500E+02 0.  0.
          6    2    1    2  501    0  0.10840777029E+03 -0.91499824698E+01  0.46157625884E+03  0.50389219307E+03  0.17034885580E+03 0.  0.
         24    2    5    5    0    0  0.14337305114E+03 -0.18164288119E+02  0.37567101507E+03  0.41058823025E+03  0.81044494563E+02 0.  0.
          5    1    5    5  501    0 -0.34965280848E+02  0.90143056487E+01  0.85905243768E+02  0.93303962820E+02  0.47000000000E+01 0. -1.
        -13    1    6    6    0    0  0.37633246907E+02 -0.30292548621E+02  0.57574049331E+02  0.75157640536E+02  0.00000000000E+00 0.  1.
         14    1    6    6    0    0  0.10573980423E+03  0.12128260502E+02  0.31809696574E+03  0.33543058972E+03  0.00000000000E+00 0. -1.
         -5    1    3    3    0  503 -0.90116462051E+02 -0.13287659737E+02  0.16178413732E+03  0.18572489257E+03  0.47000000000E+01 0.  1.
         13    1    4    4    0    0 -0.24481850273E+02  0.44922476626E+02  0.21093342763E+03  0.21704907462E+03  0.00000000000E+00 0. -1.
        -14    1    4    4    0    0  0.61905420326E+01 -0.22484834420E+02  0.27922196931E+03  0.28019421610E+03  0.00000000000E+00 0.  1.
</event>
<event>
12    1  0.1040325E-001  0.1792670E+03  0.7818608E-02  0.1168636E+00
         21   -1    0    0  503  502  0.00000000000E+00  0.00000000000E+00  0.33745399886E+03  0.33745399886E+03  0.00000000000E+00 0. -1.
         21   -1    0    0  501  503 -0.00000000000E+00 -0.00000000000E+00 -0.19996489633E+03  0.19996489633E+03  0.00000000000E+00 0. -1.
          6    2    1    2  501    0 -0.29672784013E+02 -0.39646723755E+02 -0.12601491102E+03  0.21871678578E+03  0.17177001417E+03 0.  0.
         24    2    3    3    0    0  0.41402056843E+02  0.15229186959E+02 -0.57452009295E+02  0.10564176611E+03  0.76898575601E+02 0.  0.
         -6    2    1    2    0  502  0.29672784013E+02  0.39646723755E+02  0.26350401355E+03  0.31870210941E+03  0.17229141757E+03 0.  0.
        -24    2    5    5    0    0 -0.37467355958E+02  0.51123324118E+02  0.10802130161E+03  0.14888905201E+03  0.80510565612E+02 0.  0.
          5    1    3    3  501    0 -0.71074840856E+02 -0.54875910714E+02 -0.68562901724E+02  0.11307501967E+03  0.47000000000E+01 0. -1.
        -11    1    4    4    0    0  0.20289229216E+02 -0.30945383123E+02 -0.31631915702E+02  0.48681081025E+02  0.00000000000E+00 0.  1.
         12    1    4    4    0    0  0.21112827628E+02  0.46174570082E+02 -0.25820093593E+02  0.56960685090E+02  0.00000000000E+00 0. -1.
         -5    1    5    5    0  502  0.67140139971E+02 -0.11476600363E+02  0.15548271194E+03  0.16981305740E+03  0.47000000000E+01 0.  1.
         13    1    6    6    0    0  0.14356545477E+02  0.10040598657E+02  0.70937385852E+02  0.73068712394E+02  0.00000000000E+00 0. -1.
        -14    1    6    6    0    0 -0.51823901435E+02  0.41082725461E+02  0.37083915756E+02  0.75820339613E+02  0.00000000000E+00 0.  1.
</event>
<event>
12    1  0.1040325E-001  0.1732454E+03  0.7818608E-02  0.1174689E+00
         21   -1    0    0  501  502  0.00000000000E+00  0.00000000000E+00  0.12564857549E+04  0.12564857549E+04  0.00000000000E+00 0.  1.
         21   -1    0    0  502  503 -0.00000000000E+00 -0.00000000000E+00 -0.35884631282E+02  0.35884631282E+02  0.00000000000E+00 0.  1.
         -6    2    1    2    0  503  0.77990378516E+01 -0.15980758497E+02  0.23596868909E+03  0.29273738052E+03  0.17233032841E+03 0.  0.
        -24    2    3    3    0    0 -0.18294363391E+01 -0.23327394915E+02  0.25588951505E+03  0.26895482621E+03  0.79433874623E+02 0.  0.
          6    2    1    2  501    0 -0.77990378516E+01  0.15980758497E+02  0.98463243458E+03  0.99963300571E+03  0.17160683334E+03 0.  0.
         24    2    5    5    0    0 -0.27744280451E+02 -0.44337155202E+02  0.55906265539E+03  0.56932173421E+03  0.94024762548E+02 0.  0.
          5    1    5    5  501    0  0.19945242599E+02  0.60317913699E+02  0.42556977919E+03  0.43031127150E+03  0.47000000000E+01 0. -1.
        -13    1    6    6    0    0 -0.55290012279E+00 -0.31422995245E+02  0.51500099987E+03  0.51595904895E+03  0.00000000000E+00 0.  1.
         14    1    6    6    0    0 -0.27191380328E+02 -0.12914159957E+02  0.44061655517E+02  0.53362685263E+02  0.00000000000E+00 0. -1.
         -5    1    3    3    0  503  0.96284741908E+01  0.73466364177E+01 -0.19920825969E+02  0.23782554303E+02  0.47000000000E+01 0.  1.
         11    1    4    4    0    0 -0.23729497262E+02  0.13824464302E+02  0.17635450793E+03  0.17848001939E+03  0.00000000000E+00 0. -1.
        -12    1    4    4    0    0  0.21900060923E+02 -0.37151859216E+02  0.79535007120E+02  0.90474806821E+02  0.00000000000E+00 0.  1.
</event>
<event>
12    1  0.1040325E-001  0.1977121E+03  0.7818608E-02  0.1151909E+00
         21   -1    0    0  503  502  0.00000000000E+00  0.00000000000E+00  0.63043662808E+03  0.63043662808E+03  0.00000000000E+00 0. -1.
         21   -1    0    0  501  503 -0.00000000000E+00 -0.00000000000E+00 -0.16304451507E+03  0.16304451507E+03  0.00000000000E+00 0. -1.
          6    2    1    2  501    0 -0.52296285003E+02  0.82922058233E+02 -0.78895500816E+02  0.21287224013E+03  0.17169484967E+03 0.  0.
         24    2    3    3    0    0 -0.19648769575E+02  0.35831551863E+01 -0.95823868434E+02  0.12529837742E+03  0.78221202209E+02 0.  0.
         -6    2    1    2    0  502  0.52296285003E+02 -0.82922058233E+02  0.54628761383E+03  0.58060890303E+03  0.17048628122E+03 0.  0.
        -24    2    5    5    0    0  0.10013778216E+03 -0.62690648842E+02  0.43198494822E+03  0.45496930680E+03  0.80177189820E+02 0.  0.
          5    1    3    3  501    0 -0.32647515428E+02  0.79338903047E+02  0.16928367618E+02  0.87573862713E+02  0.47000000000E+01 0. -1.
        -13    1    4    4    0    0 -0.23572930413E+01 -0.36349473452E+02 -0.35039603753E+02  0.50543198176E+02  0.00000000000E+00 0.  1.
         14    1    4    4    0    0 -0.17291476534E+02  0.39932628638E+02 -0.60784264681E+02  0.74755179242E+02  0.00000000000E+00 0. -1.
         -5    1    5    5    0  502 -0.47841497156E+02 -0.20231409391E+02  0.11430266561E+03  0.12563959623E+03  0.47000000000E+01 0.  1.
         11    1    6    6    0    0  0.10464632756E+03 -0.29173499344E+02  0.31587163794E+03  0.33403119404E+03  0.00000000000E+00 0. -1.
        -12    1    6    6    0    0 -0.45085454063E+01 -0.33517149498E+02  0.11611331028E+03  0.12093811276E+03  0.00000000000E+00 0.  1.
</event>
<event>
12    1  0.1040325E-001  0.1998375E+03  0.7818608E-02  0.1150194E+00
         21   -1    0    0  501  502  0.00000000000E+00  0.00000000000E+00  0.78598420315E+02  0.78598420315E+02  0.00000000000E+00 0.  1.
         21   -1    0    0  502  503 -0.00000000000E+00 -0.00000000000E+00 -0.10725553441E+04  0.10725553441E+04  0.00000000000E+00 0.  1.
         -6    2    1    2    0  503  0.69211403996E+02  0.73330620190E+02 -0.91681537118E+03  0.93834187031E+03  0.17253243881E+03 0.  0.
        -24    2    3    3    0    0  0.13612443437E+02 -0.24814575917E+02 -0.39605066919E+03  0.40548007887E+03  0.82200364970E+02 0.  0.
          6    2    1    2  501    0 -0.69211403996E+02 -0.73330620190E+02 -0.77141552638E+02  0.21281189414E+03  0.17079369088E+03 0.  0.
         24    2    5    5    0    0  0.33995640943E+02 -0.15959564453E+02 -0.18147488983E+01  0.72671430594E+02  0.62188682333E+02 0.  0.
          5    1    5    5  501    0 -0.10320704494E+03 -0.57371055737E+02 -0.75326803740E+02  0.14014046355E+03  0.47000000000E+01 0. -1.
        -13    1    6    6    0    0  0.88664839726E+01 -0.45174631158E+01  0.29375602912E+02  0.31015287480E+02  0.00000000000E+00 0.  1.
         14    1    6    6    0    0  0.25129156970E+02 -0.11442101338E+02 -0.31190351810E+02  0.41656143114E+02  0.00000000000E+00 0. -1.
         -5    1    3    3    0  503  0.55598960559E+02  0.98145196107E+02 -0.52076470200E+03  0.53286179144E+03  0.47000000000E+01 0.  1.
         13    1    4    4    0    0 -0.28127827795E+02 -0.24241705094E+02 -0.10336275037E+03  0.10983029239E+03  0.00000000000E+00 0. -1.
        -14    1    4    4    0    0  0.41740271232E+02 -0.57287082329E+00 -0.29268791881E+03  0.29564978648E+03  0.00000000000E+00 0.  1.
</event>
<event>
12    1  0.1040325E-001  0.1726491E+03  0.7818608E-02  0.1175494E+00
         21   -1    0    0  503  502  0.00000000000E+00  0.00000000000E+00  0.44855025426E+03  0.44855025426E+03  0.00000000000E+00 0.  1.
         21   -1    0    0  501  503 -0.00000000000E+00 -0.00000000000E+00 -0.76055917910E+02  0.76055917910E+02  0.00000000000E+00 0.  1.
          6    2    1    2  501    0  0.16038391106E+02 -0.40379444192E+01  0.89621914483E+02  0.19320837083E+03  0.17036388120E+03 0.  0.
         24    2    3    3    0    0  0.40459794987E+02  0.54997593847E+02  0.35484048306E+02  0.10933585865E+03  0.77675491389E+02 0.  0.
         -6    2    1    2    0  502 -0.16038391106E+02  0.40379444192E+01  0.28287242186E+03  0.33139780134E+03  0.17185505723E+03 0.  0.
        -24    2    5    5    0    0 -0.74128262697E+02 -0.39879413317E+01  0.14732058844E+03  0.18363028945E+03  0.80658690912E+02 0.  0.
          5    1    3    3  501    0 -0.24421403881E+02 -0.59035538266E+02  0.54137866177E+02  0.83872512184E+02  0.47000000000E+01 0. -1.
        -13    1    4    4    0    0 -0.75574589370E+01  0.49890770905E+02  0.34336049922E+02  0.61034158725E+02  0.00000000000E+00 0.  1.
         14    1    4    4    0    0  0.48017253924E+02  0.51068229420E+01  0.11479983839E+01  0.48301699921E+02  0.00000000000E+00 0. -1.
         -5    1    5    5    0  502  0.58089871590E+02  0.80258857509E+01  0.13555183343E+03  0.14776751189E+03  0.47000000000E+01 0.  1.
         11    1    6    6    0    0  0.11040601813E+02  0.16055270280E+02  0.13352159046E+02  0.23620896329E+02  0.00000000000E+00 0. -1.
        -12    1    6    6    0    0 -0.85168864510E+02 -0.20043211612E+02  0.13396842939E+03  0.16000939312E+03  0.00000000000E+00 0.  1.
</event>
<event>
12    1  0.1040325E-001  0.1811040E+03  0.7818608E-02  0.1167166E+00
         21   -1    0    0  503  502  0.00000000000E+00  0.00000000000E+00  0.75542551197E+02  0.75542551197E+02  0.00000000000E+00 0.  1.
         21   -1    0    0  501  503 -0.00000000000E+00 -0.00000000000E+00 -0.44530929345E+03  0.44530929345E+03  0.00000000000E+00 0.  1.
          6    2    1    2  501    0 -0.45915343587E+02 -0.10363154403E+02 -0.23238871146E+03  0.29353840675E+03  0.17304528100E+03 0.  0.
         24    2    3    3    0    0 -0.95748077903E+02 -0.25058585117E+02 -0.16396117561E+03  0.20749379765E+03  0.79842230955E+02 0.  0.
         -6    2    1    2    0  502  0.45915343587E+02  0.10363154403E+02 -0.13737803079E+03  0.22731343790E+03  0.17488013597E+03 0.  0.
        -24    2    5    5    0    0  0.69120384207E+02  0.18346158132E+02 -0.16119645034E+03  0.19279374253E+03  0.77916124944E+02 0.  0.
          5    1    3    3  501    0  0.49832734317E+02  0.14695430714E+02 -0.68427535849E+02  0.86044609103E+02  0.47000000000E+01 0. -1.
        -13    1    4    4    0    0 -0.74305329770E+02 -0.49581624305E+02 -0.90633201148E+02  0.12725563505E+03  0.00000000000E+00 0.  1.
         14    1    4    4    0    0 -0.21442748133E+02  0.24523039188E+02 -0.73327974462E+02  0.80238162599E+02  0.00000000000E+00 0. -1.
         -5    1    5    5    0  502 -0.23205040620E+02 -0.79830037291E+01  0.23818419543E+02  0.34519695367E+02  0.47000000000E+01 0.  1.
         13    1    6    6    0    0  0.58061172343E+02  0.46927711226E+00 -0.16165634275E+03  0.17176755545E+03  0.00000000000E+00 0. -1.
        -14    1    6    6    0    0  0.11059211864E+02  0.17876881020E+02  0.45989241135E+00  0.21026187079E+02  0.00000000000E+00 0.  1.
</event>
<event>
12    1  0.1040325E-001  0.2644388E+03  0.7818608E-02  0.1105275E+00
         21   -1    0    0  501  502  0.00000000000E+00  0.00000000000E+00  0.54325466358E+03  0.54325466358E+03  0.00000000000E+00 0.  1.
         21   -1    0    0  502  503 -0.00000000000E+00 -0.00000000000E+00 -0.59788125162E+03  0.59788125162E+03  0.00000000000E+00 0.  1.
         -6    2    1    2    0  503 -0.18118310684E+03 -0.86877081351E+02 -0.53414459576E+03  0.59601871463E+03  0.17190960865E+03 0.  0.
        -24    2    3    3    0    0 -0.38438766533E+02 -0.75344010520E+02 -0.28908689067E+03  0.31214492712E+03  0.81908280879E+02 0.  0.
          6    2    1    2  501    0  0.18118310684E+03  0.86877081351E+02  0.47951800771E+03  0.54511720057E+03  0.16383008629E+03 0.  0.
         24    2    5    5    0    0  0.11175659815E+03 -0.72557974228E+01  0.29848372538E+03  0.32953301666E+03  0.83410376603E+02 0.  0.
          5    1    5    5  501    0  0.69426508690E+02  0.94132878774E+02  0.18103428233E+03  0.21558418391E+03  0.47000000000E+01 0. -1.
        -11    1    6    6    0    0  0.93024134493E+02  0.29476512090E+02  0.22547198430E+03  0.24568266131E+03  0.00000000000E+00 0.  1.
         12    1    6    6    0    0  0.18732463656E+02 -0.36732309513E+02  0.73011741078E+02  0.83850355348E+02  0.00000000000E+00 0. -1.
         -5    1    3    3    0  503 -0.14274434031E+03 -0.11533070832E+02 -0.24505770509E+03  0.28387378751E+03  0.47000000000E+01 0.  1.
         11    1    4    4    0    0  0.18471527838E+02 -0.26625517270E+02 -0.37109850305E+02  0.49267194970E+02  0.00000000000E+00 0. -1.
        -12    1    4    4    0    0 -0.56910294371E+02 -0.48718493250E+02 -0.25197704036E+03  0.26287773215E+03  0.00000000000E+00 0.  1.
</event>
<event>
12    1  0.1040325E-001  0.1992470E+03  0.7818608E-02  0.1150526E+00
         21   -1    0    0  501  502  0.00000000000E+00  0.00000000000E+00  0.21862786152E+03  0.21862786152E+03  0.00000000000E+00 0. -1.
         21   -1    0    0  502  503 -0.00000000000E+00 -0.00000000000E+00 -0.89969919145E+03  0.89969919145E+03  0.00000000000E+00 0. -1.
         -6    2    1    2    0  503  0.90248108430E+02  0.41557564309E+02 -0.84043976124E+03  0.86373513011E+03  0.17270677605E+03 0.  0.
        -24    2    3    3    0    0  0.95335514228E+02  0.57493479129E+02 -0.83402267718E+03  0.84521206215E+03  0.79970266570E+02 0.  0.
          6    2    1    2  501    0 -0.90248108430E+02 -0.41557564309E+02  0.15936843130E+03  0.25459192286E+03  0.17189240257E+03 0.  0.
         24    2    5    5    0    0 -0.88853022424E+02 -0.77973488827E+01  0.33931628079E+02  0.12459892299E+03  0.80111659476E+02 0.  0.
          5    1    5    5  501    0 -0.13950860059E+01 -0.33760215426E+02  0.12543680322E+03  0.12999299986E+03  0.47000000000E+01 0. -1.
        -13    1    6    6    0    0 -0.35388306731E+01  0.11725226467E+02  0.34991600870E+02  0.37073122201E+02  0.00000000000E+00 0.  1.
         14    1    6    6    0    0 -0.85314191751E+02 -0.19522575350E+02 -0.10599727911E+01  0.87525800794E+02  0.00000000000E+00 0. -1.
         -5    1    3    3    0  503 -0.50874057985E+01 -0.15935914820E+02 -0.64170840561E+01  0.18523067962E+02  0.47000000000E+01 0.  1.
         13    1    4    4    0    0  0.13422369939E+02  0.50773913490E+02 -0.25193692548E+03  0.25735260777E+03  0.00000000000E+00 0. -1.
        -14    1    4    4    0    0  0.81913144289E+02  0.67195656395E+01 -0.58208575170E+03  0.58785945438E+03  0.00000000000E+00 0.  1.
</event>
<event>
12    1  0.1040325E-001  0.1966937E+03  0.7818608E-02  0.1154360E+00
         21   -1    0    0  503  502  0.00000000000E+00  0.00000000000E+00  0.12455201522E+03  0.12455201522E+03  0.00000000000E+00 0. -1.
         21   -1    0    0  501  503 -0.00000000000E+00 -0.00000000000E+00 -0.37654112453E+03  0.37654112453E+03  0.00000000000E+00 0.  1.
          6    2    1    2  501    0  0.94052766348E+02  0.83094255362E+01 -0.24262182409E+03  0.31233594953E+03  0.17254977959E+03 0.  0.
         24    2    3    3    0    0  0.49124562164E+02 -0.24113819792E+02 -0.23790441554E+03  0.25653134119E+03  0.78836027094E+02 0.  0.
         -6    2    1    2    0  502 -0.94052766348E+02 -0.83094255362E+01 -0.93672852256E+01  0.18875719022E+03  0.16317647323E+03 0.  0.
        -24    2    5    5    0    0 -0.70624239856E+02  0.23975742036E+02 -0.56589911593E+02  0.12676288129E+03  0.85462216893E+02 0.  0.
          5    1    3    3  501    0  0.44928204183E+02  0.32423245329E+02 -0.47174085494E+01  0.55804608342E+02  0.47000000000E+01 0. -1.
        -13    1    4    4    0    0 -0.17643418029E+02  0.10056666941E+02 -0.39321716789E+02  0.44256345996E+02  0.00000000000E+00 0.  1.
         14    1    4    4    0    0  0.66767980193E+02 -0.34170486733E+02 -0.19858269875E+03  0.21227499519E+03  0.00000000000E+00 0. -1.
         -5    1    5    5    0  502 -0.23428526492E+02 -0.32285167572E+02  0.47222626367E+02  0.61994308930E+02  0.47000000000E+01 0.  1.
         11    1    6    6    0    0 -0.20192920072E+02  0.50393042252E+02 -0.15200059832E+02  0.56376010388E+02  0.00000000000E+00 0. -1.
        -12    1    6    6    0    0 -0.50431319785E+02 -0.26417300216E+02 -0.41389851761E+02  0.70386870897E+02  0.00000000000E+00 0.  1.
</event>
<event>
12    1  0.1040325E-001  0.2908492E+03  0.7818608E-02  0.1090029E+00
         21   -1    0    0  501  502  0.00000000000E+00  0.00000000000E+00  0.95888321999E+03  0.95888321999E+03  0.00000000000E+00 0.  1.
         21   -1    0    0  502  503 -0.00000000000E+00 -0.00000000000E+00 -0.16109118655E+03  0.16109118655E+03  0.00000000000E+00 0.  1.
         -6    2    1    2    0  503  0.22240791972E+03  0.63444897132E+02  0.21175662884E+02  0.29068178826E+03  0.17480547932E+03 0.  0.
        -24    2    3    3    0    0  0.76938747749E+02  0.74559075253E+02 -0.26618710712E+02  0.13708752699E+03  0.81276120031E+02 0.  0.
          6    2    1    2  501    0 -0.22240791972E+03 -0.63444897132E+02  0.77661637055E+03  0.82929261828E+03  0.17635963825E+03 0.  0.
         24    2    5    5    0    0 -0.28406550582E+02 -0.19652075038E+02  0.31431895092E+03  0.32600806985E+03  0.79320379033E+02 0.  0.
          5    1    5    5  501    0 -0.19400136913E+03 -0.43792822094E+02  0.46229741963E+03  0.50328454843E+03  0.47000000000E+01 0. -1.
        -13    1    6    6    0    0 -0.55082127448E+02 -0.22662037582E+02  0.22406925552E+03  0.23185046901E+03  0.00000000000E+00 0.  1.
         14    1    6    6    0    0  0.26675576866E+02  0.30099625435E+01  0.90249695403E+02  0.94157600840E+02  0.00000000000E+00 0. -1.
         -5    1    3    3    0  503  0.14546917197E+03 -0.11114178121E+02  0.47794373596E+02  0.15359426127E+03  0.47000000000E+01 0.  1.
         13    1    4    4    0    0  0.97277870356E+01  0.19031469058E+02  0.27230025613E+02  0.34616483790E+02  0.00000000000E+00 0. -1.
        -14    1    4    4    0    0  0.67210960714E+02  0.55527606194E+02 -0.53848736325E+02  0.10247104320E+03  0.00000000000E+00 0.  1.
</event>
<event>
12    1  0.1040325E-001  0.1833280E+03  0.7818608E-02  0.1164989E+00
         21   -1    0    0  501  502  0.00000000000E+00  0.00000000000E+00  0.63770333988E+02  0.63770333988E+02  0.00000000000E+00 0. -1.
         21   -1    0    0  502  503 -0.00000000000E+00 -0.00000000000E+00 -0.15674771569E+04  0.15674771569E+04  0.00000000000E+00 0. -1.
         -6    2    1    2    0  503 -0.50079421429E+02 -0.31534668442E+02 -0.14167112144E+04  0.14283253902E+04  0.17187312642E+03 0.  0.
        -24    2    3    3    0    0 -0.26463618976E+02 -0.47311115057E+02 -0.13709176389E+04  0.13742352437E+04  0.78540866202E+02 0.  0.
          6    2    1    2  501    0  0.50079421429E+02  0.31534668442E+02 -0.86995608457E+02  0.20292210061E+03  0.17351299450E+03 0.  0.
         24    2    5    5    0    0  0.93053967895E+02 -0.81049951940E+01 -0.42408923937E+02  0.12924593748E+03  0.78621012696E+02 0.  0.
          5    1    5    5  501    0 -0.42974546466E+02  0.39639663636E+02 -0.44586684521E+02  0.73676163131E+02  0.47000000000E+01 0. -1.
        -13    1    6    6    0    0  0.64826903330E+02 -0.40147707897E+02 -0.40873287316E+02  0.86515845143E+02  0.00000000000E+00 0.  1.
         14    1    6    6    0    0  0.28227064565E+02  0.32042712703E+02 -0.15356366210E+01  0.42730092337E+02  0.00000000000E+00 0. -1.
         -5    1    3    3    0  503 -0.23615802453E+02  0.15776446615E+02 -0.45793575520E+02  0.54090146535E+02  0.47000000000E+01 0.  1.
         13    1    4    4    0    0 -0.45467400639E+02 -0.31255448272E+01 -0.53640233343E+03  0.53833494857E+03  0.00000000000E+00 0. -1.
        -14    1    4    4    0    0  0.19003781664E+02 -0.44185570230E+02 -0.83451530548E+03  0.83590029514E+03  0.00000000000E+00 0.  1.
</event>
<event>
12    1  0.1040325E-001  0.2263292E+03  0.7818608E-02  0.1129475E+00
         21   -1    0    0  503  502  0.00000000000E+00  0.00000000000E+00  0.34332085420E+03  0.34332085420E+03  0.00000000000E+00 0. -1.
         21   -1    0    0  501  503 -0.00000000000E+00 -0.00000000000E+00 -0.21721175630E+03  0.21721175630E+03  0.00000000000E+00 0. -1.
          6    2    1    2  501    0 -0.14138823210E+03 -0.37459556270E+02 -0.94593142868E+02  0.24530139945E+03  0.17271671420E+03 0.  0.
         24    2    3    3    0    0 -0.17283766036E+03 -0.35191192310E+02 -0.71684674317E+02  0.20604455363E+03  0.78767942034E+02 0.  0.
         -6    2    1    2    0  502  0.14138823210E+03  0.37459556270E+02  0.22070224077E+03  0.31523121105E+03  0.17107713700E+03 0.  0.
        -24    2    5    5    0    0  0.10887121387E+03  0.86984971250E+02  0.19252642051E+03  0.24945819187E+03  0.75786809309E+02 0.  0.
          5    1    3    3  501    0  0.31449428259E+02 -0.22683639597E+01 -0.22908468552E+02  0.39256845827E+02  0.47000000000E+01 0. -1.
        -13    1    4    4    0    0 -0.13434904727E+03  0.24121583152E+01 -0.71555552874E+02  0.15223561396E+03  0.00000000000E+00 0.  1.
         14    1    4    4    0    0 -0.38488613088E+02 -0.37603350625E+02 -0.12912144281E+00  0.53808939666E+02  0.00000000000E+00 0. -1.
         -5    1    5    5    0  502  0.32517018236E+02 -0.49525414980E+02  0.28175820262E+02  0.65773019175E+02  0.47000000000E+01 0.  1.
         13    1    6    6    0    0  0.13280595102E+02  0.56794264243E+02  0.67606224751E+02  0.89289217054E+02  0.00000000000E+00 0. -1.
        -14    1    6    6    0    0  0.95590618765E+02  0.30190707007E+02  0.12492019576E+03  0.16016897482E+03  0.00000000000E+00 0.  1.
</event>
<event>
12    1  0.1040325E-001  0.2516966E+03  0.7818608E-02  0.1112861E+00
         21   -1    0    0  501  502  0.00000000000E+00  0.00000000000E+00  0.22307649312E+04  0.22307649312E+04  0.00000000000E+00 0. -1.
         21   -1    0    0  502  503 -0.00000000000E+00 -0.00000000000E+00 -0.31362359589E+02  0.31362359589E+02  0.00000000000E+00 0. -1.
         -6    2    1    2    0  503  0.12037651670E+03 -0.13331244015E+03  0.73464629390E+03  0.77656703139E+03  0.17631921231E+03 0.  0.
        -24    2    3    3    0    0  0.98393894835E+02 -0.16541142557E+03  0.56426540519E+03  0.60173763522E+03  0.81550204725E+02 0.  0.
          6    2    1    2  501    0 -0.12037651670E+03  0.13331244015E+03  0.14647562777E+04  0.14855602594E+04  0.17063299430E+03 0.  0.
         24    2    5    5    0    0 -0.47133547711E+02  0.13854900121E+03  0.83340553351E+03  0.84993630904E+03  0.80059659434E+02 0.  0.
          5    1    5    5  501    0 -0.73242968985E+02 -0.52365610673E+01  0.63135074422E+03  0.63562395039E+03  0.47000000000E+01 0. -1.
        -13    1    6    6    0    0  0.15844404882E+02  0.45599374298E+01  0.13553818364E+03  0.13653731146E+03  0.00000000000E+00 0.  1.
         14    1    6    6    0    0 -0.62977952594E+02  0.13398906378E+03  0.69786734987E+03  0.71339899758E+03  0.00000000000E+00 0. -1.
         -5    1    3    3    0  503  0.21982621861E+02  0.32098985423E+02  0.17038088871E+03  0.17482939617E+03  0.47000000000E+01 0.  1.
         13    1    4    4    0    0  0.39644710303E+02 -0.73395837013E+02  0.13404569079E+03  0.15788254864E+03  0.00000000000E+00 0. -1.
        -14    1    4    4    0    0  0.58749184533E+02 -0.92015588556E+02  0.43021971440E+03  0.44385508657E+03  0.00000000000E+00 0.  1.
</event>
<event>
12    1  0.1040325E-001  0.2031345E+03  0.7818608E-02  0.1147154E+00
         21   -1    0    0  501  502  0.00000000000E+00  0.00000000000E+00  0.41953266430E+02  0.41953266430E+02  0.00000000000E+00 0. -1.
         21   -1    0    0  502  503 -0.00000000000E+00 -0.00000000000E+00 -0.98291272239E+03  0.98291272239E+03  0.00000000000E+00 0.  1.
         -6    2    1    2    0  503 -0.10879283070E+03 -0.10485972645E+02 -0.46465759376E+03  0.50705608318E+03  0.17103612607E+03 0.  0.
        -24    2    3    3    0    0 -0.10511090997E+03  0.49755878067E+02 -0.28727209682E+03  0.31962518487E+03  0.78173207653E+02 0.  0.
          6    2    1    2  501    0  0.10879283070E+03  0.10485972645E+02 -0.47630186220E+03  0.51780990564E+03  0.17122441066E+03 0.  0.
         24    2    5    5    0    0 -0.92199724624E+01  0.19888403218E+02 -0.22517571325E+03  0.24013768863E+03  0.80507460447E+02 0.  0.
          5    1    5    5  501    0  0.11801280316E+03 -0.94024305736E+01 -0.25112614895E+03  0.27767221701E+03  0.47000000000E+01 0. -1.
        -11    1    6    6    0    0  0.14001810838E+02  0.32145434230E+02 -0.20228968243E+03  0.20530585785E+03  0.00000000000E+00 0.  1.
         12    1    6    6    0    0 -0.23221783301E+02 -0.12257031011E+02 -0.22886030818E+02  0.34831830780E+02  0.00000000000E+00 0. -1.
         -5    1    3    3    0  503 -0.36819207294E+01 -0.60241850712E+02 -0.17738549694E+03  0.18743089831E+03  0.47000000000E+01 0.  1.
         11    1    4    4    0    0 -0.48327504835E+02 -0.72726615601E+01 -0.53855236628E+02  0.72724313967E+02  0.00000000000E+00 0. -1.
        -12    1    4    4    0    0 -0.56783405138E+02  0.57028539627E+02 -0.23341686019E+03  0.24690087090E+03  0.00000000000E+00 0.  1.
</event>
<event>
12    1  0.1040325E-001  0.1849830E+03  0.7818608E-02  0.1164421E+00
         21   -1    0    0  501  502  0.00000000000E+00  0.00000000000E+00  0.13463519750E+04  0.13463519750E+04  0.00000000000E+00 0. -1.
         21   -1    0    0  502  503 -0.00000000000E+00 -0.00000000000E+00 -0.38166244178E+02  0.38166244178E+02  0.00000000000E+00 0. -1.
         -6    2    1    2    0  503 -0.66170913148E+02  0.12413412057E+02  0.24859137866E+03  0.30986507789E+03  0.17229628669E+03 0.  0.
        -24    2    3    3    0    0  0.19396003119E+02  0.34751171546E+02  0.77355864679E+02  0.11708446708E+03  0.78364493039E+02 0.  0.
          6    2    1    2  501    0  0.66170913148E+02 -0.12413412057E+02  0.10595943521E+04  0.10746531413E+04  0.16615204000E+03 0.  0.
         24    2    5    5    0    0  0.47957033080E+02 -0.32536098023E+02  0.33836885964E+03  0.35290182055E+03  0.81778573469E+02 0.  0.
          5    1    5    5  501    0  0.18213880069E+02  0.20122685966E+02  0.72122549249E+03  0.72175132071E+03  0.47000000000E+01 0. -1.
        -13    1    6    6    0    0 -0.11964995062E+02 -0.24699221025E+01  0.55872249821E+01  0.13434236302E+02  0.00000000000E+00 0.  1.
         14    1    6    6    0    0  0.59922028141E+02 -0.30066175920E+02  0.33278163465E+03  0.33946758425E+03  0.00000000000E+00 0. -1.
         -5    1    3    3    0  503 -0.85566916267E+02 -0.22337759489E+02  0.17123551398E+03  0.19278061082E+03  0.47000000000E+01 0.  1.
         13    1    4    4    0    0 -0.75543792345E+01  0.54089591167E+02  0.45318892026E+02  0.70968686705E+02  0.00000000000E+00 0. -1.
        -14    1    4    4    0    0  0.26950382353E+02 -0.19338419620E+02  0.32036972653E+02  0.46115780370E+02  0.00000000000E+00 0.  1.
</event>
<event>
12    1  0.1040325E-001  0.3252518E+03  0.7818608E-02  0.1073274E+00
         21   -1    0    0  501  502  0.00000000000E+00  0.00000000000E+00  0.11231047226E+03  0.11231047226E+03  0.00000000000E+00 0.  1.
         21   -1    0    0  502  503 -0.00000000000E+00 -0.00000000000E+00 -0.15321712695E+04  0.15321712695E+04  0.00000000000E+00 0. -1.
         -6    2    1    2    0  503  0.72468990826E+02 -0.26619091517E+03 -0.12205590791E+04  0.12631520787E+04  0.17227695850E+03 0.  0.
        -24    2    3    3    0    0  0.25563806670E+01 -0.78928950826E+02 -0.59954782608E+03  0.61074738627E+03  0.85547996532E+02 0.  0.
          6    2    1    2  501    0 -0.72468990826E+02  0.26619091517E+03 -0.19930171822E+03  0.38132966311E+03  0.17199354388E+03 0.  0.
         24    2    5    5    0    0 -0.23136335436E+02  0.12383073710E+03 -0.24511325639E+02  0.15051826278E+03  0.78648591071E+02 0.  0.
          5    1    5    5  501    0 -0.49332655390E+02  0.14236017807E+03 -0.17479039258E+03  0.23081140033E+03  0.47000000000E+01 0. -1.
        -11    1    6    6    0    0 -0.51396821181E+02  0.65347743151E+02 -0.19350173169E+02  0.85360353585E+02  0.00000000000E+00 0.  1.
         12    1    6    6    0    0  0.28260485745E+02  0.58482993951E+02 -0.51611524704E+01  0.65157909196E+02  0.00000000000E+00 0. -1.
         -5    1    3    3    0  503  0.69912610159E+02 -0.18726196434E+03 -0.62101125297E+03  0.65240469240E+03  0.47000000000E+01 0.  1.
         11    1    4    4    0    0 -0.22165611194E+02 -0.70125111902E+02 -0.26041878904E+03  0.27060449243E+03  0.00000000000E+00 0. -1.
        -12    1    4    4    0    0  0.24721991861E+02 -0.88038389245E+01 -0.33912903705E+03  0.34014289384E+03  0.00000000000E+00 0.  1.
</event>
<event>
12    1  0.1040325E-001  0.1922120E+03  0.7818608E-02  0.1156497E+00
         21   -1    0    0  503  502  0.00000000000E+00  0.00000000000E+00  0.39086905994E+03  0.39086905994E+03  0.00000000000E+00 0. -1.
         21   -1    0    0  501  503 -0.00000000000E+00 -0.00000000000E+00 -0.18641549351E+03  0.18641549351E+03  0.00000000000E+00 0. -1.
          6    2    1    2  501    0  0.29505208063E+01 -0.86421219944E+02 -0.10047852149E+03  0.21682784434E+03  0.17158393855E+03 0.  0.
         24    2    3    3    0    0 -0.53370603764E+02 -0.65303889984E+02 -0.22322496685E+02  0.11809352958E+03  0.79591258794E+02 0.  0.
         -6    2    1    2    0  502 -0.29505208063E+01  0.86421219944E+02  0.30493208792E+03  0.36045670911E+03  0.17166283253E+03 0.  0.
        -24    2    5    5    0    0 -0.62783790955E+02  0.51422485492E+02  0.13781488697E+03  0.17947278584E+03  0.81433785163E+02 0.  0.
          5    1    3    3  501    0  0.56321124571E+02 -0.21117329959E+02 -0.78156024806E+02  0.98734314760E+02  0.47000000000E+01 0. -1.
        -11    1    4    4    0    0 -0.40174551843E+02 -0.35124406955E+00 -0.31670510865E+02  0.51157983215E+02  0.00000000000E+00 0.  1.
         12    1    4    4    0    0 -0.13196051921E+02 -0.64952645915E+02  0.93480141797E+01  0.66935546362E+02  0.00000000000E+00 0. -1.
         -5    1    5    5    0  502  0.59833270148E+02  0.34998734451E+02  0.16711720095E+03  0.18098392327E+03  0.47000000000E+01 0.  1.
         13    1    6    6    0    0 -0.17172615695E+02  0.62723009304E+02  0.99377692730E+02  0.11876447465E+03  0.00000000000E+00 0. -1.
        -14    1    6    6    0    0 -0.45611175260E+02 -0.11300523811E+02  0.38437194244E+02  0.60708311196E+02  0.00000000000E+00 0.  1.
</event>
<event>
12    1  0.1040325E-001  0.1943805E+03  0.7818608E-02  0.1154950E+00
         21   -1    0    0  503  502  0.00000000000E+00  0.00000000000E+00  0.41523305566E+03  0.41523305566E+03  0.00000000000E+00 0. -1.
         21   -1    0    0  501  503 -0.00000000000E+00 -0.00000000000E+00 -0.14144836690E+03  0.14144836690E+03  0.00000000000E+00 0. -1.
          6    2    1    2  501    0 -0.59186772654E+02  0.69053374877E+02 -0.30281641085E+02  0.19672508417E+03  0.17179155485E+03 0.  0.
         24    2    3    3    0    0 -0.93900711392E+02  0.71462102658E+02 -0.54952211317E+02  0.15381137368E+03  0.81939108060E+02 0.  0.
         -6    2    1    2    0  502  0.59186772654E+02 -0.69053374877E+02  0.30406632984E+03  0.35995633839E+03  0.16982576355E+03 0.  0.
        -24    2    5    5    0    0  0.39251671619E+02 -0.42998787297E+02  0.71976601243E+02  0.12551235380E+03  0.84753350359E+02 0.  0.
          5    1    3    3  501    0  0.34713938738E+02 -0.24087277811E+01  0.24670570231E+02  0.42913710487E+02  0.47000000000E+01 0. -1.
        -11    1    4    4    0    0 -0.83402587249E+02  0.14184499689E+02 -0.40595561561E+02  0.93835980358E+02  0.00000000000E+00 0.  1.
         12    1    4    4    0    0 -0.10498124143E+02  0.57277602969E+02 -0.14356649756E+02  0.59975393326E+02  0.00000000000E+00 0. -1.
         -5    1    5    5    0  502  0.19935101034E+02 -0.26054587580E+02  0.23208972860E+03  0.23444398458E+03  0.47000000000E+01 0.  1.
         13    1    6    6    0    0  0.28306104184E+01  0.11509050925E+02  0.57063613913E+02  0.58281443371E+02  0.00000000000E+00 0. -1.
        -14    1    6    6    0    0  0.36421061201E+02 -0.54507838221E+02  0.14912987330E+02  0.67230910433E+02  0.00000000000E+00 0.  1.
</event>
<event>
12    1  0.1040325E-001  0.2271928E+03  0.7818608E-02  0.1128710E+00
         21   -1    0    0  503  502  0.00000000000E+00  0.00000000000E+00  0.44636562765E+02  0.44636562765E+02  0.00000000000E+00 0. -1.
         21   -1    0    0  501  503 -0.00000000000E+00 -0.00000000000E+00 -0.12070071868E+04  0.12070071868E+04  0.00000000000E+00 0. -1.
          6    2    1    2  501    0 -0.74796903155E+02  0.12796039797E+03 -0.71163553309E+03  0.74688766944E+03  0.17160308457E+03 0.  0.
         24    2    3    3    0    0 -0.26828076210E+02  0.39664992376E+02 -0.16039052284E+03  0.18653935068E+03  0.82333178263E+02 0.  0.
         -6    2    1    2    0  502  0.74796903155E+02 -0.12796039797E+03 -0.45073509090E+03  0.50475608008E+03  0.17218634685E+03 0.  0.
        -24    2    5    5    0    0  0.97818669939E+02 -0.86870158936E+02 -0.21211494696E+03  0.26148653290E+03  0.79167793104E+02 0.  0.
          5    1    3    3  501    0 -0.47968826945E+02  0.88295405590E+02 -0.55124501025E+03  0.56034831876E+03  0.47000000000E+01 0. -1.
        -11    1    4    4    0    0 -0.22040681389E+02  0.14354033145E+02 -0.15854674084E+03  0.16071371732E+03  0.00000000000E+00 0.  1.
         12    1    4    4    0    0 -0.47873948209E+01  0.25310959231E+02 -0.18437819955E+01  0.25825633359E+02  0.00000000000E+00 0. -1.
         -5    1    5    5    0  502 -0.23021766785E+02 -0.41090239031E+02 -0.23862014394E+03  0.24326954718E+03  0.47000000000E+01 0.  1.
         13    1    6    6    0    0  0.46071222799E+02 -0.19058183350E+02 -0.14381148929E+03  0.15220879205E+03  0.00000000000E+00 0. -1.
        -14    1    6    6    0    0  0.51747447140E+02 -0.67811975586E+02 -0.68303457664E+02  0.10927774086E+03  0.00000000000E+00 0.  1.
</event>
<event>
12    1  0.1040325E-001  0.2286967E+03  0.7818608E-02  0.1128067E+00
         21   -1    0    0  503  502  0.00000000000E+00  0.00000000000E+00  0.22456275527E+03  0.22456275527E+03  0.00000000000E+00 0. -1.
         21   -1    0    0  501  503 -0.00000000000E+00 -0.00000000000E+00 -0.23806522290E+03  0.23806522290E+03  0.00000000000E+00 0. -1.
          6    2    1    2  501    0 -0.62870407883E+02 -0.13231056107E+03  0.35795455284E+02  0.22867822554E+03  0.17191173159E+03 0.  0.
         24    2    3    3    0    0  0.14919784742E+02 -0.42178687725E+02 -0.21572675401E+02  0.96435036375E+02  0.82660112761E+02 0.  0.
         -6    2    1    2    0  502  0.62870407883E+02  0.13231056107E+03 -0.49297922912E+02  0.23394975264E+03  0.17562297343E+03 0.  0.
        -24    2    5    5    0    0  0.57736251865E+02  0.90139819637E+02  0.33691671515E+02  0.14060044212E+03  0.84703563860E+02 0.  0.
          5    1    3    3  501    0 -0.77790192625E+02 -0.90131873348E+02  0.57368130685E+02  0.13224318916E+03  0.47000000000E+01 0. -1.
        -11    1    4    4    0    0  0.43918923357E+02 -0.19611924007E+02  0.86340771966E+01  0.48867644522E+02  0.00000000000E+00 0.  1.
         12    1    4    4    0    0 -0.28999138615E+02 -0.22566763718E+02 -0.30206752598E+02  0.47567391853E+02  0.00000000000E+00 0. -1.
         -5    1    5    5    0  502  0.51341560180E+01  0.42170741436E+02 -0.82989594427E+02  0.93349310519E+02  0.47000000000E+01 0.  1.
         13    1    6    6    0    0  0.48951588428E+02  0.54932227198E+01  0.24467333458E+02  0.55000762831E+02  0.00000000000E+00 0. -1.
        -14    1    6    6    0    0  0.87846634371E+01  0.84646596917E+02  0.92243380562E+01  0.85599679287E+02  0.00000000000E+00 0.  1.
</event>
<event>
12    1  0.1040325E-001  0.2108092E+03  0.7818608E-02  0.1142391E+00
         21   -1    0    0  501  502  0.00000000000E+00  0.00000000000E+00  0.33531288567E+03  0.33531288567E+03  0.00000000000E+00 0.  1.
         21   -1    0    0  502  503 -0.00000000000E+00 -0.00000000000E+00 -0.74030153049E+03  0.74030153049E+03  0.00000000000E+00 0.  1.
         -6    2    1    2    0  503  0.41263288576E+02 -0.10124581160E+03 -0.69097762030E+03  0.72032552424E+03  0.17165493224E+03 0.  0.
        -24    2    3    3    0    0 -0.17647212530E+02 -0.83145213281E+02 -0.24679901481E+03  0.27186727381E+03  0.76009935252E+02 0.  0.
          6    2    1    2  501    0 -0.41263288576E+02  0.10124581160E+03  0.28598897548E+03  0.35528889192E+03  0.18024186327E+03 0.  0.
         24    2    5    5    0    0  0.41029610464E+02  0.88193384521E+02  0.19076420019E+03  0.22867003505E+03  0.80234050438E+02 0.  0.
          5    1    5    5  501    0 -0.82292899041E+02  0.13052427082E+02  0.95224775290E+02  0.12661885687E+03  0.47000000000E+01 0. -1.
        -13    1    6    6    0    0 -0.11685997454E+02 -0.95054894340E+01  0.23912442926E+02  0.28261666486E+02  0.00000000000E+00 0.  1.
         14    1    6    6    0    0  0.52715607919E+02  0.97698873955E+02  0.16685175726E+03  0.20040836857E+03  0.00000000000E+00 0. -1.
         -5    1    3    3    0  503  0.58910501106E+02 -0.18100598322E+02 -0.44417860549E+03  0.44845825043E+03  0.47000000000E+01 0.  1.
         11    1    4    4    0    0  0.24065197167E+02 -0.47928653036E+02 -0.16523172519E+03  0.17371762290E+03  0.00000000000E+00 0. -1.
        -12    1    4    4    0    0 -0.41712409697E+02 -0.35216560246E+02 -0.81567289617E+02  0.98149650910E+02  0.00000000000E+00 0.  1.
</event>
<event>
12    1  0.1040325E-001  0.2663923E+03  0.7818608E-02  0.1104010E+00
         21   -1    0    0  503  502  0.00000000000E+00  0.00000000000E+00  0.11207466815E+03  0.11207466815E+03  0.00000000000E+00 0.  1.
         21   -1    0    0  501  503 -0.00000000000E+00 -0.00000000000E+00 -0.69109282306E+03  0.69109282306E+03  0.00000000000E+00 0. -1.
          6    2    1    2  501    0 -0.19033593324E+03 -0.73046059436E+02 -0.16540366399E+03  0.31356533068E+03  0.17146821939E+03 0.  0.
         24    2    3    3    0    0 -0.55490678381E+02 -0.47678561600E+02 -0.91813167327E+01  0.10558873467E+03  0.75579254359E+02 0.  0.
         -6    2    1    2    0  502  0.19033593324E+03  0.73046059436E+02 -0.41361449092E+03  0.48960216053E+03  0.16452912878E+03 0.  0.
        -24    2    5    5    0    0  0.19310914222E+03  0.42455058072E+02 -0.40424356918E+03  0.45714597119E+03  0.80473616679E+02 0.  0.
          5    1    3    3  501    0 -0.13484525486E+03 -0.25367497836E+02 -0.15622234725E+03  0.20797659601E+03  0.47000000000E+01 0. -1.
        -13    1    4    4    0    0 -0.73952508747E+02 -0.41341171718E+02 -0.12954461595E+02  0.85708133245E+02  0.00000000000E+00 0.  1.
         14    1    4    4    0    0  0.18461830367E+02 -0.63373898821E+01  0.37731448624E+01  0.19880601428E+02  0.00000000000E+00 0. -1.
         -5    1    5    5    0  502 -0.27732089809E+01  0.30591001364E+02 -0.93709217328E+01  0.32456189342E+02  0.47000000000E+01 0.  1.
         11    1    6    6    0    0  0.75642980510E+02  0.57489424999E+02 -0.18412677448E+03  0.20719450660E+03  0.00000000000E+00 0. -1.
        -12    1    6    6    0    0  0.11746616171E+03 -0.15034366927E+02 -0.22011679470E+03  0.24995146458E+03  0.00000000000E+00 0.  1.
</event>
<event>
12    1  0.1040325E-001  0.2042367E+03  0.7818608E-02  0.1146216E+00
         21   -1    0    0  501  502  0.00000000000E+00  0.00000000000E+00  0.58141678681E+03  0.58141678681E+03  0.00000000000E+00 0. -1.
         21   -1    0    0  502  503 -0.00000000000E+00 -0.00000000000E+00 -0.80794860973E+02  0.80794860973E+02  0.00000000000E+00 0. -1.
         -6    2    1    2    0  503  0.56880169774E+02  0.94497511950E+02  0.36117711775E+03  0.41492351696E+03  0.17189380751E+03 0.  0.
        -24    2    3    3    0    0  0.80320622302E+02  0.11235526661E+03  0.34743497802E+03  0.38207095815E+03  0.78689546962E+02 0.  0.
          6    2    1    2  501    0 -0.56880169774E+02 -0.94497511950E+02  0.13944480809E+03  0.24728813083E+03  0.17187621030E+03 0.  0.
         24    2    5    5    0    0 -0.69566535712E+00 -0.77240018705E+02  0.15112477153E+03  0.18717963595E+03  0.78936779175E+02 0.  0.
          5    1    5    5  501    0 -0.56184504417E+02 -0.17257493245E+02 -0.11679963442E+02  0.60108494871E+02  0.47000000000E+01 0. -1.
        -11    1    6    6    0    0 -0.16432969116E+02 -0.49442217403E+02  0.14575601842E+03  0.15478821739E+03  0.00000000000E+00 0.  1.
         12    1    6    6    0    0  0.15737303758E+02 -0.27797801302E+02  0.53687531055E+01  0.32391418566E+02  0.00000000000E+00 0. -1.
         -5    1    3    3    0  503 -0.23440452528E+02 -0.17857754663E+02  0.13742139728E+02  0.32852558814E+02  0.47000000000E+01 0.  1.
         13    1    4    4    0    0  0.33998934131E+02  0.63298021089E+02  0.26985069690E+03  0.27925251227E+03  0.00000000000E+00 0. -1.
        -14    1    4    4    0    0  0.46321688171E+02  0.49057245524E+02  0.77584281129E+02  0.10281844587E+03  0.00000000000E+00 0.  1.
</event>
<event>
12    1  0.1040325E-001  0.1774778E+03  0.7818608E-02  0.1170372E+00
         21   -1    0    0  501  502  0.00000000000E+00  0.00000000000E+00  0.80944715852E+02  0.80944715852E+02  0.00000000000E+00 0. -1.
         21   -1    0    0  502  503 -0.00000000000E+00 -0.00000000000E+00 -0.77495392081E+03  0.77495392081E+03  0.00000000000E+00 0. -1.
         -6    2    1    2    0  503 -0.32773274000E+02  0.29002493549E+02 -0.64954080976E+03  0.67335106002E+03  0.17199754176E+03 0.  0.
        -24    2    3    3    0    0 -0.73408422539E+02  0.23626830589E+02 -0.27840405963E+03  0.29992812240E+03  0.80628993313E+02 0.  0.
          6    2    1    2  501    0  0.32773274000E+02 -0.29002493549E+02 -0.44468395194E+02  0.18254757663E+03  0.17155450283E+03 0.  0.
         24    2    5    5    0    0  0.50313604406E+02  0.40193031472E+02 -0.42888827319E+02  0.11099152232E+03  0.79578438987E+02 0.  0.
          5    1    5    5  501    0 -0.17540330407E+02 -0.69195525021E+02 -0.15795678753E+01  0.71556054310E+02  0.47000000000E+01 0. -1.
        -11    1    6    6    0    0  0.23828237456E+02  0.35810657061E+02 -0.63811869599E+02  0.76955459592E+02  0.00000000000E+00 0.  1.
         12    1    6    6    0    0  0.26485366950E+02  0.43823744113E+01  0.20923042280E+02  0.34036062731E+02  0.00000000000E+00 0. -1.
         -5    1    3    3    0  503  0.40635148540E+02  0.53756629601E+01 -0.37113675013E+03  0.37342293763E+03  0.47000000000E+01 0.  1.
         11    1    4    4    0    0 -0.33486890743E+02 -0.63630068141E+01 -0.22198765534E+03  0.22458935600E+03  0.00000000000E+00 0. -1.
        -12    1    4    4    0    0 -0.39921531797E+02  0.29989837403E+02 -0.56416404290E+02  0.75338766392E+02  0.00000000000E+00 0.  1.
</event>
<event>
12    1  0.1040325E-001  0.1901838E+03  0.7818608E-02  0.1158452E+00
         21   -1    0    0  501  502  0.00000000000E+00  0.00000000000E+00  0.45890768411E+03  0.45890768411E+03  0.00000000000E+00 0. -1.
         21   -1    0    0  502  503 -0.00000000000E+00 -0.00000000000E+00 -0.13216554857E+03  0.13216554857E+03  0.00000000000E+00 0.  1.
         -6    2    1    2    0  503 -0.44259878411E+02  0.67046511506E+02 -0.25075779466E+02  0.19114106478E+03  0.17161567640E+03 0.  0.
        -24    2    3    3    0    0 -0.72053381171E+02  0.68927859818E+02  0.27750763591E+02  0.13123487212E+03  0.80683004308E+02 0.  0.
          6    2    1    2  501    0  0.44259878411E+02 -0.67046511506E+02  0.35181791500E+03  0.39993216790E+03  0.17238248769E+03 0.  0.
         24    2    5    5    0    0  0.11468802042E+02 -0.81706132741E+02  0.12275312290E+03  0.16802070168E+03  0.79719517452E+02 0.  0.
          5    1    5    5  501    0  0.32791076369E+02  0.14659621234E+02  0.22906479210E+03  0.23191146622E+03  0.47000000000E+01 0. -1.
        -13    1    6    6    0    0  0.41054671699E+02 -0.73040228974E+02  0.86388325199E+02  0.12034659882E+03  0.00000000000E+00 0.  1.
         14    1    6    6    0    0 -0.29585869657E+02 -0.86659037669E+01  0.36364797702E+02  0.47674102858E+02  0.00000000000E+00 0. -1.
         -5    1    3    3    0  503  0.27793502760E+02 -0.18813483121E+01 -0.52826543057E+02  0.59906192655E+02  0.47000000000E+01 0.  1.
         13    1    4    4    0    0  0.72580288915E+01  0.17582628154E+02  0.31367923781E+02  0.36684798467E+02  0.00000000000E+00 0. -1.
        -14    1    4    4    0    0 -0.79311410062E+02  0.51345231664E+02 -0.36171601901E+01  0.94550073657E+02  0.00000000000E+00 0.  1.
</event>
<event>
12    1  0.1040325E-001  0.1897317E+03  0.7818608E-02  0.1159505E+00
         21   -1    0    0  503  502  0.00000000000E+00  0.00000000000E+00  0.14586025199E+03  0.14586025199E+03  0.00000000000E+00 0.  1.
         21   -1    0    0  501  503 -0.00000000000E+00 -0.00000000000E+00 -0.69398436790E+03  0.69398436790E+03  0.00000000000E+00 0.  1.
          6    2    1    2  501    0 -0.46320742473E+02 -0.45880188106E+02 -0.61374502352E+03  0.64240258333E+03  0.17817834418E+03 0.  0.
         24    2    3    3    0    0 -0.73069729709E+02  0.85051557650E+01 -0.51582313883E+03  0.52714608917E+03  0.79987284599E+02 0.  0.
         -6    2    1    2    0  502  0.46320742473E+02  0.45880188106E+02  0.65620907608E+02  0.19744203656E+03  0.17443236925E+03 0.  0.
        -24    2    5    5    0    0  0.83050665093E+02 -0.13892172767E+02  0.38843085169E+02  0.12220265781E+03  0.79588308648E+02 0.  0.
          5    1    3    3  501    0  0.26748987237E+02 -0.54385343871E+02 -0.97921884690E+02  0.11525649417E+03  0.47000000000E+01 0. -1.
        -13    1    4    4    0    0 -0.10818205674E+02 -0.31641828414E+02 -0.19807456416E+03  0.20087750458E+03  0.00000000000E+00 0.  1.
         14    1    4    4    0    0 -0.62251524036E+02  0.40146984179E+02 -0.31774857467E+03  0.32626858459E+03  0.00000000000E+00 0. -1.
         -5    1    5    5    0  502 -0.36729922620E+02  0.59772360874E+02  0.26777822439E+02  0.75239378750E+02  0.47000000000E+01 0.  1.
         11    1    6    6    0    0  0.26335169824E+02 -0.39432758058E+02 -0.25513092004E+01  0.47486764013E+02  0.00000000000E+00 0. -1.
        -12    1    6    6    0    0  0.56715495269E+02  0.25540585291E+02  0.41394394369E+02  0.74715893796E+02  0.00000000000E+00 0.  1.
</event>
<event>
12    1  0.1040325E-001  0.1851995E+03  0.7818608E-02  0.1163019E+00
         21   -1    0    0  501  502  0.00000000000E+00  0.00000000000E+00  0.94312507467E+03  0.94312507467E+03  0.00000000000E+00 0. -1.
         21   -1    0    0  502  503 -0.00000000000E+00 -0.00000000000E+00 -0.43580986611E+02  0.43580986611E+02  0.00000000000E+00 0. -1.
         -6    2    1    2    0  503  0.70785534342E+02  0.19040348856E+02  0.24657752209E+03  0.30798359233E+03  0.16935256712E+03 0.  0.
        -24    2    3    3    0    0  0.61939815682E+02  0.28046701574E+02  0.26465848505E+03  0.28543647834E+03  0.82502795246E+02 0.  0.
          6    2    1    2  501    0 -0.70785534342E+02 -0.19040348856E+02  0.65296656597E+03  0.67872246895E+03  0.17007565029E+03 0.  0.
         24    2    5    5    0    0  0.45984241787E+01  0.22853114656E+02  0.18651159395E+03  0.20433851643E+03  0.80151383412E+02 0.  0.
          5    1    5    5  501    0 -0.75383958520E+02 -0.41893463512E+02  0.46645497202E+03  0.47438395252E+03  0.47000000000E+01 0. -1.
        -11    1    6    6    0    0 -0.19425514732E+02 -0.21066633185E+02  0.37847287145E+02  0.47471789524E+02  0.00000000000E+00 0.  1.
         12    1    6    6    0    0  0.24023938911E+02  0.43919747841E+02  0.14866430680E+03  0.15686672690E+03  0.00000000000E+00 0. -1.
         -5    1    3    3    0  503  0.88457186594E+01 -0.90063527174E+01 -0.18080962959E+02  0.22547113993E+02  0.47000000000E+01 0.  1.
         13    1    4    4    0    0  0.27608586588E+02  0.47481089443E+02  0.82886011616E+02  0.99432282633E+02  0.00000000000E+00 0. -1.
        -14    1    4    4    0    0  0.34331229095E+02 -0.19434387869E+02  0.18177247343E+03  0.18600419571E+03  0.00000000000E+00 0.  1.
</event>
<event>
12    1  0.1040325E-001  0.2288468E+03  0.7818608E-02  0.1127681E+00
         21   -1    0    0  501  502  0.00000000000E+00  0.00000000000E+00  0.55525282048E+03  0.55525282048E+03  0.00000000000E+00 0. -1.
         21   -1    0    0  502  503 -0.00000000000E+00 -0.00000000000E+00 -0.13403186092E+03  0.13403186092E+03  0.00000000000E+00 0. -1.
         -6    2    1    2    0  503  0.14969339806E+03 -0.18896284250E+02  0.22188499360E+02  0.22991993788E+03  0.17206296915E+03 0.  0.
        -24    2    3    3    0    0  0.14823425156E+03 -0.25225022028E+02 -0.33929088229E+02  0.17323258773E+03  0.79048411449E+02 0.  0.
          6    2    1    2  501    0 -0.14969339806E+03  0.18896284250E+02  0.39903246020E+03  0.45936474352E+03  0.17036396426E+03 0.  0.
         24    2    5    5    0    0 -0.83986915717E+02  0.34854168705E+02  0.11501105380E+03  0.16736774835E+03  0.80720540154E+02 0.  0.
          5    1    5    5  501    0 -0.65706482339E+02 -0.15957884455E+02  0.28402140639E+03  0.29199699517E+03  0.47000000000E+01 0. -1.
        -11    1    6    6    0    0 -0.39710564053E+01 -0.21068519509E+01  0.66709051628E+02  0.66860344624E+02  0.00000000000E+00 0.  1.
         12    1    6    6    0    0 -0.80015859312E+02  0.36961020656E+02  0.48302002173E+02  0.10050740372E+03  0.00000000000E+00 0. -1.
         -5    1    3    3    0  503  0.14591465000E+01  0.63287377779E+01  0.56117587589E+02  0.56687350152E+02  0.47000000000E+01 0.  1.
         11    1    4    4    0    0  0.13812356549E+03 -0.45594656900E+02 -0.20689699927E+02  0.14691853445E+03  0.00000000000E+00 0. -1.
        -12    1    4    4    0    0  0.10110686069E+02  0.20369634872E+02 -0.13239388302E+02  0.26314053283E+02  0.00000000000E+00 0.  1.
</event>
<event>
12    1  0.1040325E-001  0.2309843E+03  0.7818608E-02  0.1126322E+00
         21   -1    0    0  503  502  0.00000000000E+00  0.00000000000E+00  0.53378018593E+03  0.53378018593E+03  0.00000000000E+00 0. -1.
         21   -1    0    0  501  503 -0.00000000000E+00 -0.00000000000E+00 -0.11424482866E+03  0.11424482866E+03  0.00000000000E+00 0. -1.
          6    2    1    2  501    0 -0.26885495536E+02  0.14900125068E+03  0.90723557426E+02  0.24619051172E+03  0.17162401235E+03 0.  0.
         24    2    3    3    0    0 -0.52337161376E+02  0.17037085399E+03  0.73639810076E+02  0.20852897082E+03  0.79347991108E+02 0.  0.
         -6    2    1    2    0  502  0.26885495536E+02 -0.14900125068E+03  0.32881179984E+03  0.40183450286E+03  0.17444072174E+03 0.  0.
        -24    2    5    5    0    0  0.12824821348E+02 -0.16279981670E+03  0.33477005385E+03  0.38072304215E+03  0.78808562393E+02 0.  0.
          5    1    3    3  501    0  0.25451665839E+02 -0.21369603312E+02  0.17083747350E+02  0.37661540903E+02  0.47000000000E+01 0. -1.
        -13    1    4    4    0    0 -0.51946224839E+02  0.91571836233E+02  0.75752564921E+02  0.12970066522E+03  0.00000000000E+00 0.  1.
         14    1    4    4    0    0 -0.39093653680E+00  0.78799017757E+02 -0.21127548449E+01  0.78828305601E+02  0.00000000000E+00 0. -1.
         -5    1    5    5    0  502  0.14060674188E+02  0.13798566019E+02 -0.59582540075E+01  0.21111460717E+02  0.47000000000E+01 0.  1.
         11    1    6    6    0    0  0.27123195675E+02 -0.38772378778E+02  0.15343007576E+03  0.16056074628E+03  0.00000000000E+00 0. -1.
        -12    1    6    6    0    0 -0.14298374327E+02 -0.12402743792E+03  0.18133997809E+03  0.22016229586E+03  0.00000000000E+00 0.  1.
</event>
<event>
12    1  0.1040325E-001  0.1767411E+03  0.7818608E-02  0.1171240E+00
         21   -1    0    0  503  502  0.00000000000E+00  0.00000000000E+00  0.82946999977E+02  0.82946999977E+02  0.00000000000E+00 0.  1.
         21   -1    0    0  501  503 -0.00000000000E+00 -0.00000000000E+00 -0.37592265143E+03  0.37592265143E+03  0.00000000000E+00 0.  1.
          6    2    1    2  501    0 -0.17810663412E+02  0.34372860662E+02 -0.16020408675E+03  0.23781375997E+03  0.17143897380E+03 0.  0.
         24    2    3    3    0    0  0.55896312713E+01  0.36050522825E+02 -0.18409250133E+03  0.20400348501E+03  0.79978051202E+02 0.  0.
         -6    2    1    2    0  502  0.17810663412E+02 -0.34372860662E+02 -0.13277156471E+03  0.22105589144E+03  0.17244913877E+03 0.  0.
        -24    2    5    5    0    0  0.41216282557E+02 -0.45848633707E+02 -0.13147651593E+02  0.98534517944E+02  0.75731838241E+02 0.  0.
          5    1    3    3  501    0 -0.23400294683E+02 -0.16776621633E+01  0.23888414586E+02  0.33810274962E+02  0.47000000000E+01 0. -1.
        -11    1    4    4    0    0 -0.32834275990E+01 -0.25360741652E+02 -0.46519620934E+02  0.53085056709E+02  0.00000000000E+00 0.  1.
         12    1    4    4    0    0  0.88730588703E+01  0.61411264478E+02 -0.13757288040E+03  0.15091842830E+03  0.00000000000E+00 0. -1.
         -5    1    5    5    0  502 -0.23405619146E+02  0.11475773045E+02 -0.11962391311E+03  0.12252137349E+03  0.47000000000E+01 0.  1.
         13    1    6    6    0    0  0.55753537534E+02 -0.55535932056E+02 -0.17312687851E+02  0.80575590954E+02  0.00000000000E+00 0. -1.
        -14    1    6    6    0    0 -0.14537254977E+02  0.96872983493E+01  0.41650362584E+01  0.17958926989E+02  0.00000000000E+00 0.  1.
</event>
<event>
12    1  0.1040325E-001  0.2176316E+03  0.7818608E-02  0.1136055E+00
         21   -1    0    0  501  502  0.00000000000E+00  0.00000000000E+00  0.29634849336E+03  0.29634849336E+03  0.00000000000E+00 0.  1.
         21   -1    0    0  502  503 -0.00000000000E+00 -0.00000000000E+00 -0.43053659593E+03  0.43053659593E+03  0.00000000000E+00 0.  1.
         -6    2    1    2    0  503  0.12766107423E+03 -0.30362930341E+02 -0.35621336308E+03  0.41743440404E+03  0.17362103625E+03 0.  0.
        -24    2    3    3    0    0  0.48038347789E+02 -0.62627994932E+02 -0.11002548970E+03  0.15664450401E+03  0.78752419936E+02 0.  0.
          6    2    1    2  501    0 -0.12766107423E+03  0.30362930341E+02  0.22202526050E+03  0.30945068525E+03  0.17101243490E+03 0.  0.
         24    2    5    5    0    0 -0.11028016048E+03  0.80003750658E+02  0.14022533104E+03  0.21208731604E+03  0.82192288225E+02 0.  0.
          5    1    5    5  501    0 -0.17380913749E+02 -0.49640820317E+02  0.81799929468E+02  0.97363369218E+02  0.47000000000E+01 0. -1.
        -11    1    6    6    0    0 -0.35302607486E+02  0.12710640899E+02  0.94058107549E+02  0.10126579918E+03  0.00000000000E+00 0.  1.
         12    1    6    6    0    0 -0.74977552995E+02  0.67293109759E+02  0.46167223488E+02  0.11082151686E+03  0.00000000000E+00 0. -1.
         -5    1    3    3    0  503  0.79622726441E+02  0.32265064591E+02 -0.24618787338E+03  0.26078990003E+03  0.47000000000E+01 0.  1.
         11    1    4    4    0    0  0.46366681042E+02 -0.72437305445E+02 -0.11647413130E+03  0.14478693170E+03  0.00000000000E+00 0. -1.
        -12    1    4    4    0    0  0.16716667475E+01  0.98093105129E+01  0.64486416011E+01  0.11857572304E+02  0.00000000000E+00 0.  1.
</event>
<event>
12    1  0.1040325E-001  0.1962948E+03  0.7818608E-02  0.1153278E+00
         21   -1    0    0  501  502  0.00000000000E+00  0.00000000000E+00  0.29205321048E+03  0.29205321048E+03  0.00000000000E+00 0. -1.
         21   -1    0    0  502  503 -0.00000000000E+00 -0.00000000000E+00 -0.13257867951E+03  0.13257867951E+03  0.00000000000E+00 0.  1.
         -6    2    1    2    0  503  0.81725501180E+02 -0.45201185218E+02  0.54642973508E+02  0.20209809597E+03  0.17069147943E+03 0.  0.
        -24    2    3    3    0    0  0.56151741055E+02 -0.48976173081E+01 -0.31919579098E+02  0.10313567731E+03  0.80256487121E+02 0.  0.
          6    2    1    2  501    0 -0.81725501180E+02  0.45201185218E+02  0.10483155746E+03  0.22253379402E+03  0.17265407425E+03 0.  0.
         24    2    5    5    0    0  0.16317088965E+02 -0.97345151859E+01  0.94336899738E+02  0.10956252112E+03  0.52378308515E+02 0.  0.
          5    1    5    5  501    0 -0.98042590145E+02  0.54935700404E+02  0.10494657720E+02  0.11297127291E+03  0.47000000000E+01 0. -1.
        -13    1    6    6    0    0 -0.10875184513E+02 -0.15050358656E+02  0.10644426575E+02  0.21402961266E+02  0.00000000000E+00 0.  1.
         14    1    6    6    0    0  0.27192273477E+02  0.53158434702E+01  0.83692473163E+02  0.88159559850E+02  0.00000000000E+00 0. -1.
         -5    1    3    3    0  503  0.25573760125E+02 -0.40303567910E+02  0.86562552606E+02  0.98962418659E+02  0.47000000000E+01 0.  1.
         11    1    4    4    0    0  0.99346151454E+01  0.35359345224E+02 -0.10338905933E+02  0.38155901885E+02  0.00000000000E+00 0. -1.
        -12    1    4    4    0    0  0.46217125910E+02 -0.40256962532E+02 -0.21580673166E+02  0.64979775423E+02  0.00000000000E+00 0.  1.
</event>
<event>
12    1  0.1040325E-001  0.3481130E+03  0.7818608E-02  0.1063415E+00
         21   -1    0    0  501  502  0.00000000000E+00  0.00000000000E+00  0.21868134873E+03  0.21868134873E+03  0.00000000000E+00 0. -1.
         21   -1    0    0  502  503 -0.00000000000E+00 -0.00000000000E+00 -0.57767833237E+03  0.57767833237E+03  0.00000000000E+00 0.  1.
         -6    2    1    2    0  503 -0.22639515518E+03 -0.20074829410E+03 -0.26050044588E+03  0.43479092959E+03  0.17212793578E+03 0.  0.
        -24    2    3    3    0    0 -0.92858158798E+02 -0.24326985069E+02 -0.11767773436E+03  0.17139574244E+03  0.79460754511E+02 0.  0.
          6    2    1    2  501    0  0.22639515518E+03  0.20074829410E+03 -0.98496537760E+02  0.36156875151E+03  0.17168503209E+03 0.  0.
         24    2    5    5    0    0  0.16963902000E+03  0.70248988040E+02 -0.38160950310E+02  0.20692787440E+03  0.87467534809E+02 0.  0.
          5    1    5    5  501    0  0.56756135181E+02  0.13049930606E+03 -0.60335587450E+02  0.15464087712E+03  0.47000000000E+01 0. -1.
        -11    1    6    6    0    0  0.36312831270E+01  0.21480875373E+02  0.14379883175E+02  0.26103548878E+02  0.00000000000E+00 0.  1.
         12    1    6    6    0    0  0.16600773687E+03  0.48768112667E+02 -0.52540833485E+02  0.18082432552E+03  0.00000000000E+00 0. -1.
         -5    1    3    3    0  503 -0.13353699639E+03 -0.17642130903E+03 -0.14282271152E+03  0.26339518714E+03  0.47000000000E+01 0.  1.
         11    1    4    4    0    0 -0.23699175634E+02  0.40206843173E+00 -0.89735201627E+02  0.92812816980E+02  0.00000000000E+00 0. -1.
        -12    1    4    4    0    0 -0.69158983164E+02 -0.24729053500E+02 -0.27942532728E+02  0.78582925464E+02  0.00000000000E+00 0.  1.
</event>
<event>
12    1  0.1040325E-001  0.2220924E+03  0.7818608E-02  0.1132620E+00
         21   -1    0    0  501  502  0.00000000000E+00  0.00000000000E+00  0.96598902757E+03  0.96598902757E+03  0.00000000000E+00 0.  1.
         21   -1    0    0  502  503 -0.00000000000E+00 -0.00000000000E+00 -0.19469732766E+03  0.19469732766E+03  0.00000000000E+00 0.  1.
         -6    2    1    2    0  503 -0.12773074308E+03 -0.50711008551E+02 -0.11308555698E+03  0.24922553998E+03  0.17446569137E+03 0.  0.
        -24    2    3    3    0    0 -0.65183393503E+01 -0.14920837297E+02 -0.48042471672E+01  0.82731350198E+02  0.80970830435E+02 0.  0.
          6    2    1    2  501    0  0.12773074308E+03  0.50711008551E+02  0.88437725689E+03  0.91146081525E+03  0.17248459676E+03 0.  0.
         24    2    5    5    0    0  0.81761366593E+02 -0.35190189081E+02  0.54275108842E+03  0.55618243382E+03  0.82685459629E+02 0.  0.
          5    1    5    5  501    0  0.45969376484E+02  0.85901197633E+02  0.34162616847E+03  0.35527838143E+03  0.47000000000E+01 0. -1.
        -11    1    6    6    0    0 -0.10366910900E+02 -0.23816184859E+02  0.17393410534E+03  0.17586289121E+03  0.00000000000E+00 0.  1.
         12    1    6    6    0    0  0.92128277494E+02 -0.11374004222E+02  0.36881698308E+03  0.38031954261E+03  0.00000000000E+00 0. -1.
         -5    1    3    3    0  503 -0.12121240373E+03 -0.35790171255E+02 -0.10828130982E+03  0.16649418978E+03  0.47000000000E+01 0.  1.
         13    1    4    4    0    0 -0.23454074746E+02 -0.98971850474E-01  0.31949605421E+02  0.39634337439E+02  0.00000000000E+00 0. -1.
        -14    1    4    4    0    0  0.16935735396E+02 -0.14821865446E+02 -0.36753852588E+02  0.43097012760E+02  0.00000000000E+00 0.  1.
</event>
<event>
12    1  0.1040325E-001  0.3704980E+03  0.7818608E-02  0.1054872E+00
         21   -1    0    0  501  502  0.00000000000E+00  0.00000000000E+00  0.33657760887E+03  0.33657760887E+03  0.00000000000E+00 0.  1.
         21   -1    0    0  502  503 -0.00000000000E+00 -0.00000000000E+00 -0.88059545441E+03  0.88059545441E+03  0.00000000000E+00 0.  1.
         -6    2    1    2    0  503  0.25853863738E+03  0.19862602845E+03 -0.71925866095E+03  0.80732169865E+03  0.16775213135E+03 0.  0.
        -24    2    3    3    0    0  0.61768619304E+02  0.11134218504E+03 -0.33043760834E+03  0.36286606500E+03  0.79185375070E+02 0.  0.
          6    2    1    2  501    0 -0.25853863738E+03 -0.19862602845E+03  0.17524081541E+03  0.40985136462E+03  0.17599508942E+03 0.  0.
         24    2    5    5    0    0 -0.72800407594E+02 -0.10010791587E+03  0.20486433219E+02  0.14874694620E+03  0.79902852851E+02 0.  0.
          5    1    5    5  501    0 -0.18573822979E+03 -0.98518112586E+02  0.15475438219E+03  0.26110441842E+03  0.47000000000E+01 0. -1.
        -13    1    6    6    0    0 -0.36598077552E+02 -0.49475191838E+01  0.28454680804E+02  0.46621519561E+02  0.00000000000E+00 0.  1.
         14    1    6    6    0    0 -0.36202330042E+02 -0.95160396682E+02 -0.79682475846E+01  0.10212542664E+03  0.00000000000E+00 0. -1.
         -5    1    3    3    0  503  0.19677001808E+03  0.87283843413E+02 -0.38882105261E+03  0.44445563365E+03  0.47000000000E+01 0.  1.
         13    1    4    4    0    0  0.32246332826E+02 -0.21998509294E+01 -0.81264854897E+02  0.87456514716E+02  0.00000000000E+00 0. -1.
        -14    1    4    4    0    0  0.29522286479E+02  0.11354203597E+03 -0.24917275344E+03  0.27540955028E+03  0.00000000000E+00 0.  1.
</event>
<event>
12    1  0.1040325E-001  0.2177113E+03  0.7818608E-02  0.1135636E+00
         21   -1    0    0  501  502  0.00000000000E+00  0.00000000000E+00  0.48825796991E+03  0.48825796991E+03  0.00000000000E+00 0. -1.
         21   -1    0    0  502  503 -0.00000000000E+00 -0.00000000000E+00 -0.10441534831E+03  0.10441534831E+03  0.00000000000E+00 0.  1.
         -6    2    1    2    0  503 -0.35264462767E+02  0.12923841358E+03  0.27099628048E+03  0.34761647104E+03  0.17161607450E+03 0.  0.
        -24    2    3    3    0    0 -0.83272092863E+02  0.77990559898E+02  0.20846417032E+03  0.25347068062E+03  0.88166358329E+02 0.  0.
          6    2    1    2  501    0  0.35264462767E+02 -0.12923841358E+03  0.11284634112E+03  0.24505684718E+03  0.17138381420E+03 0.  0.
         24    2    5    5    0    0  0.27525209635E+02 -0.15867134764E+03  0.75262388818E+02  0.19646840085E+03  0.83673004225E+02 0.  0.
          5    1    5    5  501    0  0.77392531313E+01  0.29432934060E+02  0.37583952297E+02  0.48588446329E+02  0.47000000000E+01 0. -1.
        -11    1    6    6    0    0 -0.98161225726E+01 -0.14691979940E+02 -0.14397464261E+02  0.22792488106E+02  0.00000000000E+00 0.  1.
         12    1    6    6    0    0  0.37341332208E+02 -0.14397936770E+03  0.89659853080E+02  0.17367591274E+03  0.00000000000E+00 0. -1.
         -5    1    3    3    0  503  0.48007630096E+02  0.51247853678E+02  0.62532110157E+02  0.94145790425E+02  0.47000000000E+01 0.  1.
         13    1    4    4    0    0 -0.27251878575E+02  0.82848970545E+02  0.13905029025E+03  0.16413896559E+03  0.00000000000E+00 0. -1.
        -14    1    4    4    0    0 -0.56020214288E+02 -0.48584106471E+01  0.69413880070E+02  0.89331715024E+02  0.00000000000E+00 0.  1.
</event>
<event>
12    1  0.1040325E-001  0.4382888E+03  0.7818608E-02  0.1031355E+00
         21   -1    0    0  501  502  0.00000000000E+00  0.00000000000E+00  0.15364002822E+04  0.15364002822E+04  0.00000000000E+00 0.  1.
         21   -1    0    0  502  503 -0.00000000000E+00 -0.00000000000E+00 -0.25094820374E+03  0.25094820374E+03  0.00000000000E+00 0. -1.
         -6    2    1    2    0  503  0.10615446306E+03 -0.38900275899E+03  0.93162752930E+01  0.43838780813E+03  0.17177066340E+03 0.  0.
        -24    2    3    3    0    0  0.85624587618E+02 -0.38527556907E+03 -0.19493540085E+02  0.40250657080E+03  0.76568317898E+02 0.  0.
          6    2    1    2  501    0 -0.10615446306E+03  0.38900275899E+03  0.12761358032E+04  0.13489606779E+04  0.16905740339E+03 0.  0.
         24    2    5    5    0    0 -0.58179075046E+02  0.30167036581E+03  0.11149127026E+04  0.11593728013E+04  0.82006973408E+02 0.  0.
          5    1    5    5  501    0 -0.47975388018E+02  0.87332393176E+02  0.16122310065E+03  0.18958787656E+03  0.47000000000E+01 0. -1.
        -13    1    6    6    0    0 -0.67049068092E+02  0.23623185822E+03  0.77045152540E+03  0.80863874589E+03  0.00000000000E+00 0.  1.
         14    1    6    6    0    0  0.88699930466E+01  0.65438507591E+02  0.34446117716E+03  0.35073405541E+03  0.00000000000E+00 0. -1.
         -5    1    3    3    0  503  0.20529875446E+02 -0.37271899228E+01  0.28809815378E+02  0.35881237335E+02  0.47000000000E+01 0.  1.
         13    1    4    4    0    0 -0.68490746011E+01 -0.10050233342E+03  0.11980970139E+02  0.10144541631E+03  0.00000000000E+00 0. -1.
        -14    1    4    4    0    0  0.92473662219E+02 -0.28477323565E+03 -0.31474510224E+02  0.30106115449E+03  0.00000000000E+00 0.  1.
</event>
<event>
12    1  0.1040325E-001  0.2444129E+03  0.7818608E-02  0.1116942E+00
         21   -1    0    0  501  502  0.00000000000E+00  0.00000000000E+00  0.74181812432E+03  0.74181812432E+03  0.00000000000E+00 0.  1.
         21   -1    0    0  502  503 -0.00000000000E+00 -0.00000000000E+00 -0.80720215396E+02  0.80720215396E+02  0.00000000000E+00 0.  1.
         -6    2    1    2    0  503  0.16759385582E+03  0.44352111163E+02  0.35592441619E+03  0.43176364742E+03  0.17228710607E+03 0.  0.
        -24    2    3    3    0    0  0.14976268054E+02  0.41578808725E+02  0.12738603007E+03  0.15689694657E+03  0.80226960851E+02 0.  0.
          6    2    1    2  501    0 -0.16759385582E+03 -0.44352111163E+02  0.30517349273E+03  0.39077469230E+03  0.17181149322E+03 0.  0.
         24    2    5    5    0    0 -0.19307446532E+03 -0.31979543646E+02  0.28684940321E+03  0.35671292276E+03  0.81615493454E+02 0.  0.
          5    1    5    5  501    0  0.25480609497E+02 -0.12372567518E+02  0.18324089521E+02  0.34061769538E+02  0.47000000000E+01 0. -1.
        -11    1    6    6    0    0 -0.10431421899E+03 -0.27331654811E+01  0.21446667066E+03  0.23850551210E+03  0.00000000000E+00 0.  1.
         12    1    6    6    0    0 -0.88760246323E+02 -0.29246378165E+02  0.72382732547E+02  0.11820741066E+03  0.00000000000E+00 0. -1.
         -5    1    3    3    0  503  0.15261758777E+03  0.27733024380E+01  0.22853838613E+03  0.27486670085E+03  0.47000000000E+01 0.  1.
         13    1    4    4    0    0 -0.17712436849E+02  0.22830608685E+02  0.11287681861E+03  0.11651670821E+03  0.00000000000E+00 0. -1.
        -14    1    4    4    0    0  0.32688704903E+02  0.18748200040E+02  0.14509211452E+02  0.40380238359E+02  0.00000000000E+00 0.  1.
</event>
<event>
12    1  0.1040325E-001  0.2943640E+03  0.7818608E-02  0.1088243E+00
         21   -1    0    0  503  502  0.00000000000E+00  0.00000000000E+00  0.51835508825E+03  0.51835508825E+03  0.00000000000E+00 0. -1.
         21   -1    0    0  501  503 -0.00000000000E+00 -0.00000000000E+00 -0.27674432400E+03  0.27674432400E+03  0.00000000000E+00 0. -1.
          6    2    1    2  501    0 -0.17982909641E+03  0.15532108257E+03 -0.12996788051E+03  0.32177914871E+03  0.17374414516E+03 0.  0.
         24    2    3    3    0    0 -0.84249225919E+02  0.63249448997E+02  0.45362986105E+01  0.13276549431E+03  0.80670153138E+02 0.  0.
         -6    2    1    2    0  502  0.17982909641E+03 -0.15532108257E+03  0.37157864476E+03  0.47332026354E+03  0.17175051682E+03 0.  0.
        -24    2    5    5    0    0  0.15527955145E+03 -0.18491991286E+03  0.31568761470E+03  0.40531535082E+03  0.79465402957E+02 0.  0.
          5    1    3    3  501    0 -0.95579870494E+02  0.92071633569E+02 -0.13450417912E+03  0.18901365440E+03  0.47000000000E+01 0. -1.
        -11    1    4    4    0    0 -0.54631239918E+02 -0.82922256393E+01  0.21157531655E+01  0.55297466420E+02  0.00000000000E+00 0.  1.
         12    1    4    4    0    0 -0.29617986001E+02  0.71541674637E+02  0.24205454450E+01  0.77468027888E+02  0.00000000000E+00 0. -1.
         -5    1    5    5    0  502  0.24549544960E+02  0.29598830292E+02  0.55891030063E+02  0.68004912719E+02  0.47000000000E+01 0.  1.
         11    1    6    6    0    0  0.14060028608E+03 -0.17102515336E+03  0.23806626243E+03  0.32510550416E+03  0.00000000000E+00 0. -1.
        -12    1    6    6    0    0  0.14679265375E+02 -0.13894759495E+02  0.77621352271E+02  0.80209846664E+02  0.00000000000E+00 0.  1.
</event>
<event>
12    1  0.1040325E-001  0.1908712E+03  0.7818608E-02  0.1158530E+00
         21   -1    0    0  501  502  0.00000000000E+00  0.00000000000E+00  0.43068715466E+03  0.43068715466E+03  0.00000000000E+00 0.  1.
         21   -1    0    0  502  503 -0.00000000000E+00 -0.00000000000E+00 -0.38690451807E+03  0.38690451807E+03  0.00000000000E+00 0.  1.
         -6    2    1    2    0  503 -0.59211080776E+02  0.61234284303E+02 -0.34040259903E+03  0.39026367510E+03  0.17081047102E+03 0.  0.
        -24    2    3    3    0    0 -0.27172120042E+02  0.46971704763E+02 -0.34160177974E+03  0.35485966100E+03  0.79302824174E+02 0.  0.
          6    2    1    2  501    0  0.59211080776E+02 -0.61234284303E+02  0.38418523562E+03  0.42732799764E+03  0.16659931762E+03 0.  0.
         24    2    5    5    0    0  0.73498811500E+02 -0.43608442228E+02  0.38696883686E+03  0.40399030294E+03  0.78482562620E+02 0.  0.
          5    1    5    5  501    0 -0.14287730724E+02 -0.17625842075E+02 -0.27836012426E+01  0.23337694701E+02  0.47000000000E+01 0. -1.
        -13    1    6    6    0    0  0.15485979106E+02 -0.52360965756E+02  0.14310436080E+03  0.15316770014E+03  0.00000000000E+00 0.  1.
         14    1    6    6    0    0  0.58012832395E+02  0.87525235277E+01  0.24386447606E+03  0.25082260280E+03  0.00000000000E+00 0. -1.
         -5    1    3    3    0  503 -0.32038960734E+02  0.14262579540E+02  0.11991807109E+01  0.35404014101E+02  0.47000000000E+01 0.  1.
         13    1    4    4    0    0  0.26824435531E+02  0.53361432181E+01 -0.81371641725E+02  0.85845028063E+02  0.00000000000E+00 0. -1.
        -14    1    4    4    0    0 -0.53996555573E+02  0.41635561544E+02 -0.26023013802E+03  0.26901463293E+03  0.00000000000E+00 0.  1.
</event>
<event>
12    1  0.1040325E-001  0.1876687E+03  0.7818608E-02  0.1161560E+00
         21   -1    0    0  501  502  0.00000000000E+00  0.00000000000E+00  0.10045007403E+04  0.10045007403E+04  0.00000000000E+00 0.  1.
         21   -1    0    0  502  503 -0.00000000000E+00 -0.00000000000E+00 -0.34591666130E+02  0.34591666130E+02  0.00000000000E+00 0.  1.
         -6    2    1    2    0  503  0.10423844032E+02  0.61718931713E+02  0.42998478587E+03  0.46748259313E+03  0.17243890438E+03 0.  0.
        -24    2    3    3    0    0  0.21045784403E+01 -0.16520849719E+02  0.11838439285E+03  0.14606764557E+03  0.83925710533E+02 0.  0.
          6    2    1    2  501    0 -0.10423844032E+02 -0.61718931713E+02  0.53992428834E+03  0.57160981335E+03  0.17692274730E+03 0.  0.
         24    2    5    5    0    0 -0.13711703602E+02 -0.93131223013E+02  0.51836178555E+03  0.53307964864E+03  0.81323647012E+02 0.  0.
          5    1    5    5  501    0  0.32878595698E+01  0.31412291300E+02  0.21562502795E+02  0.38530164704E+02  0.47000000000E+01 0. -1.
        -11    1    6    6    0    0  0.10231649565E+01 -0.82270494998E+02  0.50146001728E+03  0.50816496351E+03  0.00000000000E+00 0.  1.
         12    1    6    6    0    0 -0.14734868558E+02 -0.10860728015E+02  0.16901768274E+02  0.24914685132E+02  0.00000000000E+00 0. -1.
         -5    1    3    3    0  503  0.83192655914E+01  0.78239781432E+02  0.31160039303E+03  0.32141494756E+03  0.47000000000E+01 0.  1.
         11    1    4    4    0    0 -0.29207985823E+02  0.11838138896E+01  0.84960252398E+01  0.30441588264E+02  0.00000000000E+00 0. -1.
        -12    1    4    4    0    0  0.31312564263E+02 -0.17704663609E+02  0.10988836761E+03  0.11562605731E+03  0.00000000000E+00 0.  1.
</event>
<event>
12    1  0.1040325E-001  0.1751206E+03  0.7818608E-02  0.1173037E+00
         21   -1    0    0  503  502  0.00000000000E+00  0.00000000000E+00  0.27323403898E+03  0.27323403898E+03  0.00000000000E+00 0.  1.
         21   -1    0    0  501  503 -0.00000000000E+00 -0.00000000000E+00 -0.27407261424E+03  0.27407261424E+03  0.00000000000E+00 0.  1.
          6    2    1    2  501    0  0.14059232704E+02  0.19557850749E+02 -0.21140317300E+03  0.27451508160E+03  0.17345621038E+03 0.  0.
         24    2    3    3    0    0  0.25225499301E+01 -0.51700609117E+02 -0.16006251655E+03  0.18580873370E+03  0.78902218438E+02 0.  0.
         -6    2    1    2    0  502 -0.14059232704E+02 -0.19557850749E+02  0.21056459774E+03  0.27279157163E+03  0.17174871231E+03 0.  0.
        -24    2    5    5    0    0 -0.32252579738E+02 -0.45951246865E+02  0.21824220617E+03  0.23949525192E+03  0.81096048908E+02 0.  0.
          5    1    3    3  501    0  0.11536682774E+02  0.71258459866E+02 -0.51340656452E+02  0.88706347895E+02  0.47000000000E+01 0. -1.
        -11    1    4    4    0    0 -0.11996602052E+02  0.18344138164E+02 -0.49328381972E+02  0.53978839685E+02  0.00000000000E+00 0.  1.
         12    1    4    4    0    0  0.14519151982E+02 -0.70044747280E+02 -0.11073413458E+03  0.13182989402E+03  0.00000000000E+00 0. -1.
         -5    1    5    5    0  502  0.18193347034E+02  0.26393396115E+02 -0.76776084331E+01  0.33296319707E+02  0.47000000000E+01 0.  1.
         11    1    6    6    0    0  0.12121475986E+02 -0.25621331375E+02  0.18432515055E+02  0.33810359548E+02  0.00000000000E+00 0. -1.
        -12    1    6    6    0    0 -0.44374055724E+02 -0.20329915490E+02  0.19980969112E+03  0.20568489237E+03  0.00000000000E+00 0.  1.
</event>
<event>
12    1  0.1040325E-001  0.2747282E+03  0.7818608E-02  0.1098606E+00
         21   -1    0    0  501  502  0.00000000000E+00  0.00000000000E+00  0.23447468056E+03  0.23447468056E+03  0.00000000000E+00 0.  1.
         21   -1    0    0  502  503 -0.00000000000E+00 -0.00000000000E+00 -0.43278728220E+03  0.43278728220E+03  0.00000000000E+00 0.  1.
         -6    2    1    2    0  503  0.20077625236E+03 -0.74185185739E+02 -0.26805256985E+03  0.38382016452E+03  0.17219521827E+03 0.  0.
        -24    2    3    3    0    0  0.15324364698E+03  0.59423714659E+01 -0.21249459539E+03  0.27524506367E+03  0.84184113038E+02 0.  0.
          6    2    1    2  501    0 -0.20077625236E+03  0.74185185739E+02  0.69739968212E+02  0.28344179823E+03  0.17222382101E+03 0.  0.
         24    2    5    5    0    0 -0.21294298454E+03  0.29266837700E+02  0.49503914500E+02  0.23247832864E+03  0.73445716590E+02 0.  0.
          5    1    5    5  501    0  0.12166732176E+02  0.44918348039E+02  0.20236053712E+02  0.50963469586E+02  0.47000000000E+01 0. -1.
        -13    1    6    6    0    0 -0.12951498676E+03 -0.22297217574E-01 -0.31775886961E+01  0.12955396313E+03  0.00000000000E+00 0.  1.
         14    1    6    6    0    0 -0.83427997775E+02  0.29289134918E+02  0.52681503196E+02  0.10292436551E+03  0.00000000000E+00 0. -1.
         -5    1    3    3    0  503  0.47532605383E+02 -0.80127557205E+02 -0.55557974463E+02  0.10857510085E+03  0.47000000000E+01 0.  1.
         13    1    4    4    0    0 -0.38329314299E+01 -0.13724261547E+02 -0.70857926962E+01  0.15913993103E+02  0.00000000000E+00 0. -1.
        -14    1    4    4    0    0  0.15707657841E+03  0.19666633013E+02 -0.20540880269E+03  0.25933107057E+03  0.00000000000E+00 0.  1.
</event>
<event>
12    1  0.1040325E-001  0.1820054E+03  0.7818608E-02  0.1166220E+00
         21   -1    0    0  501  502  0.00000000000E+00  0.00000000000E+00  0.11438877095E+03  0.11438877095E+03  0.00000000000E+00 0.  1.
         21   -1    0    0  502  503 -0.00000000000E+00 -0.00000000000E+00 -0.60697928141E+03  0.60697928141E+03  0.00000000000E+00 0. -1.
         -6    2    1    2    0  503 -0.14928434824E+02  0.53775620792E+02 -0.50758386408E+03  0.53874617548E+03  0.17173056503E+03 0.  0.
        -24    2    3    3    0    0  0.13722290411E+02 -0.31035199281E+02 -0.31330654984E+03  0.32478472081E+03  0.78566124061E+02 0.  0.
          6    2    1    2  501    0  0.14928434824E+02 -0.53775620792E+02  0.14993353616E+02  0.18262187687E+03  0.17323762207E+03 0.  0.
         24    2    5    5    0    0  0.67470720719E+01 -0.87276736958E+02 -0.33565203438E+02  0.12287840071E+03  0.79433788046E+02 0.  0.
          5    1    5    5  501    0  0.81813627523E+01  0.33501116167E+02  0.48558557053E+02  0.59743476163E+02  0.47000000000E+01 0. -1.
        -11    1    6    6    0    0  0.20791914913E+02 -0.98176158185E+02 -0.30050600328E+02  0.10475638568E+03  0.00000000000E+00 0.  1.
         12    1    6    6    0    0 -0.14044842841E+02  0.10899421227E+02 -0.35146031101E+01  0.18122015024E+02  0.00000000000E+00 0. -1.
         -5    1    3    3    0  503 -0.28650725235E+02  0.84810820072E+02 -0.19427731424E+03  0.21396145467E+03  0.47000000000E+01 0.  1.
         13    1    4    4    0    0  0.37529852675E+02 -0.33551934828E+02 -0.12188325477E+03  0.13187020120E+03  0.00000000000E+00 0. -1.
        -14    1    4    4    0    0 -0.23807562263E+02  0.25167355474E+01 -0.19142329507E+03  0.19291451960E+03  0.00000000000E+00 0.  1.
</event>
<event>
12    1  0.1040325E-001  0.1901669E+03  0.7818608E-02  0.1158438E+00
         21   -1    0    0  503  502  0.00000000000E+00  0.00000000000E+00  0.91909885545E+03  0.91909885545E+03  0.00000000000E+00 0.  1.
         21   -1    0    0  501  503 -0.00000000000E+00 -0.00000000000E+00 -0.18286260606E+03  0.18286260606E+03  0.00000000000E+00 0.  1.
          6    2    1    2  501    0 -0.52464079087E+02 -0.59455020410E+02 -0.12031404817E+03  0.22455513473E+03  0.17222705740E+03 0.  0.
         24    2    3    3    0    0 -0.80434545371E+02 -0.81683092574E+02 -0.12526177414E+03  0.18818201047E+03  0.81117897538E+02 0.  0.
         -6    2    1    2    0  502  0.52464079087E+02  0.59455020410E+02  0.85655029756E+03  0.87740632678E+03  0.17284695828E+03 0.  0.
        -24    2    5    5    0    0  0.86602641729E+02  0.27656390798E+02  0.39247733572E+03  0.41097048102E+03  0.81199653376E+02 0.  0.
          5    1    3    3  501    0  0.27970466284E+02  0.22228072164E+02  0.49477259733E+01  0.36373124262E+02  0.47000000000E+01 0. -1.
        -13    1    4    4    0    0  0.14868894670E+02 -0.60571604942E+01 -0.28581312787E+02  0.32782078375E+02  0.00000000000E+00 0.  1.
         14    1    4    4    0    0 -0.95303440041E+02 -0.75625932080E+02 -0.96680461355E+02  0.15539993209E+03  0.00000000000E+00 0. -1.
         -5    1    5    5    0  502 -0.34138562642E+02  0.31798629612E+02  0.46407296184E+03  0.46643584577E+03  0.47000000000E+01 0.  1.
         13    1    6    6    0    0  0.25932060808E+02 -0.28851341625E+02  0.11457867199E+03  0.12096753187E+03  0.00000000000E+00 0. -1.
        -14    1    6    6    0    0  0.60670580921E+02  0.56507732424E+02  0.27789866373E+03  0.29000294915E+03  0.00000000000E+00 0.  1.
</event>
<event>
12    1  0.1040325E-001  0.1759366E+03  0.7818608E-02  0.1172006E+00
         21   -1    0    0  501  502  0.00000000000E+00  0.00000000000E+00  0.38561896333E+02  0.38561896333E+02  0.00000000000E+00 0.  1.
         21   -1    0    0  502  503 -0.00000000000E+00 -0.00000000000E+00 -0.99349441184E+03  0.99349441184E+03  0.00000000000E+00 0.  1.
         -6    2    1    2    0  503  0.35851024502E+02 -0.82972905363E+01 -0.70680619082E+03  0.72837400162E+03  0.17204520876E+03 0.  0.
        -24    2    3    3    0    0 -0.17447186394E+02  0.48650337390E+02 -0.39486245644E+03  0.40679241782E+03  0.83020792909E+02 0.  0.
          6    2    1    2  501    0 -0.35851024502E+02  0.82972905363E+01 -0.24812632468E+03  0.30368230655E+03  0.17117864740E+03 0.  0.
         24    2    5    5    0    0 -0.55097362333E+02  0.43747993698E+02 -0.24061963231E+03  0.26238322297E+03  0.77443798673E+02 0.  0.
          5    1    5    5  501    0  0.19246337831E+02 -0.35450703161E+02 -0.75066923670E+01  0.41299083583E+02  0.47000000000E+01 0. -1.
        -13    1    6    6    0    0 -0.47910484147E+02 -0.67732569148E+01 -0.76545348765E+02  0.90556512289E+02  0.00000000000E+00 0.  1.
         14    1    6    6    0    0 -0.71868781860E+01  0.50521250612E+02 -0.16407428355E+03  0.17182671068E+03  0.00000000000E+00 0. -1.
         -5    1    3    3    0  503  0.53298210896E+02 -0.56947627926E+02 -0.31194373439E+03  0.32158158379E+03  0.47000000000E+01 0.  1.
         13    1    4    4    0    0 -0.80389290812E+01  0.19896185013E+01  0.76042126468E+00  0.83163214856E+01  0.00000000000E+00 0. -1.
        -14    1    4    4    0    0 -0.94082573130E+01  0.46660718888E+02 -0.39562287770E+03  0.39847609634E+03  0.00000000000E+00 0.  1.
</event>
<event>
12    1  0.1040325E-001  0.2009096E+03  0.7818608E-02  0.1149104E+00
         21   -1    0    0  501  502  0.00000000000E+00  0.00000000000E+00  0.36350527393E+03  0.36350527393E+03  0.00000000000E+00 0.  1.
         21   -1    0    0  502  503 -0.00000000000E+00 -0.00000000000E+00 -0.23441276147E+03  0.23441276147E+03  0.00000000000E+00 0.  1.
         -6    2    1    2    0  503  0.27772425568E+02  0.98118416206E+02 -0.15268411037E+03  0.25185050243E+03  0.17238824436E+03 0.  0.
        -24    2    3    3    0    0  0.53963624397E+02  0.55809874628E+01 -0.81585227067E+02  0.13215799715E+03  0.88692540583E+02 0.  0.
          6    2    1    2  501    0 -0.27772425568E+02 -0.98118416206E+02  0.28177662283E+03  0.34606753297E+03  0.17310731060E+03 0.  0.
         24    2    5    5    0    0 -0.27244086464E+02  0.15999660169E+01  0.19831416742E+03  0.21594410557E+03  0.80984860263E+02 0.  0.
          5    1    5    5  501    0 -0.52833910383E+00 -0.99718382223E+02  0.83462455405E+02  0.13012342740E+03  0.47000000000E+01 0. -1.
        -11    1    6    6    0    0 -0.63272116573E+01 -0.51900727507E+01  0.19319050628E+03  0.19336375611E+03  0.00000000000E+00 0.  1.
         12    1    6    6    0    0 -0.20916874807E+02  0.67900387676E+01  0.51236611467E+01  0.22580349459E+02  0.00000000000E+00 0. -1.
         -5    1    3    3    0  503 -0.26191198829E+02  0.92537428743E+02 -0.71098883304E+02  0.11969250529E+03  0.47000000000E+01 0.  1.
         11    1    4    4    0    0 -0.11231561088E+02 -0.15399892500E+02  0.68938701093E+01  0.20268944190E+02  0.00000000000E+00 0. -1.
        -12    1    4    4    0    0  0.65195185485E+02  0.20980879963E+02 -0.88479097176E+02  0.11188905296E+03  0.00000000000E+00 0.  1.
</event>
<event>
12    1  0.1040325E-001  0.1947194E+03  0.7818608E-02  0.1154394E+00
         21   -1    0    0  503  502  0.00000000000E+00  0.00000000000E+00  0.44628887940E+03  0.44628887940E+03  0.00000000000E+00 0.  1.
         21   -1    0    0  501  503 -0.00000000000E+00 -0.00000000000E+00 -0.11599645801E+03  0.11599645801E+03  0.00000000000E+00 0.  1.
          6    2    1    2  501    0  0.39376745161E+02 -0.82646907823E+02  0.19321753211E+02  0.19567572633E+03  0.17185639440E+03 0.  0.
         24    2    3    3    0    0  0.11898313748E+02 -0.31360005244E+02  0.82097873489E+02  0.10995325643E+03  0.64997215087E+02 0.  0.
         -6    2    1    2    0  502 -0.39376745161E+02  0.82646907823E+02  0.31097066818E+03  0.36660961108E+03  0.17122736650E+03 0.  0.
        -24    2    5    5    0    0 -0.74393578759E+02  0.80009704717E+02  0.30066721851E+03  0.32971266608E+03  0.79835508856E+02 0.  0.
          5    1    3    3  501    0  0.27478431412E+02 -0.51286902579E+02 -0.62776120278E+02  0.85722469903E+02  0.47000000000E+01 0. -1.
        -13    1    4    4    0    0  0.29014476260E+01 -0.32800037000E+02  0.61954079460E+01  0.33505878665E+02  0.00000000000E+00 0.  1.
         14    1    4    4    0    0  0.89968661225E+01  0.14400317561E+01  0.75902465543E+02  0.76447377764E+02  0.00000000000E+00 0. -1.
         -5    1    5    5    0  502  0.35016833598E+02  0.26372031061E+01  0.10303449661E+02  0.36896945000E+02  0.47000000000E+01 0.  1.
         11    1    6    6    0    0 -0.15409625571E+02  0.12226767706E+02  0.16999146067E+03  0.17112582246E+03  0.00000000000E+00 0. -1.
        -12    1    6    6    0    0 -0.58983953188E+02  0.67782937011E+02  0.13067575784E+03  0.15858684362E+03  0.00000000000E+00 0.  1.
</event>
<event>
12    1  0.1040325E-001  0.1730668E+03  0.7818608E-02  0.1174775E+00
         21   -1    0    0  503  502  0.00000000000E+00  0.00000000000E+00  0.16113834174E+03  0.16113834174E+03  0.00000000000E+00 0.  1.
         21   -1    0    0  501  503 -0.00000000000E+00 -0.00000000000E+00 -0.20473225634E+03  0.20473225634E+03  0.00000000000E+00 0.  1.
          6    2    1    2  501    0 -0.62506001343E+01 -0.12021026691E+02 -0.77876557120E+02  0.18978109092E+03  0.17253558832E+03 0.  0.
         24    2    3    3    0    0  0.13396401365E+01 -0.30179323706E+02  0.76511616035E+01  0.10189243313E+03  0.97010006905E+02 0.  0.
         -6    2    1    2    0  502  0.62506001343E+01  0.12021026691E+02  0.34282642518E+02  0.17608950717E+03  0.17218780407E+03 0.  0.
        -24    2    5    5    0    0  0.12693888804E+02 -0.11446463168E+02 -0.46130103681E+02  0.91943569651E+02  0.77675460749E+02 0.  0.
          5    1    3    3  501    0 -0.75902402708E+01  0.18158297016E+02 -0.85527718723E+02  0.87888657789E+02  0.47000000000E+01 0. -1.
        -11    1    4    4    0    0 -0.46165024056E+02 -0.11009060932E+02 -0.84264881885E+01  0.48201810877E+02  0.00000000000E+00 0.  1.
         12    1    4    4    0    0  0.47504664192E+02 -0.19170262775E+02  0.16077649792E+02  0.53690622251E+02  0.00000000000E+00 0. -1.
         -5    1    5    5    0  502 -0.64432886698E+01  0.23467489859E+02  0.80412746199E+02  0.84145937516E+02  0.47000000000E+01 0.  1.
         13    1    6    6    0    0 -0.76333354953E+01  0.30661591150E+02 -0.26474226804E+02  0.41222392792E+02  0.00000000000E+00 0. -1.
        -14    1    6    6    0    0  0.20327224299E+02 -0.42108054318E+02 -0.19655876877E+02  0.50721176859E+02  0.00000000000E+00 0.  1.
</event>
<event>
12    1  0.1040325E-001  0.2064453E+03  0.7818608E-02  0.1144702E+00
         21   -1    0    0  503  502  0.00000000000E+00  0.00000000000E+00  0.30970008358E+03  0.30970008358E+03  0.00000000000E+00 0.  1.
         21   -1    0    0  501  503 -0.00000000000E+00 -0.00000000000E+00 -0.25658054639E+03  0.25658054639E+03  0.00000000000E+00 0.  1.
          6    2    1    2  501    0  0.47652188022E+02  0.10327751837E+03 -0.16705348378E+03  0.26445979000E+03  0.17057296756E+03 0.  0.
         24    2    3    3    0    0  0.63930836610E+02  0.70385036865E+01 -0.11417244631E+03  0.15334977033E+03  0.79649935099E+02 0.  0.
         -6    2    1    2    0  502 -0.47652188022E+02 -0.10327751837E+03  0.22017302097E+03  0.30182083997E+03  0.17228663167E+03 0.  0.
        -24    2    5    5    0    0 -0.50541518875E+02 -0.20032012942E+02  0.18818282216E+03  0.21246970552E+03  0.82309626023E+02 0.  0.
          5    1    3    3  501    0 -0.16278648588E+02  0.96239014683E+02 -0.52881037472E+02  0.11111001967E+03  0.47000000000E+01 0. -1.
        -11    1    4    4    0    0  0.55632462831E+02  0.29020000460E+02 -0.37365708005E+02  0.73029634274E+02  0.00000000000E+00 0.  1.
         12    1    4    4    0    0  0.82983737784E+01 -0.21981496774E+02 -0.76806738303E+02  0.80320136059E+02  0.00000000000E+00 0. -1.
         -5    1    5    5    0  502  0.28893308531E+01 -0.83245505427E+02  0.31990198812E+02  0.89351134445E+02  0.47000000000E+01 0.  1.
         11    1    6    6    0    0 -0.13653028188E+02  0.26107510687E+01 -0.47897627342E+01  0.14702483698E+02  0.00000000000E+00 0. -1.
        -12    1    6    6    0    0 -0.36888490687E+02 -0.22642764010E+02  0.19297258490E+03  0.19776722183E+03  0.00000000000E+00 0.  1.
</event>
<event>
12    1  0.1040325E-001  0.1803122E+03  0.7818608E-02  0.1167705E+00
         21   -1    0    0  501  502  0.00000000000E+00  0.00000000000E+00  0.28103176139E+02  0.28103176139E+02  0.00000000000E+00 0. -1.
         21   -1    0    0  502  503 -0.00000000000E+00 -0.00000000000E+00 -0.17509566119E+04  0.17509566119E+04  0.00000000000E+00 0.  1.
         -6    2    1    2    0  503  0.25050988271E+02 -0.43887548622E+02 -0.13832233462E+04  0.13949262709E+04  0.17308612536E+03 0.  0.
        -24    2    3    3    0    0  0.48893935478E+02  0.18402985748E+02 -0.10881188935E+04  0.10923418615E+04  0.80490553273E+02 0.  0.
          6    2    1    2  501    0 -0.25050988271E+02  0.43887548622E+02 -0.33963008954E+03  0.38413351713E+03  0.17221002389E+03 0.  0.
         24    2    5    5    0    0 -0.81539424674E+02  0.30770807908E+02 -0.19531542562E+03  0.22853208862E+03  0.80518815482E+02 0.  0.
          5    1    5    5  501    0  0.56488436404E+02  0.13116740714E+02 -0.14431466392E+03  0.15560142852E+03  0.47000000000E+01 0. -1.
        -13    1    6    6    0    0 -0.44560452135E+02  0.15335097853E+02 -0.17928207504E+03  0.18537222432E+03  0.00000000000E+00 0.  1.
         14    1    6    6    0    0 -0.36978972539E+02  0.15435710055E+02 -0.16033350584E+02  0.43159864294E+02  0.00000000000E+00 0. -1.
         -5    1    3    3    0  503 -0.23842947207E+02 -0.62290534371E+02 -0.29510445270E+03  0.30258440939E+03  0.47000000000E+01 0.  1.
         13    1    4    4    0    0 -0.55523335792E+01  0.37453694079E+02 -0.48166064392E+03  0.48314654455E+03  0.00000000000E+00 0. -1.
        -14    1    4    4    0    0  0.54446269057E+02 -0.19050708331E+02 -0.60645824960E+03  0.60919531696E+03  0.00000000000E+00 0.  1.
</event>
<event>
12    1  0.1040325E-001  0.2176716E+03  0.7818608E-02  0.1135888E+00
         21   -1    0    0  503  502  0.00000000000E+00  0.00000000000E+00  0.44120107684E+03  0.44120107684E+03  0.00000000000E+00 0. -1.
         21   -1    0    0  501  503 -0.00000000000E+00 -0.00000000000E+00 -0.12339414428E+03  0.12339414428E+03  0.00000000000E+00 0.  1.
          6    2    1    2  501    0 -0.28385837430E+02 -0.12651332727E+03  0.54712446916E+02  0.22312834213E+03  0.17315145818E+03 0.  0.
         24    2    3    3    0    0 -0.61990597683E+02 -0.14066247855E+03  0.64821575230E+02  0.18500009972E+03  0.79965199985E+02 0.  0.
         -6    2    1    2    0  502  0.28385837430E+02  0.12651332727E+03  0.26309448564E+03  0.34146687899E+03  0.17484148058E+03 0.  0.
        -24    2    5    5    0    0  0.52297137927E+02  0.51790189724E+02  0.23352695908E+03  0.25749291753E+03  0.79690322982E+02 0.  0.
          5    1    3    3  501    0  0.33604760253E+02  0.14149151282E+02 -0.10109128314E+02  0.38128242405E+02  0.47000000000E+01 0. -1.
        -13    1    4    4    0    0  0.14894723473E+02 -0.26301434605E+02 -0.48049084378E+01  0.30605643184E+02  0.00000000000E+00 0.  1.
         14    1    4    4    0    0 -0.76885321156E+02 -0.11436104395E+03  0.69626483668E+02  0.15439445654E+03  0.00000000000E+00 0. -1.
         -5    1    5    5    0  502 -0.23911300497E+02  0.74723137545E+02  0.29567526563E+02  0.83973961459E+02  0.47000000000E+01 0.  1.
         13    1    6    6    0    0  0.68105810790E+02  0.54403072381E+02  0.15962866980E+03  0.18187745316E+03  0.00000000000E+00 0. -1.
        -14    1    6    6    0    0 -0.15808672863E+02 -0.26128826565E+01  0.73898289280E+02  0.75615464370E+02  0.00000000000E+00 0.  1.
</event>
<event>
12    1  0.1040325E-001  0.2371502E+03  0.7818608E-02  0.1122102E+00
         21   -1    0    0  503  502  0.00000000000E+00  0.00000000000E+00  0.49207407761E+02  0.49207407761E+02  0.00000000000E+00 0. -1.
         21   -1    0    0  501  503 -0.00000000000E+00 -0.00000000000E+00 -0.12145110619E+04  0.12145110619E+04  0.00000000000E+00 0. -1.
          6    2    1    2  501    0 -0.14010123114E+03  0.80910064266E+02 -0.75030903218E+03  0.78689507514E+03  0.17339383507E+03 0.  0.
         24    2    3    3    0    0 -0.16371395873E+02  0.20443781661E+02 -0.15608949992E+03  0.17690803758E+03  0.79035124877E+02 0.  0.
         -6    2    1    2    0  502  0.14010123114E+03 -0.80910064266E+02 -0.41499462199E+03  0.47682339455E+03  0.17019171497E+03 0.  0.
        -24    2    5    5    0    0  0.15889673311E+03 -0.79548644951E+02 -0.41433692297E+03  0.45739025469E+03  0.77166058875E+02 0.  0.
          5    1    3    3  501    0 -0.12372983527E+03  0.60466282606E+02 -0.59421953227E+03  0.60998703756E+03  0.47000000000E+01 0. -1.
        -13    1    4    4    0    0 -0.47998945315E+02  0.10042008011E+02 -0.79695308432E+02  0.93573943287E+02  0.00000000000E+00 0.  1.
         14    1    4    4    0    0  0.31627549442E+02  0.10401773650E+02 -0.76394191485E+02  0.83334094292E+02  0.00000000000E+00 0. -1.
         -5    1    5    5    0  502 -0.18795501971E+02 -0.13614193154E+01 -0.65769901876E+00  0.19433139862E+02  0.47000000000E+01 0.  1.
         11    1    6    6    0    0  0.11022178854E+03 -0.87269963663E+02 -0.34291271151E+03  0.37061302856E+03  0.00000000000E+00 0. -1.
        -12    1    6    6    0    0  0.48674944566E+02  0.77213187117E+01 -0.71424211462E+02  0.86777226126E+02  0.00000000000E+00 0.  1.
</event>
<event>
12    1  0.1040325E-001  0.1859467E+03  0.7818608E-02  0.1162409E+00
         21   -1    0    0  503  502  0.00000000000E+00  0.00000000000E+00  0.52391196907E+03  0.52391196907E+03  0.00000000000E+00 0. -1.
         21   -1    0    0  501  503 -0.00000000000E+00 -0.00000000000E+00 -0.66598790666E+02  0.66598790666E+02  0.00000000000E+00 0.  1.
          6    2    1    2  501    0  0.43487432734E+02  0.51754001008E+02  0.26363231842E+03  0.32201780540E+03  0.17211575830E+03 0.  0.
         24    2    3    3    0    0  0.68846693281E+02  0.67897946657E+02  0.11484417512E+03  0.17015036102E+03  0.80074730469E+02 0.  0.
         -6    2    1    2    0  502 -0.43487432734E+02 -0.51754001008E+02  0.19368085998E+03  0.26849295433E+03  0.17322400981E+03 0.  0.
        -24    2    5    5    0    0 -0.62971978196E+02 -0.92375814916E+02  0.11150289407E+03  0.17465752734E+03  0.74656515131E+02 0.  0.
          5    1    3    3  501    0 -0.25359260547E+02 -0.16143945649E+02  0.14878814331E+03  0.15186744439E+03  0.47000000000E+01 0. -1.
        -11    1    4    4    0    0  0.66369080797E+02  0.61207748212E+02  0.12713964126E+03  0.15593502399E+03  0.00000000000E+00 0.  1.
         12    1    4    4    0    0  0.24776124839E+01  0.66901984450E+01 -0.12295466148E+02  0.14215337022E+02  0.00000000000E+00 0. -1.
         -5    1    5    5    0  502  0.19484545461E+02  0.40621813908E+02  0.82177965915E+02  0.93835426993E+02  0.47000000000E+01 0.  1.
         13    1    6    6    0    0 -0.73781290000E+02 -0.50233837322E+02  0.87387740691E+02  0.12491490859E+03  0.00000000000E+00 0. -1.
        -14    1    6    6    0    0  0.10809311804E+02 -0.42141977594E+02  0.24115153376E+02  0.49742618744E+02  0.00000000000E+00 0.  1.
</event>
<event>
12    1  0.1040325E-001  0.1995541E+03  0.7818608E-02  0.1152687E+00
         21   -1    0    0  501  502  0.00000000000E+00  0.00000000000E+00  0.49885333618E+03  0.49885333618E+03  0.00000000000E+00 0. -1.
         21   -1    0    0  502  503 -0.00000000000E+00 -0.00000000000E+00 -0.82953083055E+02  0.82953083055E+02  0.00000000000E+00 0. -1.
         -6    2    1    2    0  503  0.69017589161E+02 -0.50218015116E+02  0.29118255735E+03  0.34648462075E+03  0.16726934583E+03 0.  0.
        -24    2    3    3    0    0  0.56460484391E+02 -0.37305049200E+02  0.30642343817E+03  0.32242635778E+03  0.74053897519E+02 0.  0.
          6    2    1    2  501    0 -0.69017589161E+02  0.50218015116E+02  0.12471769577E+03  0.23532179849E+03  0.18037895816E+03 0.  0.
         24    2    5    5    0    0 -0.11272380728E+03  0.34525907644E+02  0.12334191539E+03  0.18862641851E+03  0.80423893471E+02 0.  0.
          5    1    5    5  501    0  0.43706218122E+02  0.15692107472E+02  0.13757803823E+01  0.46695379976E+02  0.47000000000E+01 0. -1.
        -13    1    6    6    0    0 -0.56759074973E+02 -0.16851657305E+01  0.10519473913E+03  0.11954231684E+03  0.00000000000E+00 0.  1.
         14    1    6    6    0    0 -0.55964732310E+02  0.36211073375E+02  0.18147176264E+02  0.69084101672E+02  0.00000000000E+00 0. -1.
         -5    1    3    3    0  503  0.12557104770E+02 -0.12912965916E+02 -0.15240880818E+02  0.24058262968E+02  0.47000000000E+01 0.  1.
         11    1    4    4    0    0  0.27741974180E+02 -0.35983146905E+02  0.65049292579E+02  0.79346168513E+02  0.00000000000E+00 0. -1.
        -12    1    4    4    0    0  0.28718510211E+02 -0.13219022948E+01  0.24137414559E+03  0.24308018927E+03  0.00000000000E+00 0.  1.
</event>
<event>
12    1  0.1040325E-001  0.2232221E+03  0.7818608E-02  0.1131811E+00
         21   -1    0    0  501  502  0.00000000000E+00  0.00000000000E+00  0.15206884542E+03  0.15206884542E+03  0.00000000000E+00 0. -1.
         21   -1    0    0  502  503 -0.00000000000E+00 -0.00000000000E+00 -0.42696859281E+03  0.42696859281E+03  0.00000000000E+00 0.  1.
         -6    2    1    2    0  503 -0.14003253757E+03 -0.13668303234E+02 -0.27917713818E+03  0.35744644973E+03  0.17329788182E+03 0.  0.
        -24    2    3    3    0    0 -0.49006370118E+01  0.62108633678E+01 -0.49296563595E+02  0.90008643148E+02  0.74892012873E+02 0.  0.
          6    2    1    2  501    0  0.14003253757E+03  0.13668303234E+02  0.42773907927E+01  0.22159098850E+03  0.17113835345E+03 0.  0.
         24    2    5    5    0    0  0.11620378213E+03  0.27538527532E+02 -0.56786447300E+02  0.15442645150E+03  0.79756747967E+02 0.  0.
          5    1    5    5  501    0  0.23828755439E+02 -0.13870224299E+02  0.61063838092E+02  0.67164537000E+02  0.47000000000E+01 0. -1.
        -13    1    6    6    0    0  0.10913856963E+03  0.43938207449E+02 -0.28629270904E+02  0.12108438630E+03  0.00000000000E+00 0.  1.
         14    1    6    6    0    0  0.70652125055E+01 -0.16399679917E+02 -0.28157176396E+02  0.33342065199E+02  0.00000000000E+00 0. -1.
         -5    1    3    3    0  503 -0.13513190056E+03 -0.19879166602E+02 -0.22988057459E+03  0.26743780658E+03  0.47000000000E+01 0.  1.
         11    1    4    4    0    0 -0.23623100113E+02  0.82536334823E+01  0.10633409752E+02  0.27189018510E+02  0.00000000000E+00 0. -1.
        -12    1    4    4    0    0  0.18722463101E+02 -0.20427701144E+01 -0.59929973347E+02  0.62819624638E+02  0.00000000000E+00 0.  1.
</event>
<event>
12    1  0.1040325E-001  0.2288650E+03  0.7818608E-02  0.1128046E+00
         21   -1    0    0  501  502  0.00000000000E+00  0.00000000000E+00  0.32358777543E+03  0.32358777543E+03  0.00000000000E+00 0. -1.
         21   -1    0    0  502  503 -0.00000000000E+00 -0.00000000000E+00 -0.37123193904E+03  0.37123193904E+03  0.00000000000E+00 0. -1.
         -6    2    1    2    0  503  0.14683720767E+03  0.33448703075E+02 -0.28627629327E+03  0.36651510600E+03  0.17233463246E+03 0.  0.
        -24    2    3    3    0    0  0.14898088665E+03  0.55867901234E+02 -0.29298227338E+03  0.34255105011E+03  0.78651652470E+02 0.  0.
          6    2    1    2  501    0 -0.14683720767E+03 -0.33448703075E+02  0.23863212966E+03  0.32830460847E+03  0.16780536744E+03 0.  0.
         24    2    5    5    0    0 -0.22830394862E+02 -0.12560189927E+02  0.15849867641E+03  0.17911519887E+03  0.79255528164E+02 0.  0.
          5    1    5    5  501    0 -0.12400681281E+03 -0.20888513149E+02  0.80133453251E+02  0.14918940960E+03  0.47000000000E+01 0. -1.
        -13    1    6    6    0    0 -0.49461216300E+02  0.57229745043E+01  0.11119880298E+03  0.12183734296E+03  0.00000000000E+00 0.  1.
         14    1    6    6    0    0  0.26630821438E+02 -0.18283164431E+02  0.47299873428E+02  0.57277855917E+02  0.00000000000E+00 0. -1.
         -5    1    3    3    0  503 -0.21436789756E+01 -0.22419198159E+02  0.67059801177E+01  0.23964055896E+02  0.47000000000E+01 0.  1.
         13    1    4    4    0    0  0.53771369804E+02 -0.16482889413E+02 -0.72819631833E+02  0.92009481220E+02  0.00000000000E+00 0. -1.
        -14    1    4    4    0    0  0.95209516846E+02  0.72350790648E+02 -0.22016264155E+03  0.25054156889E+03  0.00000000000E+00 0.  1.
</event>
<event>
12    1  0.1040325E-001  0.2445105E+03  0.7818608E-02  0.1117273E+00
         21   -1    0    0  501  502  0.00000000000E+00  0.00000000000E+00  0.18021999752E+04  0.18021999752E+04  0.00000000000E+00 0.  1.
         21   -1    0    0  502  503 -0.00000000000E+00 -0.00000000000E+00 -0.44894501843E+02  0.44894501843E+02  0.00000000000E+00 0.  1.
         -6    2    1    2    0  503 -0.10595606878E+03 -0.13819573065E+03  0.40297107801E+03  0.47135025574E+03  0.17164097817E+03 0.  0.
        -24    2    3    3    0    0 -0.86691633572E+02 -0.16583481287E+03  0.29822727389E+03  0.36122127758E+03  0.80775491267E+02 0.  0.
          6    2    1    2  501    0  0.10595606878E+03  0.13819573065E+03  0.13543343953E+04  0.13757442213E+04  0.16770736287E+03 0.  0.
         24    2    5    5    0    0  0.14921016539E+02  0.57553318183E+02  0.89865790960E+03  0.90409421432E+03  0.79153576790E+02 0.  0.
          5    1    5    5  501    0  0.91035052237E+02  0.80642412472E+02  0.45567648572E+03  0.47165000696E+03  0.47000000000E+01 0. -1.
        -11    1    6    6    0    0  0.31970843486E+02  0.59692487682E+02  0.84595337785E+03  0.84865920452E+03  0.00000000000E+00 0.  1.
         12    1    6    6    0    0 -0.17049826947E+02 -0.21391694993E+01  0.52704531750E+02  0.55435009805E+02  0.00000000000E+00 0. -1.
         -5    1    3    3    0  503 -0.19264435205E+02  0.27639082213E+02  0.10474380412E+03  0.11012897816E+03  0.47000000000E+01 0.  1.
         11    1    4    4    0    0  0.11350673053E+02 -0.23902009110E+02  0.17481675336E+02  0.31713605768E+02  0.00000000000E+00 0. -1.
        -12    1    4    4    0    0 -0.98042306625E+02 -0.14193280376E+03  0.28074559856E+03  0.32950767181E+03  0.00000000000E+00 0.  1.
</event>
<event>
12    1  0.1040325E-001  0.1930144E+03  0.7818608E-02  0.1156431E+00
         21   -1    0    0  501  502  0.00000000000E+00  0.00000000000E+00  0.12730533391E+03  0.12730533391E+03  0.00000000000E+00 0.  1.
         21   -1    0    0  502  503 -0.00000000000E+00 -0.00000000000E+00 -0.30053030809E+03  0.30053030809E+03  0.00000000000E+00 0.  1.
         -6    2    1    2    0  503  0.43303031541E+02 -0.74189659542E+02 -0.43853734622E+02  0.19793355792E+03  0.17284468516E+03 0.  0.
        -24    2    3    3    0    0  0.59485338670E+02  0.29273945466E+00 -0.64161614555E+02  0.11891460569E+03  0.80531853642E+02 0.  0.
          6    2    1    2  501    0 -0.43303031541E+02  0.74189659542E+02 -0.12937123956E+03  0.22990208408E+03  0.16952519729E+03 0.  0.
         24    2    5    5    0    0 -0.10428203043E+02  0.10399135248E+03 -0.53078337779E+02  0.14151887237E+03  0.79292701353E+02 0.  0.
          5    1    5    5  501    0 -0.32874828498E+02 -0.29801692933E+02 -0.76292901777E+02  0.88383211709E+02  0.47000000000E+01 0. -1.
        -11    1    6    6    0    0 -0.38431639094E+02  0.23796991277E+02 -0.10080609149E+02  0.46313133754E+02  0.00000000000E+00 0.  1.
         12    1    6    6    0    0  0.28003436051E+02  0.80194361198E+02 -0.42997728630E+02  0.95205738619E+02  0.00000000000E+00 0. -1.
         -5    1    3    3    0  503 -0.16182307129E+02 -0.74482398996E+02  0.20307879933E+02  0.79018952231E+02  0.47000000000E+01 0.  1.
         11    1    4    4    0    0  0.29240774730E+01  0.32996068504E+02 -0.32137692323E+02  0.46153245104E+02  0.00000000000E+00 0. -1.
        -12    1    4    4    0    0  0.56561261197E+02 -0.32703329050E+02 -0.32023922232E+02  0.72761360586E+02  0.00000000000E+00 0.  1.
</event>
<event>
12    1  0.1040325E-001  0.2090139E+03  0.7818608E-02  0.1143144E+00
         21   -1    0    0  503  502  0.00000000000E+00  0.00000000000E+00  0.18242626579E+03  0.18242626579E+03  0.00000000000E+00 0.  1.
         21   -1    0    0  501  503 -0.00000000000E+00 -0.00000000000E+00 -0.35766566071E+03  0.35766566071E+03  0.00000000000E+00 0.  1.
          6    2    1    2  501    0  0.98644623519E+02  0.69944573998E+02 -0.24632669018E+03  0.32305366117E+03  0.17048115591E+03 0.  0.
         24    2    3    3    0    0 -0.12912081180E+01  0.46236207661E+01 -0.15261268036E+03  0.17120372533E+03  0.77440559626E+02 0.  0.
         -6    2    1    2    0  502 -0.98644623519E+02 -0.69944573998E+02  0.71087295264E+02  0.21703826533E+03  0.16561763158E+03 0.  0.
        -24    2    5    5    0    0 -0.48996989976E+01 -0.10798772326E+00 -0.13919387994E+01  0.79413452792E+02  0.79249859805E+02 0.  0.
          5    1    3    3  501    0  0.99935831637E+02  0.65320953232E+02 -0.93714009826E+02  0.15184993584E+03  0.47000000000E+01 0. -1.
        -11    1    4    4    0    0 -0.18952028798E+02  0.36488342188E+02 -0.83685959154E+02  0.93241183340E+02  0.00000000000E+00 0.  1.
         12    1    4    4    0    0  0.17660820680E+02 -0.31864721422E+02 -0.68926721203E+02  0.77962541994E+02  0.00000000000E+00 0. -1.
         -5    1    5    5    0  502 -0.93744924522E+02 -0.69836586274E+02  0.72479234063E+02  0.13762481254E+03  0.47000000000E+01 0.  1.
         13    1    6    6    0    0 -0.28709015554E+02  0.22427077892E+02  0.18714172285E+02  0.40956094066E+02  0.00000000000E+00 0. -1.
        -14    1    6    6    0    0  0.23809316557E+02 -0.22535065615E+02 -0.20106111084E+02  0.38457358725E+02  0.00000000000E+00 0.  1.
</event>
<event>
12    1  0.1040325E-001  0.3942550E+03  0.7818608E-02  0.1045842E+00
         21   -1    0    0  501  502  0.00000000000E+00  0.00000000000E+00  0.79537001692E+03  0.79537001692E+03  0.00000000000E+00 0.  1.
         21   -1    0    0  502  503 -0.00000000000E+00 -0.00000000000E+00 -0.27103740495E+03  0.27103740495E+03  0.00000000000E+00 0. -1.
         -6    2    1    2    0  503  0.31264497308E+03  0.16697985623E+03 -0.20178698725E+02  0.39415032459E+03  0.17122542718E+03 0.  0.
        -24    2    3    3    0    0  0.89314081955E+02  0.11553016308E+02 -0.20064820077E+02  0.12201746647E+03  0.79844772516E+02 0.  0.
          6    2    1    2  501    0 -0.31264497308E+03 -0.16697985623E+03  0.54451131069E+03  0.67225709728E+03  0.17264960413E+03 0.  0.
         24    2    5    5    0    0 -0.61365955508E+02 -0.17565644861E+02  0.12447905197E+03  0.16048083798E+03  0.78643070914E+02 0.  0.
          5    1    5    5  501    0 -0.25127901757E+03 -0.14941421137E+03  0.42003225872E+03  0.51177625931E+03  0.47000000000E+01 0. -1.
        -13    1    6    6    0    0 -0.16798887839E+02 -0.29293700282E+02  0.10526949777E+03  0.11055311244E+03  0.00000000000E+00 0.  1.
         14    1    6    6    0    0 -0.44567067669E+02  0.11728055422E+02  0.19209554199E+02  0.49927725535E+02  0.00000000000E+00 0. -1.
         -5    1    3    3    0  503  0.22333089112E+03  0.15542683992E+03 -0.11387864803E+00  0.27213285812E+03  0.47000000000E+01 0.  1.
         13    1    4    4    0    0 -0.13582952690E+02  0.37439284203E+01 -0.12004810999E+02  0.18510242865E+02  0.00000000000E+00 0. -1.
        -14    1    4    4    0    0  0.10289703465E+03  0.78090878879E+01 -0.80600090780E+01  0.10350722361E+03  0.00000000000E+00 0.  1.
</event>
<event>
12    1  0.1040325E-001  0.1883413E+03  0.7818608E-02  0.1160301E+00
         21   -1    0    0  503  502  0.00000000000E+00  0.00000000000E+00  0.48963421415E+03  0.48963421415E+03  0.00000000000E+00 0. -1.
         21   -1    0    0  501  503 -0.00000000000E+00 -0.00000000000E+00 -0.71893324471E+02  0.71893324471E+02  0.00000000000E+00 0. -1.
          6    2    1    2  501    0 -0.22595197691E+02 -0.69161812473E+02  0.20515118062E+03  0.27750845955E+03  0.17213378213E+03 0.  0.
         24    2    3    3    0    0  0.30699815876E+01  0.16164927313E+02  0.12922905097E+03  0.16035209515E+03  0.93498219989E+02 0.  0.
         -6    2    1    2    0  502  0.22595197691E+02  0.69161812473E+02  0.21258970906E+03  0.28401907907E+03  0.17371975597E+03 0.  0.
        -24    2    5    5    0    0 -0.57482522510E+02  0.18140094760E+02  0.65645479160E+02  0.10900378359E+03  0.62762986469E+02 0.  0.
          5    1    3    3  501    0 -0.25665179279E+02 -0.85326739786E+02  0.75922129644E+02  0.11715636440E+03  0.47000000000E+01 0. -1.
        -11    1    4    4    0    0 -0.17541984113E+02  0.26086397582E+02  0.24560946452E+01  0.31531789457E+02  0.00000000000E+00 0.  1.
         12    1    4    4    0    0  0.20611965701E+02 -0.99214702688E+01  0.12677295633E+03  0.12882030569E+03  0.00000000000E+00 0. -1.
         -5    1    5    5    0  502  0.80077720201E+02  0.51021717713E+02  0.14694422990E+03  0.17501529548E+03  0.47000000000E+01 0.  1.
         11    1    6    6    0    0 -0.65743146188E+02  0.21140713489E+02  0.35590688264E+02  0.77690334847E+02  0.00000000000E+00 0. -1.
        -12    1    6    6    0    0  0.82606236778E+01 -0.30006187286E+01  0.30054790896E+02  0.31313448742E+02  0.00000000000E+00 0.  1.
</event>
<event>
12    1  0.1040325E-001  0.1965332E+03  0.7818608E-02  0.1152801E+00
         21   -1    0    0  503  502  0.00000000000E+00  0.00000000000E+00  0.10187405250E+03  0.10187405250E+03  0.00000000000E+00 0.  1.
         21   -1    0    0  501  503 -0.00000000000E+00 -0.00000000000E+00 -0.73845471429E+03  0.73845471429E+03  0.00000000000E+00 0.  1.
          6    2    1    2  501    0  0.81510625190E+02 -0.44824019785E+02 -0.61194945387E+03  0.64273434030E+03  0.17312458905E+03 0.  0.
         24    2    3    3    0    0  0.53169917641E+01 -0.64434912884E+02 -0.46287947720E+03  0.47411048419E+03  0.79644286718E+02 0.  0.
         -6    2    1    2    0  502 -0.81510625190E+02  0.44824019785E+02 -0.24631207908E+02  0.19759442649E+03  0.17257950692E+03 0.  0.
        -24    2    5    5    0    0 -0.88749266187E+02  0.86801276830E+02 -0.39151788470E+02  0.15234594263E+03  0.79155099559E+02 0.  0.
          5    1    3    3  501    0  0.76193633426E+02  0.19610893098E+02 -0.14906997668E+03  0.16862385611E+03  0.47000000000E+01 0. -1.
        -11    1    4    4    0    0  0.21728322911E+02 -0.58359028632E+02 -0.44408585872E+03  0.44843075960E+03  0.00000000000E+00 0.  1.
         12    1    4    4    0    0 -0.16411331147E+02 -0.60758842518E+01 -0.18793618474E+02  0.25679724586E+02  0.00000000000E+00 0. -1.
         -5    1    5    5    0  502  0.72386409966E+01 -0.41977257044E+02  0.14520580562E+02  0.45248483867E+02  0.47000000000E+01 0.  1.
         11    1    6    6    0    0 -0.29694276367E+02  0.15371445955E+02 -0.48808687013E+02  0.59163496581E+02  0.00000000000E+00 0. -1.
        -12    1    6    6    0    0 -0.59054989820E+02  0.71429830875E+02  0.96568985433E+01  0.93182446045E+02  0.00000000000E+00 0.  1.
</event>
<event>
12    1  0.1040325E-001  0.2379923E+03  0.7818608E-02  0.1121232E+00
         21   -1    0    0  503  502  0.00000000000E+00  0.00000000000E+00  0.26963959492E+04  0.26963959492E+04  0.00000000000E+00 0.  1.
         21   -1    0    0  501  503 -0.00000000000E+00 -0.00000000000E+00 -0.58936089454E+02  0.58936089454E+02  0.00000000000E+00 0.  1.
          6    2    1    2  501    0  0.10187065102E+03 -0.12828719142E+03  0.21335121273E+03  0.31962335221E+03  0.17264157751E+03 0.  0.
         24    2    3    3    0    0 -0.11095610185E+02 -0.66301454070E+02  0.62605796945E+02  0.12125531501E+03  0.79147774631E+02 0.  0.
         -6    2    1    2    0  502 -0.10187065102E+03  0.12828719142E+03  0.24241086471E+04  0.24357086865E+04  0.17186866975E+03 0.  0.
        -24    2    5    5    0    0 -0.31746783897E+02  0.64271608614E+02  0.19012881535E+04  0.19043155081E+04  0.79888758047E+02 0.  0.
          5    1    3    3  501    0  0.11296626121E+03 -0.61985737345E+02  0.15074541578E+03  0.19836803721E+03  0.47000000000E+01 0. -1.
        -13    1    4    4    0    0  0.54162080496E+01 -0.56320591157E+02  0.78147747376E+02  0.96480126025E+02  0.00000000000E+00 0.  1.
         14    1    4    4    0    0 -0.16511818235E+02 -0.99808629129E+01 -0.15541950430E+02  0.24775188982E+02  0.00000000000E+00 0. -1.
         -5    1    5    5    0  502 -0.70123867126E+02  0.64015582801E+02  0.52282049356E+03  0.53139317841E+03  0.47000000000E+01 0.  1.
         13    1    6    6    0    0 -0.86773198291E+01  0.39784715916E+02  0.30894032776E+03  0.31161233226E+03  0.00000000000E+00 0. -1.
        -14    1    6    6    0    0 -0.23069464068E+02  0.24486892698E+02  0.15923478257E+04  0.15927031758E+04  0.00000000000E+00 0.  1.
</event>
<event>
12    1  0.1040325E-001  0.3238228E+03  0.7818608E-02  0.1073941E+00
         21   -1    0    0  503  502  0.00000000000E+00  0.00000000000E+00  0.43389244308E+03  0.43389244308E+03  0.00000000000E+00 0.  1.
         21   -1    0    0  501  503 -0.00000000000E+00 -0.00000000000E+00 -0.27511259621E+03  0.27511259621E+03  0.00000000000E+00 0. -1.
          6    2    1    2  501    0  0.11980483365E+03 -0.24773313410E+03  0.20340218397E+03  0.38212226649E+03  0.17005903153E+03 0.  0.
         24    2    3    3    0    0  0.10987404002E+03 -0.26258427808E+03  0.16279219021E+03  0.33750793322E+03  0.79921837022E+02 0.  0.
         -6    2    1    2    0  502 -0.11980483365E+03  0.24773313410E+03 -0.44622337088E+02  0.32688277280E+03  0.17069355667E+03 0.  0.
        -24    2    5    5    0    0 -0.17969877952E+02  0.85718223981E+02  0.29558543758E+02  0.12159253342E+03  0.78996874858E+02 0.  0.
          5    1    3    3  501    0  0.99307936368E+01  0.14851143975E+02  0.40609993757E+02  0.44614333264E+02  0.47000000000E+01 0. -1.
        -11    1    4    4    0    0  0.50841699817E+02 -0.70457796117E+02  0.86276160635E+02  0.12244490748E+03  0.00000000000E+00 0.  1.
         12    1    4    4    0    0  0.59032340198E+02 -0.19212648196E+03  0.76516029573E+02  0.21506302574E+03  0.00000000000E+00 0. -1.
         -5    1    5    5    0  502 -0.10183495570E+03  0.16201491012E+03 -0.74180880846E+02  0.20529023939E+03  0.47000000000E+01 0.  1.
         13    1    6    6    0    0 -0.29350497432E+02 -0.16382909562E+01  0.28291571584E+01  0.29532013595E+02  0.00000000000E+00 0. -1.
        -14    1    6    6    0    0  0.11380619480E+02  0.87356514937E+02  0.26729386599E+02  0.92060519820E+02  0.00000000000E+00 0.  1.
</event>
<event>
12    1  0.1040325E-001  0.1965286E+03  0.7818608E-02  0.1152906E+00
         21   -1    0    0  501  502  0.00000000000E+00  0.00000000000E+00  0.84547053102E+02  0.84547053102E+02  0.00000000000E+00 0. -1.
         21   -1    0    0  502  503 -0.00000000000E+00 -0.00000000000E+00 -0.63142948166E+03  0.63142948166E+03  0.00000000000E+00 0.  1.
         -6    2    1    2    0  503 -0.90041964559E+02 -0.20735384809E+02 -0.46334743561E+03  0.50330341358E+03  0.17345307284E+03 0.  0.
        -24    2    3    3    0    0 -0.62972551085E+02  0.46334754812E+02 -0.37014817007E+03  0.38523838967E+03  0.72708303359E+02 0.  0.
          6    2    1    2  501    0  0.90041964559E+02  0.20735384809E+02 -0.83534992952E+02  0.21267312118E+03  0.17237821747E+03 0.  0.
         24    2    5    5    0    0  0.10976303111E+03 -0.99931643267E+01 -0.10255264955E+03  0.17123732192E+03  0.81592819256E+02 0.  0.
          5    1    5    5  501    0 -0.19721066553E+02  0.30728549136E+02  0.19017656601E+02  0.41435799263E+02  0.47000000000E+01 0. -1.
        -13    1    6    6    0    0 -0.54051963708E+01 -0.19015425163E+02 -0.25965983766E+02  0.32634871761E+02  0.00000000000E+00 0.  1.
         14    1    6    6    0    0  0.11516822748E+03  0.90222608367E+01 -0.76586665788E+02  0.13860245015E+03  0.00000000000E+00 0. -1.
         -5    1    3    3    0  503 -0.27069413475E+02 -0.67070139621E+02 -0.93199265540E+02  0.11806502391E+03  0.47000000000E+01 0.  1.
         13    1    4    4    0    0 -0.32583878221E+01 -0.91581907491E+01 -0.46788162647E+01  0.10787996600E+02  0.00000000000E+00 0. -1.
        -14    1    4    4    0    0 -0.59714163263E+02  0.55492945561E+02 -0.36546935380E+03  0.37445039307E+03  0.00000000000E+00 0.  1.
</event>
<event>
12    1  0.1040325E-001  0.1777381E+03  0.7818608E-02  0.1170230E+00
         21   -1    0    0  501  502  0.00000000000E+00  0.00000000000E+00  0.17648101548E+03  0.17648101548E+03  0.00000000000E+00 0.  1.
         21   -1    0    0  502  503 -0.00000000000E+00 -0.00000000000E+00 -0.26756963025E+03  0.26756963025E+03  0.00000000000E+00 0.  1.
         -6    2    1    2    0  503 -0.35062487485E+02  0.20737257420E+02 -0.17400265585E+03  0.24873227419E+03  0.17300695970E+03 0.  0.
        -24    2    3    3    0    0 -0.59124521175E+02  0.36111303438E+02 -0.41942861600E+02  0.11353899768E+03  0.79574902540E+02 0.  0.
          6    2    1    2  501    0  0.35062487485E+02 -0.20737257420E+02  0.82914041081E+02  0.19531837155E+03  0.17209043025E+03 0.  0.
         24    2    5    5    0    0 -0.39746049721E+02  0.15366512043E+02  0.24947104994E+02  0.93917902678E+02  0.79889525190E+02 0.  0.
          5    1    5    5  501    0  0.74808537205E+02 -0.36103769463E+02  0.57966936086E+02  0.10140046887E+03  0.47000000000E+01 0. -1.
        -11    1    6    6    0    0 -0.63873651538E+01 -0.14553938500E+01  0.49031704596E+02  0.49467410084E+02  0.00000000000E+00 0.  1.
         12    1    6    6    0    0 -0.33358684567E+02  0.16821905893E+02 -0.24084599601E+02  0.44450492594E+02  0.00000000000E+00 0. -1.
         -5    1    3    3    0  503  0.24062033690E+02 -0.15374046018E+02 -0.13205979425E+03  0.13519327651E+03  0.47000000000E+01 0.  1.
         13    1    4    4    0    0 -0.41494738072E+02 -0.18321966526E+02 -0.54762505380E+01  0.45689135087E+02  0.00000000000E+00 0. -1.
        -14    1    4    4    0    0 -0.17629783103E+02  0.54433269964E+02 -0.36466611062E+02  0.67849862591E+02  0.00000000000E+00 0.  1.
</event>
<event>
12    1  0.1040325E-001  0.2392971E+03  0.7818608E-02  0.1120586E+00
         21   -1    0    0  501  502  0.00000000000E+00  0.00000000000E+00  0.26187477888E+04  0.26187477888E+04  0.00000000000E+00 0.  1.
         21   -1    0    0  502  503 -0.00000000000E+00 -0.00000000000E+00 -0.39014532402E+02  0.39014532402E+02  0.00000000000E+00 0. -1.
         -6    2    1    2    0  503 -0.12992795915E+03  0.10579749865E+03  0.40725902693E+03  0.47235899642E+03  0.17084706960E+03 0.  0.
        -24    2    3    3    0    0 -0.12377584664E+03  0.60759827516E+02  0.18373750823E+03  0.24421386797E+03  0.82877768618E+02 0.  0.
          6    2    1    2  501    0  0.12992795915E+03 -0.10579749865E+03  0.21724742295E+04  0.21854033248E+04  0.16813396138E+03 0.  0.
         24    2    5    5    0    0  0.12999332269E+03 -0.53313583511E+02  0.19522303893E+04  0.19589436049E+04  0.80721446512E+02 0.  0.
          5    1    5    5  501    0 -0.65363537163E-01 -0.52483915144E+02  0.22024384016E+03  0.22645971993E+03  0.47000000000E+01 0. -1.
        -13    1    6    6    0    0  0.26453227567E+02  0.36999338328E+01  0.84499992505E+03  0.84542198699E+03  0.00000000000E+00 0.  1.
         14    1    6    6    0    0  0.10354009512E+03 -0.57013517344E+02  0.11072304643E+04  0.11135216179E+04  0.00000000000E+00 0. -1.
         -5    1    3    3    0  503 -0.61521125165E+01  0.45037671139E+02  0.22352151871E+03  0.22814512845E+03  0.47000000000E+01 0.  1.
         11    1    4    4    0    0 -0.11069958960E+02  0.22411252495E+02 -0.33365998749E+00  0.24998391124E+02  0.00000000000E+00 0. -1.
        -12    1    4    4    0    0 -0.11270588768E+03  0.38348575020E+02  0.18407116821E+03  0.21921547685E+03  0.00000000000E+00 0.  1.
</event>
<event>
12    1  0.1040325E-001  0.2453336E+03  0.7818608E-02  0.1116301E+00
         21   -1    0    0  503  502  0.00000000000E+00  0.00000000000E+00  0.39839708578E+03  0.39839708578E+03  0.00000000000E+00 0. -1.
         21   -1    0    0  501  503 -0.00000000000E+00 -0.00000000000E+00 -0.23478671580E+03  0.23478671580E+03  0.00000000000E+00 0. -1.
          6    2    1    2  501    0  0.15842187616E+03  0.74452429138E+02 -0.10728867595E+03  0.26770487704E+03  0.17179751499E+03 0.  0.
         24    2    3    3    0    0  0.27324336614E+02  0.76293636129E+02 -0.69146424851E+02  0.13107809989E+03  0.76373437234E+02 0.  0.
         -6    2    1    2    0  502 -0.15842187616E+03 -0.74452429138E+02  0.27089904593E+03  0.36547892453E+03  0.17189501488E+03 0.  0.
        -24    2    5    5    0    0 -0.77825643415E+02 -0.92573369333E+02  0.23369700802E+03  0.27475845920E+03  0.79064909154E+02 0.  0.
          5    1    3    3  501    0  0.13109753954E+03 -0.18412069902E+01 -0.38142251101E+02  0.13662677716E+03  0.47000000000E+01 0. -1.
        -11    1    4    4    0    0 -0.21470496523E+02  0.10523017947E+02 -0.22161000338E-01  0.23910596370E+02  0.00000000000E+00 0.  1.
         12    1    4    4    0    0  0.48794833137E+02  0.65770618182E+02 -0.69124263851E+02  0.10716750352E+03  0.00000000000E+00 0. -1.
         -5    1    5    5    0  502 -0.80596232741E+02  0.18120940194E+02  0.37202037910E+02  0.90720465333E+02  0.47000000000E+01 0.  1.
         11    1    6    6    0    0 -0.19763120940E+02 -0.39027642577E+02  0.22329202196E+02  0.49115487426E+02  0.00000000000E+00 0. -1.
        -12    1    6    6    0    0 -0.58062522475E+02 -0.53545726755E+02  0.21136780582E+03  0.22564297177E+03  0.00000000000E+00 0.  1.
</event>
<event>
12    1  0.1040325E-001  0.2543018E+03  0.7818608E-02  0.1110731E+00
         21   -1    0    0  503  502  0.00000000000E+00  0.00000000000E+00  0.43319707075E+02  0.43319707075E+02  0.00000000000E+00 0.  1.
         21   -1    0    0  501  503 -0.00000000000E+00 -0.00000000000E+00 -0.15374167425E+04  0.15374167425E+04  0.00000000000E+00 0. -1.
          6    2    1    2  501    0  0.10974759973E+03 -0.15039108805E+03 -0.88700772968E+03  0.92253676421E+03  0.17213179195E+03 0.  0.
         24    2    3    3    0    0  0.65028554681E+01 -0.12137935063E+02 -0.27081993441E+03  0.28262825468E+03  0.79659756931E+02 0.  0.
         -6    2    1    2    0  502 -0.10974759973E+03  0.15039108805E+03 -0.60708930579E+03  0.65819968541E+03  0.17322640000E+03 0.  0.
        -24    2    5    5    0    0 -0.78401484700E+02  0.90045756828E+02 -0.55256514944E+03  0.57091216309E+03  0.79733446313E+02 0.  0.
          5    1    3    3  501    0  0.10324474426E+03 -0.13825315298E+03 -0.61618779527E+03  0.63990850953E+03  0.47000000000E+01 0. -1.
        -13    1    4    4    0    0  0.22962431296E+02 -0.65403266556E+01 -0.19829434839E+02  0.31036359481E+02  0.00000000000E+00 0.  1.
         14    1    4    4    0    0 -0.16459575828E+02 -0.55976084077E+01 -0.25099049957E+03  0.25159189520E+03  0.00000000000E+00 0. -1.
         -5    1    5    5    0  502 -0.31346115028E+02  0.60345331218E+02 -0.54524156351E+02  0.87287522321E+02  0.47000000000E+01 0. -1.
         11    1    6    6    0    0 -0.18838388183E+02  0.68486186136E+02 -0.39049801123E+03  0.39690545390E+03  0.00000000000E+00 0. -1.
        -12    1    6    6    0    0 -0.59563096517E+02  0.21559570692E+02 -0.16206713821E+03  0.17400670918E+03  0.00000000000E+00 0.  1.
</event>
<event>
12    1  0.1040325E-001  0.2432241E+03  0.7818608E-02  0.1118360E+00
         21   -1    0    0  503  502  0.00000000000E+00  0.00000000000E+00  0.16432321954E+03  0.16432321954E+03  0.00000000000E+00 0. -1.
         21   -1    0    0  501  503 -0.00000000000E+00 -0.00000000000E+00 -0.35648983350E+03  0.35648983350E+03  0.00000000000E+00 0.  1.
          6    2    1    2  501    0  0.13968781882E+03  0.99605595108E+02 -0.11788833264E+03  0.26649984082E+03  0.16640476219E+03 0.  0.
         24    2    3    3    0    0  0.98309910945E+02  0.11081611816E+03 -0.33124378198E+02  0.17139555564E+03  0.79587445150E+02 0.  0.
         -6    2    1    2    0  502 -0.13968781882E+03 -0.99605595108E+02 -0.74278281321E+02  0.25431321222E+03  0.17240645443E+03 0.  0.
        -24    2    5    5    0    0 -0.32179196335E+02 -0.10141540486E+03 -0.23772787890E+02  0.13542555858E+03  0.80338978418E+02 0.  0.
          5    1    3    3  501    0  0.41377907876E+02 -0.11210523056E+02 -0.84763954447E+02  0.95104285187E+02  0.47000000000E+01 0. -1.
        -13    1    4    4    0    0  0.86462685789E+02  0.93052992396E+02 -0.57121283182E+02  0.13927489515E+03  0.00000000000E+00 0.  1.
         14    1    4    4    0    0  0.11847225156E+02  0.17763125768E+02  0.23996904984E+02  0.32120660481E+02  0.00000000000E+00 0. -1.
         -5    1    5    5    0  502 -0.10750862249E+03  0.18098097564E+01 -0.50505493430E+02  0.11888765364E+03  0.47000000000E+01 0.  1.
         13    1    6    6    0    0 -0.19324650624E+02 -0.28797011082E+02  0.28617781758E+02  0.44963178287E+02  0.00000000000E+00 0. -1.
        -14    1    6    6    0    0 -0.12854545712E+02 -0.72618393782E+02 -0.52390569648E+02  0.90462380297E+02  0.00000000000E+00 0.  1.
</event>
<event>
12    1  0.1040325E-001  0.2032122E+03  0.7818608E-02  0.1147171E+00
         21   -1    0    0  503  502  0.00000000000E+00  0.00000000000E+00  0.11825255150E+03  0.11825255150E+03  0.00000000000E+00 0.  1.
         21   -1    0    0  501  503 -0.00000000000E+00 -0.00000000000E+00 -0.40536990179E+03  0.40536990179E+03  0.00000000000E+00 0. -1.
          6    2    1    2  501    0  0.10734132827E+03  0.14250992999E+01 -0.24198920640E+03  0.31599678510E+03  0.17254274983E+03 0.  0.
         24    2    3    3    0    0  0.39274688553E+02  0.58132440884E+02 -0.75796749508E+02  0.12760673027E+03  0.74942968523E+02 0.  0.
         -6    2    1    2    0  502 -0.10734132827E+03 -0.14250992999E+01 -0.45128143903E+02  0.20762566819E+03  0.17189437762E+03 0.  0.
        -24    2    5    5    0    0 -0.49731639090E+02  0.64878291293E+02 -0.33676390276E+02  0.11892251970E+03  0.79536393069E+02 0.  0.
          5    1    3    3  501    0  0.68066639712E+02 -0.56707341584E+02 -0.16619245689E+03  0.18839005483E+03  0.47000000000E+01 0. -1.
        -13    1    4    4    0    0 -0.90787054765E+01  0.66772690768E+01 -0.51829422479E+02  0.53040530258E+02  0.00000000000E+00 0.  1.
         14    1    4    4    0    0  0.48353394030E+02  0.51455171807E+02 -0.23967327028E+02  0.74566200016E+02  0.00000000000E+00 0. -1.
         -5    1    5    5    0  502 -0.57609689175E+02 -0.66303390593E+02 -0.11451753627E+02  0.88703148490E+02  0.47000000000E+01 0.  1.
         13    1    6    6    0    0 -0.32784563093E+02  0.30042741404E+02 -0.58071933925E+02  0.73141940076E+02  0.00000000000E+00 0. -1.
        -14    1    6    6    0    0 -0.16947075997E+02  0.34835549889E+02  0.24395543649E+02  0.45780579626E+02  0.00000000000E+00 0.  1.
</event>
<event>
12    1  0.1040325E-001  0.1918026E+03  0.7818608E-02  0.1156938E+00
         21   -1    0    0  503  502  0.00000000000E+00  0.00000000000E+00  0.50053766410E+03  0.50053766410E+03  0.00000000000E+00 0. -1.
         21   -1    0    0  501  503 -0.00000000000E+00 -0.00000000000E+00 -0.10031127724E+03  0.10031127724E+03  0.00000000000E+00 0.  1.
          6    2    1    2  501    0  0.82630630001E+02 -0.13810200530E+02  0.44172496564E+02  0.19642018346E+03  0.17207886670E+03 0.  0.
         24    2    3    3    0    0  0.94679829808E+02  0.97613550934E+01 -0.21186387336E+02  0.12574716771E+03  0.79397310740E+02 0.  0.
         -6    2    1    2    0  502 -0.82630630001E+02  0.13810200530E+02  0.35605389030E+03  0.40442875789E+03  0.17253899490E+03 0.  0.
        -24    2    5    5    0    0 -0.10559431602E+03 -0.34505256046E+02  0.28085479367E+03  0.31202362625E+03  0.78348937067E+02 0.  0.
          5    1    3    3  501    0 -0.12049199807E+02 -0.23571555623E+02  0.65358883900E+02  0.70673015750E+02  0.47000000000E+01 0. -1.
        -13    1    4    4    0    0  0.46444771674E+02  0.44599363779E+02 -0.90909113547E+01  0.65029721933E+02  0.00000000000E+00 0.  1.
         14    1    4    4    0    0  0.48235058133E+02 -0.34838008686E+02 -0.12095475982E+02  0.60717445776E+02  0.00000000000E+00 0. -1.
         -5    1    5    5    0  502  0.22963686024E+02  0.48315456575E+02  0.75199096627E+02  0.92405131640E+02  0.47000000000E+01 0.  1.
         11    1    6    6    0    0 -0.54534967638E+02 -0.19795723166E+02  0.23430672601E+03  0.24138263236E+03  0.00000000000E+00 0. -1.
        -12    1    6    6    0    0 -0.51059348386E+02 -0.14709532879E+02  0.46548067662E+02  0.70640993893E+02  0.00000000000E+00 0.  1.
</event>
<event>
12    1  0.1040325E-001  0.1884057E+03  0.7818608E-02  0.1159992E+00
         21   -1    0    0  501  502  0.00000000000E+00  0.00000000000E+00  0.80119624981E+02  0.80119624981E+02  0.00000000000E+00 0.  1.
         21   -1    0    0  502  503 -0.00000000000E+00 -0.00000000000E+00 -0.50006766080E+03  0.50006766080E+03  0.00000000000E+00 0. -1.
         -6    2    1    2    0  503 -0.10578149010E+02 -0.76243296535E+02 -0.30849824906E+03  0.36128600917E+03  0.17155603529E+03 0.  0.
        -24    2    3    3    0    0  0.41805051970E+02 -0.67451201061E+02 -0.27796362526E+03  0.29983884538E+03  0.79638114819E+02 0.  0.
          6    2    1    2  501    0  0.10578149010E+02  0.76243296535E+02 -0.11144978675E+03  0.21890127661E+03  0.17196446270E+03 0.  0.
         24    2    5    5    0    0 -0.13560424251E+01  0.10713327409E+03 -0.12477340085E+03  0.18289816103E+03  0.80024736673E+02 0.  0.
          5    1    5    5  501    0  0.11934191435E+02 -0.30889977556E+02  0.13323614100E+02  0.36003115578E+02  0.47000000000E+01 0. -1.
        -11    1    6    6    0    0  0.13097259830E+02  0.54789162484E+02 -0.11805727351E+02  0.57556630713E+02  0.00000000000E+00 0.  1.
         12    1    6    6    0    0 -0.14453302255E+02  0.52344111607E+02 -0.11296767350E+03  0.12534153032E+03  0.00000000000E+00 0. -1.
         -5    1    3    3    0  503 -0.52383200980E+02 -0.87920954736E+01 -0.30534623800E+02  0.61447163794E+02  0.47000000000E+01 0.  1.
         11    1    4    4    0    0  0.35980922154E+02  0.63631878626E+01 -0.67894416912E+02  0.77102326597E+02  0.00000000000E+00 0. -1.
        -12    1    4    4    0    0  0.58241298154E+01 -0.73814388924E+02 -0.21006920835E+03  0.22273651878E+03  0.00000000000E+00 0.  1.
</event>
<event>
12    1  0.1040325E-001  0.1744403E+03  0.7818608E-02  0.1173320E+00
         21   -1    0    0  503  502  0.00000000000E+00  0.00000000000E+00  0.27137624906E+03  0.27137624906E+03  0.00000000000E+00 0.  1.
         21   -1    0    0  501  503 -0.00000000000E+00 -0.00000000000E+00 -0.11207228012E+03  0.11207228012E+03  0.00000000000E+00 0.  1.
          6    2    1    2  501    0 -0.21484080519E+02  0.21409790154E+02  0.81129966818E+02  0.19229255108E+03  0.17168112551E+03 0.  0.
         24    2    3    3    0    0  0.15313116871E+02  0.63485406361E+02  0.88194411025E+02  0.13575594712E+03  0.79915797403E+02 0.  0.
         -6    2    1    2    0  502  0.21484080519E+02 -0.21409790154E+02  0.78174002117E+02  0.19115597811E+03  0.17178326033E+03 0.  0.
        -24    2    5    5    0    0  0.36045630545E+02 -0.33064629737E+02 -0.14055791312E+02  0.96941866525E+02  0.82508199562E+02 0.  0.
          5    1    3    3  501    0 -0.36797197389E+02 -0.42075616206E+02 -0.70644442074E+01  0.56536603955E+02  0.47000000000E+01 0. -1.
        -13    1    4    4    0    0  0.24818362401E+02  0.36356800542E+02  0.10929277293E+01  0.44033652459E+02  0.00000000000E+00 0.  1.
         14    1    4    4    0    0 -0.95052455307E+01  0.27128605819E+02  0.87101483296E+02  0.91722294665E+02  0.00000000000E+00 0. -1.
         -5    1    5    5    0  502 -0.14561550027E+02  0.11654839583E+02  0.92229793429E+02  0.94214111580E+02  0.47000000000E+01 0.  1.
         13    1    6    6    0    0  0.51167104467E+02 -0.19575353549E+01 -0.29464925153E+02  0.59076952684E+02  0.00000000000E+00 0. -1.
        -14    1    6    6    0    0 -0.15121473922E+02 -0.31107094382E+02  0.15409133841E+02  0.37864913841E+02  0.00000000000E+00 0.  1.
</event>
<event>
12    1  0.1040325E-001  0.1782203E+03  0.7818608E-02  0.1170321E+00
         21   -1    0    0  503  502  0.00000000000E+00  0.00000000000E+00  0.24136088159E+03  0.24136088159E+03  0.00000000000E+00 0.  1.
         21   -1    0    0  501  503 -0.00000000000E+00 -0.00000000000E+00 -0.15427261337E+03  0.15427261337E+03  0.00000000000E+00 0.  1.
          6    2    1    2  501    0  0.31344463217E+01 -0.32681750161E+02 -0.36422790886E+02  0.17879843780E+03  0.17194283967E+03 0.  0.
         24    2    3    3    0    0 -0.51842247698E+02 -0.60697466507E+02 -0.30164464056E+02  0.11660057688E+03  0.79460672981E+02 0.  0.
         -6    2    1    2    0  502 -0.31344463217E+01  0.32681750161E+02  0.12351105910E+03  0.21683505716E+03  0.17517002811E+03 0.  0.
        -24    2    5    5    0    0  0.62199168032E+02  0.20920588143E+02  0.10519300889E+03  0.14781008299E+03  0.80472628896E+02 0.  0.
          5    1    3    3  501    0  0.54976694019E+02  0.28015716346E+02 -0.62583268295E+01  0.62197860915E+02  0.47000000000E+01 0. -1.
        -13    1    4    4    0    0  0.19624293048E+01 -0.25906353484E+02  0.21948328426E+02  0.34010577771E+02  0.00000000000E+00 0.  1.
         14    1    4    4    0    0 -0.53804677002E+02 -0.34791113023E+02 -0.52112792483E+02  0.82589999111E+02  0.00000000000E+00 0. -1.
         -5    1    5    5    0  502 -0.65333614353E+02  0.11761162018E+02  0.18318050211E+02  0.69024974176E+02  0.47000000000E+01 0.  1.
         13    1    6    6    0    0 -0.49349017527E+01  0.34913344721E+02  0.35523850090E+02  0.50052360785E+02  0.00000000000E+00 0. -1.
        -14    1    6    6    0    0  0.67134069784E+02 -0.13992756578E+02  0.69669158799E+02  0.97757722202E+02  0.00000000000E+00 0.  1.
</event>
<event>
12    1  0.1040325E-001  0.2231500E+03  0.7818608E-02  0.1132175E+00
         21   -1    0    0  501  502  0.00000000000E+00  0.00000000000E+00  0.18035225078E+04  0.18035225078E+04  0.00000000000E+00 0. -1.
         21   -1    0    0  502  503 -0.00000000000E+00 -0.00000000000E+00 -0.60277453516E+02  0.60277453516E+02  0.00000000000E+00 0. -1.
         -6    2    1    2    0  503  0.10269807969E+03  0.90589438675E+02  0.17828921574E+03  0.28301448530E+03  0.17192094831E+03 0.  0.
        -24    2    3    3    0    0  0.23067409294E+01  0.12374202343E+01  0.31326486762E+02  0.83810223782E+02  0.77691393185E+02 0.  0.
          6    2    1    2  501    0 -0.10269807969E+03 -0.90589438675E+02  0.15649558386E+04  0.15807854760E+04  0.17618911038E+03 0.  0.
         24    2    5    5    0    0 -0.27572729467E+02  0.78927956830E+00  0.36795317258E+03  0.37794244357E+03  0.81792879046E+02 0.  0.
          5    1    5    5  501    0 -0.75125350228E+02 -0.91378718243E+02  0.11970026660E+04  0.12028430325E+04  0.47000000000E+01 0. -1.
        -13    1    6    6    0    0  0.17589651951E+02  0.27815890006E+02  0.16694532074E+03  0.17015833718E+03  0.00000000000E+00 0.  1.
         14    1    6    6    0    0 -0.45162381418E+02 -0.27026610437E+02  0.20100785184E+03  0.20778410639E+03  0.00000000000E+00 0. -1.
         -5    1    3    3    0  503  0.10039133877E+03  0.89352018441E+02  0.14696272898E+03  0.19920426152E+03  0.47000000000E+01 0. -1.
         13    1    4    4    0    0 -0.34399533454E+02  0.22911543245E+01 -0.15661071119E+01  0.34511302228E+02  0.00000000000E+00 0. -1.
        -14    1    4    4    0    0  0.36706274384E+02 -0.10537340902E+01  0.32892593874E+02  0.49298921554E+02  0.00000000000E+00 0.  1.
</event>
<event>
12    1  0.1040325E-001  0.1932293E+03  0.7818608E-02  0.1155963E+00
         21   -1    0    0  501  502  0.00000000000E+00  0.00000000000E+00  0.10826098829E+03  0.10826098829E+03  0.00000000000E+00 0. -1.
         21   -1    0    0  502  503 -0.00000000000E+00 -0.00000000000E+00 -0.34755915607E+03  0.34755915607E+03  0.00000000000E+00 0. -1.
         -6    2    1    2    0  503  0.78258380091E+01  0.86636900345E+02 -0.90861993946E+02  0.21352628466E+03  0.17254094023E+03 0.  0.
        -24    2    3    3    0    0 -0.50964185429E+02  0.67717669582E+02 -0.96498247727E+02  0.15133254297E+03  0.80041212993E+02 0.  0.
          6    2    1    2  501    0 -0.78258380091E+01 -0.86636900345E+02 -0.14843617383E+03  0.24229385970E+03  0.17060428044E+03 0.  0.
         24    2    5    5    0    0 -0.47291173808E+02 -0.18675011392E+02 -0.12964179026E+03  0.16135159674E+03  0.81499281080E+02 0.  0.
          5    1    5    5  501    0  0.39465335799E+02 -0.67961888953E+02 -0.18794383569E+02  0.80942262963E+02  0.47000000000E+01 0. -1.
        -13    1    6    6    0    0  0.17985123701E+02 -0.18385379567E+02 -0.15982058986E+02  0.30280572415E+02  0.00000000000E+00 0.  1.
         14    1    6    6    0    0 -0.65276297509E+02 -0.28963182525E+00 -0.11365973127E+03  0.13107102432E+03  0.00000000000E+00 0. -1.
         -5    1    3    3    0  503  0.58790023439E+02  0.18919230763E+02  0.56362537809E+01  0.62193741689E+02  0.47000000000E+01 0.  1.
         11    1    4    4    0    0 -0.55447356787E+02  0.80977118005E+02 -0.96059902415E+02  0.13732883116E+03  0.00000000000E+00 0. -1.
        -12    1    4    4    0    0  0.44831713575E+01 -0.13259448423E+02 -0.43834531146E+00  0.14003711813E+02  0.00000000000E+00 0.  1.
</event>
<event>
12    1  0.1040325E-001  0.2250104E+03  0.7818608E-02  0.1130293E+00
         21   -1    0    0  503  502  0.00000000000E+00  0.00000000000E+00  0.60867199626E+02  0.60867199626E+02  0.00000000000E+00 0. -1.
         21   -1    0    0  501  503 -0.00000000000E+00 -0.00000000000E+00 -0.10207771133E+04  0.10207771133E+04  0.00000000000E+00 0. -1.
          6    2    1    2  501    0  0.37589506935E+02  0.13986557627E+03 -0.71335227339E+03  0.74784743495E+03  0.17154873815E+03 0.  0.
         24    2    3    3    0    0 -0.25570811492E+02  0.15646963000E+02 -0.25698853839E+03  0.27065833373E+03  0.79461505784E+02 0.  0.
         -6    2    1    2    0  502 -0.37589506935E+02 -0.13986557627E+03 -0.24655764032E+03  0.33379687800E+03  0.17220434172E+03 0.  0.
        -24    2    5    5    0    0 -0.41105542074E+02 -0.39385337648E+02 -0.20069769824E+03  0.22319007376E+03  0.79330779246E+02 0.  0.
          5    1    3    3  501    0  0.63160318427E+02  0.12421861327E+03 -0.45636373500E+03  0.47718910122E+03  0.47000000000E+01 0. -1.
        -11    1    4    4    0    0  0.13817745652E+02  0.19952416583E+02 -0.19870466346E+03  0.20018134854E+03  0.00000000000E+00 0.  1.
         12    1    4    4    0    0 -0.39388557144E+02 -0.43054535830E+01 -0.58283874930E+02  0.70476985189E+02  0.00000000000E+00 0. -1.
         -5    1    5    5    0  502  0.35160351382E+01 -0.10048023863E+03 -0.45859942079E+02  0.11060680424E+03  0.47000000000E+01 0.  1.
         13    1    6    6    0    0 -0.95274868218E+01 -0.59218365004E+02 -0.11408960873E+03  0.12889540946E+03  0.00000000000E+00 0. -1.
        -14    1    6    6    0    0 -0.31578055252E+02  0.19833027357E+02 -0.86608089509E+02  0.94294664303E+02  0.00000000000E+00 0.  1.
</event>
<event>
12    1  0.1040325E-001  0.3000996E+03  0.7818608E-02  0.1085316E+00
         21   -1    0    0  503  502  0.00000000000E+00  0.00000000000E+00  0.37678860801E+02  0.37678860801E+02  0.00000000000E+00 0. -1.
         21   -1    0    0  501  503 -0.00000000000E+00 -0.00000000000E+00 -0.29112947915E+04  0.29112947915E+04  0.00000000000E+00 0.  1.
          6    2    1    2  501    0  0.24029626796E+03  0.53320969839E+02 -0.81020844669E+03  0.86400087447E+03  0.17168098841E+03 0.  0.
         24    2    3    3    0    0  0.45087925290E+02 -0.51401509951E+01 -0.32840597364E+03  0.34085680948E+03  0.79205674605E+02 0.  0.
         -6    2    1    2    0  502 -0.24029626796E+03 -0.53320969839E+02 -0.20634074841E+04  0.20849727779E+04  0.16992827016E+03 0.  0.
        -24    2    5    5    0    0 -0.11484925317E+03  0.34778341501E+02 -0.97809598985E+03  0.98887899921E+03  0.82522879986E+02 0.  0.
          5    1    3    3  501    0  0.19520834267E+03  0.58461120834E+02 -0.48180247305E+03  0.52314406499E+03  0.47000000000E+01 0. -1.
        -13    1    4    4    0    0  0.25902036408E+02  0.32469491791E+02 -0.23084535391E+03  0.23455225603E+03  0.00000000000E+00 0.  1.
         14    1    4    4    0    0  0.19185888883E+02 -0.37609642786E+02 -0.97560619731E+02  0.10630455345E+03  0.00000000000E+00 0. -1.
         -5    1    5    5    0  502 -0.12544701479E+03 -0.88099311340E+02 -0.10853114942E+04  0.10960937787E+04  0.47000000000E+01 0.  1.
         11    1    6    6    0    0 -0.68937994895E+02  0.10240096077E+02 -0.26924294923E+03  0.27811701210E+03  0.00000000000E+00 0. -1.
        -12    1    6    6    0    0 -0.45911258280E+02  0.24538245423E+02 -0.70885304062E+03  0.71076198711E+03  0.00000000000E+00 0.  1.
</event>
<event>
12    1  0.1040325E-001  0.2340305E+03  0.7818608E-02  0.1123934E+00
         21   -1    0    0  503  502  0.00000000000E+00  0.00000000000E+00  0.22004815203E+02  0.22004815203E+02  0.00000000000E+00 0.  1.
         21   -1    0    0  501  503 -0.00000000000E+00 -0.00000000000E+00 -0.25115915708E+04  0.25115915708E+04  0.00000000000E+00 0.  1.
          6    2    1    2  501    0 -0.95080791924E+02  0.12652338471E+03 -0.13787303824E+04  0.13983553727E+04  0.17161514227E+03 0.  0.
         24    2    3    3    0    0 -0.72412919665E+02  0.13495593111E+03 -0.13486405833E+04  0.13594654474E+04  0.76538524398E+02 0.  0.
         -6    2    1    2    0  502  0.95080791924E+02 -0.12652338471E+03 -0.11108563732E+04  0.11352410134E+04  0.17239997856E+03 0.  0.
        -24    2    5    5    0    0  0.34720521972E+02 -0.79471593049E+02 -0.94485127092E+03  0.95238309781E+03  0.82270238195E+02 0.  0.
          5    1    3    3  501    0 -0.22667872259E+02 -0.84325464043E+01 -0.30089799144E+02  0.38889925226E+02  0.47000000000E+01 0. -1.
        -11    1    4    4    0    0  0.32331160342E+01  0.56621403697E+02 -0.31123634920E+03  0.31636134635E+03  0.00000000000E+00 0.  1.
         12    1    4    4    0    0 -0.75646035699E+02  0.78334527414E+02 -0.10374042341E+04  0.10431041011E+04  0.00000000000E+00 0. -1.
         -5    1    5    5    0  502  0.60360269952E+02 -0.47051791658E+02 -0.16600510231E+03  0.18285791555E+03  0.47000000000E+01 0.  1.
         13    1    6    6    0    0 -0.21616172367E+02  0.25527879446E+00 -0.19877491254E+03  0.19994696779E+03  0.00000000000E+00 0. -1.
        -14    1    6    6    0    0  0.56336694339E+02 -0.79726871843E+02 -0.74607635838E+03  0.75243613002E+03  0.00000000000E+00 0.  1.
</event>
<event>
12    1  0.1040325E-001  0.1998269E+03  0.7818608E-02  0.1151177E+00
         21   -1    0    0  501  502  0.00000000000E+00  0.00000000000E+00  0.38811780078E+03  0.38811780078E+03  0.00000000000E+00 0.  1.
         21   -1    0    0  502  503 -0.00000000000E+00 -0.00000000000E+00 -0.12815071272E+03  0.12815071272E+03  0.00000000000E+00 0. -1.
         -6    2    1    2    0  503 -0.51272949359E+02  0.85480412875E+02  0.10144162656E+02  0.20008421828E+03  0.17319057148E+03 0.  0.
        -24    2    3    3    0    0 -0.15759553723E+02  0.18250571150E+02  0.65121047700E+02  0.10613954958E+03  0.80270830638E+02 0.  0.
          6    2    1    2  501    0  0.51272949359E+02 -0.85480412875E+02  0.24982292541E+03  0.31618429522E+03  0.16620829751E+03 0.  0.
         24    2    5    5    0    0  0.76952049632E+01 -0.65996070909E+02  0.24713140083E+03  0.26814271226E+03  0.80074261213E+02 0.  0.
          5    1    5    5  501    0  0.43577744396E+02 -0.19484341966E+02  0.26915245801E+01  0.48041582957E+02  0.47000000000E+01 0. -1.
        -13    1    6    6    0    0  0.39311771876E+02 -0.12287174191E+02  0.11195037645E+03  0.11928653253E+03  0.00000000000E+00 0.  1.
         14    1    6    6    0    0 -0.31616566913E+02 -0.53708896718E+02  0.13518102438E+03  0.14885617973E+03  0.00000000000E+00 0. -1.
         -5    1    3    3    0  503 -0.35513395637E+02  0.67229841724E+02 -0.54976885045E+02  0.93944668700E+02  0.47000000000E+01 0.  1.
         11    1    4    4    0    0 -0.21618799723E+02 -0.36706431504E-01 -0.13312872119E+02  0.25389100277E+02  0.00000000000E+00 0. -1.
        -12    1    4    4    0    0  0.58592459999E+01  0.18287277582E+02  0.78433919819E+02  0.80750449307E+02  0.00000000000E+00 0.  1.
</event>
<event>
12    1  0.1040325E-001  0.2614765E+03  0.7818608E-02  0.1106573E+00
         21   -1    0    0  501  502  0.00000000000E+00  0.00000000000E+00  0.89987809483E+03  0.89987809483E+03  0.00000000000E+00 0.  1.
         21   -1    0    0  502  503 -0.00000000000E+00 -0.00000000000E+00 -0.10250611393E+03  0.10250611393E+03  0.00000000000E+00 0.  1.
         -6    2    1    2    0  503 -0.69611423040E+02 -0.18056444388E+03  0.14199218419E+03  0.29754283269E+03  0.17584279429E+03 0.  0.
        -24    2    3    3    0    0  0.11332779229E+02 -0.48250029430E+02  0.17820695320E+02  0.98797476014E+02  0.83587480283E+02 0.  0.
          6    2    1    2  501    0  0.69611423040E+02  0.18056444388E+03  0.65537979672E+03  0.70484137607E+03  0.17271195345E+03 0.  0.
         24    2    5    5    0    0 -0.16183067866E+02  0.27714264008E+02  0.21736460812E+03  0.23303286872E+03  0.77633581200E+02 0.  0.
          5    1    5    5  501    0  0.85794490906E+02  0.15285017988E+03  0.43801518860E+03  0.47180850735E+03  0.47000000000E+01 0. -1.
        -11    1    6    6    0    0  0.27464671120E+02  0.20852443177E+02  0.56331673877E+02  0.66048391562E+02  0.00000000000E+00 0.  1.
         12    1    6    6    0    0 -0.43647738986E+02  0.68618208302E+01  0.16103293424E+03  0.16698447716E+03  0.00000000000E+00 0. -1.
         -5    1    3    3    0  503 -0.80944202269E+02 -0.13231441445E+03  0.12417148887E+03  0.19874535668E+03  0.47000000000E+01 0.  1.
         13    1    4    4    0    0  0.13689238791E+02  0.51398174957E+01 -0.25905037532E+02  0.29746999044E+02  0.00000000000E+00 0. -1.
        -14    1    4    4    0    0 -0.23564595623E+01 -0.53389846925E+02  0.43725732852E+02  0.69050476970E+02  0.00000000000E+00 0.  1.
</event>
<event>
12    1  0.1040325E-001  0.1849735E+03  0.7818608E-02  0.1163108E+00
         21   -1    0    0  501  502  0.00000000000E+00  0.00000000000E+00  0.23397044464E+02  0.23397044464E+02  0.00000000000E+00 0. -1.
         21   -1    0    0  502  503 -0.00000000000E+00 -0.00000000000E+00 -0.14721156875E+04  0.14721156875E+04  0.00000000000E+00 0. -1.
         -6    2    1    2    0  503 -0.25797289781E+02  0.61915904966E+02 -0.66034250905E+03  0.68576046668E+03  0.17238360990E+03 0.  0.
        -24    2    3    3    0    0  0.42274608140E+01  0.69071893614E+02 -0.64274486726E+03  0.64992109143E+03  0.66990020082E+02 0.  0.
          6    2    1    2  501    0  0.25797289781E+02 -0.61915904966E+02 -0.78837613394E+03  0.80975226523E+03  0.17222869399E+03 0.  0.
         24    2    5    5    0    0  0.82767315129E+02 -0.40928206165E+02 -0.46052274878E+03  0.47629162371E+03  0.79037726123E+02 0.  0.
          5    1    5    5  501    0 -0.56970025348E+02 -0.20987698802E+02 -0.32785338516E+03  0.33346064153E+03  0.47000000000E+01 0. -1.
        -11    1    6    6    0    0  0.24137719920E+02  0.13499714967E+02 -0.42663045869E+02  0.50842967163E+02  0.00000000000E+00 0.  1.
         12    1    6    6    0    0  0.58629595209E+02 -0.54427921132E+02 -0.41785970292E+03  0.42544865654E+03  0.00000000000E+00 0. -1.
         -5    1    3    3    0  503 -0.30024750595E+02 -0.71559886473E+01 -0.17597641791E+02  0.35839375251E+02  0.47000000000E+01 0.  1.
         13    1    4    4    0    0  0.31295550983E+02  0.59053203468E+02 -0.48104217750E+03  0.48566271103E+03  0.00000000000E+00 0. -1.
        -14    1    4    4    0    0 -0.27068090168E+02  0.10018690145E+02 -0.16170268975E+03  0.16425838040E+03  0.00000000000E+00 0.  1.
</event>
<event>
12    1  0.1040325E-001  0.1909428E+03  0.7818608E-02  0.1158325E+00
         21   -1    0    0  501  502  0.00000000000E+00  0.00000000000E+00  0.11787756791E+03  0.11787756791E+03  0.00000000000E+00 0. -1.
         21   -1    0    0  502  503 -0.00000000000E+00 -0.00000000000E+00 -0.33520509329E+03  0.33520509329E+03  0.00000000000E+00 0. -1.
         -6    2    1    2    0  503 -0.40492227250E+02  0.66106868506E+02 -0.40609293425E+02  0.19521336607E+03  0.17449757892E+03 0.  0.
        -24    2    3    3    0    0 -0.83169158142E+02  0.23844051727E+02 -0.60170339231E+02  0.13187151083E+03  0.79271545818E+02 0.  0.
          6    2    1    2  501    0  0.40492227250E+02 -0.66106868506E+02 -0.17671823196E+03  0.25786929512E+03  0.17104824270E+03 0.  0.
         24    2    5    5    0    0  0.83526351878E+02 -0.52574770104E+02 -0.12061197812E+03  0.18572322600E+03  0.10102034202E+03 0.  0.
          5    1    5    5  501    0 -0.43034124628E+02 -0.13532098401E+02 -0.56106253838E+02  0.72146069120E+02  0.47000000000E+01 0. -1.
        -13    1    6    6    0    0  0.56743884886E+01  0.16549237541E+02 -0.65758262298E+02  0.68045756726E+02  0.00000000000E+00 0.  1.
         14    1    6    6    0    0  0.77851963390E+02 -0.69124007645E+02 -0.54853715819E+02  0.11767746928E+03  0.00000000000E+00 0. -1.
         -5    1    3    3    0  503  0.42676930892E+02  0.42262816779E+02  0.19561045807E+02  0.63341855242E+02  0.47000000000E+01 0.  1.
         11    1    4    4    0    0 -0.33938943644E+02  0.24844902816E+02 -0.69995149946E+02  0.81660529680E+02  0.00000000000E+00 0. -1.
        -12    1    4    4    0    0 -0.49230214497E+02 -0.10008510895E+01  0.98248107149E+01  0.50210981149E+02  0.00000000000E+00 0.  1.
</event>
<event>
12    1  0.1040325E-001  0.6714532E+03  0.7818608E-02  0.9767819E-01
         21   -1    0    0  503  502  0.00000000000E+00  0.00000000000E+00  0.13140923638E+04  0.13140923638E+04  0.00000000000E+00 0.  1.
         21   -1    0    0  501  503 -0.00000000000E+00 -0.00000000000E+00 -0.42035386352E+03  0.42035386352E+03  0.00000000000E+00 0. -1.
          6    2    1    2  501    0 -0.17211120287E+03  0.62577631274E+03  0.82028002149E+03  0.10600512587E+04  0.17213685720E+03 0.  0.
         24    2    3    3    0    0 -0.10855046715E+03  0.57048547044E+03  0.72836090875E+03  0.93527843448E+03  0.83661584494E+02 0.  0.
         -6    2    1    2    0  502  0.17211120287E+03 -0.62577631274E+03  0.73458478788E+02  0.67439496865E+03  0.16791118453E+03 0.  0.
        -24    2    5    5    0    0  0.16272895574E+03 -0.43598155601E+03  0.46912026395E+01  0.47225367027E+03  0.80255164811E+02 0.  0.
          5    1    3    3  501    0 -0.63560735719E+02  0.55290842307E+02  0.91919112739E+02  0.12477282418E+03  0.47000000000E+01 0. -1.
        -13    1    4    4    0    0 -0.98518500240E+02  0.45284876215E+03  0.62692857179E+03  0.77962640437E+03  0.00000000000E+00 0.  1.
         14    1    4    4    0    0 -0.10031966914E+02  0.11763670829E+03  0.10143233696E+03  0.15565203011E+03  0.00000000000E+00 0. -1.
         -5    1    5    5    0  502  0.93822471329E+01 -0.18979475673E+03  0.68767276149E+02  0.20214129839E+03  0.47000000000E+01 0.  1.
         13    1    6    6    0    0  0.11272510913E+03 -0.22778529634E+03  0.32954840991E+02  0.25627936515E+03  0.00000000000E+00 0. -1.
        -14    1    6    6    0    0  0.50003846607E+02 -0.20819625967E+03 -0.28263638351E+02  0.21597430511E+03  0.00000000000E+00 0.  1.
</event>
<event>
12    1  0.1040325E-001  0.1803185E+03  0.7818608E-02  0.1167726E+00
         21   -1    0    0  503  502  0.00000000000E+00  0.00000000000E+00  0.23279098654E+03  0.23279098654E+03  0.00000000000E+00 0.  1.
         21   -1    0    0  501  503 -0.00000000000E+00 -0.00000000000E+00 -0.26394864285E+03  0.26394864285E+03  0.00000000000E+00 0.  1.
          6    2    1    2  501    0  0.10159409988E+02 -0.50762332815E+02 -0.18652995814E+03  0.25943824324E+03  0.17272738268E+03 0.  0.
         24    2    3    3    0    0  0.54898116457E+02 -0.20761794019E+01 -0.16607033003E+03  0.19006548365E+03  0.74346619602E+02 0.  0.
         -6    2    1    2    0  502 -0.10159409988E+02  0.50762332815E+02  0.15537230183E+03  0.23730138616E+03  0.17173050880E+03 0.  0.
        -24    2    5    5    0    0 -0.33260307304E+02 -0.33401109523E+02  0.78510281195E+02  0.12090981988E+03  0.78952125570E+02 0.  0.
          5    1    3    3  501    0 -0.44738706469E+02 -0.48686153413E+02 -0.20459628108E+02  0.69372759589E+02  0.47000000000E+01 0. -1.
        -11    1    4    4    0    0  0.28650958262E+02 -0.22279291998E+02 -0.22451803512E+02  0.42677016557E+02  0.00000000000E+00 0.  1.
         12    1    4    4    0    0  0.26247158196E+02  0.20203112596E+02 -0.14361852652E+03  0.14738846709E+03  0.00000000000E+00 0. -1.
         -5    1    5    5    0  502  0.23100897316E+02  0.84163442339E+02  0.76862020636E+02  0.11639156627E+03  0.47000000000E+01 0.  1.
         11    1    6    6    0    0  0.14300631957E+02 -0.13304467478E+01 -0.85020911465E+01  0.16690228182E+02  0.00000000000E+00 0. -1.
        -12    1    6    6    0    0 -0.47560939260E+02 -0.32070662775E+02  0.87012372341E+02  0.10421959170E+03  0.00000000000E+00 0.  1.
</event>
<event>
12    1  0.1040325E-001  0.2017722E+03  0.7818608E-02  0.1148984E+00
         21   -1    0    0  503  502  0.00000000000E+00  0.00000000000E+00  0.21465887453E+03  0.21465887453E+03  0.00000000000E+00 0. -1.
         21   -1    0    0  501  503 -0.00000000000E+00 -0.00000000000E+00 -0.31924243134E+03  0.31924243134E+03  0.00000000000E+00 0. -1.
          6    2    1    2  501    0  0.71551106643E+02 -0.68581637286E+02 -0.22475327998E+03  0.30203651958E+03  0.17575272534E+03 0.  0.
         24    2    3    3    0    0 -0.13920679335E+02 -0.83556000360E+02 -0.11198791903E+03  0.15967158578E+03  0.76015332572E+02 0.  0.
         -6    2    1    2    0  502 -0.71551106643E+02  0.68581637286E+02  0.12016972317E+03  0.23186478629E+03  0.17174840587E+03 0.  0.
        -24    2    5    5    0    0  0.18137506577E+02  0.68936215561E+02  0.49766089689E+02  0.11774671290E+03  0.79413183758E+02 0.  0.
          5    1    3    3  501    0  0.85471785978E+02  0.14974363074E+02 -0.11276536095E+03  0.14236493381E+03  0.47000000000E+01 0. -1.
        -11    1    4    4    0    0 -0.11561793622E+02 -0.26739697390E+02 -0.96404049214E+02  0.10070961818E+03  0.00000000000E+00 0.  1.
         12    1    4    4    0    0 -0.23588857133E+01 -0.56816302970E+02 -0.15583869820E+02  0.58961967602E+02  0.00000000000E+00 0. -1.
         -5    1    5    5    0  502 -0.89688613220E+02 -0.35457827483E+00  0.70403633476E+02  0.11411807339E+03  0.47000000000E+01 0.  1.
         13    1    6    6    0    0 -0.24070175181E+02  0.52304756817E+02  0.12222911569E+02  0.58860517209E+02  0.00000000000E+00 0. -1.
        -14    1    6    6    0    0  0.42207681758E+02  0.16631458744E+02  0.37543178121E+02  0.58886195689E+02  0.00000000000E+00 0.  1.
</event>
<event>
12    1  0.1040325E-001  0.2939074E+03  0.7818608E-02  0.1088349E+00
         21   -1    0    0  501  502  0.00000000000E+00  0.00000000000E+00  0.25396324842E+03  0.25396324842E+03  0.00000000000E+00 0.  1.
         21   -1    0    0  502  503 -0.00000000000E+00 -0.00000000000E+00 -0.50081871421E+03  0.50081871421E+03  0.00000000000E+00 0.  1.
         -6    2    1    2    0  503 -0.22345775607E+03 -0.83377220563E+02 -0.33730444743E+03  0.44727165141E+03  0.17144244003E+03 0.  0.
        -24    2    3    3    0    0 -0.18913654983E+03 -0.44614595271E+01 -0.21199238339E+03  0.29518336806E+03  0.79999444152E+02 0.  0.
          6    2    1    2  501    0  0.22345775607E+03  0.83377220563E+02  0.90448981634E+02  0.30751031121E+03  0.17174528689E+03 0.  0.
         24    2    5    5    0    0  0.18678639687E+03  0.77875506583E+02  0.94235227805E+01  0.21827874491E+03  0.81259184818E+02 0.  0.
          5    1    5    5  501    0  0.36671359200E+02  0.55017139804E+01  0.81025458853E+02  0.89231566302E+02  0.47000000000E+01 0. -1.
        -13    1    6    6    0    0  0.18478940289E+03  0.55632636696E+02  0.19130398714E+02  0.19392804295E+03  0.00000000000E+00 0.  1.
         14    1    6    6    0    0  0.19969939792E+01  0.22242869887E+02 -0.97068759331E+01  0.24350701964E+02  0.00000000000E+00 0. -1.
         -5    1    3    3    0  503 -0.34321206245E+02 -0.78915761036E+02 -0.12531206404E+03  0.15208828335E+03  0.47000000000E+01 0.  1.
         13    1    4    4    0    0 -0.12015570665E+03  0.21219114359E+02 -0.17353340732E+03  0.21213554184E+03  0.00000000000E+00 0. -1.
        -14    1    4    4    0    0 -0.68980843173E+02 -0.25680573886E+02 -0.38458976066E+02  0.83047826221E+02  0.00000000000E+00 0.  1.
</event>
<event>
12    1  0.1040325E-001  0.2218358E+03  0.7818608E-02  0.1133393E+00
         21   -1    0    0  503  502  0.00000000000E+00  0.00000000000E+00  0.15327244936E+04  0.15327244936E+04  0.00000000000E+00 0.  1.
         21   -1    0    0  501  503 -0.00000000000E+00 -0.00000000000E+00 -0.62197338239E+02  0.62197338239E+02  0.00000000000E+00 0.  1.
          6    2    1    2  501    0 -0.23827882137E+02 -0.12891572718E+03  0.17839590911E+03  0.28466865156E+03  0.17895280973E+03 0.  0.
         24    2    3    3    0    0 -0.20684883082E+02 -0.28933114777E+01  0.11501359321E+03  0.14349168576E+03  0.83219598774E+02 0.  0.
         -6    2    1    2    0  502  0.23827882137E+02  0.12891572718E+03  0.12921312463E+04  0.13102531803E+04  0.17312771651E+03 0.  0.
        -24    2    5    5    0    0 -0.11349480125E+02  0.14852997420E+03  0.86501732114E+03  0.88121872884E+03  0.78112215745E+02 0.  0.
          5    1    3    3  501    0 -0.31429990551E+01 -0.12602241570E+03  0.63382315900E+02  0.14117696580E+03  0.47000000000E+01 0. -1.
        -11    1    4    4    0    0 -0.33213512130E+02 -0.39972354943E+00  0.60261223188E+01  0.33758129645E+02  0.00000000000E+00 0.  1.
         12    1    4    4    0    0  0.12528629049E+02 -0.24935879282E+01  0.10898747089E+03  0.10973355612E+03  0.00000000000E+00 0. -1.
         -5    1    5    5    0  502  0.35177362262E+02 -0.19614247025E+02  0.42711392511E+03  0.42903445144E+03  0.47000000000E+01 0.  1.
         11    1    6    6    0    0 -0.22050537057E+02  0.89292669306E+02  0.69077758424E+03  0.69687378905E+03  0.00000000000E+00 0. -1.
        -12    1    6    6    0    0  0.10701056931E+02  0.59237304898E+02  0.17423973691E+03  0.18434493980E+03  0.00000000000E+00 0.  1.
</event>
<event>
12    1  0.1040325E-001  0.4443748E+03  0.7818608E-02  0.1029503E+00
         21   -1    0    0  501  502  0.00000000000E+00  0.00000000000E+00  0.29591116552E+03  0.29591116552E+03  0.00000000000E+00 0. -1.
         21   -1    0    0  502  503 -0.00000000000E+00 -0.00000000000E+00 -0.91133768834E+03  0.91133768834E+03  0.00000000000E+00 0.  1.
         -6    2    1    2    0  503 -0.63807058655E+01  0.40878393119E+03 -0.62149459530E+03  0.76401866599E+03  0.17413780231E+03 0.  0.
        -24    2    3    3    0    0 -0.57994806971E+02  0.18396997112E+03 -0.24147031606E+03  0.31944485335E+03  0.80800698543E+02 0.  0.
          6    2    1    2  501    0  0.63807058655E+01 -0.40878393119E+03  0.60680724746E+01  0.44323018786E+03  0.17108817061E+03 0.  0.
         24    2    5    5    0    0 -0.51715703542E+02 -0.31564281349E+03 -0.20608464946E+02  0.33016300323E+03  0.79233832255E+02 0.  0.
          5    1    5    5  501    0  0.58096409408E+02 -0.93141117705E+02  0.26676537421E+02  0.11306718464E+03  0.47000000000E+01 0. -1.
        -13    1    6    6    0    0 -0.60335556223E+02 -0.14956808460E+03 -0.28040711331E+02  0.16369872562E+03  0.00000000000E+00 0.  1.
         14    1    6    6    0    0  0.86198526811E+01 -0.16607472888E+03  0.74322463847E+01  0.16646427761E+03  0.00000000000E+00 0. -1.
         -5    1    3    3    0  503  0.51614101105E+02  0.22481396007E+03 -0.38002427924E+03  0.44457381264E+03  0.47000000000E+01 0.  1.
         13    1    4    4    0    0 -0.55107768812E+01 -0.58302923969E+01 -0.27513683659E+02  0.28659444512E+02  0.00000000000E+00 0. -1.
        -14    1    4    4    0    0 -0.52484030089E+02  0.18980026351E+03 -0.21395663240E+03  0.29078540884E+03  0.00000000000E+00 0.  1.
</event>
<event>
12    1  0.1040325E-001  0.2058950E+03  0.7818608E-02  0.1144898E+00
         21   -1    0    0  503  502  0.00000000000E+00  0.00000000000E+00  0.15996095062E+04  0.15996095062E+04  0.00000000000E+00 0. -1.
         21   -1    0    0  501  503 -0.00000000000E+00 -0.00000000000E+00 -0.45365362919E+02  0.45365362919E+02  0.00000000000E+00 0. -1.
          6    2    1    2  501    0 -0.69241118507E+01 -0.11260921078E+03  0.24619135854E+03  0.32081670217E+03  0.17200114447E+03 0.  0.
         24    2    3    3    0    0  0.20450346965E+02 -0.98492885629E+01  0.17368500411E+03  0.19202142260E+03  0.78679863416E+02 0.  0.
         -6    2    1    2    0  502  0.69241118507E+01  0.11260921078E+03  0.13080527848E+04  0.13241581670E+04  0.17223235969E+03 0.  0.
        -24    2    5    5    0    0  0.47108332397E+01 -0.12189569130E+02  0.56339332730E+03  0.56909563203E+03  0.79290728353E+02 0.  0.
          5    1    3    3  501    0 -0.27374458815E+02 -0.10275992222E+03  0.72506354427E+02  0.12879527958E+03  0.47000000000E+01 0. -1.
        -11    1    4    4    0    0  0.90615439958E+01  0.19402517249E+02  0.71839239014E+01  0.22587120618E+02  0.00000000000E+00 0.  1.
         12    1    4    4    0    0  0.11388802969E+02 -0.29251805812E+02  0.16650108021E+03  0.16943430198E+03  0.00000000000E+00 0. -1.
         -5    1    5    5    0  502  0.22132786111E+01  0.12479877991E+03  0.74465945746E+03  0.75506253493E+03  0.47000000000E+01 0.  1.
         11    1    6    6    0    0 -0.31530690090E+02  0.11194342406E+02  0.33489942397E+03  0.33656666783E+03  0.00000000000E+00 0. -1.
        -12    1    6    6    0    0  0.36241523329E+02 -0.23383911535E+02  0.22849390333E+03  0.23252896420E+03  0.00000000000E+00 0.  1.
</event>
<event>
12    1  0.1040325E-001  0.2003944E+03  0.7818608E-02  0.1149589E+00
         21   -1    0    0  501  502  0.00000000000E+00  0.00000000000E+00  0.46090201972E+02  0.46090201972E+02  0.00000000000E+00 0. -1.
         21   -1    0    0  502  503 -0.00000000000E+00 -0.00000000000E+00 -0.98498125865E+03  0.98498125865E+03  0.00000000000E+00 0. -1.
         -6    2    1    2    0  503  0.83190240200E+02 -0.59836008136E+02 -0.64657439326E+03  0.67666074171E+03  0.17120265600E+03 0.  0.
        -24    2    3    3    0    0  0.96924689298E+02  0.10435069911E+02 -0.33614433810E+03  0.35804566259E+03  0.75500956144E+02 0.  0.
          6    2    1    2  501    0 -0.83190240200E+02  0.59836008136E+02 -0.29231666342E+03  0.35441071891E+03  0.17221196832E+03 0.  0.
         24    2    5    5    0    0 -0.11154524473E+03  0.80938740815E+01 -0.22865469204E+03  0.26748436320E+03  0.82201362163E+02 0.  0.
          5    1    5    5  501    0  0.28355004530E+02  0.51742134054E+02 -0.63661971376E+02  0.86926355715E+02  0.47000000000E+01 0. -1.
        -13    1    6    6    0    0 -0.49405773354E+02  0.13839513947E+02 -0.18328362946E+03  0.19032958629E+03  0.00000000000E+00 0.  1.
         14    1    6    6    0    0 -0.62139471375E+02 -0.57456398659E+01 -0.45371062582E+02  0.77154776910E+02  0.00000000000E+00 0. -1.
         -5    1    3    3    0  503 -0.13734449098E+02 -0.70271078047E+02 -0.31043005516E+03  0.31861507913E+03  0.47000000000E+01 0.  1.
         11    1    4    4    0    0  0.67098068526E+02  0.11609792927E+02 -0.31287006043E+03  0.32019464830E+03  0.00000000000E+00 0. -1.
        -12    1    4    4    0    0  0.29826620772E+02 -0.11747230159E+01 -0.23274277678E+02  0.37851014283E+02  0.00000000000E+00 0.  1.
</event>
<event>
12    1  0.1040325E-001  0.1914335E+03  0.7818608E-02  0.1158247E+00
         21   -1    0    0  503  502  0.00000000000E+00  0.00000000000E+00  0.24344857707E+03  0.24344857707E+03  0.00000000000E+00 0.  1.
         21   -1    0    0  501  503 -0.00000000000E+00 -0.00000000000E+00 -0.15618821940E+03  0.15618821940E+03  0.00000000000E+00 0. -1.
          6    2    1    2  501    0 -0.50302871266E+02 -0.47584723770E+02  0.92022615605E+02  0.20814405203E+03  0.17338137103E+03 0.  0.
         24    2    3    3    0    0  0.82785466348E+01 -0.98748759634E+01  0.10721124084E+03  0.13668357708E+03  0.83797986665E+02 0.  0.
         -6    2    1    2    0  502  0.50302871266E+02  0.47584723770E+02 -0.47622579329E+01  0.19149274443E+03  0.17847158674E+03 0.  0.
        -24    2    5    5    0    0  0.29823573550E+02  0.17939925182E+02  0.67483905790E+02  0.11062362863E+03  0.80450128744E+02 0.  0.
          5    1    3    3  501    0 -0.58581417901E+02 -0.37709847806E+02 -0.15188625238E+02  0.71460474960E+02  0.47000000000E+01 0. -1.
        -11    1    4    4    0    0 -0.27383322304E+02 -0.27713580440E+02  0.27922412586E+02  0.47932765473E+02  0.00000000000E+00 0.  1.
         12    1    4    4    0    0  0.35661868939E+02  0.17838704477E+02  0.79288828258E+02  0.88750811602E+02  0.00000000000E+00 0. -1.
         -5    1    5    5    0  502  0.20479297716E+02  0.29644798588E+02 -0.72246163722E+02  0.80869115804E+02  0.47000000000E+01 0.  1.
         13    1    6    6    0    0 -0.27906095268E+02  0.33249471420E+01  0.21910614053E+02  0.35635381782E+02  0.00000000000E+00 0. -1.
        -14    1    6    6    0    0  0.57729668818E+02  0.14614978040E+02  0.45573291736E+02  0.74988246843E+02  0.00000000000E+00 0.  1.
</event>
<event>
12    1  0.1040325E-001  0.2062050E+03  0.7818608E-02  0.1144622E+00
         21   -1    0    0  501  502  0.00000000000E+00  0.00000000000E+00  0.37338247653E+03  0.37338247653E+03  0.00000000000E+00 0.  1.
         21   -1    0    0  502  503 -0.00000000000E+00 -0.00000000000E+00 -0.11479100441E+03  0.11479100441E+03  0.00000000000E+00 0.  1.
         -6    2    1    2    0  503 -0.11389327801E+03  0.76241317885E+01  0.10704736252E+03  0.23227096239E+03  0.17164164992E+03 0.  0.
        -24    2    3    3    0    0  0.68114680188E+01 -0.18978488980E+02  0.39150622316E+02  0.91170315772E+02  0.79829043021E+02 0.  0.
          6    2    1    2  501    0  0.11389327801E+03 -0.76241317885E+01  0.15154410961E+03  0.25590251855E+03  0.17172849409E+03 0.  0.
         24    2    5    5    0    0  0.33665739658E+02  0.51100879717E+02  0.45088753708E+02  0.11016330733E+03  0.79738802578E+02 0.  0.
          5    1    5    5  501    0  0.80227538356E+02 -0.58725011506E+02  0.10645535590E+03  0.14573921122E+03  0.47000000000E+01 0. -1.
        -13    1    6    6    0    0  0.30713285578E+02  0.33189061787E+02 -0.14802853786E+02  0.47580922789E+02  0.00000000000E+00 0.  1.
         14    1    6    6    0    0  0.29524540801E+01  0.17911817930E+02  0.59891607494E+02  0.62582384541E+02  0.00000000000E+00 0. -1.
         -5    1    3    3    0  503 -0.12070474603E+03  0.26602620768E+02  0.67896740200E+02  0.14110064662E+03  0.47000000000E+01 0.  1.
         13    1    4    4    0    0 -0.83777102090E+00 -0.26329722894E+02 -0.18731640836E+02  0.32323838515E+02  0.00000000000E+00 0. -1.
        -14    1    4    4    0    0  0.76492390397E+01  0.73512339142E+01  0.57882263152E+02  0.58846477257E+02  0.00000000000E+00 0.  1.
</event>
<event>
12    1  0.1040325E-001  0.2136312E+03  0.7818608E-02  0.1138740E+00
         21   -1    0    0  501  502  0.00000000000E+00  0.00000000000E+00  0.96561060755E+02  0.96561060755E+02  0.00000000000E+00 0.  1.
         21   -1    0    0  502  503 -0.00000000000E+00 -0.00000000000E+00 -0.65275496983E+03  0.65275496983E+03  0.00000000000E+00 0. -1.
         -6    2    1    2    0  503  0.12328204748E+03  0.28965663013E+02 -0.47505822333E+03  0.52088251705E+03  0.17204885397E+03 0.  0.
        -24    2    3    3    0    0  0.11089222166E+03  0.33078718477E+02 -0.48427252657E+03  0.50422663541E+03  0.79582243104E+02 0.  0.
          6    2    1    2  501    0 -0.12328204748E+03 -0.28965663013E+02 -0.81135685745E+02  0.22843351354E+03  0.17193428321E+03 0.  0.
         24    2    5    5    0    0 -0.11413405950E+03  0.35264767559E+02 -0.81668682052E+02  0.16338270278E+03  0.75854772884E+02 0.  0.
          5    1    5    5  501    0 -0.91479879757E+01 -0.64230430572E+02  0.53299630697E+00  0.65050810760E+02  0.47000000000E+01 0. -1.
        -11    1    6    6    0    0 -0.32321020134E+02 -0.18941309006E+01  0.11104331036E+02  0.34227799259E+02  0.00000000000E+00 0.  1.
         12    1    6    6    0    0 -0.81813039366E+02  0.37158898460E+02 -0.92773013088E+02  0.12915490352E+03  0.00000000000E+00 0. -1.
         -5    1    3    3    0  503  0.12389825811E+02 -0.41130554643E+01  0.92143032470E+01  0.16655881640E+02  0.47000000000E+01 0.  1.
         11    1    4    4    0    0  0.97116779827E+01  0.36609276824E+02 -0.10306699867E+03  0.10980602012E+03  0.00000000000E+00 0. -1.
        -12    1    4    4    0    0  0.10118054368E+03 -0.35305583467E+01 -0.38120552790E+03  0.39442061529E+03  0.00000000000E+00 0.  1.
</event>
<event>
12    1  0.1040325E-001  0.1720261E+03  0.7818608E-02  0.1175787E+00
         21   -1    0    0  501  502  0.00000000000E+00  0.00000000000E+00  0.34701060401E+03  0.34701060401E+03  0.00000000000E+00 0.  1.
         21   -1    0    0  502  503 -0.00000000000E+00 -0.00000000000E+00 -0.10266874327E+03  0.10266874327E+03  0.00000000000E+00 0.  1.
         -6    2    1    2    0  503 -0.94834607609E+01 -0.18343883899E+01  0.29496868437E+02  0.17453666185E+03  0.17175470903E+03 0.  0.
        -24    2    3    3    0    0 -0.56437696896E+02  0.20580892111E+02  0.57505216994E+02  0.11526016836E+03  0.79807704382E+02 0.  0.
          6    2    1    2  501    0  0.94834607609E+01  0.18343883899E+01  0.21484499230E+03  0.27514268543E+03  0.17161534203E+03 0.  0.
         24    2    5    5    0    0 -0.38959420796E+02  0.36639081411E+02  0.84119098478E+02  0.13137402144E+03  0.85573664318E+02 0.  0.
          5    1    5    5  501    0  0.48442881556E+02 -0.34804693021E+02  0.13072589382E+03  0.14376866399E+03  0.47000000000E+01 0. -1.
        -13    1    6    6    0    0 -0.29302113810E+02  0.27964689486E+01  0.90887804283E+02  0.95535475503E+02  0.00000000000E+00 0.  1.
         14    1    6    6    0    0 -0.96573069854E+01  0.33842612462E+02 -0.67687058047E+01  0.35838545935E+02  0.00000000000E+00 0. -1.
         -5    1    3    3    0  503  0.46954236135E+02 -0.22415280501E+02 -0.28008348556E+02  0.59276493485E+02  0.47000000000E+01 0.  1.
         13    1    4    4    0    0 -0.60529592111E+02  0.43184325133E+02  0.32038125094E+02  0.80963935908E+02  0.00000000000E+00 0. -1.
        -14    1    4    4    0    0  0.40918952144E+01 -0.22603433022E+02  0.25467091900E+02  0.34296232455E+02  0.00000000000E+00 0.  1.
</event>
<event>
12    1  0.1040325E-001  0.1937370E+03  0.7818608E-02  0.1155145E+00
         21   -1    0    0  501  502  0.00000000000E+00  0.00000000000E+00  0.93191749412E+02  0.93191749412E+02  0.00000000000E+00 0. -1.
         21   -1    0    0  502  503 -0.00000000000E+00 -0.00000000000E+00 -0.41534110924E+03  0.41534110924E+03  0.00000000000E+00 0. -1.
         -6    2    1    2    0  503 -0.68296786517E+02  0.54384940863E+02 -0.20549702448E+03  0.28238732250E+03  0.17289129532E+03 0.  0.
        -24    2    3    3    0    0 -0.11052143214E+03  0.55818585111E+02 -0.13413327461E+03  0.19932198178E+03  0.80042586506E+02 0.  0.
          6    2    1    2  501    0  0.68296786517E+02 -0.54384940863E+02 -0.11665233534E+03  0.22614553615E+03  0.17295046498E+03 0.  0.
         24    2    5    5    0    0  0.49704197594E+02 -0.47745535376E+02 -0.15194649095E+03  0.18543271890E+03  0.80916090610E+02 0.  0.
          5    1    5    5  501    0  0.18592588923E+02 -0.66394054863E+01  0.35294155609E+02  0.40712817247E+02  0.47000000000E+01 0. -1.
        -13    1    6    6    0    0  0.26277624691E+02 -0.68607481447E+02 -0.11968192536E+03  0.14043241552E+03  0.00000000000E+00 0.  1.
         14    1    6    6    0    0  0.23426572903E+02  0.20861946071E+02 -0.32264565589E+02  0.45000303382E+02  0.00000000000E+00 0. -1.
         -5    1    3    3    0  503  0.42224645627E+02 -0.14336442480E+01 -0.71363749869E+02  0.83065340724E+02  0.47000000000E+01 0.  1.
         11    1    4    4    0    0 -0.10638578469E+03  0.45817206099E+02 -0.14391111613E+03  0.18473646339E+03  0.00000000000E+00 0. -1.
        -12    1    4    4    0    0 -0.41356474499E+01  0.10001379011E+02  0.97778415166E+01  0.14585518389E+02  0.00000000000E+00 0.  1.
</event>
<event>
12    1  0.1040325E-001  0.1796425E+03  0.7818608E-02  0.1168358E+00
         21   -1    0    0  501  502  0.00000000000E+00  0.00000000000E+00  0.56558353890E+03  0.56558353890E+03  0.00000000000E+00 0.  1.
         21   -1    0    0  502  503 -0.00000000000E+00 -0.00000000000E+00 -0.56885783977E+02  0.56885783977E+02  0.00000000000E+00 0.  1.
         -6    2    1    2    0  503 -0.20822382769E+02  0.41789811305E+02  0.24074552333E+03  0.29987078130E+03  0.17258075941E+03 0.  0.
        -24    2    3    3    0    0 -0.26877706080E+02 -0.19693629181E+02  0.21700113150E+03  0.23351743520E+03  0.79565390442E+02 0.  0.
          6    2    1    2  501    0  0.20822382769E+02 -0.41789811305E+02  0.26795223159E+03  0.32259854158E+03  0.17346890402E+03 0.  0.
         24    2    5    5    0    0 -0.54061422382E+02 -0.38562555385E+02  0.17357378782E+03  0.20198602107E+03  0.79125121311E+02 0.  0.
          5    1    5    5  501    0  0.74883805151E+02 -0.32272559199E+01  0.94378443770E+02  0.12061252051E+03  0.47000000000E+01 0. -1.
        -11    1    6    6    0    0 -0.44384608715E+02 -0.59225981286E+02  0.96549753330E+02  0.12165346365E+03  0.00000000000E+00 0.  1.
         12    1    6    6    0    0 -0.96768136665E+01  0.20663425900E+02  0.77024034493E+02  0.80332557424E+02  0.00000000000E+00 0. -1.
         -5    1    3    3    0  503  0.60553233107E+01  0.61483440486E+02  0.23744391830E+02  0.66353346094E+02  0.47000000000E+01 0.  1.
         13    1    4    4    0    0 -0.39276587629E+01 -0.41925019640E+02  0.60023232653E+02  0.73320680802E+02  0.00000000000E+00 0. -1.
        -14    1    4    4    0    0 -0.22950047317E+02  0.22231390458E+02  0.15697789885E+03  0.16019675440E+03  0.00000000000E+00 0.  1.
</event>
<event>
12    1  0.1040325E-001  0.1734686E+03  0.7818608E-02  0.1174852E+00
         21   -1    0    0  501  502  0.00000000000E+00  0.00000000000E+00  0.15053264188E+03  0.15053264188E+03  0.00000000000E+00 0.  1.
         21   -1    0    0  502  503 -0.00000000000E+00 -0.00000000000E+00 -0.20960502745E+03  0.20960502745E+03  0.00000000000E+00 0.  1.
         -6    2    1    2    0  503  0.18664186008E+02 -0.30868644223E+01 -0.73305998114E+02  0.18832184117E+03  0.17243394657E+03 0.  0.
        -24    2    3    3    0    0 -0.39394320744E+02 -0.39023226504E+02 -0.70023359737E+02  0.11980120164E+03  0.79839415658E+02 0.  0.
          6    2    1    2  501    0 -0.18664186008E+02  0.30868644223E+01  0.14233612542E+02  0.17181582817E+03  0.17017697409E+03 0.  0.
         24    2    5    5    0    0  0.12559036871E+02  0.50538545909E+02  0.45174185122E+02  0.10696244927E+03  0.81782544116E+02 0.  0.
          5    1    5    5  501    0 -0.31223222879E+02 -0.47451681487E+02 -0.30940572580E+02  0.64853378898E+02  0.47000000000E+01 0. -1.
        -13    1    6    6    0    0 -0.20236273923E+02 -0.46661190692E+01 -0.93025106124E+01  0.22755574111E+02  0.00000000000E+00 0.  1.
         14    1    6    6    0    0  0.32795310794E+02  0.55204664978E+02  0.54476695734E+02  0.84206875156E+02  0.00000000000E+00 0. -1.
         -5    1    3    3    0  503  0.58058506753E+02  0.35936362082E+02 -0.32826383765E+01  0.68520639524E+02  0.47000000000E+01 0.  1.
         13    1    4    4    0    0  0.40577190080E+00 -0.17870053315E+02 -0.72490281040E+02  0.74661531605E+02  0.00000000000E+00 0. -1.
        -14    1    4    4    0    0 -0.39800092645E+02 -0.21153173189E+02  0.24669213024E+01  0.45139670039E+02  0.00000000000E+00 0.  1.
</event>
<event>
12    1  0.1040325E-001  0.2528713E+03  0.7818608E-02  0.1111579E+00
         21   -1    0    0  501  502  0.00000000000E+00  0.00000000000E+00  0.15843859194E+03  0.15843859194E+03  0.00000000000E+00 0.  1.
         21   -1    0    0  502  503 -0.00000000000E+00 -0.00000000000E+00 -0.10948980724E+04  0.10948980724E+04  0.00000000000E+00 0. -1.
         -6    2    1    2    0  503  0.17708465622E+03  0.52084717182E+02 -0.96662450428E+03  0.99915304212E+03  0.17283540164E+03 0.  0.
        -24    2    3    3    0    0  0.12122669116E+03 -0.96659510269E+01 -0.38313483684E+03  0.40973337897E+03  0.79371262987E+02 0.  0.
          6    2    1    2  501    0 -0.17708465622E+03 -0.52084717182E+02  0.30165023789E+02  0.25418362226E+03  0.17212667408E+03 0.  0.
         24    2    5    5    0    0 -0.17107615053E+03 -0.68532555531E+02  0.67680774310E+02  0.21251642816E+03  0.81355912986E+02 0.  0.
          5    1    5    5  501    0 -0.60085056904E+01  0.16447838349E+02 -0.37515750521E+02  0.41667194099E+02  0.47000000000E+01 0. -1.
        -13    1    6    6    0    0 -0.11181244728E+03 -0.65642641728E+02  0.10447425690E+02  0.13007739421E+03  0.00000000000E+00 0.  1.
         14    1    6    6    0    0 -0.59263703250E+02 -0.28899138030E+01  0.57233348620E+02  0.82439033952E+02  0.00000000000E+00 0. -1.
         -5    1    3    3    0  503  0.55857965059E+02  0.61750668209E+02 -0.58348966745E+03  0.58941966314E+03  0.47000000000E+01 0.  1.
         13    1    4    4    0    0  0.57763465207E+02 -0.34372314277E+02 -0.26482882251E+03  0.27322587566E+03  0.00000000000E+00 0. -1.
        -14    1    4    4    0    0  0.63463225953E+02  0.24706363250E+02 -0.11830601433E+03  0.13650750331E+03  0.00000000000E+00 0.  1.
</event>
<event>
12    1  0.1040325E-001  0.2349472E+03  0.7818608E-02  0.1123386E+00
         21   -1    0    0  501  502  0.00000000000E+00  0.00000000000E+00  0.16978478733E+03  0.16978478733E+03  0.00000000000E+00 0.  1.
         21   -1    0    0  502  503 -0.00000000000E+00 -0.00000000000E+00 -0.36813827726E+03  0.36813827726E+03  0.00000000000E+00 0. -1.
         -6    2    1    2    0  503 -0.30692260197E+02  0.15561998480E+03 -0.54992030361E+01  0.23396092871E+03  0.17189496917E+03 0.  0.
        -24    2    3    3    0    0 -0.20195958053E+02  0.62889248436E+02  0.59773254091E+02  0.11997959040E+03  0.80369931672E+02 0.  0.
          6    2    1    2  501    0  0.30692260197E+02 -0.15561998480E+03 -0.19285428689E+03  0.30396213588E+03  0.17332227084E+03 0.  0.
         24    2    5    5    0    0 -0.51054741961E+01 -0.53268177424E+02 -0.16329965601E+02  0.96741730831E+02  0.78922304293E+02 0.  0.
          5    1    5    5  501    0  0.35797734394E+02 -0.10235180737E+03 -0.17652432129E+03  0.20722040504E+03  0.47000000000E+01 0. -1.
        -13    1    6    6    0    0 -0.33921408825E+02 -0.29860721123E+02 -0.33087514057E+02  0.56009894029E+02  0.00000000000E+00 0.  1.
         14    1    6    6    0    0  0.28815934629E+02 -0.23407456300E+02  0.16757548456E+02  0.40731836802E+02  0.00000000000E+00 0. -1.
         -5    1    3    3    0  503 -0.10496302144E+02  0.92730736359E+02 -0.65272457127E+02  0.11398133831E+03  0.47000000000E+01 0.  1.
         11    1    4    4    0    0 -0.39641811665E+01 -0.19146672133E+02  0.17662383207E+02  0.26348995553E+02  0.00000000000E+00 0. -1.
        -12    1    4    4    0    0 -0.16231776887E+02  0.82035920569E+02  0.42110870884E+02  0.93630594846E+02  0.00000000000E+00 0.  1.
</event>
<event>
12    1  0.1040325E-001  0.1801351E+03  0.7818608E-02  0.1167814E+00
         21   -1    0    0  503  502  0.00000000000E+00  0.00000000000E+00  0.10064257611E+04  0.10064257611E+04  0.00000000000E+00 0. -1.
         21   -1    0    0  501  503 -0.00000000000E+00 -0.00000000000E+00 -0.49716503584E+02  0.49716503584E+02  0.00000000000E+00 0.  1.
          6    2    1    2  501    0 -0.32168045788E+02  0.38368644019E+02  0.16484365531E+03  0.24417630575E+03  0.17303670588E+03 0.  0.
         24    2    3    3    0    0 -0.75716966839E+01  0.74847300209E+02  0.16929011352E+03  0.19970683603E+03  0.74593759003E+02 0.  0.
         -6    2    1    2    0  502  0.32168045788E+02 -0.38368644019E+02  0.79186560224E+03  0.81196595896E+03  0.17242578256E+03 0.  0.
        -24    2    5    5    0    0 -0.71793331099E+01 -0.77616715581E+02  0.65110129792E+03  0.66055490680E+03  0.79523502048E+02 0.  0.
          5    1    3    3  501    0 -0.24596349105E+02 -0.36478656191E+02 -0.44464582116E+01  0.44469469722E+02  0.47000000000E+01 0. -1.
        -11    1    4    4    0    0  0.27253456594E+02  0.33048438950E+02  0.11555210476E+03  0.12323651703E+03  0.00000000000E+00 0.  1.
         12    1    4    4    0    0 -0.34825153278E+02  0.41798861260E+02  0.53738008753E+02  0.76470319001E+02  0.00000000000E+00 0. -1.
         -5    1    5    5    0  502  0.39347378898E+02  0.39248071562E+02  0.14076430432E+03  0.15141105216E+03  0.47000000000E+01 0.  1.
         11    1    6    6    0    0  0.22784813088E+02 -0.72593281839E+02  0.54154837685E+03  0.54686705582E+03  0.00000000000E+00 0. -1.
        -12    1    6    6    0    0 -0.29964146198E+02 -0.50234337421E+01  0.10955292107E+03  0.11368785098E+03  0.00000000000E+00 0.  1.
</event>
<event>
12    1  0.1040325E-001  0.2621928E+03  0.7818608E-02  0.1105954E+00
         21   -1    0    0  503  502  0.00000000000E+00  0.00000000000E+00  0.36897655648E+02  0.36897655648E+02  0.00000000000E+00 0. -1.
         21   -1    0    0  501  503 -0.00000000000E+00 -0.00000000000E+00 -0.23338349124E+04  0.23338349124E+04  0.00000000000E+00 0.  1.
          6    2    1    2  501    0 -0.18628029031E+03  0.65563819556E+02 -0.61145110473E+03  0.66497507281E+03  0.17123210270E+03 0.  0.
         24    2    3    3    0    0 -0.39597367297E+02  0.69037166192E+02 -0.28781905653E+03  0.30960521385E+03  0.81740426516E+02 0.  0.
         -6    2    1    2    0  502  0.18628029031E+03 -0.65563819556E+02 -0.16854861521E+04  0.17057574953E+04  0.17247058561E+03 0.  0.
        -24    2    5    5    0    0  0.12213794787E+03 -0.43461441573E+02 -0.62534185483E+03  0.64343420354E+03  0.78412777464E+02 0.  0.
          5    1    3    3  501    0 -0.14668292301E+03 -0.34733466359E+01 -0.32363204820E+03  0.35536985896E+03  0.47000000000E+01 0. -1.
        -13    1    4    4    0    0  0.16784105888E+02  0.13704735389E+02 -0.17121957169E+02  0.27616795611E+02  0.00000000000E+00 0.  1.
         14    1    4    4    0    0 -0.56381473184E+02  0.55332430803E+02 -0.27069709936E+03  0.28198841824E+03  0.00000000000E+00 0. -1.
         -5    1    5    5    0  502  0.64142342433E+02 -0.22102377982E+02 -0.10601442972E+04  0.10623232917E+04  0.47000000000E+01 0.  1.
         13    1    6    6    0    0  0.54317888743E+02 -0.54741387763E+02 -0.41612639416E+03  0.42321180098E+03  0.00000000000E+00 0. -1.
        -14    1    6    6    0    0  0.67820059131E+02  0.11279946190E+02 -0.20921546067E+03  0.22022240257E+03  0.00000000000E+00 0.  1.
</event>
<event>
12    1  0.1040325E-001  0.2791062E+03  0.7818608E-02  0.1096446E+00
         21   -1    0    0  503  502  0.00000000000E+00  0.00000000000E+00  0.58261385587E+03  0.58261385587E+03  0.00000000000E+00 0. -1.
         21   -1    0    0  501  503 -0.00000000000E+00 -0.00000000000E+00 -0.13631177539E+03  0.13631177539E+03  0.00000000000E+00 0. -1.
          6    2    1    2  501    0  0.21060851254E+03 -0.60656150783E+02  0.28028079189E+03  0.39417441826E+03  0.16964974367E+03 0.  0.
         24    2    3    3    0    0  0.92350900568E+02  0.17081997261E+02  0.18656558590E+03  0.22437243864E+03  0.81949923195E+02 0.  0.
         -6    2    1    2    0  502 -0.21060851254E+03  0.60656150783E+02  0.16602128860E+03  0.32475121300E+03  0.17281541568E+03 0.  0.
        -24    2    5    5    0    0 -0.59485850988E+02 -0.26911840952E+02  0.47619382927E+02  0.11368886848E+03  0.79967115327E+02 0.  0.
          5    1    3    3  501    0  0.11825761197E+03 -0.77738148044E+02  0.93715205987E+02  0.16980197962E+03  0.47000000000E+01 0. -1.
        -13    1    4    4    0    0  0.71229867945E+02  0.10954537848E+02  0.54152165798E+02  0.90145177617E+02  0.00000000000E+00 0.  1.
         14    1    4    4    0    0  0.21121032623E+02  0.61274594127E+01  0.13241342010E+03  0.13422726102E+03  0.00000000000E+00 0. -1.
         -5    1    5    5    0  502 -0.15112266155E+03  0.87567991735E+02  0.11840190567E+03  0.21106234453E+03  0.47000000000E+01 0.  1.
         11    1    6    6    0    0 -0.55870195150E+02 -0.25001939382E+02  0.68817434438E+02  0.92100026935E+02  0.00000000000E+00 0. -1.
        -12    1    6    6    0    0 -0.36156558384E+01 -0.19099015704E+01 -0.21198051511E+02  0.21588841540E+02  0.00000000000E+00 0.  1.
</event>
<event>
12    1  0.1040325E-001  0.1881701E+03  0.7818608E-02  0.1160289E+00
         21   -1    0    0  503  502  0.00000000000E+00  0.00000000000E+00  0.34423375570E+03  0.34423375570E+03  0.00000000000E+00 0. -1.
         21   -1    0    0  501  503 -0.00000000000E+00 -0.00000000000E+00 -0.15281421708E+03  0.15281421708E+03  0.00000000000E+00 0. -1.
          6    2    1    2  501    0 -0.40738002067E+02  0.63047594160E+02 -0.47070565908E+02  0.19326266093E+03  0.17175632155E+03 0.  0.
         24    2    3    3    0    0 -0.76851092269E+02  0.54182934855E+02 -0.77420538619E+02  0.14503457459E+03  0.78735044378E+02 0.  0.
         -6    2    1    2    0  502  0.40738002067E+02 -0.63047594160E+02  0.23849010453E+03  0.30378531185E+03  0.17254970819E+03 0.  0.
        -24    2    5    5    0    0  0.34252590150E+02  0.31602912850E+02  0.12232255419E+03  0.15372609422E+03  0.80603478502E+02 0.  0.
          5    1    3    3  501    0  0.36113090201E+02  0.88646593055E+01  0.30349972710E+02  0.48228086340E+02  0.47000000000E+01 0. -1.
        -13    1    4    4    0    0 -0.22033571784E+02  0.51911071414E+01  0.14836990996E+02  0.27065885922E+02  0.00000000000E+00 0.  1.
         14    1    4    4    0    0 -0.54817520485E+02  0.48991827713E+02 -0.92257529614E+02  0.11796868866E+03  0.00000000000E+00 0. -1.
         -5    1    5    5    0  502  0.64854119176E+01 -0.94650507010E+02  0.11616755033E+03  0.15005921763E+03  0.47000000000E+01 0.  1.
         11    1    6    6    0    0 -0.27845082051E+01  0.98685035161E+01  0.10795814947E+03  0.10844400806E+03  0.00000000000E+00 0. -1.
        -12    1    6    6    0    0  0.37037098355E+02  0.21734409334E+02  0.14364404724E+02  0.45282086156E+02  0.00000000000E+00 0.  1.
</event>
<event>
12    1  0.1040325E-001  0.2131948E+03  0.7818608E-02  0.1139341E+00
         21   -1    0    0  503  502  0.00000000000E+00  0.00000000000E+00  0.99197969163E+02  0.99197969163E+02  0.00000000000E+00 0.  1.
         21   -1    0    0  501  503 -0.00000000000E+00 -0.00000000000E+00 -0.53595954615E+03  0.53595954615E+03  0.00000000000E+00 0.  1.
          6    2    1    2  501    0  0.11688812858E+03 -0.39937148010E+02 -0.34109714834E+03  0.40148313125E+03  0.17199892346E+03 0.  0.
         24    2    3    3    0    0  0.42136021809E+02  0.31345384761E+02 -0.23308192937E+03  0.25195569405E+03  0.79978175047E+02 0.  0.
         -6    2    1    2    0  502 -0.11688812858E+03  0.39937148010E+02 -0.95664428648E+02  0.23367438407E+03  0.17376485394E+03 0.  0.
        -24    2    5    5    0    0 -0.82204494991E+02  0.69331089693E+02 -0.12159297311E+03  0.18112595246E+03  0.80357828168E+02 0.  0.
          5    1    3    3  501    0  0.74752106776E+02 -0.71282532771E+02 -0.10801521897E+03  0.14952743720E+03  0.47000000000E+01 0. -1.
        -11    1    4    4    0    0  0.65419606663E+02  0.29194066704E+02 -0.18765147140E+03  0.20086088017E+03  0.00000000000E+00 0.  1.
         12    1    4    4    0    0 -0.23283584854E+02  0.21513180569E+01 -0.45430457977E+02  0.51094813877E+02  0.00000000000E+00 0. -1.
         -5    1    5    5    0  502 -0.34683633594E+02 -0.29393941683E+02  0.25928544465E+02  0.52548431613E+02  0.47000000000E+01 0.  1.
         13    1    6    6    0    0 -0.51349282263E+02  0.19200202087E+02 -0.10738628784E+03  0.12057035857E+03  0.00000000000E+00 0. -1.
        -14    1    6    6    0    0 -0.30855212728E+02  0.50130887606E+02 -0.14206685273E+02  0.60555593888E+02  0.00000000000E+00 0.  1.
</event>
<event>
12    1  0.1040325E-001  0.2093654E+03  0.7818608E-02  0.1142109E+00
         21   -1    0    0  503  502  0.00000000000E+00  0.00000000000E+00  0.22142363881E+03  0.22142363881E+03  0.00000000000E+00 0.  1.
         21   -1    0    0  501  503 -0.00000000000E+00 -0.00000000000E+00 -0.19946327782E+03  0.19946327782E+03  0.00000000000E+00 0.  1.
          6    2    1    2  501    0  0.11210751154E+03 -0.38062340565E+02 -0.83914708434E+01  0.20933284721E+03  0.17243256138E+03 0.  0.
         24    2    3    3    0    0  0.96479199191E+02  0.26809019927E+02 -0.42084600443E+02  0.13443388499E+03  0.79211087691E+02 0.  0.
         -6    2    1    2    0  502 -0.11210751154E+03  0.38062340565E+02  0.30351831834E+02  0.21155406941E+03  0.17267615549E+03 0.  0.
        -24    2    5    5    0    0 -0.95885907861E+01  0.49166398112E+02 -0.20715084760E+02  0.96387454558E+02  0.79700381950E+02 0.  0.
          5    1    3    3  501    0  0.15628312352E+02 -0.64871360492E+02  0.33693129599E+02  0.74898962217E+02  0.47000000000E+01 0. -1.
        -13    1    4    4    0    0  0.78843173219E+02  0.12136625342E+02  0.71752121067E+01  0.80093865600E+02  0.00000000000E+00 0.  1.
         14    1    4    4    0    0  0.17636025972E+02  0.14672394585E+02 -0.49259812549E+02  0.54340019390E+02  0.00000000000E+00 0. -1.
         -5    1    5    5    0  502 -0.10251892076E+03 -0.11104057547E+02  0.51066916594E+02  0.11516661486E+03  0.47000000000E+01 0.  1.
         13    1    6    6    0    0  0.28497353468E+01  0.38852593832E+02 -0.49732773584E+02  0.63174312876E+02  0.00000000000E+00 0. -1.
        -14    1    6    6    0    0 -0.12438326133E+02  0.10313804280E+02  0.29017688824E+02  0.33213141682E+02  0.00000000000E+00 0.  1.
</event>
<event>
12    1  0.1040325E-001  0.1778022E+03  0.7818608E-02  0.1170995E+00
         21   -1    0    0  501  502  0.00000000000E+00  0.00000000000E+00  0.94276498018E+02  0.94276498018E+02  0.00000000000E+00 0. -1.
         21   -1    0    0  502  503 -0.00000000000E+00 -0.00000000000E+00 -0.32745902366E+03  0.32745902366E+03  0.00000000000E+00 0. -1.
         -6    2    1    2    0  503 -0.16373976211E+02 -0.46953151368E+02 -0.11379888646E+03  0.20757188577E+03  0.16632256516E+03 0.  0.
        -24    2    3    3    0    0 -0.21783083923E+02 -0.22979905585E+02 -0.14460304719E+03  0.16788610396E+03  0.79203054502E+02 0.  0.
          6    2    1    2  501    0  0.16373976211E+02  0.46953151368E+02 -0.11938363918E+03  0.21416363590E+03  0.17070707109E+03 0.  0.
         24    2    5    5    0    0 -0.27115997819E+02 -0.25032857076E+02 -0.87266003050E+02  0.12401378397E+03  0.80013386728E+02 0.  0.
          5    1    5    5  501    0  0.43489974029E+02  0.71986008445E+02 -0.32117636128E+02  0.90149851932E+02  0.47000000000E+01 0. -1.
        -13    1    6    6    0    0 -0.24140695742E+02  0.15344930894E+02 -0.77149522701E+02  0.82281765587E+02  0.00000000000E+00 0.  1.
         14    1    6    6    0    0 -0.29753020766E+01 -0.40377787971E+02 -0.10116480349E+02  0.41732018385E+02  0.00000000000E+00 0. -1.
         -5    1    3    3    0  503  0.54091077123E+01 -0.23973245784E+02  0.30804160726E+02  0.39685781807E+02  0.47000000000E+01 0.  1.
         13    1    4    4    0    0 -0.11756536083E+02 -0.46964717386E+02 -0.49283487052E+02  0.69085185936E+02  0.00000000000E+00 0. -1.
        -14    1    4    4    0    0 -0.10026547840E+02  0.23984811801E+02 -0.95319560135E+02  0.98800918027E+02  0.00000000000E+00 0.  1.
</event>
<event>
12    1  0.1040325E-001  0.1777094E+03  0.7818608E-02  0.1170341E+00
         21   -1    0    0  501  502  0.00000000000E+00  0.00000000000E+00  0.54655132096E+02  0.54655132096E+02  0.00000000000E+00 0. -1.
         21   -1    0    0  502  503 -0.00000000000E+00 -0.00000000000E+00 -0.90348812221E+03  0.90348812221E+03  0.00000000000E+00 0. -1.
         -6    2    1    2    0  503  0.62921475586E+01 -0.43037532397E+02 -0.71472598830E+03  0.73648751614E+03  0.17230438982E+03 0.  0.
        -24    2    3    3    0    0  0.14179640566E+02 -0.11549572419E+02 -0.69127912073E+03  0.69616940893E+03  0.80315430302E+02 0.  0.
          6    2    1    2  501    0 -0.62921475586E+01  0.43037532397E+02 -0.13410700182E+03  0.22165573817E+03  0.17104022338E+03 0.  0.
         24    2    5    5    0    0 -0.62261295520E+02  0.42615296477E+02 -0.12272880251E+03  0.16434712428E+03  0.79089100901E+02 0.  0.
          5    1    5    5  501    0  0.55969147962E+02  0.42223591942E+00 -0.11378199308E+02  0.57308613892E+02  0.47000000000E+01 0. -1.
        -13    1    6    6    0    0  0.18230577442E+02  0.10528607685E+02 -0.36285396524E+02  0.41950393735E+02  0.00000000000E+00 0.  1.
         14    1    6    6    0    0 -0.80491872962E+02  0.32086688793E+02 -0.86443405984E+02  0.12239673055E+03  0.00000000000E+00 0. -1.
         -5    1    3    3    0  503 -0.78874930076E+01 -0.31487959978E+02 -0.23446867570E+02  0.40318107202E+02  0.47000000000E+01 0.  1.
         11    1    4    4    0    0  0.31642577369E+02 -0.21921332513E+02 -0.16237760620E+03  0.16687805283E+03  0.00000000000E+00 0. -1.
        -12    1    4    4    0    0 -0.17462936803E+02  0.10371760094E+02 -0.52890151454E+03  0.52929135610E+03  0.00000000000E+00 0.  1.
</event>
<event>
12    1  0.1040325E-001  0.1757573E+03  0.7818608E-02  0.1172654E+00
         21   -1    0    0  503  502  0.00000000000E+00  0.00000000000E+00  0.67241970479E+03  0.67241970479E+03  0.00000000000E+00 0. -1.
         21   -1    0    0  501  503 -0.00000000000E+00 -0.00000000000E+00 -0.45430820824E+02  0.45430820824E+02  0.00000000000E+00 0. -1.
          6    2    1    2  501    0  0.19371863680E+02  0.11088493618E+02  0.28756941140E+03  0.33562519652E+03  0.17160968030E+03 0.  0.
         24    2    3    3    0    0 -0.22561984370E+02 -0.50571298865E+02  0.17274705820E+03  0.19863380841E+03  0.80915661769E+02 0.  0.
         -6    2    1    2    0  502 -0.19371863680E+02 -0.11088493618E+02  0.33941947257E+03  0.38222532910E+03  0.17433416203E+03 0.  0.
        -24    2    5    5    0    0 -0.71560203987E+02 -0.98294368885E+01  0.29306474433E+03  0.31225348534E+03  0.79986337066E+02 0.  0.
          5    1    3    3  501    0  0.41933848050E+02  0.61659792482E+02  0.11482235320E+03  0.13699138811E+03  0.47000000000E+01 0. -1.
        -11    1    4    4    0    0 -0.36839515833E+02  0.51330086482E+01  0.94274369358E+02  0.10134670405E+03  0.00000000000E+00 0.  1.
         12    1    4    4    0    0  0.14277531463E+02 -0.55704307513E+02  0.78472688838E+02  0.97287104354E+02  0.00000000000E+00 0. -1.
         -5    1    5    5    0  502  0.52188340307E+02 -0.12590567290E+01  0.46354728240E+02  0.69971843752E+02  0.47000000000E+01 0.  1.
         13    1    6    6    0    0 -0.65583618718E+02 -0.36727039774E+02  0.16584599738E+03  0.18208509368E+03  0.00000000000E+00 0. -1.
        -14    1    6    6    0    0 -0.59765852693E+01  0.26897602885E+02  0.12721874695E+03  0.13016839167E+03  0.00000000000E+00 0.  1.
</event>
<event>
12    1  0.1040325E-001  0.2143186E+03  0.7818608E-02  0.1138331E+00
         21   -1    0    0  503  502  0.00000000000E+00  0.00000000000E+00  0.21088841449E+03  0.21088841449E+03  0.00000000000E+00 0.  1.
         21   -1    0    0  501  503 -0.00000000000E+00 -0.00000000000E+00 -0.27509618851E+03  0.27509618851E+03  0.00000000000E+00 0.  1.
          6    2    1    2  501    0  0.84280647937E+02  0.97424437048E+02 -0.14374534923E+03  0.25806046733E+03  0.17128260514E+03 0.  0.
         24    2    3    3    0    0  0.57285830009E+02  0.75155803824E+02 -0.17257152441E+03  0.21247921464E+03  0.80227329822E+02 0.  0.
         -6    2    1    2    0  502 -0.84280647937E+02 -0.97424437048E+02  0.79537575208E+02  0.22792413568E+03  0.17037733771E+03 0.  0.
        -24    2    5    5    0    0 -0.10371414404E+03 -0.89802280820E+02  0.13986102638E+02  0.15896876176E+03  0.79084656123E+02 0.  0.
          5    1    3    3  501    0  0.26994817928E+02  0.22268633225E+02  0.28826175182E+02  0.45581252684E+02  0.47000000000E+01 0. -1.
        -13    1    4    4    0    0  0.19542074954E+02  0.70094278806E+02 -0.62219534889E+02  0.95741167408E+02  0.00000000000E+00 0.  1.
         14    1    4    4    0    0  0.37743755054E+02  0.50615250173E+01 -0.11035198952E+03  0.11673804724E+03  0.00000000000E+00 0. -1.
         -5    1    5    5    0  502  0.19433496105E+02 -0.76221562283E+01  0.65551472570E+02  0.68955373920E+02  0.47000000000E+01 0.  1.
         11    1    6    6    0    0 -0.46501487947E+02 -0.55613170753E+02 -0.30699679218E+02  0.78725367237E+02  0.00000000000E+00 0. -1.
        -12    1    6    6    0    0 -0.57212656094E+02 -0.34189110067E+02  0.44685781857E+02  0.80243394523E+02  0.00000000000E+00 0.  1.
</event>
<event>
12    1  0.1040325E-001  0.1905343E+03  0.7818608E-02  0.1158098E+00
         21   -1    0    0  501  502  0.00000000000E+00  0.00000000000E+00  0.48143903752E+02  0.48143903752E+02  0.00000000000E+00 0. -1.
         21   -1    0    0  502  503 -0.00000000000E+00 -0.00000000000E+00 -0.84388578750E+03  0.84388578750E+03  0.00000000000E+00 0. -1.
         -6    2    1    2    0  503 -0.45382640986E+02 -0.71170492600E+02 -0.54554531110E+03  0.57786071346E+03  0.17081713783E+03 0.  0.
        -24    2    3    3    0    0 -0.18172679881E+02 -0.80752019185E+02 -0.53323857587E+03  0.54614741393E+03  0.84157495503E+02 0.  0.
          6    2    1    2  501    0  0.45382640986E+02  0.71170492600E+02 -0.25019657265E+03  0.31416897779E+03  0.17023219003E+03 0.  0.
         24    2    5    5    0    0 -0.18429408658E+01 -0.16941311349E+02 -0.16114484073E+03  0.18020537627E+03  0.78841064681E+02 0.  0.
          5    1    5    5  501    0  0.47225581851E+02  0.88111803949E+02 -0.89051731919E+02  0.13396360153E+03  0.47000000000E+01 0. -1.
        -13    1    6    6    0    0 -0.73541761552E+01 -0.47083871527E+02 -0.75897715073E+02  0.89618290645E+02  0.00000000000E+00 0.  1.
         14    1    6    6    0    0  0.55112352894E+01  0.30142560178E+02 -0.85247125657E+02  0.90587085621E+02  0.00000000000E+00 0. -1.
         -5    1    3    3    0  503 -0.27209961104E+02  0.95815265855E+01 -0.12306735229E+02  0.31713299529E+02  0.47000000000E+01 0.  1.
         13    1    4    4    0    0 -0.16492004086E+02 -0.59417132439E+02 -0.14822906974E+03  0.16054357334E+03  0.00000000000E+00 0. -1.
        -14    1    4    4    0    0 -0.16806757956E+01 -0.21334886746E+02 -0.38500950613E+03  0.38560384059E+03  0.00000000000E+00 0.  1.
</event>
<event>
12    1  0.1040325E-001  0.1808906E+03  0.7818608E-02  0.1168017E+00
         21   -1    0    0  501  502  0.00000000000E+00  0.00000000000E+00  0.20467936969E+03  0.20467936969E+03  0.00000000000E+00 0.  1.
         21   -1    0    0  502  503 -0.00000000000E+00 -0.00000000000E+00 -0.15723735279E+03  0.15723735279E+03  0.00000000000E+00 0.  1.
         -6    2    1    2    0  503  0.35553215600E+02 -0.23879151167E+02  0.73554235731E+01  0.17663760548E+03  0.17120892621E+03 0.  0.
        -24    2    3    3    0    0 -0.27419317437E+02 -0.58761020769E+02  0.12920467527E+02  0.10428192527E+03  0.80641831119E+02 0.  0.
          6    2    1    2  501    0 -0.35553215600E+02  0.23879151167E+02  0.40086593324E+02  0.18527911701E+03  0.17574746438E+03 0.  0.
         24    2    5    5    0    0 -0.86502198602E+01  0.82828127395E+02  0.35634625036E+02  0.12015874386E+03  0.78949174993E+02 0.  0.
          5    1    5    5  501    0 -0.26902995740E+02 -0.58948976228E+02  0.44519682876E+01  0.65120373154E+02  0.47000000000E+01 0. -1.
        -11    1    6    6    0    0 -0.29844033270E+02  0.21780696340E+02  0.41149272467E+02  0.55302148959E+02  0.00000000000E+00 0.  1.
         12    1    6    6    0    0  0.21193813410E+02  0.61047431055E+02 -0.55146474314E+01  0.64856594896E+02  0.00000000000E+00 0. -1.
         -5    1    3    3    0  503  0.62972533037E+02  0.34881869602E+02 -0.55650439536E+01  0.72355680207E+02  0.47000000000E+01 0.  1.
         13    1    4    4    0    0  0.50058328633E+01 -0.41646808116E+02  0.40573305006E+02  0.58358444702E+02  0.00000000000E+00 0. -1.
        -14    1    4    4    0    0 -0.32425150300E+02 -0.17114212653E+02 -0.27652837480E+02  0.45923480567E+02  0.00000000000E+00 0.  1.
</event>
<event>
12    1  0.1040325E-001  0.1923251E+03  0.7818608E-02  0.1157255E+00
         21   -1    0    0  503  502  0.00000000000E+00  0.00000000000E+00  0.76700039368E+03  0.76700039368E+03  0.00000000000E+00 0. -1.
         21   -1    0    0  501  503 -0.00000000000E+00 -0.00000000000E+00 -0.11141835261E+03  0.11141835261E+03  0.00000000000E+00 0. -1.
          6    2    1    2  501    0  0.51155250988E+02  0.68126421704E+02 -0.40842452224E+01  0.19236848380E+03  0.17242645813E+03 0.  0.
         24    2    3    3    0    0  0.47176759619E+02 -0.15978065285E+02 -0.33045692878E+02  0.10320431737E+03  0.84131849421E+02 0.  0.
         -6    2    1    2    0  502 -0.51155250988E+02 -0.68126421704E+02  0.65966628629E+03  0.68605026249E+03  0.16806928442E+03 0.  0.
        -24    2    5    5    0    0 -0.45640543160E+01 -0.98448646866E+02  0.40475464376E+03  0.42510541690E+03  0.84707302939E+02 0.  0.
          5    1    3    3  501    0  0.39784913691E+01  0.84104486989E+02  0.28961447655E+02  0.89164166432E+02  0.47000000000E+01 0. -1.
        -11    1    4    4    0    0 -0.22006155465E+02 -0.15437857221E+02 -0.84934433452E+00  0.26894603543E+02  0.00000000000E+00 0.  1.
         12    1    4    4    0    0  0.69182915084E+02 -0.54020806308E+00 -0.32196348543E+02  0.76309713823E+02  0.00000000000E+00 0. -1.
         -5    1    5    5    0  502 -0.46591196672E+02  0.30322225162E+02  0.25491164252E+03  0.26094484559E+03  0.47000000000E+01 0.  1.
         11    1    6    6    0    0  0.28107656280E+02 -0.61067954805E+02  0.13490894328E+03  0.15073074810E+03  0.00000000000E+00 0. -1.
        -12    1    6    6    0    0 -0.32671710596E+02 -0.37380692061E+02  0.26984570048E+03  0.27437466880E+03  0.00000000000E+00 0.  1.
</event>
<event>
12    1  0.1040325E-001  0.1788451E+03  0.7818608E-02  0.1169202E+00
         21   -1    0    0  503  502  0.00000000000E+00  0.00000000000E+00  0.41019636051E+03  0.41019636051E+03  0.00000000000E+00 0. -1.
         21   -1    0    0  501  503 -0.00000000000E+00 -0.00000000000E+00 -0.94604889591E+02  0.94604889591E+02  0.00000000000E+00 0. -1.
          6    2    1    2  501    0 -0.43831447818E+02 -0.96535238839E+01  0.50834274347E+02  0.18592925761E+03  0.17312186184E+03 0.  0.
         24    2    3    3    0    0 -0.32558825200E+02  0.56376093754E+02  0.58039722022E+02  0.11839414895E+03  0.80063875293E+02 0.  0.
         -6    2    1    2    0  502  0.43831447818E+02  0.96535238839E+01  0.26475719657E+03  0.31887199249E+03  0.17195519218E+03 0.  0.
        -24    2    5    5    0    0  0.77176409044E+02 -0.70447715615E+01  0.25815614703E+03  0.28070940132E+03  0.78405005057E+02 0.  0.
          5    1    3    3  501    0 -0.11272622618E+02 -0.66029617638E+02 -0.72054476757E+01  0.67535108665E+02  0.47000000000E+01 0. -1.
        -11    1    4    4    0    0  0.32348277793E+01  0.31426091033E+00 -0.17468389764E+02  0.17768160052E+02  0.00000000000E+00 0.  1.
         12    1    4    4    0    0 -0.35793652979E+02  0.56061832844E+02  0.75508111787E+02  0.10062598889E+03  0.00000000000E+00 0. -1.
         -5    1    5    5    0  502 -0.33344961226E+02  0.16698295445E+02  0.66010495401E+01  0.38162591172E+02  0.47000000000E+01 0.  1.
         11    1    6    6    0    0  0.69194137413E+02  0.26574535112E+02  0.15274815973E+03  0.16978231613E+03  0.00000000000E+00 0. -1.
        -12    1    6    6    0    0  0.79822716311E+01 -0.33619306673E+02  0.10540798730E+03  0.11092708519E+03  0.00000000000E+00 0.  1.
</event>
<event>
12    1  0.1040325E-001  0.2205881E+03  0.7818608E-02  0.1133551E+00
         21   -1    0    0  501  502  0.00000000000E+00  0.00000000000E+00  0.19837936293E+02  0.19837936293E+02  0.00000000000E+00 0. -1.
         21   -1    0    0  502  503 -0.00000000000E+00 -0.00000000000E+00 -0.33901935726E+04  0.33901935726E+04  0.00000000000E+00 0.  1.
         -6    2    1    2    0  503  0.34265056096E+02  0.13266436192E+03 -0.25863099497E+04  0.25956999599E+04  0.17287336085E+03 0.  0.
        -24    2    3    3    0    0 -0.21310359736E+01  0.15688557014E+03 -0.21994897750E+04  0.22063886705E+04  0.76013629283E+02 0.  0.
          6    2    1    2  501    0 -0.34265056096E+02 -0.13266436192E+03 -0.78404568655E+03  0.81433154894E+03  0.17214617629E+03 0.  0.
         24    2    5    5    0    0 -0.82669253514E+02 -0.97264170786E+02 -0.65287228943E+03  0.67002392623E+03  0.79970688517E+02 0.  0.
          5    1    5    5  501    0  0.48404197418E+02 -0.35400191136E+02 -0.13117339712E+03  0.14430762271E+03  0.47000000000E+01 0. -1.
        -13    1    6    6    0    0 -0.57961401550E+02 -0.11770040843E+02 -0.20331306594E+03  0.21174102275E+03  0.00000000000E+00 0.  1.
         14    1    6    6    0    0 -0.24707851964E+02 -0.85494129943E+02 -0.44955922349E+03  0.45828290348E+03  0.00000000000E+00 0. -1.
         -5    1    3    3    0  503  0.36396092070E+02 -0.24221208215E+02 -0.38682017478E+03  0.38931128941E+03  0.47000000000E+01 0.  1.
         13    1    4    4    0    0  0.19672052066E+02  0.13173527493E+02 -0.16204506020E+03  0.16376548169E+03  0.00000000000E+00 0. -1.
        -14    1    4    4    0    0 -0.21803088040E+02  0.14371204264E+03 -0.20374447148E+04  0.20426231888E+04  0.00000000000E+00 0.  1.
</event>
<event>
12    1  0.1040325E-001  0.1855587E+03  0.7818608E-02  0.1162889E+00
         21   -1    0    0  503  502  0.00000000000E+00  0.00000000000E+00  0.85643872203E+02  0.85643872203E+02  0.00000000000E+00 0. -1.
         21   -1    0    0  501  503 -0.00000000000E+00 -0.00000000000E+00 -0.65250080465E+03  0.65250080465E+03  0.00000000000E+00 0. -1.
          6    2    1    2  501    0 -0.43312218121E+02  0.45688097730E+02 -0.51288288487E+03  0.54489555775E+03  0.17291317112E+03 0.  0.
         24    2    3    3    0    0  0.38970946870E+02  0.12477406029E+02 -0.31083321269E+03  0.32417032287E+03  0.82429920271E+02 0.  0.
         -6    2    1    2    0  502  0.43312218121E+02 -0.45688097730E+02 -0.53974047579E+02  0.19324911911E+03  0.17455278202E+03 0.  0.
        -24    2    5    5    0    0 -0.27271082220E+01 -0.68036168741E+02 -0.83248138154E+02  0.13410422730E+03  0.80108263604E+02 0.  0.
          5    1    3    3  501    0 -0.82283164991E+02  0.33210691701E+02 -0.20204967218E+03  0.22072523488E+03  0.47000000000E+01 0. -1.
        -11    1    4    4    0    0  0.65282316464E+01 -0.32445260860E+02 -0.16223959908E+03  0.16558079680E+03  0.00000000000E+00 0.  1.
         12    1    4    4    0    0  0.32442715223E+02  0.44922666888E+02 -0.14859361361E+03  0.15858952607E+03  0.00000000000E+00 0. -1.
         -5    1    5    5    0  502  0.46039326343E+02  0.22348071011E+02  0.29274090575E+02  0.59144891808E+02  0.47000000000E+01 0.  1.
         11    1    6    6    0    0  0.16226628800E+02 -0.58692305241E+02 -0.92734825700E+02  0.11094069620E+03  0.00000000000E+00 0. -1.
        -12    1    6    6    0    0 -0.18953737022E+02 -0.93438635000E+01  0.94866875467E+01  0.23163531096E+02  0.00000000000E+00 0.  1.
</event>
<event>
12    1  0.1040325E-001  0.2094456E+03  0.7818608E-02  0.1142185E+00
         21   -1    0    0  501  502  0.00000000000E+00  0.00000000000E+00  0.14865732741E+04  0.14865732741E+04  0.00000000000E+00 0. -1.
         21   -1    0    0  502  503 -0.00000000000E+00 -0.00000000000E+00 -0.39790784558E+03  0.39790784558E+03  0.00000000000E+00 0. -1.
         -6    2    1    2    0  503  0.78023728795E+02 -0.87724024406E+02 -0.36236553071E+03  0.41854058189E+03  0.17344807329E+03 0.  0.
        -24    2    3    3    0    0  0.72652183008E+01  0.11982568544E+01 -0.76857394758E+02  0.11121189041E+03  0.80042527588E+02 0.  0.
          6    2    1    2  501    0 -0.78023728795E+02  0.87724024406E+02  0.14510309592E+04  0.14659405378E+04  0.17235895391E+03 0.  0.
         24    2    5    5    0    0 -0.82504219217E+02  0.24376595872E+02  0.12395825546E+04  0.12451114426E+04  0.79601696118E+02 0.  0.
          5    1    5    5  501    0  0.44804904221E+01  0.63347428534E+02  0.21144840460E+03  0.22082909524E+03  0.47000000000E+01 0. -1.
        -11    1    6    6    0    0  0.13796160366E+02  0.17638101813E+01  0.70989599799E+02  0.72339258683E+02  0.00000000000E+00 0.  1.
         12    1    6    6    0    0 -0.96300379583E+02  0.22612785691E+02  0.11685929548E+04  0.11727721839E+04  0.00000000000E+00 0. -1.
         -5    1    3    3    0  503  0.70758510494E+02 -0.88922281260E+02 -0.28550813595E+03  0.30732869148E+03  0.47000000000E+01 0.  1.
         11    1    4    4    0    0 -0.61508314232E+01 -0.26476473187E+01 -0.91056378060E+02  0.91302282277E+02  0.00000000000E+00 0. -1.
        -12    1    4    4    0    0  0.13416049724E+02  0.38459041731E+01  0.14198983302E+02  0.19909608131E+02  0.00000000000E+00 0.  1.
</event>
<event>
12    1  0.1040325E-001  0.1924739E+03  0.7818608E-02  0.1156415E+00
         21   -1    0    0  503  502  0.00000000000E+00  0.00000000000E+00  0.24326615242E+04  0.24326615242E+04  0.00000000000E+00 0. -1.
         21   -1    0    0  501  503 -0.00000000000E+00 -0.00000000000E+00 -0.15367713657E+02  0.15367713657E+02  0.00000000000E+00 0.  1.
          6    2    1    2  501    0 -0.84661313498E+02 -0.15537003044E+02  0.10673009351E+04  0.10843845040E+04  0.17131704539E+03 0.  0.
         24    2    3    3    0    0 -0.96203277632E+02  0.19630783158E+02  0.99598952895E+03  0.10039022279E+04  0.78639068755E+02 0.  0.
         -6    2    1    2    0  502  0.84661313498E+02  0.15537003044E+02  0.13499928754E+04  0.13636447338E+04  0.17215475564E+03 0.  0.
        -24    2    5    5    0    0  0.30476007282E+02 -0.28277367187E+02  0.11096246002E+04  0.11133354368E+04  0.80750510182E+02 0.  0.
          5    1    3    3  501    0  0.11541964135E+02 -0.35167786202E+02  0.71311406119E+02  0.80482276093E+02  0.47000000000E+01 0. -1.
        -11    1    4    4    0    0  0.89588061679E+01 -0.10100258615E+02  0.19865113862E+03  0.19910939282E+03  0.00000000000E+00 0.  1.
         12    1    4    4    0    0 -0.10516208380E+03  0.29731041773E+02  0.79733839033E+03  0.80479283509E+03  0.00000000000E+00 0. -1.
         -5    1    5    5    0  502  0.54185306215E+02  0.43814370232E+02  0.24036827522E+03  0.25030929703E+03  0.47000000000E+01 0.  1.
         11    1    6    6    0    0  0.57535590163E+02 -0.17845518381E+02  0.64511886837E+03  0.64792527424E+03  0.00000000000E+00 0. -1.
        -12    1    6    6    0    0 -0.27059582881E+02 -0.10431848806E+02  0.46450573184E+03  0.46541016255E+03  0.00000000000E+00 0.  1.
</event>
<event>
12    1  0.1040325E-001  0.2121999E+03  0.7818608E-02  0.1140029E+00
         21   -1    0    0  501  502  0.00000000000E+00  0.00000000000E+00  0.12812493658E+03  0.12812493658E+03  0.00000000000E+00 0. -1.
         21   -1    0    0  502  503 -0.00000000000E+00 -0.00000000000E+00 -0.11765219294E+04  0.11765219294E+04  0.00000000000E+00 0. -1.
         -6    2    1    2    0  503 -0.11329772094E+03  0.51887812015E+02 -0.10706487710E+04  0.10912835023E+04  0.17053496068E+03 0.  0.
        -24    2    3    3    0    0 -0.10103070112E+03  0.74120981547E+02 -0.53425969113E+03  0.55427314051E+03  0.78001116978E+02 0.  0.
          6    2    1    2  501    0  0.11329772094E+03 -0.51887812015E+02  0.22251778237E+02  0.21336336368E+03  0.17175582878E+03 0.  0.
         24    2    5    5    0    0 -0.83012314538E+01 -0.67293437225E+01 -0.46068694344E+01  0.80814997277E+02  0.79972783048E+02 0.  0.
          5    1    5    5  501    0  0.12159895239E+03 -0.45158468292E+02  0.26858647671E+02  0.13254836640E+03  0.47000000000E+01 0. -1.
        -11    1    6    6    0    0  0.12358627570E+02  0.29964176970E+02 -0.17421989508E+02  0.36798278429E+02  0.00000000000E+00 0.  1.
         12    1    6    6    0    0 -0.20659859024E+02 -0.36693520692E+02  0.12815120074E+02  0.44016718849E+02  0.00000000000E+00 0. -1.
         -5    1    3    3    0  503 -0.12267019815E+02 -0.22233169532E+02 -0.53638907989E+03  0.53701036175E+03  0.47000000000E+01 0.  1.
         11    1    4    4    0    0 -0.75895594838E+02  0.85111332980E+02 -0.48136146311E+03  0.49468468592E+03  0.00000000000E+00 0. -1.
        -12    1    4    4    0    0 -0.25135106286E+02 -0.10990351433E+02 -0.52898228013E+02  0.59588454582E+02  0.00000000000E+00 0.  1.
</event>
<event>
12    1  0.1040325E-001  0.2059845E+03  0.7818608E-02  0.1145110E+00
         21   -1    0    0  503  502  0.00000000000E+00  0.00000000000E+00  0.26797078604E+03  0.26797078604E+03  0.00000000000E+00 0.  1.
         21   -1    0    0  501  503 -0.00000000000E+00 -0.00000000000E+00 -0.36241934902E+03  0.36241934902E+03  0.00000000000E+00 0.  1.
          6    2    1    2  501    0 -0.57438581398E+02  0.93959092667E+02 -0.28453386610E+03  0.35126788694E+03  0.17407500024E+03 0.  0.
         24    2    3    3    0    0  0.78668248499E+00  0.89330314155E+02 -0.26620700386E+03  0.28987105620E+03  0.71962048489E+02 0.  0.
         -6    2    1    2    0  502  0.57438581398E+02 -0.93959092667E+02  0.19008530312E+03  0.27912224813E+03  0.17218973608E+03 0.  0.
        -24    2    5    5    0    0  0.30333455301E+02 -0.13210747438E+03  0.16656633981E+03  0.22653690300E+03  0.72125720538E+02 0.  0.
          5    1    3    3  501    0 -0.58225263883E+02  0.46287785117E+01 -0.18326862240E+02  0.61396830735E+02  0.47000000000E+01 0. -1.
        -11    1    4    4    0    0  0.27151655356E+01 -0.10675593605E+02 -0.56082222972E+02  0.57153793892E+02  0.00000000000E+00 0.  1.
         12    1    4    4    0    0 -0.19284830506E+01  0.10000590776E+03 -0.21012478089E+03  0.23271726231E+03  0.00000000000E+00 0. -1.
         -5    1    5    5    0  502  0.27105126097E+02  0.38148381711E+02  0.23518963308E+02  0.52585345135E+02  0.47000000000E+01 0.  1.
         11    1    6    6    0    0  0.41416356733E+01 -0.46611084231E+02  0.12555409895E+02  0.48449815654E+02  0.00000000000E+00 0. -1.
        -12    1    6    6    0    0  0.26191819628E+02 -0.85496390146E+02  0.15401092992E+03  0.17808708734E+03  0.00000000000E+00 0.  1.
</event>
<event>
12    1  0.1040325E-001  0.1752699E+03  0.7818608E-02  0.1172956E+00
         21   -1    0    0  503  502  0.00000000000E+00  0.00000000000E+00  0.37814241742E+03  0.37814241742E+03  0.00000000000E+00 0.  1.
         21   -1    0    0  501  503 -0.00000000000E+00 -0.00000000000E+00 -0.86026884894E+02  0.86026884894E+02  0.00000000000E+00 0.  1.
          6    2    1    2  501    0  0.20120770228E+02  0.78679406823E+01  0.87105588904E+02  0.19572155859E+03  0.17393330617E+03 0.  0.
         24    2    3    3    0    0 -0.22348149249E+02 -0.50790050318E+02  0.71821582333E+02  0.12155916997E+03  0.80865463136E+02 0.  0.
         -6    2    1    2    0  502 -0.20120770228E+02 -0.78679406823E+01  0.20500994362E+03  0.26844774372E+03  0.17195454120E+03 0.  0.
        -24    2    5    5    0    0  0.31838258181E+02  0.48310290309E+02  0.12663240144E+03  0.15880804567E+03  0.76398111504E+02 0.  0.
          5    1    3    3  501    0  0.42468919476E+02  0.58657991000E+02  0.15284006570E+02  0.74162388625E+02  0.47000000000E+01 0. -1.
        -13    1    4    4    0    0 -0.51154895948E+01 -0.15044677337E+02  0.79558155317E+02  0.81129591565E+02  0.00000000000E+00 0.  1.
         14    1    4    4    0    0 -0.17232659654E+02 -0.35745372981E+02 -0.77365729841E+01  0.40429578403E+02  0.00000000000E+00 0. -1.
         -5    1    5    5    0  502 -0.51959028409E+02 -0.56178230991E+02  0.78377542181E+02  0.10963969805E+03  0.47000000000E+01 0.  1.
         13    1    6    6    0    0  0.32615404455E+02 -0.10371812692E+00  0.96295823897E+02  0.10166937132E+03  0.00000000000E+00 0. -1.
        -14    1    6    6    0    0 -0.77714627413E+00  0.48414008436E+02  0.30336577545E+02  0.57138674349E+02  0.00000000000E+00 0.  1.
</event>
<event>
12    1  0.1040325E-001  0.2298936E+03  0.7818608E-02  0.1126985E+00
         21   -1    0    0  501  502  0.00000000000E+00  0.00000000000E+00  0.21668526000E+03  0.21668526000E+03  0.00000000000E+00 0.  1.
         21   -1    0    0  502  503 -0.00000000000E+00 -0.00000000000E+00 -0.24727161792E+03  0.24727161792E+03  0.00000000000E+00 0.  1.
         -6    2    1    2    0  503  0.14894967741E+03  0.18529623752E+02  0.17602719911E+02  0.23056649530E+03  0.17413127132E+03 0.  0.
        -24    2    3    3    0    0  0.75737604145E+02 -0.15514034687E+02 -0.51622176934E+02  0.12410920483E+03  0.82227584286E+02 0.  0.
          6    2    1    2  501    0 -0.14894967741E+03 -0.18529623752E+02 -0.48189077829E+02  0.23339038263E+03  0.17210325426E+03 0.  0.
         24    2    5    5    0    0 -0.15388806466E+03 -0.40567288672E+02 -0.79875199071E+02  0.19419667621E+03  0.77492323934E+02 0.  0.
          5    1    5    5  501    0  0.49383872522E+01  0.22037664920E+02  0.31686121241E+02  0.39193706422E+02  0.47000000000E+01 0. -1.
        -11    1    6    6    0    0 -0.52112337208E+02 -0.50226403235E+02 -0.48998076911E+02  0.87402510331E+02  0.00000000000E+00 0.  1.
         12    1    6    6    0    0 -0.10177572745E+03  0.96591145627E+01 -0.30877122160E+02  0.10679416588E+03  0.00000000000E+00 0. -1.
         -5    1    3    3    0  503  0.73212073262E+02  0.34043658439E+02  0.69224896846E+02  0.10645729047E+03  0.47000000000E+01 0.  1.
         13    1    4    4    0    0  0.81340429856E+02 -0.37805741028E+02 -0.43883408173E+02  0.99856362324E+02  0.00000000000E+00 0. -1.
        -14    1    4    4    0    0 -0.56028257104E+01  0.22291706341E+02 -0.77387687613E+01  0.24252842503E+02  0.00000000000E+00 0.  1.
</event>
<event>
12    1  0.1040325E-001  0.1954392E+03  0.7818608E-02  0.1154557E+00
         21   -1    0    0  501  502  0.00000000000E+00  0.00000000000E+00  0.66098475326E+02  0.66098475326E+02  0.00000000000E+00 0. -1.
         21   -1    0    0  502  503 -0.00000000000E+00 -0.00000000000E+00 -0.69290608115E+03  0.69290608115E+03  0.00000000000E+00 0. -1.
         -6    2    1    2    0  503  0.92324821148E+02 -0.15498567117E+02 -0.47327076632E+03  0.51046873574E+03  0.16682036365E+03 0.  0.
        -24    2    3    3    0    0  0.69777691301E+01  0.11439143103E+02 -0.11576889543E+03  0.14190471524E+03  0.80962755630E+02 0.  0.
          6    2    1    2  501    0 -0.92324821148E+02  0.15498567117E+02 -0.15353683951E+03  0.24853582074E+03  0.17155877979E+03 0.  0.
         24    2    5    5    0    0 -0.13197731418E+03  0.15302086624E+02 -0.11393884467E+03  0.19230015587E+03  0.79656288570E+02 0.  0.
          5    1    5    5  501    0  0.39652493037E+02  0.19648049263E+00 -0.39597994832E+02  0.56235664869E+02  0.47000000000E+01 0. -1.
        -11    1    6    6    0    0 -0.34728774834E+02  0.70964509052E+01 -0.82458578595E+02  0.89754468417E+02  0.00000000000E+00 0.  1.
         12    1    6    6    0    0 -0.97248539351E+02  0.82056357190E+01 -0.31480266079E+02  0.10254568746E+03  0.00000000000E+00 0. -1.
         -5    1    3    3    0  503  0.85347052018E+02 -0.26937710220E+02 -0.35750187089E+03  0.36856402050E+03  0.47000000000E+01 0.  1.
         13    1    4    4    0    0  0.42623955137E+02  0.14701732427E+02 -0.76260404928E+02  0.88592278713E+02  0.00000000000E+00 0. -1.
        -14    1    4    4    0    0 -0.35646186007E+02 -0.32625893237E+01 -0.39508490507E+02  0.53312436524E+02  0.00000000000E+00 0.  1.
</event>
<event>
12    1  0.1040325E-001  0.1891616E+03  0.7818608E-02  0.1159626E+00
         21   -1    0    0  503  502  0.00000000000E+00  0.00000000000E+00  0.24397913206E+03  0.24397913206E+03  0.00000000000E+00 0.  1.
         21   -1    0    0  501  503 -0.00000000000E+00 -0.00000000000E+00 -0.21001929420E+03  0.21001929420E+03  0.00000000000E+00 0.  1.
          6    2    1    2  501    0  0.71121901547E+02 -0.25252967276E+02 -0.10899445033E+03  0.21831601561E+03  0.17345332292E+03 0.  0.
         24    2    3    3    0    0  0.50431596827E+02 -0.12002851583E+02 -0.14530202138E+03  0.17422538179E+03  0.80959198590E+02 0.  0.
         -6    2    1    2    0  502 -0.71121901547E+02  0.25252967276E+02  0.14295428819E+03  0.23568241066E+03  0.17150578108E+03 0.  0.
        -24    2    5    5    0    0 -0.43780262124E+02 -0.92084957423E+01  0.16321970644E+03  0.18702097976E+03  0.79590618517E+02 0.  0.
          5    1    3    3  501    0  0.20690304720E+02 -0.13250115693E+02  0.36307571047E+02  0.44090633820E+02  0.47000000000E+01 0. -1.
        -13    1    4    4    0    0  0.58067153915E+02 -0.20174749646E+00 -0.46398406980E+02  0.74327970752E+02  0.00000000000E+00 0.  1.
         14    1    4    4    0    0 -0.76355570879E+01 -0.11801104086E+02 -0.98903614401E+02  0.99897411033E+02  0.00000000000E+00 0. -1.
         -5    1    5    5    0  502 -0.27341639423E+02  0.34461463018E+02 -0.20265418249E+02  0.48661430892E+02  0.47000000000E+01 0.  1.
         11    1    6    6    0    0 -0.44656412983E+02  0.21132586636E+02  0.14099683493E+03  0.14940177006E+03  0.00000000000E+00 0. -1.
        -12    1    6    6    0    0  0.87615085912E+00 -0.30341082379E+02  0.22222871513E+02  0.37619209701E+02  0.00000000000E+00 0.  1.
</event>
<event>
12    1  0.1040325E-001  0.1924323E+03  0.7818608E-02  0.1156440E+00
         21   -1    0    0  501  502  0.00000000000E+00  0.00000000000E+00  0.18125828181E+03  0.18125828181E+03  0.00000000000E+00 0.  1.
         21   -1    0    0  502  503 -0.00000000000E+00 -0.00000000000E+00 -0.24075301801E+03  0.24075301801E+03  0.00000000000E+00 0.  1.
         -6    2    1    2    0  503 -0.86870776716E+02 -0.63861834169E+01 -0.11272945821E+03  0.22302046060E+03  0.17158927680E+03 0.  0.
        -24    2    3    3    0    0 -0.77631175624E+01  0.18194282753E+02 -0.12419014151E+03  0.13926093388E+03  0.59825734740E+02 0.  0.
          6    2    1    2  501    0  0.86870776716E+02  0.63861834169E+01  0.53234722009E+02  0.19899083922E+03  0.17081013811E+03 0.  0.
         24    2    5    5    0    0  0.23323399483E+02  0.94025647095E+01  0.92051496936E+02  0.12431688309E+03  0.79679483843E+02 0.  0.
          5    1    5    5  501    0  0.63547377233E+02 -0.30163812927E+01 -0.38816774927E+02  0.74673956136E+02  0.47000000000E+01 0. -1.
        -11    1    6    6    0    0  0.28097071678E+02 -0.21649973286E+02  0.85019648081E+02  0.92122241289E+02  0.00000000000E+00 0.  1.
         12    1    6    6    0    0 -0.47736721944E+01  0.31052537995E+02  0.70318488548E+01  0.32194641798E+02  0.00000000000E+00 0. -1.
         -5    1    3    3    0  503 -0.79107659154E+02 -0.24580466170E+02  0.11460683304E+02  0.83759526716E+02  0.47000000000E+01 0.  1.
         13    1    4    4    0    0  0.12155415474E+02  0.26469104900E+02 -0.27033370359E+02  0.39738781468E+02  0.00000000000E+00 0. -1.
        -14    1    4    4    0    0 -0.19918533037E+02 -0.82748221471E+01 -0.97156771156E+02  0.99522152415E+02  0.00000000000E+00 0.  1.
</event>
<event>
12    1  0.1040325E-001  0.2357314E+03  0.7818608E-02  0.1124606E+00
         21   -1    0    0  503  502  0.00000000000E+00  0.00000000000E+00  0.12357022743E+03  0.12357022743E+03  0.00000000000E+00 0.  1.
         21   -1    0    0  501  503 -0.00000000000E+00 -0.00000000000E+00 -0.43450149653E+03  0.43450149653E+03  0.00000000000E+00 0.  1.
          6    2    1    2  501    0  0.50424750580E+02  0.13030891728E+03 -0.19105077714E+03  0.30342987105E+03  0.18985841515E+03 0.  0.
         24    2    3    3    0    0 -0.19975688638E+02  0.34962944364E+02 -0.14354099016E+02  0.90613324567E+02  0.79895549409E+02 0.  0.
         -6    2    1    2    0  502 -0.50424750580E+02 -0.13030891728E+03 -0.11988049195E+03  0.25464185291E+03  0.17592063980E+03 0.  0.
        -24    2    5    5    0    0 -0.89461148578E+02 -0.10364246071E+03 -0.44285505396E+02  0.16535785509E+03  0.81467524107E+02 0.  0.
          5    1    3    3  501    0  0.70400439218E+02  0.95345972921E+02 -0.17669667813E+03  0.21281654648E+03  0.47000000000E+01 0. -1.
        -13    1    4    4    0    0 -0.74244300758E+01  0.59589272146E+02 -0.13462522083E+01  0.60065097285E+02  0.00000000000E+00 0.  1.
         14    1    4    4    0    0 -0.12551258563E+02 -0.24626327782E+02 -0.13007846808E+02  0.30548227282E+02  0.00000000000E+00 0. -1.
         -5    1    5    5    0  502  0.39036397998E+02 -0.26666456572E+02 -0.75594986558E+02  0.89283997825E+02  0.47000000000E+01 0.  1.
         11    1    6    6    0    0 -0.44460455014E+02 -0.30986762832E+02  0.20681051078E+02  0.58005322210E+02  0.00000000000E+00 0. -1.
        -12    1    6    6    0    0 -0.45000693564E+02 -0.72655697880E+02 -0.64966556474E+02  0.10735253288E+03  0.00000000000E+00 0.  1.
</event>
<event>
12    1  0.1040325E-001  0.1841638E+03  0.7818608E-02  0.1163878E+00
         21   -1    0    0  501  502  0.00000000000E+00  0.00000000000E+00  0.26890354396E+03  0.26890354396E+03  0.00000000000E+00 0. -1.
         21   -1    0    0  502  503 -0.00000000000E+00 -0.00000000000E+00 -0.14677299773E+03  0.14677299773E+03  0.00000000000E+00 0.  1.
         -6    2    1    2    0  503 -0.12654309156E+02  0.61078881656E+02 -0.17155214829E+02  0.18477217580E+03  0.17307713376E+03 0.  0.
        -24    2    3    3    0    0 -0.52257417199E+01  0.10604423192E+03  0.45405488767E+01  0.13407836453E+03  0.81753921922E+02 0.  0.
          6    2    1    2  501    0  0.12654309156E+02 -0.61078881656E+02  0.13928576106E+03  0.23090436588E+03  0.17327879739E+03 0.  0.
         24    2    5    5    0    0 -0.50726417758E+02 -0.10718108885E+02  0.38191726580E+02  0.10130722940E+03  0.78208052224E+02 0.  0.
          5    1    5    5  501    0  0.63380726914E+02 -0.50360772771E+02  0.10109403448E+03  0.12959713649E+03  0.47000000000E+01 0. -1.
        -11    1    6    6    0    0  0.18870490137E+01 -0.25335141096E+02 -0.11118591738E+02  0.27731812248E+02  0.00000000000E+00 0.  1.
         12    1    6    6    0    0 -0.52613466771E+02  0.14617032211E+02  0.49310318318E+02  0.73575417151E+02  0.00000000000E+00 0. -1.
         -5    1    3    3    0  503 -0.74285674362E+01 -0.44965350268E+02 -0.21695763705E+02  0.50693811276E+02  0.47000000000E+01 0.  1.
         13    1    4    4    0    0  0.28510211671E+02  0.24856024571E+02  0.22965537485E+02  0.44250085186E+02  0.00000000000E+00 0. -1.
        -14    1    4    4    0    0 -0.33735953391E+02  0.81188207353E+02 -0.18424988609E+02  0.89828279343E+02  0.00000000000E+00 0.  1.
</event>
<event>
12    1  0.1040325E-001  0.2358076E+03  0.7818608E-02  0.1122840E+00
         21   -1    0    0  501  502  0.00000000000E+00  0.00000000000E+00  0.95476649410E+02  0.95476649410E+02  0.00000000000E+00 0.  1.
         21   -1    0    0  502  503 -0.00000000000E+00 -0.00000000000E+00 -0.15066040667E+04  0.15066040667E+04  0.00000000000E+00 0.  1.
         -6    2    1    2    0  503  0.15675745897E+03 -0.30057070923E+02 -0.13347985210E+04  0.13554675617E+04  0.17357675738E+03 0.  0.
        -24    2    3    3    0    0  0.12468461926E+03 -0.56915386524E+02 -0.61453661772E+03  0.63397651152E+03  0.74063129462E+02 0.  0.
          6    2    1    2  501    0 -0.15675745897E+03  0.30057070923E+02 -0.76328896278E+02  0.24661315440E+03  0.17180110320E+03 0.  0.
         24    2    5    5    0    0 -0.13978293154E+03  0.14939304106E+02  0.51584406191E+01  0.16188442533E+03  0.80109343387E+02 0.  0.
          5    1    5    5  501    0 -0.16974527433E+02  0.15117766817E+02 -0.81487336897E+02  0.84728729069E+02  0.47000000000E+01 0. -1.
        -11    1    6    6    0    0 -0.99773314591E+02  0.34375219868E+02 -0.24611363256E+02  0.10836092122E+03  0.00000000000E+00 0.  1.
         12    1    6    6    0    0 -0.40009616947E+02 -0.19435915762E+02  0.29769803876E+02  0.53523504113E+02  0.00000000000E+00 0. -1.
         -5    1    3    3    0  503  0.32072839714E+02  0.26858315601E+02 -0.72026190327E+03  0.72149105016E+03  0.47000000000E+01 0.  1.
         11    1    4    4    0    0  0.27577535604E+02  0.17476486301E+02 -0.10483619919E+03  0.10980244398E+03  0.00000000000E+00 0. -1.
        -12    1    4    4    0    0  0.97107083653E+02 -0.74391872825E+02 -0.50970041853E+03  0.52417406754E+03  0.00000000000E+00 0.  1.
</event>
<event>
12    1  0.1040325E-001  0.1734040E+03  0.7818608E-02  0.1174447E+00
         21   -1    0    0  501  502  0.00000000000E+00  0.00000000000E+00  0.40586559550E+03  0.40586559550E+03  0.00000000000E+00 0.  1.
         21   -1    0    0  502  503 -0.00000000000E+00 -0.00000000000E+00 -0.10829243790E+03  0.10829243790E+03  0.00000000000E+00 0.  1.
         -6    2    1    2    0  503 -0.31056755088E+01 -0.19286379435E+02  0.38159157279E+01  0.17303888385E+03  0.17189032684E+03 0.  0.
        -24    2    3    3    0    0  0.46894969966E+02 -0.87840819252E+01 -0.40908680567E+02  0.10497463248E+03  0.84082429888E+02 0.  0.
          6    2    1    2  501    0  0.31056755088E+01  0.19286379435E+02  0.29375724188E+03  0.34111914955E+03  0.17230016651E+03 0.  0.
         24    2    5    5    0    0 -0.36353634735E+02 -0.19480017202E+02  0.26541072358E+03  0.27878548471E+03  0.74682236580E+02 0.  0.
          5    1    5    5  501    0  0.39459310243E+02  0.38766396637E+02  0.28346518293E+02  0.62333664840E+02  0.47000000000E+01 0. -1.
        -13    1    6    6    0    0 -0.18703061873E+02  0.11696798409E+01  0.24257321245E+03  0.24329598449E+03  0.00000000000E+00 0.  1.
         14    1    6    6    0    0 -0.17650572861E+02 -0.20649697043E+02  0.22837511136E+02  0.35489500211E+02  0.00000000000E+00 0. -1.
         -5    1    3    3    0  503 -0.50000645474E+02 -0.10502297510E+02  0.44724596295E+02  0.68064251370E+02  0.47000000000E+01 0.  1.
         13    1    4    4    0    0  0.13339758580E+01 -0.94558041124E+01  0.23907787990E+02  0.25744398412E+02  0.00000000000E+00 0. -1.
        -14    1    4    4    0    0  0.45560994108E+02  0.67172218721E+00 -0.64816468557E+02  0.79230234071E+02  0.00000000000E+00 0.  1.
</event>
<event>
12    1  0.1040325E-001  0.2999956E+03  0.7818608E-02  0.1085627E+00
         21   -1    0    0  501  502  0.00000000000E+00  0.00000000000E+00  0.76287351016E+03  0.76287351016E+03  0.00000000000E+00 0.  1.
         21   -1    0    0  502  503 -0.00000000000E+00 -0.00000000000E+00 -0.14681204373E+03  0.14681204373E+03  0.00000000000E+00 0. -1.
         -6    2    1    2    0  503 -0.29324037201E+01  0.24265398828E+03  0.10103724024E+03  0.31365926858E+03  0.17112584792E+03 0.  0.
        -24    2    3    3    0    0 -0.29782645436E+02  0.48785746925E+02 -0.17276208864E+02  0.84910513988E+02  0.60367813617E+02 0.  0.
          6    2    1    2  501    0  0.29324037201E+01 -0.24265398828E+03  0.51502422619E+03  0.59602628531E+03  0.17637409731E+03 0.  0.
         24    2    5    5    0    0 -0.26490220656E+02 -0.24418724498E+03  0.49946533063E+03  0.56237794312E+03  0.80462363935E+02 0.  0.
          5    1    5    5  501    0  0.29422624376E+02  0.15332566909E+01  0.15558895562E+02  0.33648342193E+02  0.47000000000E+01 0. -1.
        -13    1    6    6    0    0 -0.24079472984E+02 -0.11322675230E+03  0.31926523459E+03  0.33960331046E+03  0.00000000000E+00 0.  1.
         14    1    6    6    0    0 -0.24107476719E+01 -0.13096049268E+03  0.18020009604E+03  0.22277463266E+03  0.00000000000E+00 0. -1.
         -5    1    3    3    0  503  0.26850241716E+02  0.19386824136E+03  0.11831344910E+03  0.22874875459E+03  0.47000000000E+01 0.  1.
         13    1    4    4    0    0  0.13866486209E+02  0.31788545809E+02 -0.15627909879E+02  0.38039750941E+02  0.00000000000E+00 0. -1.
        -14    1    4    4    0    0 -0.43649131645E+02  0.16997201116E+02 -0.16482989841E+01  0.46870763048E+02  0.00000000000E+00 0.  1.
</event>
<event>
12    1  0.1040325E-001  0.1755451E+03  0.7818608E-02  0.1172195E+00
         21   -1    0    0  503  502  0.00000000000E+00  0.00000000000E+00  0.36245769649E+03  0.36245769649E+03  0.00000000000E+00 0.  1.
         21   -1    0    0  501  503 -0.00000000000E+00 -0.00000000000E+00 -0.36407787800E+03  0.36407787800E+03  0.00000000000E+00 0.  1.
          6    2    1    2  501    0  0.24911598510E+02  0.24831905249E+02 -0.31885678988E+03  0.36398588777E+03  0.17198506559E+03 0.  0.
         24    2    3    3    0    0 -0.28068873054E+02  0.65983446467E+02 -0.17801189718E+03  0.20790977329E+03  0.79978506178E+02 0.  0.
         -6    2    1    2    0  502 -0.24911598510E+02 -0.24831905249E+02  0.31723660837E+03  0.36254968672E+03  0.17194766178E+03 0.  0.
        -24    2    5    5    0    0 -0.62098732957E-01 -0.59924527342E+02  0.30032961364E+03  0.31610696678E+03  0.78324866962E+02 0.  0.
          5    1    3    3  501    0  0.52980471564E+02 -0.41151541219E+02 -0.14084489270E+03  0.15607611448E+03  0.47000000000E+01 0. -1.
        -11    1    4    4    0    0 -0.96840501071E+01  0.63591758604E+02 -0.17811013195E+03  0.18936977503E+03  0.00000000000E+00 0.  1.
         12    1    4    4    0    0 -0.18384822947E+02  0.23916878630E+01  0.98234774152E-01  0.18539998265E+02  0.00000000000E+00 0. -1.
         -5    1    5    5    0  502 -0.24849499777E+02  0.35092622094E+02  0.16906994730E+02  0.46442719940E+02  0.47000000000E+01 0.  1.
         11    1    6    6    0    0  0.30444196846E+02  0.30651004203E+00  0.77212096640E+02  0.82997897187E+02  0.00000000000E+00 0. -1.
        -12    1    6    6    0    0 -0.30506295579E+02 -0.60231037384E+02  0.22311751700E+03  0.23310906959E+03  0.00000000000E+00 0.  1.
</event>
<event>
12    1  0.1040325E-001  0.1850541E+03  0.7818608E-02  0.1164849E+00
         21   -1    0    0  503  502  0.00000000000E+00  0.00000000000E+00  0.14956694690E+03  0.14956694690E+03  0.00000000000E+00 0. -1.
         21   -1    0    0  501  503 -0.00000000000E+00 -0.00000000000E+00 -0.27646243917E+03  0.27646243917E+03  0.00000000000E+00 0.  1.
          6    2    1    2  501    0  0.43942666167E+00  0.41695795328E+02  0.34323534272E+02  0.18059794272E+03  0.17233333823E+03 0.  0.
         24    2    3    3    0    0  0.65898611737E+01 -0.40936282026E+02  0.33697637232E+02  0.97601739190E+02  0.81678413804E+02 0.  0.
         -6    2    1    2    0  502 -0.43942666167E+00 -0.41695795328E+02 -0.16121902654E+03  0.24543144336E+03  0.18029499834E+03 0.  0.
        -24    2    5    5    0    0 -0.30091652671E+02 -0.62435022169E+02 -0.29850700564E+02  0.10908960420E+03  0.78777140502E+02 0.  0.
          5    1    3    3  501    0 -0.61504345120E+01  0.82632077354E+02  0.62589704041E+00  0.82996203526E+02  0.47000000000E+01 0. -1.
        -11    1    4    4    0    0  0.22654206033E+02 -0.47336474638E+02 -0.74159870929E+01  0.52999544778E+02  0.00000000000E+00 0.  1.
         12    1    4    4    0    0 -0.16064344859E+02  0.64001926121E+01  0.41113624325E+02  0.44602194412E+02  0.00000000000E+00 0. -1.
         -5    1    5    5    0  502  0.29652226009E+02  0.20739226841E+02 -0.13136832598E+03  0.13634183917E+03  0.47000000000E+01 0.  1.
         11    1    6    6    0    0  0.19370854221E+02 -0.53319066345E+01  0.11311719029E+02  0.23056760592E+02  0.00000000000E+00 0. -1.
        -12    1    6    6    0    0 -0.49462506892E+02 -0.57103115535E+02 -0.41162419593E+02  0.86032843604E+02  0.00000000000E+00 0.  1.
</event>
<event>
12    1  0.1040325E-001  0.2792957E+03  0.7818608E-02  0.1096221E+00
         21   -1    0    0  503  502  0.00000000000E+00  0.00000000000E+00  0.17336116519E+03  0.17336116519E+03  0.00000000000E+00 0.  1.
         21   -1    0    0  501  503 -0.00000000000E+00 -0.00000000000E+00 -0.47715559132E+03  0.47715559132E+03  0.00000000000E+00 0.  1.
          6    2    1    2  501    0 -0.11142745958E+03  0.18830155338E+03 -0.23169361557E+03  0.36206463804E+03  0.17185842100E+03 0.  0.
         24    2    3    3    0    0 -0.85330108623E+02  0.36610724161E+02 -0.13860014309E+03  0.18212113575E+03  0.73051597258E+02 0.  0.
         -6    2    1    2    0  502  0.11142745958E+03 -0.18830155338E+03 -0.72100810563E+02  0.28845211847E+03  0.17358728066E+03 0.  0.
        -24    2    5    5    0    0  0.11738592548E+03 -0.13491154376E+03 -0.10723596795E+03  0.22408935184E+03  0.82072557200E+02 0.  0.
          5    1    3    3  501    0 -0.26097350959E+02  0.15169082922E+03 -0.93093472483E+02  0.17994350229E+03  0.47000000000E+01 0. -1.
        -11    1    4    4    0    0 -0.22006034590E+02  0.39903117675E+02 -0.94410898764E+02  0.10483292500E+03  0.00000000000E+00 0.  1.
         12    1    4    4    0    0 -0.63324074033E+02 -0.32923935141E+01 -0.44189244325E+02  0.77288210751E+02  0.00000000000E+00 0. -1.
         -5    1    5    5    0  502 -0.59584658952E+01 -0.53390009623E+02  0.35135157386E+02  0.64362766628E+02  0.47000000000E+01 0.  1.
         11    1    6    6    0    0  0.75419499372E+02 -0.25943721762E+02 -0.38129595549E+02  0.88402735484E+02  0.00000000000E+00 0. -1.
        -12    1    6    6    0    0  0.41966426105E+02 -0.10896782200E+03 -0.69106372400E+02  0.13568661635E+03  0.00000000000E+00 0.  1.
</event>
<event>
12    1  0.1040325E-001  0.1776334E+03  0.7818608E-02  0.1170183E+00
         21   -1    0    0  501  502  0.00000000000E+00  0.00000000000E+00  0.39635293864E+03  0.39635293864E+03  0.00000000000E+00 0.  1.
         21   -1    0    0  502  503 -0.00000000000E+00 -0.00000000000E+00 -0.16329397654E+03  0.16329397654E+03  0.00000000000E+00 0.  1.
         -6    2    1    2    0  503 -0.76875906279E+01 -0.43318746760E+02 -0.83895737267E+02  0.19644873125E+03  0.17209879839E+03 0.  0.
        -24    2    3    3    0    0 -0.58600622997E+02 -0.13300047866E+02 -0.21866097994E+02  0.11064065881E+03  0.90290114914E+02 0.  0.
          6    2    1    2  501    0  0.76875906279E+01  0.43318746760E+02  0.31695469937E+03  0.36319818392E+03  0.17180519923E+03 0.  0.
         24    2    5    5    0    0 -0.16462487084E+02  0.11814644448E+02  0.57884212839E+02  0.10106207098E+03  0.80326588319E+02 0.  0.
          5    1    5    5  501    0  0.24150077712E+02  0.31504102311E+02  0.25907048653E+03  0.26213611294E+03  0.47000000000E+01 0. -1.
        -11    1    6    6    0    0  0.11648620167E+02  0.35294712391E+02  0.52073298863E+02  0.63976835879E+02  0.00000000000E+00 0.  1.
         12    1    6    6    0    0 -0.28111107252E+02 -0.23480067943E+02  0.58109139752E+01  0.37085235104E+02  0.00000000000E+00 0. -1.
         -5    1    3    3    0  503  0.50913032370E+02 -0.30018698893E+02 -0.62029639272E+02  0.85808072444E+02  0.47000000000E+01 0.  1.
         11    1    4    4    0    0 -0.24166398976E+01  0.12580939190E+02  0.28256151510E+02  0.31024672077E+02  0.00000000000E+00 0. -1.
        -12    1    4    4    0    0 -0.56183983100E+02 -0.25880987056E+02 -0.50122249505E+02  0.79615986732E+02  0.00000000000E+00 0.  1.
</event>
<event>
12    1  0.1040325E-001  0.1849047E+03  0.7818608E-02  0.1163269E+00
         21   -1    0    0  503  502  0.00000000000E+00  0.00000000000E+00  0.52577544386E+03  0.52577544386E+03  0.00000000000E+00 0. -1.
         21   -1    0    0  501  503 -0.00000000000E+00 -0.00000000000E+00 -0.77800307903E+02  0.77800307903E+02  0.00000000000E+00 0. -1.
          6    2    1    2  501    0  0.46714700788E+02  0.49064333343E+02  0.34747805217E+03  0.39361240689E+03  0.17204696464E+03 0.  0.
         24    2    3    3    0    0 -0.39903354126E+02  0.29769813097E+02  0.20701227119E+03  0.22739660868E+03  0.79853727363E+02 0.  0.
         -6    2    1    2    0  502 -0.46714700788E+02 -0.49064333343E+02  0.10049708379E+03  0.20996334488E+03  0.17145078088E+03 0.  0.
        -24    2    5    5    0    0  0.10561053011E+02  0.66846944943E+01  0.99473204125E+02  0.12989085017E+03  0.82586279969E+02 0.  0.
          5    1    3    3  501    0  0.86618054915E+02  0.19294520246E+02  0.14046578098E+03  0.16621579821E+03  0.47000000000E+01 0. -1.
        -13    1    4    4    0    0  0.11875604328E+02  0.33372969065E+02  0.44978037384E+02  0.57252151831E+02  0.00000000000E+00 0.  1.
         14    1    4    4    0    0 -0.51778958455E+02 -0.36031559680E+01  0.16203423380E+03  0.17014445685E+03  0.00000000000E+00 0. -1.
         -5    1    5    5    0  502 -0.57275753800E+02 -0.55749027838E+02  0.10238796671E+01  0.80072494702E+02  0.47000000000E+01 0.  1.
         11    1    6    6    0    0  0.14336296659E+02 -0.95820443467E+01 -0.94715413801E+01  0.19673715253E+02  0.00000000000E+00 0. -1.
        -12    1    6    6    0    0 -0.37752436476E+01  0.16266738841E+02  0.10894474551E+03  0.11021713492E+03  0.00000000000E+00 0.  1.
</event>
<event>
12    1  0.1040325E-001  0.2020494E+03  0.7818608E-02  0.1148253E+00
         21   -1    0    0  501  502  0.00000000000E+00  0.00000000000E+00  0.24822364794E+03  0.24822364794E+03  0.00000000000E+00 0. -1.
         21   -1    0    0  502  503 -0.00000000000E+00 -0.00000000000E+00 -0.54228359814E+03  0.54228359814E+03  0.00000000000E+00 0. -1.
         -6    2    1    2    0  503  0.22528552864E+02 -0.10216323433E+03 -0.47746202766E+03  0.51845342560E+03  0.17285573324E+03 0.  0.
        -24    2    3    3    0    0  0.59414647721E+02 -0.70869192518E+02 -0.18782502877E+03  0.22476722883E+03  0.81789503673E+02 0.  0.
          6    2    1    2  501    0 -0.22528552864E+02  0.10216323433E+03  0.18340207746E+03  0.27205382047E+03  0.17155785342E+03 0.  0.
         24    2    5    5    0    0  0.51886200195E+01  0.60117482542E+02  0.10954652601E+02  0.92342131207E+02  0.69036449050E+02 0.  0.
          5    1    5    5  501    0 -0.27717172884E+02  0.42045751789E+02  0.17244742486E+03  0.17971168926E+03  0.47000000000E+01 0. -1.
        -11    1    6    6    0    0  0.84054720955E+01 -0.14124188433E+02  0.71773680004E+01  0.17934861902E+02  0.00000000000E+00 0.  1.
         12    1    6    6    0    0 -0.32168520760E+01  0.74241670975E+02  0.37772846006E+01  0.74407269305E+02  0.00000000000E+00 0. -1.
         -5    1    3    3    0  503 -0.36886094856E+02 -0.31294041813E+02 -0.28963699889E+03  0.29368619677E+03  0.47000000000E+01 0.  1.
         11    1    4    4    0    0  0.20438638160E+02 -0.35133335510E+02 -0.15986516696E+03  0.16495138921E+03  0.00000000000E+00 0. -1.
        -12    1    4    4    0    0  0.38976009561E+02 -0.35735857008E+02 -0.27959861811E+02  0.59815839623E+02  0.00000000000E+00 0.  1.
</event>
<event>
12    1  0.1040325E-001  0.1741532E+03  0.7818608E-02  0.1173910E+00
         21   -1    0    0  501  502  0.00000000000E+00  0.00000000000E+00  0.55006395739E+02  0.55006395739E+02  0.00000000000E+00 0.  1.
         21   -1    0    0  502  503 -0.00000000000E+00 -0.00000000000E+00 -0.92748762846E+03  0.92748762846E+03  0.00000000000E+00 0.  1.
         -6    2    1    2    0  503  0.92213862055E+01  0.19245430267E+02 -0.74979520349E+03  0.76946535638E+03  0.17154785613E+03 0.  0.
        -24    2    3    3    0    0 -0.14442612308E+02  0.71141057410E+02 -0.37238980799E+03  0.38774548069E+03  0.80017183177E+02 0.  0.
          6    2    1    2  501    0 -0.92213862055E+01 -0.19245430267E+02 -0.12268602922E+03  0.21302866781E+03  0.17284076774E+03 0.  0.
         24    2    5    5    0    0  0.44672704929E+02 -0.19647654709E+02 -0.17481724700E+02  0.94729172741E+02  0.79286345409E+02 0.  0.
          5    1    5    5  501    0 -0.53894091135E+02  0.40222444214E+00 -0.10520430452E+03  0.11829949507E+03  0.47000000000E+01 0. -1.
        -13    1    6    6    0    0 -0.83729039303E+01 -0.33101046960E+01  0.23871705311E+02  0.25513146176E+02  0.00000000000E+00 0.  1.
         14    1    6    6    0    0  0.53045608859E+02 -0.16337550013E+02 -0.41353430011E+02  0.69216026565E+02  0.00000000000E+00 0. -1.
         -5    1    3    3    0  503  0.23663998513E+02 -0.51895627143E+02 -0.37740539550E+03  0.38171987569E+03  0.47000000000E+01 0.  1.
         13    1    4    4    0    0  0.23918942152E+02  0.50853634455E+02 -0.13192004628E+03  0.14339144515E+03  0.00000000000E+00 0. -1.
        -14    1    4    4    0    0 -0.38361554460E+02  0.20287422956E+02 -0.24046976171E+03  0.24435403554E+03  0.00000000000E+00 0.  1.
</event>
<event>
12    1  0.1040325E-001  0.2220148E+03  0.7818608E-02  0.1132531E+00
         21   -1    0    0  503  502  0.00000000000E+00  0.00000000000E+00  0.51074971638E+03  0.51074971638E+03  0.00000000000E+00 0.  1.
         21   -1    0    0  501  503 -0.00000000000E+00 -0.00000000000E+00 -0.16255821346E+03  0.16255821346E+03  0.00000000000E+00 0.  1.
          6    2    1    2  501    0  0.13653585609E+03  0.36474716371E+02 -0.40862788601E+02  0.22574394505E+03  0.17122533778E+03 0.  0.
         24    2    3    3    0    0  0.67033511001E+02  0.86409033581E+02 -0.25141180221E+02  0.13860456830E+03  0.81358064937E+02 0.  0.
         -6    2    1    2    0  502 -0.13653585609E+03 -0.36474716371E+02  0.38905429153E+03  0.44756398479E+03  0.17022876900E+03 0.  0.
        -24    2    5    5    0    0 -0.39788113353E+02 -0.22605650048E+02  0.30502117617E+03  0.31858285748E+03  0.79768476167E+02 0.  0.
          5    1    3    3  501    0  0.69502345094E+02 -0.49934317211E+02 -0.15721608380E+02  0.87139376742E+02  0.47000000000E+01 0. -1.
        -13    1    4    4    0    0 -0.12850114170E+02  0.33697609613E+02  0.86847599813E+01  0.37095543987E+02  0.00000000000E+00 0.  1.
         14    1    4    4    0    0  0.79883625171E+02  0.52711423969E+02 -0.33825940202E+02  0.10150902432E+03  0.00000000000E+00 0. -1.
         -5    1    5    5    0  502 -0.96747742742E+02 -0.13869066323E+02  0.84033115358E+02  0.12898112731E+03  0.47000000000E+01 0.  1.
         11    1    6    6    0    0  0.16026473413E+02 -0.41976647587E+01  0.14011295868E+02  0.21697572477E+02  0.00000000000E+00 0. -1.
        -12    1    6    6    0    0 -0.55814586766E+02 -0.18407985289E+02  0.29100988030E+03  0.29688528500E+03  0.00000000000E+00 0.  1.
</event>
<event>
12    1  0.1040325E-001  0.1731647E+03  0.7818608E-02  0.1174801E+00
         21   -1    0    0  503  502  0.00000000000E+00  0.00000000000E+00  0.71567493124E+02  0.71567493124E+02  0.00000000000E+00 0.  1.
         21   -1    0    0  501  503 -0.00000000000E+00 -0.00000000000E+00 -0.43726762609E+03  0.43726762609E+03  0.00000000000E+00 0.  1.
          6    2    1    2  501    0  0.90038175899E+00 -0.24157024215E+02 -0.23724955047E+03  0.29323000962E+03  0.17062273248E+03 0.  0.
         24    2    3    3    0    0 -0.92280108008E+01  0.51656512902E+02 -0.12595061378E+03  0.15810110800E+03  0.79867713944E+02 0.  0.
         -6    2    1    2    0  502 -0.90038175899E+00  0.24157024215E+02 -0.12845058250E+03  0.21560510959E+03  0.17146906028E+03 0.  0.
        -24    2    5    5    0    0 -0.45294630828E+02  0.43233887550E+02 -0.32124477769E+02  0.10773674297E+03  0.81574819028E+02 0.  0.
          5    1    3    3  501    0  0.10128392560E+02 -0.75813537117E+02 -0.11129893669E+03  0.13512890162E+03  0.47000000000E+01 0. -1.
        -13    1    4    4    0    0 -0.38760753954E+02  0.29973594458E+02 -0.35484634674E+02  0.60497700037E+02  0.00000000000E+00 0.  1.
         14    1    4    4    0    0  0.29532743153E+02  0.21682918445E+02 -0.90465979105E+02  0.97603407962E+02  0.00000000000E+00 0. -1.
         -5    1    5    5    0  502  0.44394249069E+02 -0.19076863336E+02 -0.96326104732E+02  0.10786836662E+03  0.47000000000E+01 0.  1.
         11    1    6    6    0    0  0.20947348779E+02  0.26921298479E+02 -0.15786353875E+02  0.37586655894E+02  0.00000000000E+00 0. -1.
        -12    1    6    6    0    0 -0.66241979607E+02  0.16312589071E+02 -0.16338123894E+02  0.70150087076E+02  0.00000000000E+00 0.  1.
</event>
<event>
12    1  0.1040325E-001  0.2287671E+03  0.7818608E-02  0.1127672E+00
         21   -1    0    0  503  502  0.00000000000E+00  0.00000000000E+00  0.19209199851E+03  0.19209199851E+03  0.00000000000E+00 0.  1.
         21   -1    0    0  501  503 -0.00000000000E+00 -0.00000000000E+00 -0.29354054032E+03  0.29354054032E+03  0.00000000000E+00 0. -1.
          6    2    1    2  501    0 -0.13517852799E+03  0.64909226796E+02 -0.11755931950E+03  0.25720535037E+03  0.17276561146E+03 0.  0.
         24    2    3    3    0    0 -0.42739844118E+02  0.64507194639E+02 -0.12431061761E+03  0.16440049094E+03  0.74743021990E+02 0.  0.
         -6    2    1    2    0  502  0.13517852799E+03 -0.64909226796E+02  0.16110777699E+02  0.22842718846E+03  0.17156042993E+03 0.  0.
        -24    2    5    5    0    0  0.43407527894E+02 -0.58149741744E+02 -0.50927814715E+02  0.11448040277E+03  0.72432826561E+02 0.  0.
          5    1    3    3  501    0 -0.92438683873E+02  0.40203215681E+00  0.67512981107E+01  0.92804859422E+02  0.47000000000E+01 0. -1.
        -13    1    4    4    0    0 -0.19724835396E+02 -0.12075789947E+02 -0.10735790611E+02  0.25498059422E+02  0.00000000000E+00 0.  1.
         14    1    4    4    0    0 -0.23015008722E+02  0.76582984586E+02 -0.11357482700E+03  0.13890243152E+03  0.00000000000E+00 0. -1.
         -5    1    5    5    0  502  0.91771000097E+02 -0.67594850516E+01  0.67038592414E+02  0.11394678569E+03  0.47000000000E+01 0.  1.
         11    1    6    6    0    0  0.17918047174E+02 -0.67772585000E+02 -0.19247084324E+02  0.72695460292E+02  0.00000000000E+00 0. -1.
        -12    1    6    6    0    0  0.25489480720E+02  0.96228432556E+01 -0.31680730391E+02  0.41784942477E+02  0.00000000000E+00 0.  1.
</event>
<event>
12    1  0.1040325E-001  0.2481424E+03  0.7818608E-02  0.1115233E+00
         21   -1    0    0  501  502  0.00000000000E+00  0.00000000000E+00  0.31212279371E+03  0.31212279371E+03  0.00000000000E+00 0. -1.
         21   -1    0    0  502  503 -0.00000000000E+00 -0.00000000000E+00 -0.21274225589E+03  0.21274225589E+03  0.00000000000E+00 0.  1.
         -6    2    1    2    0  503 -0.11255325530E+03 -0.12941462693E+03 -0.28596887461E+02  0.24978481355E+03  0.17932732688E+03 0.  0.
        -24    2    3    3    0    0 -0.12873448049E+03 -0.50186969680E+02  0.10021452073E+02  0.16005009413E+03  0.80151760655E+02 0.  0.
          6    2    1    2  501    0  0.11255325530E+03  0.12941462693E+03  0.12797742529E+03  0.27508023605E+03  0.17284251196E+03 0.  0.
         24    2    5    5    0    0  0.12249929701E+03  0.13616058170E+03  0.58642912717E+02  0.20455508958E+03  0.69699438194E+02 0.  0.
          5    1    5    5  501    0 -0.99460417078E+01 -0.67459547678E+01  0.69334512571E+02  0.70525146471E+02  0.47000000000E+01 0. -1.
        -13    1    6    6    0    0  0.31769711156E+02  0.96342326746E+01  0.32914151117E+02  0.46749056995E+02  0.00000000000E+00 0.  1.
         14    1    6    6    0    0  0.90729585850E+02  0.12652634902E+03  0.25728761599E+02  0.15780603258E+03  0.00000000000E+00 0. -1.
         -5    1    3    3    0  503  0.16181225190E+02 -0.79227657251E+02 -0.38618339534E+02  0.89734719426E+02  0.47000000000E+01 0.  1.
         11    1    4    4    0    0 -0.10620869471E+02  0.42941274877E+01  0.26564232890E+02  0.28929238984E+02  0.00000000000E+00 0. -1.
        -12    1    4    4    0    0 -0.11811361102E+03 -0.54481097168E+02 -0.16542780816E+02  0.13112085514E+03  0.00000000000E+00 0.  1.
</event>
<event>
12    1  0.1040325E-001  0.2592103E+03  0.7818608E-02  0.1107809E+00
         21   -1    0    0  503  502  0.00000000000E+00  0.00000000000E+00  0.16915973378E+03  0.16915973378E+03  0.00000000000E+00 0.  1.
         21   -1    0    0  501  503 -0.00000000000E+00 -0.00000000000E+00 -0.14099356571E+04  0.14099356571E+04  0.00000000000E+00 0. -1.
          6    2    1    2  501    0 -0.35092773671E+02 -0.18997591300E+03 -0.12897557508E+04  0.13152980924E+04  0.17092929763E+03 0.  0.
         24    2    3    3    0    0 -0.35707264337E+02 -0.22629357710E+02 -0.41955303734E+03  0.42913777974E+03  0.79670485771E+02 0.  0.
         -6    2    1    2    0  502  0.35092773671E+02  0.18997591300E+03  0.48979827502E+02  0.26379729848E+03  0.17282257058E+03 0.  0.
        -24    2    5    5    0    0  0.87303875092E+02  0.14087709934E+03  0.10598781415E+02  0.18236089806E+03  0.75331528925E+02 0.  0.
          5    1    3    3  501    0  0.61449066667E+00 -0.16734655529E+03 -0.87020271345E+03  0.88616031262E+03  0.47000000000E+01 0. -1.
        -11    1    4    4    0    0 -0.26386646956E+02 -0.22076104675E+01 -0.34789710035E+02  0.43720162464E+02  0.00000000000E+00 0.  1.
         12    1    4    4    0    0 -0.93206173814E+01 -0.20421747242E+02 -0.38476332730E+03  0.38541761728E+03  0.00000000000E+00 0. -1.
         -5    1    5    5    0  502 -0.52211101421E+02  0.49098813655E+02  0.38381046087E+02  0.81436400416E+02  0.47000000000E+01 0.  1.
         13    1    6    6    0    0  0.64864952648E+02  0.14387252138E+03  0.17268800916E+02  0.15876075074E+03  0.00000000000E+00 0. -1.
        -14    1    6    6    0    0  0.22438922444E+02 -0.29954220376E+01 -0.66700195010E+01  0.23600147325E+02  0.00000000000E+00 0.  1.
</event>
<event>
12    1  0.1040325E-001  0.2157345E+03  0.7818608E-02  0.1138008E+00
         21   -1    0    0  503  502  0.00000000000E+00  0.00000000000E+00  0.66725847502E+02  0.66725847502E+02  0.00000000000E+00 0. -1.
         21   -1    0    0  501  503 -0.00000000000E+00 -0.00000000000E+00 -0.10265357585E+04  0.10265357585E+04  0.00000000000E+00 0. -1.
          6    2    1    2  501    0  0.64131222644E+02  0.10885757653E+03 -0.15995278540E+03  0.26482163874E+03  0.16906454714E+03 0.  0.
         24    2    3    3    0    0 -0.19969032256E+02  0.78180940181E+02 -0.12413898428E+03  0.16828860168E+03  0.79997152339E+02 0.  0.
         -6    2    1    2    0  502 -0.64131222644E+02 -0.10885757653E+03 -0.79985712562E+03  0.82843996729E+03  0.17486729915E+03 0.  0.
        -24    2    5    5    0    0 -0.34948352921E+02 -0.11637184927E+03 -0.77566056763E+03  0.78950839143E+03  0.83128751291E+02 0.  0.
          5    1    3    3  501    0  0.84100254900E+02  0.30676636347E+02 -0.35813801125E+02  0.96533037054E+02  0.47000000000E+01 0. -1.
        -11    1    4    4    0    0  0.69268941925E+01  0.30476716410E+02 -0.10613511490E+03  0.11064119812E+03  0.00000000000E+00 0.  1.
         12    1    4    4    0    0 -0.26895926449E+02  0.47704223771E+02 -0.18003869376E+02  0.57647403564E+02  0.00000000000E+00 0. -1.
         -5    1    5    5    0  502 -0.29182869723E+02  0.75142727417E+01 -0.24196557990E+02  0.38931575857E+02  0.47000000000E+01 0.  1.
         13    1    6    6    0    0  0.15896608035E+02 -0.86485228141E+02 -0.43887121261E+03  0.44759394331E+03  0.00000000000E+00 0. -1.
        -14    1    6    6    0    0 -0.50844960956E+02 -0.29886621129E+02 -0.33678935502E+03  0.34191444812E+03  0.00000000000E+00 0.  1.
</event>
<event>
12    1  0.1040325E-001  0.1811286E+03  0.7818608E-02  0.1167281E+00
         21   -1    0    0  501  502  0.00000000000E+00  0.00000000000E+00  0.88567985346E+02  0.88567985346E+02  0.00000000000E+00 0. -1.
         21   -1    0    0  502  503 -0.00000000000E+00 -0.00000000000E+00 -0.37757319752E+03  0.37757319752E+03  0.00000000000E+00 0. -1.
         -6    2    1    2    0  503  0.32029420352E+02 -0.46076334384E+02 -0.10399100017E+03  0.20885804234E+03  0.17221684404E+03 0.  0.
        -24    2    3    3    0    0  0.36676191096E+02 -0.16217985323E+02 -0.13645678750E+03  0.16425724825E+03  0.82169475512E+02 0.  0.
          6    2    1    2  501    0 -0.32029420352E+02  0.46076334384E+02 -0.18501421200E+03  0.25728314053E+03  0.16975112194E+03 0.  0.
         24    2    5    5    0    0 -0.57702786982E+01 -0.36217348232E+02 -0.62207611200E+02  0.10706548538E+03  0.79045802161E+02 0.  0.
          5    1    5    5  501    0 -0.26259141654E+02  0.82293682617E+02 -0.12280660080E+03  0.15021765515E+03  0.47000000000E+01 0. -1.
        -13    1    6    6    0    0 -0.29982343749E+02 -0.11613560327E+02 -0.64913798970E+02  0.72440437719E+02  0.00000000000E+00 0.  1.
         14    1    6    6    0    0  0.24212065051E+02 -0.24603787905E+02  0.27061877695E+01  0.34625047662E+02  0.00000000000E+00 0. -1.
         -5    1    3    3    0  503 -0.46467707435E+01 -0.29858349061E+02  0.32465787322E+02  0.44600794090E+02  0.47000000000E+01 0.  1.
         11    1    4    4    0    0  0.21699100525E+02 -0.36214161305E+02 -0.13237338419E+03  0.13894253951E+03  0.00000000000E+00 0. -1.
        -12    1    4    4    0    0  0.14977090571E+02  0.19996175982E+02 -0.40834033053E+01  0.25314708737E+02  0.00000000000E+00 0.  1.
</event>
<event>
12    1  0.1040325E-001  0.2215803E+03  0.7818608E-02  0.1132762E+00
         21   -1    0    0  501  502  0.00000000000E+00  0.00000000000E+00  0.21250474644E+03  0.21250474644E+03  0.00000000000E+00 0.  1.
         21   -1    0    0  502  503 -0.00000000000E+00 -0.00000000000E+00 -0.96983048246E+03  0.96983048246E+03  0.00000000000E+00 0.  1.
         -6    2    1    2    0  503  0.64431971701E+02 -0.12454069112E+03 -0.89467516117E+03  0.92163870927E+03  0.17120865543E+03 0.  0.
        -24    2    3    3    0    0  0.47088061579E+01 -0.13417425045E+03 -0.54037157098E+03  0.56217690881E+03  0.77566357008E+02 0.  0.
          6    2    1    2  501    0 -0.64431971701E+02  0.12454069112E+03  0.13734942515E+03  0.26069651963E+03  0.17156907657E+03 0.  0.
         24    2    5    5    0    0  0.30928431883E+02  0.46891698534E+02  0.66430219376E+02  0.11865921337E+03  0.80694706032E+02 0.  0.
          5    1    5    5  501    0 -0.95360403584E+02  0.77648992582E+02  0.70919205776E+02  0.14203730626E+03  0.47000000000E+01 0. -1.
        -13    1    6    6    0    0  0.24664512400E+02  0.68111718613E+02  0.35609291660E+02  0.80719056219E+02  0.00000000000E+00 0.  1.
         14    1    6    6    0    0  0.62639194827E+01 -0.21220020080E+02  0.30820927716E+02  0.37940157152E+02  0.00000000000E+00 0. -1.
         -5    1    3    3    0  503  0.59723165544E+02  0.96335593382E+01 -0.35430359019E+03  0.35946180046E+03  0.47000000000E+01 0.  1.
         11    1    4    4    0    0  0.24262947207E+02 -0.71469328194E+01 -0.65309929067E+02  0.70036819536E+02  0.00000000000E+00 0. -1.
        -12    1    4    4    0    0 -0.19554141049E+02 -0.12702731763E+03 -0.47506164191E+03  0.49214008928E+03  0.00000000000E+00 0.  1.
</event>
<event>
12    1  0.1040325E-001  0.2960810E+03  0.7818608E-02  0.1087223E+00
         21   -1    0    0  503  502  0.00000000000E+00  0.00000000000E+00  0.77241529165E+02  0.77241529165E+02  0.00000000000E+00 0.  1.
         21   -1    0    0  501  503 -0.00000000000E+00 -0.00000000000E+00 -0.14266480954E+04  0.14266480954E+04  0.00000000000E+00 0.  1.
          6    2    1    2  501    0  0.76685802612E+02 -0.22817141010E+03 -0.10147980160E+04  0.10570934361E+04  0.17230384435E+03 0.  0.
         24    2    3    3    0    0  0.31753889299E+02 -0.23373974656E+03 -0.88706162529E+03  0.92148901618E+03  0.81370149776E+02 0.  0.
         -6    2    1    2    0  502 -0.76685802612E+02  0.22817141010E+03 -0.33460855030E+03  0.44679618847E+03  0.17239793325E+03 0.  0.
        -24    2    5    5    0    0 -0.53286144688E+02  0.56054164731E+02 -0.19262805928E+03  0.22240269486E+03  0.79849275889E+02 0.  0.
          5    1    3    3  501    0  0.44931913313E+02  0.55683364565E+01 -0.12773639069E+03  0.13560441996E+03  0.47000000000E+01 0. -1.
        -11    1    4    4    0    0 -0.24681863961E+02 -0.56172958060E+02 -0.17457133970E+03  0.18503985590E+03  0.00000000000E+00 0.  1.
         12    1    4    4    0    0  0.56435753260E+02 -0.17756678850E+03 -0.71249028559E+03  0.73644916028E+03  0.00000000000E+00 0. -1.
         -5    1    5    5    0  502 -0.23399657924E+02  0.17211724537E+03 -0.14198049101E+03  0.22439349360E+03  0.47000000000E+01 0.  1.
         13    1    6    6    0    0 -0.12593324647E+01  0.20978127393E+02 -0.13086029138E+01  0.21056594899E+02  0.00000000000E+00 0. -1.
        -14    1    6    6    0    0 -0.52026812223E+02  0.35076037339E+02 -0.19131945637E+03  0.20134609997E+03  0.00000000000E+00 0.  1.
</event>
<event>
12    1  0.1040325E-001  0.2234302E+03  0.7818608E-02  0.1131622E+00
         21   -1    0    0  501  502  0.00000000000E+00  0.00000000000E+00  0.26839685874E+02  0.26839685874E+02  0.00000000000E+00 0.  1.
         21   -1    0    0  502  503 -0.00000000000E+00 -0.00000000000E+00 -0.19437776076E+04  0.19437776076E+04  0.00000000000E+00 0.  1.
         -6    2    1    2    0  503  0.32681283612E+02  0.13595293521E+03 -0.11745215178E+04  0.11953088605E+04  0.17236939828E+03 0.  0.
        -24    2    3    3    0    0 -0.45480036083E+02  0.65248047040E+02 -0.71029379875E+03  0.71924390886E+03  0.80428717226E+02 0.  0.
          6    2    1    2  501    0 -0.32681283612E+02 -0.13595293521E+03 -0.74241640396E+03  0.77530843295E+03  0.17426928141E+03 0.  0.
         24    2    5    5    0    0  0.10614885112E+02 -0.80981424060E+02 -0.21984350266E+03  0.24805047669E+03  0.80791128820E+02 0.  0.
          5    1    5    5  501    0 -0.43296168723E+02 -0.54971511154E+02 -0.52257290130E+03  0.52725795626E+03  0.47000000000E+01 0. -1.
        -13    1    6    6    0    0  0.19603674800E+02 -0.11076130676E+02 -0.66037151660E+01  0.23464735038E+02  0.00000000000E+00 0.  1.
         14    1    6    6    0    0 -0.89887896885E+01 -0.69905293384E+02 -0.21323978749E+03  0.22458574165E+03  0.00000000000E+00 0. -1.
         -5    1    3    3    0  503  0.78161319695E+02  0.70704888174E+02 -0.46422771903E+03  0.47606495169E+03  0.47000000000E+01 0.  1.
         11    1    4    4    0    0 -0.99742261621E+01 -0.67352005116E+01 -0.34615447249E+03  0.34636363397E+03  0.00000000000E+00 0. -1.
        -12    1    4    4    0    0 -0.35505809921E+02  0.71983247552E+02 -0.36413932627E+03  0.37288027489E+03  0.00000000000E+00 0.  1.
</event>
<event>
12    1  0.1040325E-001  0.2053227E+03  0.7818608E-02  0.1145613E+00
         21   -1    0    0  501  502  0.00000000000E+00  0.00000000000E+00  0.31060854720E+03  0.31060854720E+03  0.00000000000E+00 0. -1.
         21   -1    0    0  502  503 -0.00000000000E+00 -0.00000000000E+00 -0.14473057850E+03  0.14473057850E+03  0.00000000000E+00 0. -1.
         -6    2    1    2    0  503 -0.98610107270E+02  0.53561774358E+02  0.23017365450E+02  0.20520601793E+03  0.17025537804E+03 0.  0.
        -24    2    3    3    0    0 -0.10587146386E+03  0.58314580514E+02 -0.32451817871E+02  0.14886565261E+03  0.80613304627E+02 0.  0.
          6    2    1    2  501    0  0.98610107270E+02 -0.53561774358E+02  0.14286060325E+03  0.25013310778E+03  0.17194360331E+03 0.  0.
         24    2    5    5    0    0  0.30262417269E+02 -0.14008980156E+01  0.66309651009E+00  0.83897177031E+02  0.78233753601E+02 0.  0.
          5    1    5    5  501    0  0.68347690001E+02 -0.52160876342E+02  0.14219750674E+03  0.16623593075E+03  0.47000000000E+01 0. -1.
        -11    1    6    6    0    0  0.91077372232E+01  0.27355576106E+01  0.38876963288E+02  0.40023148642E+02  0.00000000000E+00 0.  1.
         12    1    6    6    0    0  0.21154680045E+02 -0.41364556262E+01 -0.38213866777E+02  0.43874028389E+02  0.00000000000E+00 0. -1.
         -5    1    3    3    0  503  0.72613565905E+01 -0.47528061561E+01  0.55469183322E+02  0.56340365319E+02  0.47000000000E+01 0.  1.
         13    1    4    4    0    0 -0.28011279416E+01  0.34736917018E+02  0.78320067156E+01  0.35718903271E+02  0.00000000000E+00 0. -1.
        -14    1    4    4    0    0 -0.10307033592E+03  0.23577663496E+02 -0.40283824587E+02  0.11314674934E+03  0.00000000000E+00 0.  1.
</event>
<event>
12    1  0.1040325E-001  0.1839935E+03  0.7818608E-02  0.1164782E+00
         21   -1    0    0  501  502  0.00000000000E+00  0.00000000000E+00  0.40631133930E+02  0.40631133930E+02  0.00000000000E+00 0.  1.
         21   -1    0    0  502  503 -0.00000000000E+00 -0.00000000000E+00 -0.11619508695E+04  0.11619508695E+04  0.00000000000E+00 0.  1.
         -6    2    1    2    0  503 -0.53481430489E+02  0.78492732475E+01 -0.89128438651E+03  0.91007772161E+03  0.17587418011E+03 0.  0.
        -24    2    3    3    0    0 -0.16038839226E+02 -0.42647884174E+02 -0.26168310673E+03  0.27732834622E+03  0.79730024973E+02 0.  0.
          6    2    1    2  501    0  0.53481430489E+02 -0.78492732475E+01 -0.23003534911E+03  0.29250428187E+03  0.17239668957E+03 0.  0.
         24    2    5    5    0    0 -0.95891187589E+01  0.19069079100E+02 -0.20129336564E+03  0.21800137260E+03  0.80932060587E+02 0.  0.
          5    1    5    5  501    0  0.63070549247E+02 -0.26918352348E+02 -0.28741983468E+02  0.74502909266E+02  0.47000000000E+01 0. -1.
        -13    1    6    6    0    0  0.22102575348E+02  0.74272618180E+01 -0.12982271080E+02  0.26687589204E+02  0.00000000000E+00 0.  1.
         14    1    6    6    0    0 -0.31691694107E+02  0.11641817282E+02 -0.18831109456E+03  0.19131378340E+03  0.00000000000E+00 0. -1.
         -5    1    3    3    0  503 -0.37442591262E+02  0.50497157422E+02 -0.62960127978E+03  0.63274937538E+03  0.47000000000E+01 0.  1.
         13    1    4    4    0    0  0.32383984920E+02 -0.19158042376E+02 -0.95378858228E+02  0.10253233472E+03  0.00000000000E+00 0. -1.
        -14    1    4    4    0    0 -0.48422824146E+02 -0.23489841798E+02 -0.16630424850E+03  0.17479601150E+03  0.00000000000E+00 0.  1.
</event>
<event>
12    1  0.1040325E-001  0.1915968E+03  0.7818608E-02  0.1159519E+00
         21   -1    0    0  503  502  0.00000000000E+00  0.00000000000E+00  0.80624413230E+03  0.80624413230E+03  0.00000000000E+00 0.  1.
         21   -1    0    0  501  503 -0.00000000000E+00 -0.00000000000E+00 -0.88073052353E+02  0.88073052353E+02  0.00000000000E+00 0.  1.
          6    2    1    2  501    0  0.15744920738E+02  0.96474605107E+02  0.34153868294E+02  0.18397298305E+03  0.15206682680E+03 0.  0.
         24    2    3    3    0    0  0.13469019287E+02  0.12277994887E+03  0.46757637764E+02  0.15434030104E+03  0.79864394506E+02 0.  0.
         -6    2    1    2    0  502 -0.15744920738E+02 -0.96474605107E+02  0.68401721165E+03  0.71034420161E+03  0.16478497189E+03 0.  0.
        -24    2    5    5    0    0  0.37078168753E+02 -0.78697741245E+02  0.30847984438E+03  0.33066446830E+03  0.81308370584E+02 0.  0.
          5    1    3    3  501    0  0.22759014515E+01 -0.26305343766E+02 -0.12603769470E+02  0.29632682007E+02  0.47000000000E+01 0. -1.
        -11    1    4    4    0    0 -0.33296920926E+02  0.61400744437E+02  0.19769725471E+02  0.72591861843E+02  0.00000000000E+00 0.  1.
         12    1    4    4    0    0  0.46765940213E+02  0.61379204436E+02  0.26987912293E+02  0.81748439196E+02  0.00000000000E+00 0. -1.
         -5    1    5    5    0  502 -0.52823089491E+02 -0.17776863862E+02  0.37553736727E+03  0.37967973331E+03  0.47000000000E+01 0.  1.
         13    1    6    6    0    0  0.23103541716E+01  0.13552779675E+02  0.12086393976E+02  0.18305641007E+02  0.00000000000E+00 0. -1.
        -14    1    6    6    0    0  0.34767814581E+02 -0.92250520920E+02  0.29639345041E+03  0.31235882729E+03  0.00000000000E+00 0.  1.
</event>
<event>
12    1  0.1040325E-001  0.1932112E+03  0.7818608E-02  0.1156413E+00
         21   -1    0    0  503  502  0.00000000000E+00  0.00000000000E+00  0.42858929537E+03  0.42858929537E+03  0.00000000000E+00 0. -1.
         21   -1    0    0  501  503 -0.00000000000E+00 -0.00000000000E+00 -0.85459383492E+02  0.85459383492E+02  0.00000000000E+00 0. -1.
          6    2    1    2  501    0 -0.82831228074E+02 -0.15635669058E+02  0.17100571808E+03  0.25528755325E+03  0.16977424050E+03 0.  0.
         24    2    3    3    0    0 -0.69185365406E+02 -0.61915288263E+02  0.16645189908E+03  0.20659628104E+03  0.79722461866E+02 0.  0.
         -6    2    1    2    0  502  0.82831228074E+02  0.15635669058E+02  0.17212419381E+03  0.25876112562E+03  0.17385366129E+03 0.  0.
        -24    2    5    5    0    0  0.90383718930E+02 -0.42105735150E+02  0.14660395968E+03  0.19500783372E+03  0.81198673859E+02 0.  0.
          5    1    3    3  501    0 -0.13645862668E+02  0.46279619205E+02  0.45538189944E+01  0.48691272207E+02  0.47000000000E+01 0. -1.
        -11    1    4    4    0    0 -0.66397846236E+02 -0.66365272874E+01  0.98118597223E+02  0.11865907719E+03  0.00000000000E+00 0.  1.
         12    1    4    4    0    0 -0.27875191698E+01 -0.55278760976E+02  0.68333301859E+02  0.87937203851E+02  0.00000000000E+00 0. -1.
         -5    1    5    5    0  502 -0.75524908553E+01  0.57741404208E+02  0.25520234123E+02  0.63753291898E+02  0.47000000000E+01 0.  1.
         13    1    6    6    0    0  0.64818414135E+02 -0.41874212623E+02  0.15051520514E+03  0.16914403174E+03  0.00000000000E+00 0. -1.
        -14    1    6    6    0    0  0.25565304795E+02 -0.23152252709E+00 -0.39112454561E+01  0.25863801982E+02  0.00000000000E+00 0.  1.
</event>
<event>
12    1  0.1040325E-001  0.2241953E+03  0.7818608E-02  0.1130867E+00
         21   -1    0    0  503  502  0.00000000000E+00  0.00000000000E+00  0.43397663483E+03  0.43397663483E+03  0.00000000000E+00 0. -1.
         21   -1    0    0  501  503 -0.00000000000E+00 -0.00000000000E+00 -0.14710762745E+03  0.14710762745E+03  0.00000000000E+00 0.  1.
          6    2    1    2  501    0  0.41347190894E+02  0.13841101952E+03  0.27797427716E+03  0.35711794101E+03  0.17145356370E+03 0.  0.
         24    2    3    3    0    0  0.64808510615E+01  0.20430675098E+00  0.13050555639E+03  0.15196952957E+03  0.77595067488E+02 0.  0.
         -6    2    1    2    0  502 -0.41347190894E+02 -0.13841101952E+03  0.88947302182E+01  0.22396632128E+03  0.17092277882E+03 0.  0.
        -24    2    5    5    0    0 -0.92773093431E+01 -0.53719049094E+02  0.66836372751E+02  0.11635344520E+03  0.78097495375E+02 0.  0.
          5    1    3    3  501    0  0.34866339832E+02  0.13820671277E+03  0.14746872077E+03  0.20514841143E+03  0.47000000000E+01 0. -1.
        -11    1    4    4    0    0 -0.77000332548E+01 -0.79965714684E+01 -0.72399240155E+01  0.13253383233E+02  0.00000000000E+00 0.  1.
         12    1    4    4    0    0  0.14180884316E+02  0.82008782193E+01  0.13774548040E+03  0.13871614634E+03  0.00000000000E+00 0. -1.
         -5    1    5    5    0  502 -0.32069881550E+02 -0.84691970426E+02 -0.57941642533E+02  0.10761287607E+03  0.47000000000E+01 0.  1.
         13    1    6    6    0    0  0.10534577790E+02 -0.68250859679E+02  0.39337573927E+02  0.79477052654E+02  0.00000000000E+00 0. -1.
        -14    1    6    6    0    0 -0.19811887133E+02  0.14531810585E+02  0.27498798824E+02  0.36876392549E+02  0.00000000000E+00 0.  1.
</event>
<event>
12    1  0.1040325E-001  0.2407933E+03  0.7818608E-02  0.1119550E+00
         21   -1    0    0  501  502  0.00000000000E+00  0.00000000000E+00  0.26531692589E+03  0.26531692589E+03  0.00000000000E+00 0. -1.
         21   -1    0    0  502  503 -0.00000000000E+00 -0.00000000000E+00 -0.21774064958E+03  0.21774064958E+03  0.00000000000E+00 0.  1.
         -6    2    1    2    0  503 -0.58716795617E+02 -0.15333064201E+03  0.96889846734E+01  0.24098815773E+03  0.17613480030E+03 0.  0.
        -24    2    3    3    0    0 -0.86069097124E+02 -0.14762908131E+03 -0.32329592867E+02  0.19030969040E+03  0.77267978859E+02 0.  0.
          6    2    1    2  501    0  0.58716795617E+02  0.15333064201E+03  0.37887291636E+02  0.24206941774E+03  0.17379357949E+03 0.  0.
         24    2    5    5    0    0  0.91315350437E+02  0.14715424661E+03 -0.81664703678E+00  0.19087470604E+03  0.80247249015E+02 0.  0.
          5    1    5    5  501    0 -0.32598554820E+02  0.61763953958E+01  0.38703938673E+02  0.51194711692E+02  0.47000000000E+01 0. -1.
        -13    1    6    6    0    0  0.14730260117E+02  0.76021521730E+02 -0.28886312888E+02  0.82647875965E+02  0.00000000000E+00 0.  1.
         14    1    6    6    0    0  0.76585090319E+02  0.71132724880E+02  0.28069665851E+02  0.10822683008E+03  0.00000000000E+00 0. -1.
         -5    1    3    3    0  503  0.27352301507E+02 -0.57015606938E+01  0.42018577540E+02  0.50678467327E+02  0.47000000000E+01 0.  1.
         11    1    4    4    0    0 -0.22035148547E+02 -0.67832885205E+02  0.21775582631E+02  0.74572274242E+02  0.00000000000E+00 0. -1.
        -12    1    4    4    0    0 -0.64033948578E+02 -0.79796196106E+02 -0.54105175498E+02  0.11573741616E+03  0.00000000000E+00 0.  1.
</event>
<event>
12    1  0.1040325E-001  0.1836328E+03  0.7818608E-02  0.1164892E+00
         21   -1    0    0  501  502  0.00000000000E+00  0.00000000000E+00  0.16592091784E+03  0.16592091784E+03  0.00000000000E+00 0.  1.
         21   -1    0    0  502  503 -0.00000000000E+00 -0.00000000000E+00 -0.25322448612E+03  0.25322448612E+03  0.00000000000E+00 0.  1.
         -6    2    1    2    0  503  0.39227261320E+02  0.49698895847E+02 -0.13893206473E+03  0.22839293765E+03  0.16986011032E+03 0.  0.
        -24    2    3    3    0    0 -0.20212333824E+02  0.10816589958E+02 -0.13144998006E+03  0.15681800647E+03  0.82384785232E+02 0.  0.
          6    2    1    2  501    0 -0.39227261320E+02 -0.49698895847E+02  0.51628496446E+02  0.19075246632E+03  0.17237239768E+03 0.  0.
         24    2    5    5    0    0 -0.35455640419E+02 -0.57495906635E+01  0.95206824106E+02  0.12856784449E+03  0.78582383836E+02 0.  0.
          5    1    5    5  501    0 -0.37716209009E+01 -0.43949305184E+02 -0.43578327660E+02  0.62184621829E+02  0.47000000000E+01 0. -1.
        -11    1    6    6    0    0 -0.22822150271E+02 -0.42115291767E+02  0.52237106056E+02  0.70874985663E+02  0.00000000000E+00 0.  1.
         12    1    6    6    0    0 -0.12633490148E+02  0.36365701103E+02  0.42969718050E+02  0.57692858824E+02  0.00000000000E+00 0. -1.
         -5    1    3    3    0  503  0.59439595144E+02  0.38882305889E+02 -0.74820846635E+01  0.71574931177E+02  0.47000000000E+01 0.  1.
         13    1    4    4    0    0 -0.11515761914E+02  0.12859698505E+02  0.65987896447E+01  0.18480493578E+02  0.00000000000E+00 0. -1.
        -14    1    4    4    0    0 -0.86965719097E+01 -0.20431085470E+01 -0.13804876971E+03  0.13833751289E+03  0.00000000000E+00 0.  1.
</event>
<event>
12    1  0.1040325E-001  0.1821248E+03  0.7818608E-02  0.1166037E+00
         21   -1    0    0  503  502  0.00000000000E+00  0.00000000000E+00  0.87579505001E+03  0.87579505001E+03  0.00000000000E+00 0.  1.
         21   -1    0    0  501  503 -0.00000000000E+00 -0.00000000000E+00 -0.10039223596E+03  0.10039223596E+03  0.00000000000E+00 0.  1.
          6    2    1    2  501    0  0.56685640783E+02  0.11494287894E+02  0.13355087132E+01  0.18098314265E+03  0.17148683277E+03 0.  0.
         24    2    3    3    0    0 -0.50819901469E+01 -0.48867592043E+02  0.96760940275E+01  0.94089804911E+02  0.79657996564E+02 0.  0.
         -6    2    1    2    0  502 -0.56685640783E+02 -0.11494287894E+02  0.77406730534E+03  0.79520414332E+03  0.17269642682E+03 0.  0.
        -24    2    5    5    0    0 -0.10536454574E+03 -0.13957480727E+02  0.57440322112E+03  0.58962316260E+03  0.80124370044E+02 0.  0.
          5    1    3    3  501    0  0.61767630930E+02  0.60361879937E+02 -0.83405853143E+01  0.86893337740E+02  0.47000000000E+01 0. -1.
        -13    1    4    4    0    0  0.15070913477E+02  0.17868730061E+02  0.66851511162E+01  0.24312860639E+02  0.00000000000E+00 0.  1.
         14    1    4    4    0    0 -0.20152903624E+02 -0.66736322104E+02  0.29909429113E+01  0.69776944272E+02  0.00000000000E+00 0. -1.
         -5    1    5    5    0  502  0.48678904959E+02  0.24631928334E+01  0.19966408422E+03  0.20558098072E+03  0.47000000000E+01 0.  1.
         13    1    6    6    0    0  0.15864780705E+01  0.14803369066E+02  0.15948343872E+03  0.16017685187E+03  0.00000000000E+00 0. -1.
        -14    1    6    6    0    0 -0.10695102381E+03 -0.28760849793E+02  0.41491978239E+03  0.42944631073E+03  0.00000000000E+00 0.  1.
</event>
<event>
12    1  0.1040325E-001  0.1983969E+03  0.7818608E-02  0.1151332E+00
         21   -1    0    0  501  502  0.00000000000E+00  0.00000000000E+00  0.10448148208E+04  0.10448148208E+04  0.00000000000E+00 0. -1.
         21   -1    0    0  502  503 -0.00000000000E+00 -0.00000000000E+00 -0.42406439851E+02  0.42406439851E+02  0.00000000000E+00 0. -1.
         -6    2    1    2    0  503 -0.63378971382E+02  0.73999616903E+02  0.31688055084E+03  0.37386441241E+03  0.17282499256E+03 0.  0.
        -24    2    3    3    0    0 -0.71394546323E+02  0.79858294810E+02  0.32989244248E+03  0.35683582256E+03  0.83834671589E+02 0.  0.
          6    2    1    2  501    0  0.63378971382E+02 -0.73999616903E+02  0.68552783007E+03  0.71335684820E+03  0.17157141298E+03 0.  0.
         24    2    5    5    0    0 -0.16825859355E+02 -0.82775342922E+02  0.40629138078E+03  0.42265956088E+03  0.80209421947E+02 0.  0.
          5    1    5    5  501    0  0.80204830738E+02  0.87757260183E+01  0.27923644929E+03  0.29069728732E+03  0.47000000000E+01 0. -1.
        -13    1    6    6    0    0 -0.13959299250E+02  0.77116110082E+01  0.18427692805E+02  0.24370286047E+02  0.00000000000E+00 0.  1.
         14    1    6    6    0    0 -0.28665601053E+01 -0.90486953930E+02  0.38786368798E+03  0.39828927483E+03  0.00000000000E+00 0. -1.
         -5    1    3    3    0  503  0.80155749404E+01 -0.58586779063E+01 -0.13011891641E+02  0.17028589857E+02  0.47000000000E+01 0.  1.
         13    1    4    4    0    0 -0.70433128001E+02  0.94954630584E+02  0.26454988185E+03  0.28976515901E+03  0.00000000000E+00 0. -1.
        -14    1    4    4    0    0 -0.96141832176E+00 -0.15096335775E+02  0.65342560631E+02  0.67070663548E+02  0.00000000000E+00 0.  1.
</event>
<event>
12    1  0.1040325E-001  0.4958342E+03  0.7818608E-02  0.1014961E+00
         21   -1    0    0  501  502  0.00000000000E+00  0.00000000000E+00  0.24910290983E+04  0.24910290983E+04  0.00000000000E+00 0. -1.
         21   -1    0    0  502  503 -0.00000000000E+00 -0.00000000000E+00 -0.20049874002E+03  0.20049874002E+03  0.00000000000E+00 0.  1.
         -6    2    1    2    0  503 -0.23316210876E+03 -0.40258302649E+03  0.18581877117E+03  0.52950941332E+03  0.17150492966E+03 0.  0.
        -24    2    3    3    0    0 -0.83114184150E+02 -0.27713351437E+03  0.11570154719E+03  0.32168623158E+03  0.79901384044E+02 0.  0.
          6    2    1    2  501    0  0.23316210876E+03  0.40258302649E+03  0.21047115871E+04  0.21620184250E+04  0.16755638745E+03 0.  0.
         24    2    5    5    0    0  0.20558606571E+03  0.27480956601E+03  0.13197877552E+04  0.13662709731E+04  0.84087603775E+02 0.  0.
          5    1    5    5  501    0  0.27576043047E+02  0.12777346048E+03  0.78492383192E+03  0.79574745194E+03  0.47000000000E+01 0. -1.
        -13    1    6    6    0    0  0.49807554732E+02  0.32503336390E+02  0.14591081841E+03  0.15756657740E+03  0.00000000000E+00 0.  1.
         14    1    6    6    0    0  0.15577851098E+03  0.24230622962E+03  0.11738769368E+04  0.12087043957E+04  0.00000000000E+00 0. -1.
         -5    1    3    3    0  503 -0.15004792461E+03 -0.12544951212E+03  0.70117223984E+02  0.20782318175E+03  0.47000000000E+01 0.  1.
         13    1    4    4    0    0  0.73107165034E+01 -0.10814093109E+03  0.45925423851E+02  0.11771598069E+03  0.00000000000E+00 0. -1.
        -14    1    4    4    0    0 -0.90424900654E+02 -0.16899258327E+03  0.69776123337E+02  0.20397025089E+03  0.00000000000E+00 0.  1.
</event>
<event>
12    1  0.1040325E-001  0.1985653E+03  0.7818608E-02  0.1153210E+00
         21   -1    0    0  503  502  0.00000000000E+00  0.00000000000E+00  0.30255373333E+03  0.30255373333E+03  0.00000000000E+00 0.  1.
         21   -1    0    0  501  503 -0.00000000000E+00 -0.00000000000E+00 -0.13169479292E+03  0.13169479292E+03  0.00000000000E+00 0.  1.
          6    2    1    2  501    0 -0.25013155801E+02  0.55593821730E+02  0.29651681913E+02  0.19059373202E+03  0.17813033842E+03 0.  0.
         24    2    3    3    0    0 -0.51845917620E+02  0.97768525357E+02  0.29631201469E+02  0.14038623106E+03  0.81139398858E+02 0.  0.
         -6    2    1    2    0  502  0.25013155801E+02 -0.55593821730E+02  0.14120725850E+03  0.24365479423E+03  0.18897576014E+03 0.  0.
        -24    2    5    5    0    0 -0.38454410273E+02 -0.49275403234E+02  0.26851236898E+02  0.11263020099E+03  0.89765061241E+02 0.  0.
          5    1    3    3  501    0  0.26832761820E+02 -0.42174703627E+02  0.20480444619E-01  0.50207500957E+02  0.47000000000E+01 0. -1.
        -11    1    4    4    0    0 -0.23546578021E+02  0.60735838623E+02 -0.23919822959E+02  0.69393381241E+02  0.00000000000E+00 0.  1.
         12    1    4    4    0    0 -0.28299339599E+02  0.37032686734E+02  0.53551024427E+02  0.70992849821E+02  0.00000000000E+00 0. -1.
         -5    1    5    5    0  502  0.63467566074E+02 -0.63184184961E+01  0.11435602160E+03  0.13102459323E+03  0.47000000000E+01 0.  1.
         13    1    6    6    0    0  0.36880747401E+01 -0.76364003451E+01 -0.29604223669E+02  0.30794911342E+02  0.00000000000E+00 0. -1.
        -14    1    6    6    0    0 -0.42142485013E+02 -0.41639002889E+02  0.56455460567E+02  0.81835289652E+02  0.00000000000E+00 0.  1.
</event>
<event>
12    1  0.1040325E-001  0.1820633E+03  0.7818608E-02  0.1166126E+00
         21   -1    0    0  501  502  0.00000000000E+00  0.00000000000E+00  0.80569383455E+01  0.80569383455E+01  0.00000000000E+00 0. -1.
         21   -1    0    0  502  503 -0.00000000000E+00 -0.00000000000E+00 -0.46113062107E+04  0.46113062107E+04  0.00000000000E+00 0. -1.
         -6    2    1    2    0  503  0.22348528618E+02 -0.51138911958E+02 -0.30888177485E+04  0.30941787511E+04  0.17329862912E+03 0.  0.
        -24    2    3    3    0    0  0.47783924315E+02 -0.80475269922E+02 -0.15593260882E+04  0.15641871137E+04  0.80149266795E+02 0.  0.
          6    2    1    2  501    0 -0.22348528618E+02  0.51138911958E+02 -0.15144315239E+04  0.15251843980E+04  0.17195918831E+03 0.  0.
         24    2    5    5    0    0  0.54069232639E+01 -0.32369793974E+02 -0.95052757599E+03  0.95443592321E+03  0.79801130363E+02 0.  0.
          5    1    5    5  501    0 -0.27755451882E+02  0.83508705932E+02 -0.56390394788E+03  0.57074847482E+03  0.47000000000E+01 0. -1.
        -11    1    6    6    0    0  0.41613055840E+02 -0.11047305303E+02 -0.40115401404E+03  0.40345784458E+03  0.00000000000E+00 0.  1.
         12    1    6    6    0    0 -0.36206132576E+02 -0.21322488671E+02 -0.54937356195E+03  0.55097807863E+03  0.00000000000E+00 0. -1.
         -5    1    3    3    0  503 -0.25435395697E+02  0.29336357964E+02 -0.15294916603E+04  0.15299916373E+04  0.47000000000E+01 0.  1.
         11    1    4    4    0    0  0.27048888736E+02 -0.49281983222E+02 -0.13720950726E+04  0.13732462432E+04  0.00000000000E+00 0. -1.
        -12    1    4    4    0    0  0.20735035579E+02 -0.31193286700E+02 -0.18723101564E+03  0.19094087056E+03  0.00000000000E+00 0.  1.
</event>
<event>
12    1  0.1040325E-001  0.1963262E+03  0.7818608E-02  0.1152879E+00
         21   -1    0    0  501  502  0.00000000000E+00  0.00000000000E+00  0.71487375465E+03  0.71487375465E+03  0.00000000000E+00 0. -1.
         21   -1    0    0  502  503 -0.00000000000E+00 -0.00000000000E+00 -0.60813084888E+02  0.60813084888E+02  0.00000000000E+00 0.  1.
         -6    2    1    2    0  503  0.87919729703E+02  0.37134673334E+02  0.19638850407E+03  0.27768305387E+03  0.17155340580E+03 0.  0.
        -24    2    3    3    0    0  0.12468566274E+03  0.85924373224E+01  0.16160791529E+03  0.21938920836E+03  0.79963504088E+02 0.  0.
          6    2    1    2  501    0 -0.87919729703E+02 -0.37134673334E+02  0.45767216569E+03  0.49800378567E+03  0.17156659481E+03 0.  0.
         24    2    5    5    0    0 -0.35370391172E+02 -0.42303746152E+02  0.11501582555E+03  0.15127102153E+03  0.81324106605E+02 0.  0.
          5    1    5    5  501    0 -0.52549338531E+02  0.51690728188E+01  0.34265634014E+03  0.34673276414E+03  0.47000000000E+01 0. -1.
        -13    1    6    6    0    0 -0.45446230525E+02  0.67481297428E+01  0.39116197027E+02  0.60340483871E+02  0.00000000000E+00 0.  1.
         14    1    6    6    0    0  0.10075839353E+02 -0.49051875895E+02  0.75899628528E+02  0.90930537655E+02  0.00000000000E+00 0. -1.
         -5    1    3    3    0  503 -0.36765933039E+02  0.28542236011E+02  0.34780588775E+02  0.58293845509E+02  0.47000000000E+01 0.  1.
         11    1    4    4    0    0 -0.65523561573E+01  0.14073877304E+02  0.28070565251E+02  0.32077469150E+02  0.00000000000E+00 0. -1.
        -12    1    4    4    0    0  0.13123801890E+03 -0.54814399814E+01  0.13353735004E+03  0.18731173921E+03  0.00000000000E+00 0.  1.
</event>
<event>
12    1  0.1040325E-001  0.2498570E+03  0.7818608E-02  0.1113517E+00
         21   -1    0    0  503  502  0.00000000000E+00  0.00000000000E+00  0.12390562434E+03  0.12390562434E+03  0.00000000000E+00 0.  1.
         21   -1    0    0  501  503 -0.00000000000E+00 -0.00000000000E+00 -0.59545173966E+03  0.59545173966E+03  0.00000000000E+00 0. -1.
          6    2    1    2  501    0  0.42743060644E+02  0.17552682213E+03 -0.37773741633E+03  0.45247050208E+03  0.17148575753E+03 0.  0.
         24    2    3    3    0    0 -0.61548971532E+01  0.18210021251E+03 -0.28526756361E+03  0.34755633050E+03  0.78863488791E+02 0.  0.
         -6    2    1    2    0  502 -0.42743060644E+02 -0.17552682213E+03 -0.93808698993E+02  0.26688686193E+03  0.17260327501E+03 0.  0.
        -24    2    5    5    0    0  0.33892595087E+02 -0.13895896488E+03 -0.46381369706E+02  0.16951297695E+03  0.78263120147E+02 0.  0.
          5    1    3    3  501    0  0.48897957797E+02 -0.65733903760E+01 -0.92469852714E+02  0.10491417158E+03  0.47000000000E+01 0. -1.
        -11    1    4    4    0    0  0.30134778496E+02  0.84137001547E+02 -0.94566157255E+02  0.13011494150E+03  0.00000000000E+00 0.  1.
         12    1    4    4    0    0 -0.36289675649E+02  0.97963210960E+02 -0.19070140636E+03  0.21744138899E+03  0.00000000000E+00 0. -1.
         -5    1    5    5    0  502 -0.76635655731E+02 -0.36567857248E+02 -0.47427329286E+02  0.97373884981E+02  0.47000000000E+01 0.  1.
         13    1    6    6    0    0  0.59201694107E+02 -0.10405757287E+03 -0.30255843596E+02  0.12348374439E+03  0.00000000000E+00 0. -1.
        -14    1    6    6    0    0 -0.25309099020E+02 -0.34901392011E+02 -0.16125526110E+02  0.46029232558E+02  0.00000000000E+00 0.  1.
</event>
<event>
12    1  0.1040325E-001  0.2376591E+03  0.7818608E-02  0.1121484E+00
         21   -1    0    0  503  502  0.00000000000E+00  0.00000000000E+00  0.49767207878E+02  0.49767207878E+02  0.00000000000E+00 0.  1.
         21   -1    0    0  501  503 -0.00000000000E+00 -0.00000000000E+00 -0.11444350869E+04  0.11444350869E+04  0.00000000000E+00 0.  1.
          6    2    1    2  501    0  0.11403419560E+03  0.11621946713E+03 -0.61166866766E+03  0.65621675094E+03  0.17312164196E+03 0.  0.
         24    2    3    3    0    0  0.81982639464E+01  0.99202982618E+02 -0.37597091231E+03  0.39724507864E+03  0.80876957862E+02 0.  0.
         -6    2    1    2    0  502 -0.11403419560E+03 -0.11621946713E+03 -0.48299921138E+03  0.53798554385E+03  0.17213205656E+03 0.  0.
        -24    2    5    5    0    0 -0.68080044702E+02 -0.25549114073E+02 -0.37287861473E+03  0.38804711411E+03  0.79085091694E+02 0.  0.
          5    1    3    3  501    0  0.10583593166E+03  0.17016484508E+02 -0.23569775535E+03  0.25897167230E+03  0.47000000000E+01 0. -1.
        -11    1    4    4    0    0  0.19774982490E+02  0.60407256330E+02 -0.32966217444E+03  0.33573387647E+03  0.00000000000E+00 0.  1.
         12    1    4    4    0    0 -0.11576718544E+02  0.38795726288E+02 -0.46308737864E+02  0.61511202175E+02  0.00000000000E+00 0. -1.
         -5    1    5    5    0  502 -0.45954150903E+02 -0.90670353052E+02 -0.11012059665E+03  0.14993842975E+03  0.47000000000E+01 0.  1.
         13    1    6    6    0    0  0.15069011238E+02 -0.15412457147E+02 -0.49376931108E+02  0.53876713528E+02  0.00000000000E+00 0. -1.
        -14    1    6    6    0    0 -0.83149055940E+02 -0.10136656926E+02 -0.32350168362E+03  0.33417040058E+03  0.00000000000E+00 0.  1.
</event>
<event>
12    1  0.1040325E-001  0.1998607E+03  0.7818608E-02  0.1149882E+00
         21   -1    0    0  503  502  0.00000000000E+00  0.00000000000E+00  0.26595150084E+02  0.26595150084E+02  0.00000000000E+00 0. -1.
         21   -1    0    0  501  503 -0.00000000000E+00 -0.00000000000E+00 -0.23689718580E+04  0.23689718580E+04  0.00000000000E+00 0. -1.
          6    2    1    2  501    0 -0.32336856517E+02 -0.95030146740E+02 -0.18964212653E+04  0.19069236788E+04  0.17282332084E+03 0.  0.
         24    2    3    3    0    0 -0.67724075583E+01 -0.64814038121E+02 -0.17988444683E+04  0.18015202843E+04  0.73397468458E+02 0.  0.
         -6    2    1    2    0  502  0.32336856517E+02  0.95030146740E+02 -0.44595544266E+03  0.48864332932E+03  0.17268365694E+03 0.  0.
        -24    2    5    5    0    0  0.38041170607E+02  0.13148589841E+02 -0.10465738057E+03  0.13758267111E+03  0.79723321592E+02 0.  0.
          5    1    3    3  501    0 -0.25564448959E+02 -0.30216108619E+02 -0.97576796927E+02  0.10540339449E+03  0.47000000000E+01 0. -1.
        -13    1    4    4    0    0  0.27941535540E+01 -0.22074959304E+02 -0.11650436842E+03  0.11861019764E+03  0.00000000000E+00 0.  1.
         14    1    4    4    0    0 -0.95665611123E+01 -0.42739078816E+02 -0.16823400999E+04  0.16829100867E+04  0.00000000000E+00 0. -1.
         -5    1    5    5    0  502 -0.57043140897E+01  0.81881556899E+02 -0.34129806208E+03  0.35106065821E+03  0.47000000000E+01 0.  1.
         11    1    6    6    0    0  0.43880688972E+02  0.29573784300E+02 -0.29816430284E+02  0.60738316550E+02  0.00000000000E+00 0. -1.
        -12    1    6    6    0    0 -0.58395183646E+01 -0.16425194459E+02 -0.74840950289E+02  0.76844354561E+02  0.00000000000E+00 0.  1.
</event>
<event>
12    1  0.1040325E-001  0.1863589E+03  0.7818608E-02  0.1162359E+00
         21   -1    0    0  501  502  0.00000000000E+00  0.00000000000E+00  0.76296943508E+02  0.76296943508E+02  0.00000000000E+00 0. -1.
         21   -1    0    0  502  503 -0.00000000000E+00 -0.00000000000E+00 -0.60954940831E+03  0.60954940831E+03  0.00000000000E+00 0. -1.
         -6    2    1    2    0  503  0.30010123552E+01  0.69155081767E+02 -0.44380465988E+03  0.48134418522E+03  0.17302663700E+03 0.  0.
        -24    2    3    3    0    0  0.13389167178E+02  0.28810841316E+02 -0.42771513619E+03  0.43643834740E+03  0.80801355069E+02 0.  0.
          6    2    1    2  501    0 -0.30010123552E+01 -0.69155081767E+02 -0.89447804926E+02  0.20450216659E+03  0.17037838750E+03 0.  0.
         24    2    5    5    0    0  0.34960058084E+02  0.24645421678E+02 -0.17474924322E+02  0.80237276711E+02  0.65597599979E+02 0.  0.
          5    1    5    5  501    0 -0.37961070440E+02 -0.93800503445E+02 -0.71972880603E+02  0.12426488988E+03  0.47000000000E+01 0. -1.
        -11    1    6    6    0    0  0.70006648751E+01 -0.10130334207E+02 -0.31208574480E+02  0.33550083471E+02  0.00000000000E+00 0.  1.
         12    1    6    6    0    0  0.27959393209E+02  0.34775755885E+02  0.13733650158E+02  0.46687193240E+02  0.00000000000E+00 0. -1.
         -5    1    3    3    0  503 -0.10388154823E+02  0.40344240451E+02 -0.16089523687E+02  0.44905837824E+02  0.47000000000E+01 0.  1.
         11    1    4    4    0    0  0.33056927882E+02  0.11271196957E+02 -0.74924826957E+02  0.82665168339E+02  0.00000000000E+00 0. -1.
        -12    1    4    4    0    0 -0.19667760705E+02  0.17539644359E+02 -0.35279030923E+03  0.35377317906E+03  0.00000000000E+00 0.  1.
</event>
<event>
12    1  0.1040325E-001  0.2002632E+03  0.7818608E-02  0.1153397E+00
         21   -1    0    0  501  502  0.00000000000E+00  0.00000000000E+00  0.37224977548E+03  0.37224977548E+03  0.00000000000E+00 0. -1.
         21   -1    0    0  502  503 -0.00000000000E+00 -0.00000000000E+00 -0.26885288537E+03  0.26885288537E+03  0.00000000000E+00 0. -1.
         -6    2    1    2    0  503  0.61073234767E+02  0.17070838555E+02 -0.20422849206E+03  0.27403491677E+03  0.17136074552E+03 0.  0.
        -24    2    3    3    0    0  0.94484836676E+02 -0.78300211623E+01 -0.19683735106E+03  0.23145432352E+03  0.76403321313E+02 0.  0.
          6    2    1    2  501    0 -0.61073234767E+02 -0.17070838555E+02  0.30762538217E+03  0.36706774409E+03  0.18995788864E+03 0.  0.
         24    2    5    5    0    0 -0.52615317190E+02  0.59220575341E+02  0.12055501754E+03  0.16480720041E+03  0.79702276670E+02 0.  0.
          5    1    5    5  501    0 -0.84579175775E+01 -0.76291413896E+02  0.18707036464E+03  0.20226054368E+03  0.47000000000E+01 0. -1.
        -11    1    6    6    0    0 -0.24097269147E+02 -0.12224916792E+02  0.74645279546E+01  0.28032947552E+02  0.00000000000E+00 0.  1.
         12    1    6    6    0    0 -0.28518048043E+02  0.71445492133E+02  0.11309048958E+03  0.13677425286E+03  0.00000000000E+00 0. -1.
         -5    1    3    3    0  503 -0.33411601908E+02  0.24900859718E+02 -0.73911409981E+01  0.42580593256E+02  0.47000000000E+01 0.  1.
         13    1    4    4    0    0  0.11280759001E+02  0.76700226545E+01 -0.10761249445E+03  0.10847365456E+03  0.00000000000E+00 0. -1.
        -14    1    4    4    0    0  0.83204077675E+02 -0.15500043817E+02 -0.89224856615E+02  0.12298066896E+03  0.00000000000E+00 0.  1.
</event>
<event>
12    1  0.1040325E-001  0.1880099E+03  0.7818608E-02  0.1160373E+00
         21   -1    0    0  503  502  0.00000000000E+00  0.00000000000E+00  0.83217321746E+03  0.83217321746E+03  0.00000000000E+00 0.  1.
         21   -1    0    0  501  503 -0.00000000000E+00 -0.00000000000E+00 -0.61675812476E+02  0.61675812476E+02  0.00000000000E+00 0.  1.
          6    2    1    2  501    0  0.40380326718E+02 -0.65727725072E+02  0.13554459989E+03  0.23177589494E+03  0.17145559859E+03 0.  0.
         24    2    3    3    0    0  0.16331921707E+02 -0.84467244047E+02  0.30139082000E+02  0.12194917434E+03  0.81004875631E+02 0.  0.
         -6    2    1    2    0  502 -0.40380326718E+02  0.65727725072E+02  0.63495280509E+03  0.66207313499E+03  0.17095340523E+03 0.  0.
        -24    2    5    5    0    0  0.39251611674E+01  0.85813083188E+02  0.27781863410E+03  0.30161051008E+03  0.80040078732E+02 0.  0.
          5    1    3    3  501    0  0.24048405010E+02  0.18739518975E+02  0.10540551789E+03  0.10982672060E+03  0.47000000000E+01 0. -1.
        -13    1    4    4    0    0  0.42162081708E+02 -0.41901453508E+02  0.39387639623E+02  0.71307496766E+02  0.00000000000E+00 0.  1.
         14    1    4    4    0    0 -0.25830160001E+02 -0.42565790539E+02 -0.92485576231E+01  0.50641677579E+02  0.00000000000E+00 0. -1.
         -5    1    5    5    0  502 -0.44305487885E+02 -0.20085358117E+02  0.35713417099E+03  0.36046262491E+03  0.47000000000E+01 0.  1.
         13    1    6    6    0    0  0.38972682031E+02  0.22493828899E+02  0.10258386503E+03  0.11201915750E+03  0.00000000000E+00 0. -1.
        -14    1    6    6    0    0 -0.35047520863E+02  0.63319254290E+02  0.17523476907E+03  0.18959135258E+03  0.00000000000E+00 0.  1.
</event>
<event>
12    1  0.1040325E-001  0.3005171E+03  0.7818608E-02  0.1085024E+00
         21   -1    0    0  501  502  0.00000000000E+00  0.00000000000E+00  0.15981266850E+04  0.15981266850E+04  0.00000000000E+00 0. -1.
         21   -1    0    0  502  503 -0.00000000000E+00 -0.00000000000E+00 -0.79849407500E+02  0.79849407500E+02  0.00000000000E+00 0.  1.
         -6    2    1    2    0  503  0.24462627603E+03  0.31986973861E+02  0.30523545674E+03  0.42834471739E+03  0.17159642024E+03 0.  0.
        -24    2    3    3    0    0  0.57765888893E+02  0.49315850891E+02  0.12329209338E+03  0.16692059507E+03  0.83021645958E+02 0.  0.
          6    2    1    2  501    0 -0.24462627603E+03 -0.31986973861E+02  0.12130418207E+04  0.12496313751E+04  0.17100565294E+03 0.  0.
         24    2    5    5    0    0 -0.21763464585E+03 -0.76277011537E+02  0.90430301552E+03  0.93653091935E+03  0.78378552311E+02 0.  0.
          5    1    5    5  501    0 -0.26991630179E+02  0.44290037676E+02  0.30873880521E+03  0.31310045573E+03  0.47000000000E+01 0. -1.
        -11    1    6    6    0    0  0.90971379141E+00 -0.23546531555E+01 -0.67123834837E+00  0.26119976235E+01  0.00000000000E+00 0.  1.
         12    1    6    6    0    0 -0.21854435965E+03 -0.73922358381E+02  0.90497425387E+03  0.93391892173E+03  0.00000000000E+00 0. -1.
         -5    1    3    3    0  503  0.18686038714E+03 -0.17328877030E+02  0.18194336336E+03  0.26142412232E+03  0.47000000000E+01 0.  1.
         13    1    4    4    0    0  0.39084535954E+02  0.22314172328E+01  0.10663989567E+03  0.11359862465E+03  0.00000000000E+00 0. -1.
        -14    1    4    4    0    0  0.18681352938E+02  0.47084433659E+02  0.16652197715E+02  0.53321970418E+02  0.00000000000E+00 0.  1.
</event>
<event>
12    1  0.1040325E-001  0.1907910E+03  0.7818608E-02  0.1157938E+00
         21   -1    0    0  503  502  0.00000000000E+00  0.00000000000E+00  0.50554591598E+03  0.50554591598E+03  0.00000000000E+00 0.  1.
         21   -1    0    0  501  503 -0.00000000000E+00 -0.00000000000E+00 -0.72627577499E+02  0.72627577499E+02  0.00000000000E+00 0.  1.
          6    2    1    2  501    0 -0.30811377599E+02 -0.76714572022E+02  0.18310887194E+03  0.26383934312E+03  0.17102009662E+03 0.  0.
         24    2    3    3    0    0 -0.30563602753E+01 -0.55444140473E+02  0.23727390912E+02  0.10059927838E+03  0.80460124777E+02 0.  0.
         -6    2    1    2    0  502  0.30811377599E+02  0.76714572022E+02  0.24980946654E+03  0.31433415036E+03  0.17194976579E+03 0.  0.
        -24    2    5    5    0    0  0.79695279782E+02  0.72129176833E+02  0.20965446783E+03  0.25073245491E+03  0.85777691126E+02 0.  0.
          5    1    3    3  501    0 -0.27755017323E+02 -0.21270431549E+02  0.15938148103E+03  0.16324006475E+03  0.47000000000E+01 0. -1.
        -13    1    4    4    0    0 -0.38561020101E+02 -0.22338453012E+02 -0.39160189836E+01  0.44735824111E+02  0.00000000000E+00 0.  1.
         14    1    4    4    0    0  0.35504659826E+02 -0.33105687461E+02  0.27643409896E+02  0.55863454264E+02  0.00000000000E+00 0. -1.
         -5    1    5    5    0  502 -0.48883902183E+02  0.45853951895E+01  0.40154998712E+02  0.63601695443E+02  0.47000000000E+01 0.  1.
         13    1    6    6    0    0  0.18059306961E+01  0.41167631937E+02  0.12494281399E+03  0.13156269256E+03  0.00000000000E+00 0. -1.
        -14    1    6    6    0    0  0.77889349085E+02  0.30961544896E+02  0.84711653838E+02  0.11916976235E+03  0.00000000000E+00 0.  1.
</event>
<event>
12    1  0.1040325E-001  0.1999967E+03  0.7818608E-02  0.1149805E+00
         21   -1    0    0  503  502  0.00000000000E+00  0.00000000000E+00  0.32857527245E+02  0.32857527245E+02  0.00000000000E+00 0. -1.
         21   -1    0    0  501  503 -0.00000000000E+00 -0.00000000000E+00 -0.13308736002E+04  0.13308736002E+04  0.00000000000E+00 0. -1.
          6    2    1    2  501    0  0.19523229509E+02  0.99210396228E+02 -0.85019419955E+03  0.87340075338E+03  0.17255387519E+03 0.  0.
         24    2    3    3    0    0 -0.92860714157E+01  0.12113626833E+03 -0.78860688364E+03  0.80180601078E+03  0.78941974673E+02 0.  0.
         -6    2    1    2    0  502 -0.19523229509E+02 -0.99210396228E+02 -0.44782187336E+03  0.49033037402E+03  0.17220797374E+03 0.  0.
        -24    2    5    5    0    0  0.64061935177E+01  0.12370031956E+02 -0.14493117487E+03  0.16646714337E+03  0.80698248858E+02 0.  0.
          5    1    3    3  501    0  0.28809300925E+02 -0.21925872099E+02 -0.61587315906E+02  0.71594742598E+02  0.47000000000E+01 0. -1.
        -13    1    4    4    0    0  0.82082705787E+01 -0.97996777198E+01 -0.71226756497E+02  0.72364772026E+02  0.00000000000E+00 0.  1.
         14    1    4    4    0    0 -0.17494341994E+02  0.13093594605E+03 -0.71738012714E+03  0.72944123875E+03  0.00000000000E+00 0. -1.
         -5    1    5    5    0  502 -0.25929423027E+02 -0.11158042818E+03 -0.30289069849E+03  0.32386323065E+03  0.47000000000E+01 0.  1.
         11    1    6    6    0    0 -0.26517348522E+01 -0.14556349050E+02 -0.13583340558E+03  0.13663686569E+03  0.00000000000E+00 0. -1.
        -12    1    6    6    0    0  0.90579283699E+01  0.26926381006E+02 -0.90977692874E+01  0.29830277680E+02  0.00000000000E+00 0.  1.
</event>
<event>
12    1  0.1040325E-001  0.2068548E+03  0.7818608E-02  0.1144229E+00
         21   -1    0    0  503  502  0.00000000000E+00  0.00000000000E+00  0.64962549988E+03  0.64962549988E+03  0.00000000000E+00 0.  1.
         21   -1    0    0  501  503 -0.00000000000E+00 -0.00000000000E+00 -0.66035501577E+02  0.66035501577E+02  0.00000000000E+00 0.  1.
          6    2    1    2  501    0  0.38371023986E+02  0.10657055250E+03  0.32021992909E+03  0.38122133959E+03  0.17308751726E+03 0.  0.
         24    2    3    3    0    0  0.11259872272E+02  0.13850070926E+03  0.28191123699E+03  0.32426350125E+03  0.79772435764E+02 0.  0.
         -6    2    1    2    0  502 -0.38371023986E+02 -0.10657055250E+03  0.26337006921E+03  0.33443966187E+03  0.17221055697E+03 0.  0.
        -24    2    5    5    0    0 -0.60610718754E+01 -0.14028716464E+03  0.21766501296E+03  0.26892794454E+03  0.72297692448E+02 0.  0.
          5    1    3    3  501    0  0.27111151714E+02 -0.31930156768E+02  0.38308692099E+02  0.56957838344E+02  0.47000000000E+01 0. -1.
        -13    1    4    4    0    0 -0.22215551269E+02  0.77651066920E+02  0.94018525045E+02  0.12394636729E+03  0.00000000000E+00 0.  1.
         14    1    4    4    0    0  0.33475423541E+02  0.60849642343E+02  0.18789271195E+03  0.20031713396E+03  0.00000000000E+00 0. -1.
         -5    1    5    5    0  502 -0.32309952110E+02  0.33716612146E+02  0.45705056255E+02  0.65511717328E+02  0.47000000000E+01 0.  1.
         11    1    6    6    0    0  0.78670827581E+01 -0.12456608281E+03  0.13594752715E+03  0.18455440964E+03  0.00000000000E+00 0. -1.
        -12    1    6    6    0    0 -0.13928154634E+02 -0.15721081829E+02  0.81717485805E+02  0.84373534900E+02  0.00000000000E+00 0.  1.
</event>
<event>
12    1  0.1040325E-001  0.2302557E+03  0.7818608E-02  0.1126831E+00
         21   -1    0    0  503  502  0.00000000000E+00  0.00000000000E+00  0.74188898108E+03  0.74188898108E+03  0.00000000000E+00 0.  1.
         21   -1    0    0  501  503 -0.00000000000E+00 -0.00000000000E+00 -0.11180312146E+03  0.11180312146E+03  0.00000000000E+00 0. -1.
          6    2    1    2  501    0  0.11075524236E+03  0.10146521111E+03  0.57502088929E+02  0.23732716496E+03  0.17451584519E+03 0.  0.
         24    2    3    3    0    0  0.49050349677E+02 -0.18114413101E+02  0.16325564110E+02  0.96528100678E+02  0.79480069273E+02 0.  0.
         -6    2    1    2    0  502 -0.11075524236E+03 -0.10146521111E+03  0.57258377068E+03  0.61636493758E+03  0.17173132810E+03 0.  0.
        -24    2    5    5    0    0 -0.11680331704E+03 -0.20520565021E+02  0.30607641793E+03  0.33773099491E+03  0.79469131409E+02 0.  0.
          5    1    3    3  501    0  0.61704892682E+02  0.11957962421E+03  0.41176524819E+02  0.14079906428E+03  0.47000000000E+01 0. -1.
        -13    1    4    4    0    0  0.11152692162E+02 -0.13601316083E+02  0.45309973833E+02  0.48604239222E+02  0.00000000000E+00 0.  1.
         14    1    4    4    0    0  0.37897657515E+02 -0.45130970185E+01 -0.28984409723E+02  0.47923861456E+02  0.00000000000E+00 0. -1.
         -5    1    5    5    0  502  0.60480746819E+01 -0.80944646085E+02  0.26650735275E+03  0.27863394267E+03  0.47000000000E+01 0.  1.
         13    1    6    6    0    0 -0.22347192835E+02  0.28044125511E+02  0.92392122146E+02  0.99106882899E+02  0.00000000000E+00 0. -1.
        -14    1    6    6    0    0 -0.94456124206E+02 -0.48564690532E+02  0.21368429579E+03  0.23862411201E+03  0.00000000000E+00 0.  1.
</event>
<event>
12    1  0.1040325E-001  0.1977214E+03  0.7818608E-02  0.1153075E+00
         21   -1    0    0  501  502  0.00000000000E+00  0.00000000000E+00  0.14784181257E+03  0.14784181257E+03  0.00000000000E+00 0.  1.
         21   -1    0    0  502  503 -0.00000000000E+00 -0.00000000000E+00 -0.20174201009E+04  0.20174201009E+04  0.00000000000E+00 0.  1.
         -6    2    1    2    0  503  0.73954539700E+02  0.38775793127E+02 -0.19483645019E+04  0.19583712536E+04  0.17922304195E+03 0.  0.
        -24    2    3    3    0    0  0.97899263900E+02 -0.18385008936E+02 -0.12110425588E+04  0.12184344693E+04  0.89644867285E+02 0.  0.
          6    2    1    2  501    0 -0.73954539700E+02 -0.38775793127E+02  0.78786213581E+02  0.20689065982E+03  0.17211519861E+03 0.  0.
         24    2    5    5    0    0  0.18271294896E+02  0.87606113173E+01  0.27724763766E+02  0.91155289372E+02  0.84439538883E+02 0.  0.
          5    1    5    5  501    0 -0.92225834596E+02 -0.47536404444E+02  0.51061449815E+02  0.11573537044E+03  0.47000000000E+01 0. -1.
        -13    1    6    6    0    0  0.25278911752E+02 -0.16562117412E+02 -0.20304639806E+02  0.36408865819E+02  0.00000000000E+00 0.  1.
         14    1    6    6    0    0 -0.70076168560E+01  0.25322728730E+02  0.48029403573E+02  0.54746423553E+02  0.00000000000E+00 0. -1.
         -5    1    3    3    0  503 -0.23944724200E+02  0.57160802063E+02 -0.73732194308E+03  0.73993678436E+03  0.47000000000E+01 0.  1.
         11    1    4    4    0    0  0.10893281785E+01 -0.23588112100E+02 -0.53001493393E+03  0.53054068257E+03  0.00000000000E+00 0. -1.
        -12    1    4    4    0    0  0.96809935721E+02  0.52031031636E+01 -0.68102762488E+03  0.68789378671E+03  0.00000000000E+00 0.  1.
</event>
<event>
12    1  0.1040325E-001  0.2026741E+03  0.7818608E-02  0.1147703E+00
         21   -1    0    0  501  502  0.00000000000E+00  0.00000000000E+00  0.46960749100E+02  0.46960749100E+02  0.00000000000E+00 0.  1.
         21   -1    0    0  502  503 -0.00000000000E+00 -0.00000000000E+00 -0.12729176417E+04  0.12729176417E+04  0.00000000000E+00 0. -1.
         -6    2    1    2    0  503 -0.61299412202E+02 -0.88254553794E+02 -0.98301473828E+03  0.10034962283E+04  0.17070506832E+03 0.  0.
        -24    2    3    3    0    0 -0.66314258741E+02 -0.36688977903E+02 -0.33128615925E+03  0.34969473853E+03  0.82414979446E+02 0.  0.
          6    2    1    2  501    0  0.61299412202E+02  0.88254553794E+02 -0.24294215436E+03  0.31638216253E+03  0.17184381921E+03 0.  0.
         24    2    5    5    0    0  0.10218882843E+03  0.43548692287E+02 -0.19423794129E+03  0.23850566554E+03  0.82568331719E+02 0.  0.
          5    1    5    5  501    0 -0.40889416231E+02  0.44705861508E+02 -0.48704213076E+02  0.77876496995E+02  0.47000000000E+01 0. -1.
        -13    1    6    6    0    0  0.14945125465E+02  0.45016675371E+02 -0.43630041662E+02  0.64447175051E+02  0.00000000000E+00 0.  1.
         14    1    6    6    0    0  0.87243702969E+02 -0.14679830842E+01 -0.15060789962E+03  0.17405849049E+03  0.00000000000E+00 0. -1.
         -5    1    3    3    0  503  0.50148465382E+01 -0.51565575891E+02 -0.65172857903E+03  0.65380148978E+03  0.47000000000E+01 0.  1.
         11    1    4    4    0    0 -0.52803623975E+02 -0.10167239172E+02 -0.30585243385E+03  0.31054356659E+03  0.00000000000E+00 0. -1.
        -12    1    4    4    0    0 -0.13510634766E+02 -0.26521738731E+02 -0.25433725397E+02  0.39151171945E+02  0.00000000000E+00 0.  1.
</event>
<event>
12    1  0.1040325E-001  0.1834961E+03  0.7818608E-02  0.1164751E+00
         21   -1    0    0  501  502  0.00000000000E+00  0.00000000000E+00  0.39138983417E+03  0.39138983417E+03  0.00000000000E+00 0.  1.
         21   -1    0    0  502  503 -0.00000000000E+00 -0.00000000000E+00 -0.96328407427E+02  0.96328407427E+02  0.00000000000E+00 0.  1.
         -6    2    1    2    0  503  0.47947030349E+02 -0.34900919336E+02  0.66047398427E+02  0.19502075378E+03  0.17364862129E+03 0.  0.
        -24    2    3    3    0    0 -0.80343506154E+01 -0.77805090132E+02  0.52575326828E+02  0.12306055923E+03  0.79129977923E+02 0.  0.
          6    2    1    2  501    0 -0.47947030349E+02  0.34900919336E+02  0.22901402832E+03  0.29269748782E+03  0.17235835437E+03 0.  0.
         24    2    5    5    0    0 -0.46665001454E+02 -0.41092112112E+02  0.16214440448E+03  0.19135538888E+03  0.80373458985E+02 0.  0.
          5    1    5    5  501    0 -0.12820288950E+01  0.75993031449E+02  0.66869623839E+02  0.10134209895E+03  0.47000000000E+01 0. -1.
        -13    1    6    6    0    0 -0.21633960011E+02 -0.29970460396E+02  0.15962553994E+03  0.16384922864E+03  0.00000000000E+00 0.  1.
         14    1    6    6    0    0 -0.25031041443E+02 -0.11121651717E+02  0.25188645360E+01  0.27506160240E+02  0.00000000000E+00 0. -1.
         -5    1    3    3    0  503  0.55981380965E+02  0.42904170795E+02  0.13472071599E+02  0.71960194549E+02  0.47000000000E+01 0.  1.
         13    1    4    4    0    0 -0.13922472855E+02  0.39292244700E+01 -0.11946747505E+02  0.18761631893E+02  0.00000000000E+00 0. -1.
        -14    1    4    4    0    0  0.58881222398E+01 -0.81734314602E+02  0.64522074333E+02  0.10429892733E+03  0.00000000000E+00 0.  1.
</event>
<event>
12    1  0.1040325E-001  0.2037443E+03  0.7818608E-02  0.1148645E+00
         21   -1    0    0  501  502  0.00000000000E+00  0.00000000000E+00  0.46423105118E+02  0.46423105118E+02  0.00000000000E+00 0.  1.
         21   -1    0    0  502  503 -0.00000000000E+00 -0.00000000000E+00 -0.15114994391E+04  0.15114994391E+04  0.00000000000E+00 0.  1.
         -6    2    1    2    0  503 -0.99563660649E+02  0.47040670923E+02 -0.12367980454E+04  0.12519442795E+04  0.15990411708E+03 0.  0.
        -24    2    3    3    0    0 -0.38048484369E+02 -0.12059370385E+02 -0.34519450630E+03  0.35625689391E+03  0.78527776625E+02 0.  0.
          6    2    1    2  501    0  0.99563660649E+02 -0.47040670923E+02 -0.22827828863E+03  0.30597826475E+03  0.17142337705E+03 0.  0.
         24    2    5    5    0    0  0.10891641847E+03  0.13240768542E+02 -0.19248318627E+03  0.23509310851E+03  0.78618626975E+02 0.  0.
          5    1    5    5  501    0 -0.93527578168E+01 -0.60281439465E+02 -0.35795102354E+02  0.70885156241E+02  0.47000000000E+01 0. -1.
        -13    1    6    6    0    0  0.72314263398E+02 -0.28035140343E+02 -0.90854112895E+02  0.11945623305E+03  0.00000000000E+00 0.  1.
         14    1    6    6    0    0  0.36602155069E+02  0.41275908885E+02 -0.10162907338E+03  0.11563687546E+03  0.00000000000E+00 0. -1.
         -5    1    3    3    0  503 -0.61515176280E+02  0.59100041308E+02 -0.89160353910E+03  0.89568738560E+03  0.47000000000E+01 0.  1.
         13    1    4    4    0    0  0.21320396903E+02  0.11242147747E+02 -0.10598188221E+03  0.10868810683E+03  0.00000000000E+00 0. -1.
        -14    1    4    4    0    0 -0.59368881272E+02 -0.23301518132E+02 -0.23921262409E+03  0.24756878707E+03  0.00000000000E+00 0.  1.
</event>
<event>
12    1  0.1040325E-001  0.2010566E+03  0.7818608E-02  0.1148939E+00
         21   -1    0    0  503  502  0.00000000000E+00  0.00000000000E+00  0.16413268388E+04  0.16413268388E+04  0.00000000000E+00 0. -1.
         21   -1    0    0  501  503 -0.00000000000E+00 -0.00000000000E+00 -0.28429944176E+02  0.28429944176E+02  0.00000000000E+00 0.  1.
          6    2    1    2  501    0 -0.88480689360E+02 -0.54627603282E+02  0.49983024555E+03  0.53875229052E+03  0.17207774041E+03 0.  0.
         24    2    3    3    0    0 -0.28548351413E+01  0.18321053769E+02  0.16285764756E+03  0.18346942396E+03  0.82429394417E+02 0.  0.
         -6    2    1    2    0  502  0.88480689360E+02  0.54627603282E+02  0.11130666490E+04  0.11310044924E+04  0.17158318461E+03 0.  0.
        -24    2    5    5    0    0  0.10576975912E+03  0.74617024886E+02  0.65940901392E+03  0.67655336324E+03  0.78417238724E+02 0.  0.
          5    1    3    3  501    0 -0.85625854219E+02 -0.72948657051E+02  0.33697259799E+03  0.35528286656E+03  0.47000000000E+01 0. -1.
        -13    1    4    4    0    0  0.10536280001E+02 -0.29230174043E+02  0.91887493240E+02  0.96998596303E+02  0.00000000000E+00 0.  1.
         14    1    4    4    0    0 -0.13391115142E+02  0.47551227812E+02  0.70970154321E+02  0.86470827656E+02  0.00000000000E+00 0. -1.
         -5    1    5    5    0  502 -0.17289069758E+02 -0.19989421604E+02  0.45365763512E+03  0.45445112918E+03  0.47000000000E+01 0.  1.
         13    1    6    6    0    0  0.89233071782E+02  0.88815871556E+02  0.49747237501E+03  0.51315647130E+03  0.00000000000E+00 0. -1.
        -14    1    6    6    0    0  0.16536687336E+02 -0.14198846669E+02  0.16193663890E+03  0.16339689193E+03  0.00000000000E+00 0.  1.
</event>
<event>
12    1  0.1040325E-001  0.1869641E+03  0.7818608E-02  0.1162589E+00
         21   -1    0    0  501  502  0.00000000000E+00  0.00000000000E+00  0.57752631794E+03  0.57752631794E+03  0.00000000000E+00 0. -1.
         21   -1    0    0  502  503 -0.00000000000E+00 -0.00000000000E+00 -0.81170454332E+02  0.81170454332E+02  0.00000000000E+00 0. -1.
         -6    2    1    2    0  503  0.11575355789E+01 -0.57615564114E+02  0.71926116079E+02  0.19491213478E+03  0.17174539584E+03 0.  0.
        -24    2    3    3    0    0 -0.56081741762E+02 -0.65282924662E+02  0.70256350921E+02  0.13694661568E+03  0.80071210123E+02 0.  0.
          6    2    1    2  501    0 -0.11575355789E+01  0.57615564114E+02  0.42442974753E+03  0.46378463750E+03  0.17786142435E+03 0.  0.
         24    2    5    5    0    0  0.21874483086E+02  0.94216094098E+02  0.36362291187E+03  0.38902078298E+03  0.98794646401E+02 0.  0.
          5    1    5    5  501    0 -0.23032018665E+02 -0.36600529984E+02  0.60806835668E+02  0.74763854521E+02  0.47000000000E+01 0. -1.
        -11    1    6    6    0    0 -0.19104712158E+02  0.51134975997E+02  0.66634797631E+02  0.86139259645E+02  0.00000000000E+00 0.  1.
         12    1    6    6    0    0  0.40979195244E+02  0.43081118101E+02  0.29698811423E+03  0.30288152333E+03  0.00000000000E+00 0. -1.
         -5    1    3    3    0  503  0.57239277341E+02  0.76673605480E+01  0.16697651579E+01  0.57965519095E+02  0.47000000000E+01 0.  1.
         11    1    4    4    0    0 -0.14688543280E+02 -0.72710509689E+02  0.34784315132E+02  0.81929970720E+02  0.00000000000E+00 0. -1.
        -12    1    4    4    0    0 -0.41393198482E+02  0.74275850271E+01  0.35472035789E+02  0.55016644963E+02  0.00000000000E+00 0.  1.
</event>
<event>
12    1  0.1040325E-001  0.1785287E+03  0.7818608E-02  0.1169386E+00
         21   -1    0    0  501  502  0.00000000000E+00  0.00000000000E+00  0.25068265350E+02  0.25068265350E+02  0.00000000000E+00 0.  1.
         21   -1    0    0  502  503 -0.00000000000E+00 -0.00000000000E+00 -0.17568800305E+04  0.17568800305E+04  0.00000000000E+00 0.  1.
         -6    2    1    2    0  503  0.15158964247E+02  0.42403802218E+02 -0.13352843385E+04  0.13470845370E+04  0.17211800757E+03 0.  0.
        -24    2    3    3    0    0 -0.85251996107E+01  0.74131822288E+02 -0.54843491138E+03  0.55922559161E+03  0.79901215132E+02 0.  0.
          6    2    1    2  501    0 -0.15158964247E+02 -0.42403802218E+02 -0.39652742665E+03  0.43486375885E+03  0.17275593199E+03 0.  0.
         24    2    5    5    0    0 -0.75740029914E+01 -0.77113871519E+02 -0.15349977904E+03  0.18920780421E+03  0.78952493990E+02 0.  0.
          5    1    5    5  501    0 -0.75849612560E+01  0.34710069301E+02 -0.24302764761E+03  0.24565595464E+03  0.47000000000E+01 0. -1.
        -13    1    6    6    0    0  0.13304963631E+02 -0.47883063591E+02 -0.24708183874E+02  0.55500488164E+02  0.00000000000E+00 0.  1.
         14    1    6    6    0    0 -0.20878966623E+02 -0.29230807928E+02 -0.12879159516E+03  0.13370731604E+03  0.00000000000E+00 0. -1.
         -5    1    3    3    0  503  0.23684163858E+02 -0.31728020070E+02 -0.78684942715E+03  0.78785894543E+03  0.47000000000E+01 0.  1.
         11    1    4    4    0    0 -0.32327452482E+02  0.24381054177E+01 -0.12691495079E+03  0.13099012664E+03  0.00000000000E+00 0. -1.
        -12    1    4    4    0    0  0.23802252871E+02  0.71693716871E+02 -0.42151996059E+03  0.42823546497E+03  0.00000000000E+00 0.  1.
</event>
<event>
12    1  0.1040325E-001  0.1769065E+03  0.7818608E-02  0.1171469E+00
         21   -1    0    0  501  502  0.00000000000E+00  0.00000000000E+00  0.39957139926E+02  0.39957139926E+02  0.00000000000E+00 0. -1.
         21   -1    0    0  502  503 -0.00000000000E+00 -0.00000000000E+00 -0.80694111337E+03  0.80694111337E+03  0.00000000000E+00 0. -1.
         -6    2    1    2    0  503  0.36884590762E+02  0.13072724605E+02 -0.29798562923E+03  0.34654200699E+03  0.17252408010E+03 0.  0.
        -24    2    3    3    0    0  0.61508810564E+02  0.56655443885E+02 -0.14524071489E+03  0.18573496585E+03  0.80058973146E+02 0.  0.
          6    2    1    2  501    0 -0.36884590762E+02 -0.13072724605E+02 -0.46899834421E+03  0.50035624631E+03  0.16989866738E+03 0.  0.
         24    2    5    5    0    0 -0.27698033457E+02  0.47948922892E+01 -0.10906103067E+03  0.13982801683E+03  0.82869740137E+02 0.  0.
          5    1    5    5  501    0 -0.91865573051E+01 -0.17867616894E+02 -0.35993731354E+03  0.36052822948E+03  0.47000000000E+01 0. -1.
        -13    1    6    6    0    0 -0.57407434550E+02  0.53342627317E+01 -0.68188061553E+02  0.89295462588E+02  0.00000000000E+00 0.  1.
         14    1    6    6    0    0  0.29709401093E+02 -0.53937044254E+00 -0.40872969117E+02  0.50532554241E+02  0.00000000000E+00 0. -1.
         -5    1    3    3    0  503 -0.24624219802E+02 -0.43582719281E+02 -0.15274491435E+03  0.16080704114E+03  0.47000000000E+01 0.  1.
         11    1    4    4    0    0 -0.93709298306E+01 -0.43884398965E+01 -0.54283016922E+02  0.55260461967E+02  0.00000000000E+00 0. -1.
        -12    1    4    4    0    0  0.70879740395E+02  0.61043883782E+02 -0.90957697965E+02  0.13047450389E+03  0.00000000000E+00 0.  1.
</event>
<event>
12    1  0.1040325E-001  0.2950030E+03  0.7818608E-02  0.1087897E+00
         21   -1    0    0  503  502  0.00000000000E+00  0.00000000000E+00  0.45862212814E+03  0.45862212814E+03  0.00000000000E+00 0.  1.
         21   -1    0    0  501  503 -0.00000000000E+00 -0.00000000000E+00 -0.57845575707E+03  0.57845575707E+03  0.00000000000E+00 0. -1.
          6    2    1    2  501    0  0.22923448059E+03  0.66689649122E+02 -0.48530596247E+03  0.56740053689E+03  0.17153872932E+03 0.  0.
         24    2    3    3    0    0  0.15734684448E+03  0.55786956924E+02 -0.19941330447E+03  0.27236934731E+03  0.80927012336E+02 0.  0.
         -6    2    1    2    0  502 -0.22923448059E+03 -0.66689649122E+02  0.36547233354E+03  0.46967734832E+03  0.17329405226E+03 0.  0.
        -24    2    5    5    0    0 -0.36108907329E+02 -0.44403977506E+02  0.15890175975E+03  0.18597392894E+03  0.77852209922E+02 0.  0.
          5    1    3    3  501    0  0.71887636118E+02  0.10902692199E+02 -0.28589265800E+03  0.29503118958E+03  0.47000000000E+01 0. -1.
        -11    1    4    4    0    0  0.15037149009E+02  0.31673461682E+02 -0.14872278719E+02  0.38085544495E+02  0.00000000000E+00 0.  1.
         12    1    4    4    0    0  0.14230969547E+03  0.24113495242E+02 -0.18454102575E+03  0.23428380281E+03  0.00000000000E+00 0. -1.
         -5    1    5    5    0  502 -0.19312557326E+03 -0.22285671616E+02  0.20657057379E+03  0.28370341938E+03  0.47000000000E+01 0.  1.
         13    1    6    6    0    0 -0.18488154221E+02  0.20175766837E+02  0.29215399642E+02  0.40030151014E+02  0.00000000000E+00 0. -1.
        -14    1    6    6    0    0 -0.17620753108E+02 -0.64579744343E+02  0.12968636010E+03  0.14594377793E+03  0.00000000000E+00 0.  1.
</event>
<event>
12    1  0.1040325E-001  0.1802323E+03  0.7818608E-02  0.1168865E+00
         21   -1    0    0  501  502  0.00000000000E+00  0.00000000000E+00  0.77958640265E+03  0.77958640265E+03  0.00000000000E+00 0. -1.
         21   -1    0    0  502  503 -0.00000000000E+00 -0.00000000000E+00 -0.48151760146E+02  0.48151760146E+02  0.00000000000E+00 0. -1.
         -6    2    1    2    0  503  0.13087615858E+02 -0.25664061107E+02  0.52652746448E+03  0.55484505988E+03  0.17260341798E+03 0.  0.
        -24    2    3    3    0    0  0.46286765271E+01  0.46631068104E+02  0.20691350720E+03  0.22701383646E+03  0.80784907760E+02 0.  0.
          6    2    1    2  501    0 -0.13087615858E+02  0.25664061107E+02  0.20490717803E+03  0.27289310292E+03  0.17791504797E+03 0.  0.
         24    2    5    5    0    0 -0.12591827479E+02 -0.34694111788E+02  0.19190044171E+03  0.21096879403E+03  0.79497276777E+02 0.  0.
          5    1    5    5  501    0 -0.49578837930E+00  0.60358172896E+02  0.13006736314E+02  0.61924308886E+02  0.47000000000E+01 0. -1.
        -13    1    6    6    0    0  0.25753713063E+02 -0.32369002658E+02  0.14254204738E+03  0.14842250955E+03  0.00000000000E+00 0.  1.
         14    1    6    6    0    0 -0.38345540542E+02 -0.23251091300E+01  0.49358394336E+02  0.62546284489E+02  0.00000000000E+00 0. -1.
         -5    1    3    3    0  503  0.84589393311E+01 -0.72295129211E+02  0.31961395728E+03  0.32783122342E+03  0.47000000000E+01 0.  1.
         13    1    4    4    0    0  0.50598133395E+01  0.66766480461E+02  0.18727011634E+03  0.19888051966E+03  0.00000000000E+00 0. -1.
        -14    1    4    4    0    0 -0.43113681232E+00 -0.20135412357E+02  0.19643390858E+02  0.28133316799E+02  0.00000000000E+00 0.  1.
</event>
<event>
12    1  0.1040325E-001  0.2979515E+03  0.7818608E-02  0.1086278E+00
         21   -1    0    0  501  502  0.00000000000E+00  0.00000000000E+00  0.35317281376E+03  0.35317281376E+03  0.00000000000E+00 0. -1.
         21   -1    0    0  502  503 -0.00000000000E+00 -0.00000000000E+00 -0.41553420198E+03  0.41553420198E+03  0.00000000000E+00 0. -1.
         -6    2    1    2    0  503 -0.74247123743E+02  0.23159667007E+03 -0.27281222812E+03  0.40398222237E+03  0.17212051362E+03 0.  0.
        -24    2    3    3    0    0 -0.33032576857E+02  0.24152807841E+03 -0.23236993871E+03  0.34520348030E+03  0.75780542362E+02 0.  0.
          6    2    1    2  501    0  0.74247123743E+02 -0.23159667007E+03  0.21045083989E+03  0.36472479337E+03  0.17200280787E+03 0.  0.
         24    2    5    5    0    0  0.61502709898E+02 -0.13986382733E+03  0.21034408265E+03  0.27199164979E+03  0.79939670573E+02 0.  0.
          5    1    5    5  501    0  0.12744413845E+02 -0.91732842738E+02  0.10675724675E+00  0.92733143579E+02  0.47000000000E+01 0. -1.
        -13    1    6    6    0    0  0.99547590753E+01  0.87366608970E+01  0.29374131568E+02  0.32222136448E+02  0.00000000000E+00 0.  1.
         14    1    6    6    0    0  0.51547950823E+02 -0.14860048823E+03  0.18096995108E+03  0.23976951334E+03  0.00000000000E+00 0. -1.
         -5    1    3    3    0  503 -0.41214546886E+02 -0.99314083402E+01 -0.40442289412E+02  0.58778742072E+02  0.47000000000E+01 0.  1.
         13    1    4    4    0    0 -0.33886299670E+02  0.16693727255E+03 -0.20308392755E+03  0.26506492771E+03  0.00000000000E+00 0. -1.
        -14    1    4    4    0    0  0.85372281303E+00  0.74590805863E+02 -0.29286011158E+02  0.80138552592E+02  0.00000000000E+00 0.  1.
</event>
<event>
12    1  0.1040325E-001  0.1834649E+03  0.7818608E-02  0.1164667E+00
         21   -1    0    0  503  502  0.00000000000E+00  0.00000000000E+00  0.21057453758E+03  0.21057453758E+03  0.00000000000E+00 0. -1.
         21   -1    0    0  501  503 -0.00000000000E+00 -0.00000000000E+00 -0.16601490150E+03  0.16601490150E+03  0.00000000000E+00 0. -1.
          6    2    1    2  501    0 -0.39349131766E+02 -0.49242204880E+02 -0.15827313242E+02  0.18414630997E+03  0.17229686799E+03 0.  0.
         24    2    3    3    0    0 -0.42962340537E+02 -0.43929162082E+02  0.53837509430E+02  0.11402811534E+03  0.79551239334E+02 0.  0.
         -6    2    1    2    0  502  0.39349131766E+02  0.49242204880E+02  0.60386949322E+02  0.19244312910E+03  0.17150692516E+03 0.  0.
        -24    2    5    5    0    0 -0.11431965228E+02 -0.21322602005E+02  0.63029820625E+02  0.10533867140E+03  0.80858730008E+02 0.  0.
          5    1    3    3  501    0  0.36132087709E+01 -0.53130427973E+01 -0.69664822673E+02  0.70118194639E+02  0.47000000000E+01 0. -1.
        -11    1    4    4    0    0  0.10772531171E+02  0.10882416699E+02  0.29953177083E+02  0.33640262163E+02  0.00000000000E+00 0.  1.
         12    1    4    4    0    0 -0.53734871708E+02 -0.54811578781E+02  0.23884332348E+02  0.80387853172E+02  0.00000000000E+00 0. -1.
         -5    1    5    5    0  502  0.50781096994E+02  0.70564806885E+02 -0.26428713030E+01  0.87104457701E+02  0.47000000000E+01 0.  1.
         11    1    6    6    0    0  0.21954998460E+02 -0.26909991262E+02  0.62479108638E+02  0.71482925257E+02  0.00000000000E+00 0. -1.
        -12    1    6    6    0    0 -0.33386963688E+02  0.55873892570E+01  0.55071198718E+00  0.33855746140E+02  0.00000000000E+00 0.  1.
</event>
<event>
12    1  0.1040325E-001  0.1942606E+03  0.7818608E-02  0.1154908E+00
         21   -1    0    0  501  502  0.00000000000E+00  0.00000000000E+00  0.56859901511E+02  0.56859901511E+02  0.00000000000E+00 0.  1.
         21   -1    0    0  502  503 -0.00000000000E+00 -0.00000000000E+00 -0.13161791285E+04  0.13161791285E+04  0.00000000000E+00 0.  1.
         -6    2    1    2    0  503  0.80772203909E+02  0.43132300374E+02 -0.11152444184E+04  0.11320367925E+04  0.17132612888E+03 0.  0.
        -24    2    3    3    0    0  0.11126630685E+03 -0.28335519341E+01 -0.84918833524E+03  0.86028197782E+03  0.81092740684E+02 0.  0.
          6    2    1    2  501    0 -0.80772203909E+02 -0.43132300374E+02 -0.14407480860E+03  0.24100223757E+03  0.17011755871E+03 0.  0.
         24    2    5    5    0    0  0.62564494545E+01 -0.65881469963E+02 -0.81798387806E+02  0.13149445789E+03  0.78868909994E+02 0.  0.
          5    1    5    5  501    0 -0.87028653364E+02  0.22749169590E+02 -0.62276420793E+02  0.10950777968E+03  0.47000000000E+01 0. -1.
        -11    1    6    6    0    0 -0.17685236977E+02 -0.14344871143E+02  0.89127608923E+01  0.24453634531E+02  0.00000000000E+00 0.  1.
         12    1    6    6    0    0  0.23941686431E+02 -0.51536598821E+02 -0.90711148698E+02  0.10704082336E+03  0.00000000000E+00 0. -1.
         -5    1    3    3    0  503 -0.30494102941E+02  0.45965852308E+02 -0.26605608319E+03  0.27175481467E+03  0.47000000000E+01 0.  1.
         11    1    4    4    0    0  0.84601720675E+02  0.75118292792E+00 -0.33947071487E+03  0.34985480084E+03  0.00000000000E+00 0. -1.
        -12    1    4    4    0    0  0.26664586176E+02 -0.35847348621E+01 -0.50971762037E+03  0.51042717698E+03  0.00000000000E+00 0.  1.
</event>
<event>
12    1  0.1040325E-001  0.1972957E+03  0.7818608E-02  0.1152395E+00
         21   -1    0    0  501  502  0.00000000000E+00  0.00000000000E+00  0.20007946510E+03  0.20007946510E+03  0.00000000000E+00 0. -1.
         21   -1    0    0  502  503 -0.00000000000E+00 -0.00000000000E+00 -0.19513694998E+03  0.19513694998E+03  0.00000000000E+00 0.  1.
         -6    2    1    2    0  503 -0.93177184033E+02 -0.13038097170E+01  0.23469334587E+02  0.19868674429E+03  0.17390205618E+03 0.  0.
        -24    2    3    3    0    0 -0.96660652029E+00  0.12927092450E+02  0.57497392676E+02  0.99261858471E+02  0.79868155953E+02 0.  0.
          6    2    1    2  501    0  0.93177184033E+02  0.13038097170E+01 -0.18526819463E+02  0.19652967079E+03  0.17203773109E+03 0.  0.
         24    2    5    5    0    0  0.22372038072E+02  0.80672698555E+01  0.53253140949E+02  0.95368582399E+02  0.75456481215E+02 0.  0.
          5    1    5    5  501    0  0.70805145961E+02 -0.67634601384E+01 -0.71779960413E+02  0.10116108839E+03  0.47000000000E+01 0. -1.
        -11    1    6    6    0    0 -0.62060914241E+01 -0.30120622212E+02  0.14945580129E+02  0.34192657378E+02  0.00000000000E+00 0.  1.
         12    1    6    6    0    0  0.28578129496E+02  0.38187892068E+02  0.38307560820E+02  0.61175925020E+02  0.00000000000E+00 0. -1.
         -5    1    3    3    0  503 -0.92210577513E+02 -0.14230902167E+02 -0.34028058089E+02  0.99424885814E+02  0.47000000000E+01 0.  1.
         13    1    4    4    0    0 -0.16092379558E+02  0.28714431460E+02  0.67591437779E+02  0.75180354582E+02  0.00000000000E+00 0. -1.
        -14    1    4    4    0    0  0.15125773038E+02 -0.15787339011E+02 -0.10094045103E+02  0.24081503890E+02  0.00000000000E+00 0.  1.
</event>
<event>
12    1  0.1040325E-001  0.2018268E+03  0.7818608E-02  0.1148316E+00
         21   -1    0    0  501  502  0.00000000000E+00  0.00000000000E+00  0.48996947114E+03  0.48996947114E+03  0.00000000000E+00 0. -1.
         21   -1    0    0  502  503 -0.00000000000E+00 -0.00000000000E+00 -0.30605862159E+03  0.30605862159E+03  0.00000000000E+00 0.  1.
         -6    2    1    2    0  503  0.47464582842E+02  0.93117954932E+02 -0.24785844042E+03  0.31963709242E+03  0.17265637611E+03 0.  0.
        -24    2    3    3    0    0  0.88797766685E+02  0.96849865456E+02 -0.22318397602E+03  0.27112649115E+03  0.80209396225E+02 0.  0.
          6    2    1    2  501    0 -0.47464582842E+02 -0.93117954932E+02  0.43176928998E+03  0.47639100031E+03  0.17204599750E+03 0.  0.
         24    2    5    5    0    0 -0.14918159309E+02 -0.49039382250E+02  0.40309810340E+03  0.41437231608E+03  0.81172180424E+02 0.  0.
          5    1    5    5  501    0 -0.32546423534E+02 -0.44078572682E+02  0.28671186573E+02  0.62018684233E+02  0.47000000000E+01 0. -1.
        -11    1    6    6    0    0  0.24847563786E+01  0.14845625961E+02  0.20396461630E+03  0.20451926884E+03  0.00000000000E+00 0.  1.
         12    1    6    6    0    0 -0.17402915687E+02 -0.63885008211E+02  0.19913348710E+03  0.20985304723E+03  0.00000000000E+00 0. -1.
         -5    1    3    3    0  503 -0.41333183843E+02 -0.37319105238E+01 -0.24674464403E+02  0.48510601278E+02  0.47000000000E+01 0.  1.
         11    1    4    4    0    0  0.18895599672E+02 -0.10737071829E+02 -0.58207649146E+02  0.62132590623E+02  0.00000000000E+00 0. -1.
        -12    1    4    4    0    0  0.69902167014E+02  0.10758693729E+03 -0.16497632687E+03  0.20899390052E+03  0.00000000000E+00 0.  1.
</event>
<event>
12    1  0.1040325E-001  0.1817048E+03  0.7818608E-02  0.1168503E+00
         21   -1    0    0  503  502  0.00000000000E+00  0.00000000000E+00  0.11888528105E+03  0.11888528105E+03  0.00000000000E+00 0. -1.
         21   -1    0    0  501  503 -0.00000000000E+00 -0.00000000000E+00 -0.31659943280E+03  0.31659943280E+03  0.00000000000E+00 0. -1.
          6    2    1    2  501    0  0.64285383144E+01  0.13049861064E+02 -0.19032307550E+03  0.26313401680E+03  0.18112154138E+03 0.  0.
         24    2    3    3    0    0 -0.48502560372E+01  0.51542239992E+02 -0.36054808377E+02  0.10366720935E+03  0.82260644304E+02 0.  0.
         -6    2    1    2    0  502 -0.64285383144E+01 -0.13049861064E+02 -0.73910762597E+01  0.17235069705E+03  0.17157654206E+03 0.  0.
        -24    2    5    5    0    0 -0.20913394641E+02  0.55910468520E+02 -0.17231204983E+02  0.10104672624E+03  0.79687990901E+02 0.  0.
          5    1    3    3  501    0  0.11278794352E+02 -0.38492378928E+02 -0.15426826712E+03  0.15946680745E+03  0.47000000000E+01 0. -1.
        -13    1    4    4    0    0  0.36962578125E+02  0.10624347814E+02 -0.17830853329E+02  0.42391606228E+02  0.00000000000E+00 0.  1.
         14    1    4    4    0    0 -0.41812834162E+02  0.40917892178E+02 -0.18223955048E+02  0.61275603127E+02  0.00000000000E+00 0. -1.
         -5    1    5    5    0  502  0.14484856326E+02 -0.68960329584E+02  0.98401287231E+01  0.71303970804E+02  0.47000000000E+01 0.  1.
         13    1    6    6    0    0 -0.90603577330E+01  0.46887826007E+02  0.26662528743E+02  0.54694138158E+02  0.00000000000E+00 0. -1.
        -14    1    6    6    0    0 -0.11853036908E+02  0.90226425135E+01 -0.43893733725E+02  0.46352588085E+02  0.00000000000E+00 0.  1.
</event>
<event>
12    1  0.1040325E-001  0.1862237E+03  0.7818608E-02  0.1161925E+00
         21   -1    0    0  503  502  0.00000000000E+00  0.00000000000E+00  0.49384064433E+03  0.49384064433E+03  0.00000000000E+00 0. -1.
         21   -1    0    0  501  503 -0.00000000000E+00 -0.00000000000E+00 -0.73868850663E+02  0.73868850663E+02  0.00000000000E+00 0. -1.
          6    2    1    2  501    0  0.13690848666E+02  0.70656264114E+02  0.14671094977E+03  0.23702722993E+03  0.17169175271E+03 0.  0.
         24    2    3    3    0    0  0.27633185216E+02  0.15356621452E+02  0.15727325434E+03  0.17883709756E+03  0.79046898654E+02 0.  0.
         -6    2    1    2    0  502 -0.13690848666E+02 -0.70656264114E+02  0.27326084389E+03  0.33068226506E+03  0.17175425650E+03 0.  0.
        -24    2    5    5    0    0  0.40882825763E+02 -0.35895049304E+02  0.23837561349E+03  0.25702293235E+03  0.79233797324E+02 0.  0.
          5    1    3    3  501    0 -0.13942336550E+02  0.55299642662E+02 -0.10562304567E+02  0.58190132366E+02  0.47000000000E+01 0. -1.
        -11    1    4    4    0    0  0.51411951612E+02 -0.75443385568E+01  0.90793928823E+02  0.10461186990E+03  0.00000000000E+00 0.  1.
         12    1    4    4    0    0 -0.23778766395E+02  0.22900960009E+02  0.66479325518E+02  0.74225227665E+02  0.00000000000E+00 0. -1.
         -5    1    5    5    0  502 -0.54573674429E+02 -0.34761214810E+02  0.34885230400E+02  0.73659332714E+02  0.47000000000E+01 0.  1.
         11    1    6    6    0    0  0.46429083604E+01  0.47367899020E+01  0.16758777321E+03  0.16771897777E+03  0.00000000000E+00 0. -1.
        -12    1    6    6    0    0  0.36239917402E+02 -0.40631839206E+02  0.70787840284E+02  0.89303954575E+02  0.00000000000E+00 0.  1.
</event>
<event>
12    1  0.1040325E-001  0.1769905E+03  0.7818608E-02  0.1171082E+00
         21   -1    0    0  501  502  0.00000000000E+00  0.00000000000E+00  0.86370085384E+03  0.86370085384E+03  0.00000000000E+00 0. -1.
         21   -1    0    0  502  503 -0.00000000000E+00 -0.00000000000E+00 -0.19401046873E+03  0.19401046873E+03  0.00000000000E+00 0.  1.
         -6    2    1    2    0  503 -0.18144363609E+02  0.38613081528E+02 -0.14267336815E+03  0.22629055536E+03  0.17038643570E+03 0.  0.
        -24    2    3    3    0    0 -0.32915771236E+02  0.78028796054E+02 -0.54491572443E+02  0.12846462766E+03  0.79761444845E+02 0.  0.
          6    2    1    2  501    0  0.18144363609E+02 -0.38613081528E+02  0.81236375327E+03  0.83142076721E+03  0.17177146600E+03 0.  0.
         24    2    5    5    0    0 -0.45755478655E+02 -0.48826817665E+01  0.31957503845E+03  0.33334071625E+03  0.82888017855E+02 0.  0.
          5    1    5    5  501    0  0.63899842265E+02 -0.33730399761E+02  0.49278871482E+03  0.49808005096E+03  0.47000000000E+01 0. -1.
        -13    1    6    6    0    0 -0.52585566663E+01 -0.22119610737E+02  0.19200608195E+02  0.29758913832E+02  0.00000000000E+00 0.  1.
         14    1    6    6    0    0 -0.40496921989E+02  0.17236928971E+02  0.30037443025E+03  0.30358180242E+03  0.00000000000E+00 0. -1.
         -5    1    3    3    0  503  0.14771407627E+02 -0.39415714526E+02 -0.88181795711E+02  0.97825927697E+02  0.47000000000E+01 0.  1.
         11    1    4    4    0    0  0.20132549171E+01  0.16552527309E+02  0.19812407777E+02  0.25895382939E+02  0.00000000000E+00 0. -1.
        -12    1    4    4    0    0 -0.34929026153E+02  0.61476268745E+02 -0.74303980219E+02  0.10256924472E+03  0.00000000000E+00 0.  1.
</event>
<event>
12    1  0.1040325E-001  0.2880570E+03  0.7818608E-02  0.1093030E+00
         21   -1    0    0  503  502  0.00000000000E+00  0.00000000000E+00  0.30119955263E+03  0.30119955263E+03  0.00000000000E+00 0. -1.
         21   -1    0    0  501  503 -0.00000000000E+00 -0.00000000000E+00 -0.31337111214E+03  0.31337111214E+03  0.00000000000E+00 0.  1.
          6    2    1    2  501    0 -0.10036945051E+01 -0.21238945229E+03 -0.12836245772E+03  0.31536290938E+03  0.19459331236E+03 0.  0.
         24    2    3    3    0    0 -0.60842667787E+02 -0.47563192871E+02 -0.59313312862E+02  0.12684693414E+03  0.81289532402E+02 0.  0.
         -6    2    1    2    0  502  0.10036945051E+01  0.21238945229E+03  0.11619089821E+03  0.29920775539E+03  0.17582567848E+03 0.  0.
        -24    2    5    5    0    0 -0.23336051503E+02  0.14527792754E+03  0.14528293208E+03  0.22197553138E+03  0.80720249301E+02 0.  0.
          5    1    3    3  501    0  0.59838973282E+02 -0.16482625941E+03 -0.69049144856E+02  0.18851597524E+03  0.47000000000E+01 0. -1.
        -13    1    4    4    0    0  0.20646569131E+01 -0.29085883928E+02 -0.53619646670E+02  0.61035382862E+02  0.00000000000E+00 0.  1.
         14    1    4    4    0    0 -0.62907324700E+02 -0.18477308944E+02 -0.56936661914E+01  0.65811551277E+02  0.00000000000E+00 0. -1.
         -5    1    5    5    0  502  0.24339746008E+02  0.67111524750E+02 -0.29092033879E+02  0.77232224008E+02  0.47000000000E+01 0.  1.
         13    1    6    6    0    0 -0.35852497776E+02  0.97654792027E+02  0.51559705071E+02  0.11610453561E+03  0.00000000000E+00 0. -1.
        -14    1    6    6    0    0  0.12516446273E+02  0.47623135509E+02  0.93723227013E+02  0.10587099577E+03  0.00000000000E+00 0.  1.
</event>
<event>
12    1  0.1040325E-001  0.1915287E+03  0.7818608E-02  0.1158074E+00
         21   -1    0    0  501  502  0.00000000000E+00  0.00000000000E+00  0.18788716977E+04  0.18788716977E+04  0.00000000000E+00 0.  1.
         21   -1    0    0  502  503 -0.00000000000E+00 -0.00000000000E+00 -0.37396087013E+02  0.37396087013E+02  0.00000000000E+00 0.  1.
         -6    2    1    2    0  503  0.10470985774E+02 -0.73102140809E+02  0.25566471982E+03  0.31944904602E+03  0.17671921093E+03 0.  0.
        -24    2    3    3    0    0  0.27642150215E+02 -0.84664151905E+02  0.26949856283E+03  0.29411144153E+03  0.77071120335E+02 0.  0.
          6    2    1    2  501    0 -0.10470985774E+02  0.73102140809E+02  0.15858108909E+04  0.15968187387E+04  0.17198935458E+03 0.  0.
         24    2    5    5    0    0  0.12331659064E+02 -0.22501140111E+02  0.51918846402E+03  0.52566728376E+03  0.78173274987E+02 0.  0.
          5    1    5    5  501    0 -0.22802644838E+02  0.95603280919E+02  0.10666224269E+04  0.10711514550E+04  0.47000000000E+01 0. -1.
        -11    1    6    6    0    0 -0.33359748364E+01 -0.47588121996E+02  0.40127776139E+03  0.40410345194E+03  0.00000000000E+00 0.  1.
         12    1    6    6    0    0  0.15667633900E+02  0.25086981885E+02  0.11791070263E+03  0.12156383182E+03  0.00000000000E+00 0. -1.
         -5    1    3    3    0  503 -0.17171164440E+02  0.11562011096E+02 -0.13833843011E+02  0.25337604489E+02  0.47000000000E+01 0.  1.
         11    1    4    4    0    0  0.11515684113E+01 -0.25382264963E+02  0.18894913129E+03  0.19064983530E+03  0.00000000000E+00 0. -1.
        -12    1    4    4    0    0  0.26490581803E+02 -0.59281886942E+02  0.80549431533E+02  0.10346160623E+03  0.00000000000E+00 0.  1.
</event>
<event>
12    1  0.1040325E-001  0.1761986E+03  0.7818608E-02  0.1171789E+00
         21   -1    0    0  503  502  0.00000000000E+00  0.00000000000E+00  0.59672072179E+03  0.59672072179E+03  0.00000000000E+00 0.  1.
         21   -1    0    0  501  503 -0.00000000000E+00 -0.00000000000E+00 -0.84514649407E+02  0.84514649407E+02  0.00000000000E+00 0.  1.
          6    2    1    2  501    0 -0.34859307379E+02  0.81777891493E+00  0.44399805842E+02  0.18170657469E+03  0.17271391506E+03 0.  0.
         24    2    3    3    0    0 -0.20609327716E+02 -0.58513003601E+02 -0.37483372721E+01  0.10383785594E+03  0.83184940435E+02 0.  0.
         -6    2    1    2    0  502  0.34859307379E+02 -0.81777891493E+00  0.46780626655E+03  0.49952879651E+03  0.17166966957E+03 0.  0.
        -24    2    5    5    0    0  0.70008608401E+01  0.64975104453E+02  0.30042123919E+03  0.31747211872E+03  0.79150798835E+02 0.  0.
          5    1    3    3  501    0 -0.14249979663E+02  0.59330782516E+02  0.48148143114E+02  0.77868718749E+02  0.47000000000E+01 0. -1.
        -11    1    4    4    0    0  0.19988496579E+02 -0.25040367677E+02 -0.30999968041E+02  0.44582037049E+02  0.00000000000E+00 0.  1.
         12    1    4    4    0    0 -0.40597824295E+02 -0.33472635924E+02  0.27251630769E+02  0.59255818894E+02  0.00000000000E+00 0. -1.
         -5    1    5    5    0  502  0.27858446539E+02 -0.65792883368E+02  0.16738502736E+03  0.18205667779E+03  0.47000000000E+01 0.  1.
         13    1    6    6    0    0 -0.23943312024E+02  0.31546159937E+02  0.54512977788E+02  0.67380317191E+02  0.00000000000E+00 0. -1.
        -14    1    6    6    0    0  0.30944172864E+02  0.33428944516E+02  0.24590826140E+03  0.25009180153E+03  0.00000000000E+00 0.  1.
</event>
<event>
12    1  0.1040325E-001  0.1787347E+03  0.7818608E-02  0.1169066E+00
         21   -1    0    0  503  502  0.00000000000E+00  0.00000000000E+00  0.43919766939E+03  0.43919766939E+03  0.00000000000E+00 0. -1.
         21   -1    0    0  501  503 -0.00000000000E+00 -0.00000000000E+00 -0.78072893420E+02  0.78072893420E+02  0.00000000000E+00 0. -1.
          6    2    1    2  501    0 -0.38877836263E+02  0.29422257212E+02  0.24845585705E+03  0.30598783681E+03  0.17181701894E+03 0.  0.
         24    2    3    3    0    0  0.22569346355E+02  0.39855102409E+02  0.66089249030E+02  0.11320746895E+03  0.79689005547E+02 0.  0.
         -6    2    1    2    0  502  0.38877836263E+02 -0.29422257212E+02  0.11266891891E+03  0.21128272600E+03  0.17195624340E+03 0.  0.
        -24    2    5    5    0    0 -0.13000074989E+02 -0.19535827898E+02  0.23689489301E+01  0.88901221928E+02  0.85715604296E+02 0.  0.
          5    1    3    3  501    0 -0.61447182618E+02 -0.10432845198E+02  0.18236660802E+03  0.19278036786E+03  0.47000000000E+01 0. -1.
        -13    1    4    4    0    0  0.36043512177E+02  0.22030291825E+02  0.77389504871E+02  0.88168044053E+02  0.00000000000E+00 0.  1.
         14    1    4    4    0    0 -0.13474165822E+02  0.17824810585E+02 -0.11300255841E+02  0.25039424894E+02  0.00000000000E+00 0. -1.
         -5    1    5    5    0  502  0.51877911252E+02 -0.98864293140E+01  0.11029996998E+03  0.12238150407E+03  0.47000000000E+01 0.  1.
         11    1    6    6    0    0 -0.53478614312E+01  0.23867651290E+02 -0.26618652036E+02  0.36149924429E+02  0.00000000000E+00 0. -1.
        -12    1    6    6    0    0 -0.76522135583E+01 -0.43403479188E+02  0.28987600966E+02  0.52751297498E+02  0.00000000000E+00 0.  1.
</event>
<event>
12    1  0.1040325E-001  0.2633167E+03  0.7818608E-02  0.1105174E+00
         21   -1    0    0  503  502  0.00000000000E+00  0.00000000000E+00  0.39456509187E+03  0.39456509187E+03  0.00000000000E+00 0. -1.
         21   -1    0    0  501  503 -0.00000000000E+00 -0.00000000000E+00 -0.22911376073E+03  0.22911376073E+03  0.00000000000E+00 0. -1.
          6    2    1    2  501    0 -0.14995099819E+03  0.13067528117E+03 -0.67853212560E+02  0.27187395595E+03  0.17248205269E+03 0.  0.
         24    2    3    3    0    0 -0.10321296956E+02  0.14576932844E+02 -0.67767861527E+01  0.80229233050E+02  0.77921684166E+02 0.  0.
         -6    2    1    2    0  502  0.14995099819E+03 -0.13067528117E+03  0.23330454370E+03  0.35180489665E+03  0.17255243907E+03 0.  0.
        -24    2    5    5    0    0  0.91384724628E+02 -0.15354722477E+03  0.20324357868E+03  0.28195587503E+03  0.79140666278E+02 0.  0.
          5    1    3    3  501    0 -0.13962970124E+03  0.11609834833E+03 -0.61076426407E+02  0.19164472290E+03  0.47000000000E+01 0. -1.
        -13    1    4    4    0    0 -0.23284087290E+02 -0.27430138156E+02 -0.28676629836E+01  0.36094108816E+02  0.00000000000E+00 0.  1.
         14    1    4    4    0    0  0.12962790335E+02  0.42007071000E+02 -0.39091231690E+01  0.44135124234E+02  0.00000000000E+00 0. -1.
         -5    1    5    5    0  502  0.58566273566E+02  0.22871943601E+02  0.30060965022E+02  0.69849021622E+02  0.47000000000E+01 0.  1.
         11    1    6    6    0    0  0.20620372824E+02 -0.92808211300E+02  0.64884199265E+02  0.11510222923E+03  0.00000000000E+00 0. -1.
        -12    1    6    6    0    0  0.70764351804E+02 -0.60739013470E+02  0.13835937941E+03  0.16685364579E+03  0.00000000000E+00 0.  1.
</event>
<event>
12    1  0.1040325E-001  0.2037680E+03  0.7818608E-02  0.1146781E+00
         21   -1    0    0  501  502  0.00000000000E+00  0.00000000000E+00  0.40346730947E+03  0.40346730947E+03  0.00000000000E+00 0. -1.
         21   -1    0    0  502  503 -0.00000000000E+00 -0.00000000000E+00 -0.13467291161E+03  0.13467291161E+03  0.00000000000E+00 0. -1.
         -6    2    1    2    0  503 -0.10210261213E+03 -0.33893010893E+02  0.25882977996E+01  0.20289840025E+03  0.17200983096E+03 0.  0.
        -24    2    3    3    0    0 -0.73148715928E+02 -0.80603545022E+02  0.34373048469E+02  0.13923866039E+03  0.79738522521E+02 0.  0.
          6    2    1    2  501    0  0.10210261213E+03  0.33893010893E+02  0.26620610006E+03  0.33524182084E+03  0.17305406998E+03 0.  0.
         24    2    5    5    0    0 -0.10669904373E+01  0.19791082431E+02  0.18891268431E+03  0.20547590313E+03  0.78355083186E+02 0.  0.
          5    1    5    5  501    0  0.10316960257E+03  0.14101928461E+02  0.77293415752E+02  0.12976591771E+03  0.47000000000E+01 0. -1.
        -11    1    6    6    0    0 -0.26904122041E+02 -0.16194763124E+02  0.44812860009E+02  0.54720147639E+02  0.00000000000E+00 0.  1.
         12    1    6    6    0    0  0.25837131604E+02  0.35985845556E+02  0.14409982430E+03  0.15075575549E+03  0.00000000000E+00 0. -1.
         -5    1    3    3    0  503 -0.28953896205E+02  0.46710534130E+02 -0.31784750669E+02  0.63659739861E+02  0.47000000000E+01 0.  1.
         11    1    4    4    0    0 -0.53834858122E+02 -0.19036037295E+02 -0.13762453571E+02  0.58736426459E+02  0.00000000000E+00 0. -1.
        -12    1    4    4    0    0 -0.19313857806E+02 -0.61567507728E+02  0.48135502040E+02  0.80502233930E+02  0.00000000000E+00 0.  1.
</event>
<event>
12    1  0.1040325E-001  0.2085391E+03  0.7818608E-02  0.1142736E+00
         21   -1    0    0  503  502  0.00000000000E+00  0.00000000000E+00  0.46437596743E+03  0.46437596743E+03  0.00000000000E+00 0. -1.
         21   -1    0    0  501  503 -0.00000000000E+00 -0.00000000000E+00 -0.18500499669E+03  0.18500499669E+03  0.00000000000E+00 0. -1.
          6    2    1    2  501    0 -0.72337524331E+02 -0.96076217494E+02 -0.88492866167E+02  0.22653820209E+03  0.17036787446E+03 0.  0.
         24    2    3    3    0    0  0.13461224070E+02 -0.48912504184E+02 -0.33514531482E+01  0.96703725573E+02  0.82260201085E+02 0.  0.
         -6    2    1    2    0  502  0.72337524331E+02  0.96076217494E+02  0.36786383690E+03  0.42284276204E+03  0.17031982244E+03 0.  0.
        -24    2    5    5    0    0  0.12982239697E+01  0.50328016081E+01  0.75981890525E+02  0.10891180404E+03  0.77855756969E+02 0.  0.
          5    1    3    3  501    0 -0.85798748401E+02 -0.47163713310E+02 -0.85141413018E+02  0.12983447651E+03  0.47000000000E+01 0. -1.
        -13    1    4    4    0    0  0.10579900454E+02  0.86899118518E+01  0.27920553795E+02  0.31096723072E+02  0.00000000000E+00 0.  1.
         14    1    4    4    0    0  0.28813236161E+01 -0.57602416036E+02 -0.31272006943E+02  0.65607002501E+02  0.00000000000E+00 0. -1.
         -5    1    5    5    0  502  0.71039300362E+02  0.91043415886E+02  0.29188194637E+03  0.31393095800E+03  0.47000000000E+01 0.  1.
         11    1    6    6    0    0 -0.10031712922E+02 -0.91398006425E+01  0.86754919120E+02  0.87809949387E+02  0.00000000000E+00 0. -1.
        -12    1    6    6    0    0  0.11329936891E+02  0.14172602251E+02 -0.10773028595E+02  0.21101854649E+02  0.00000000000E+00 0.  1.
</event>
<event>
12    1  0.1040325E-001  0.2455644E+03  0.7818608E-02  0.1116633E+00
         21   -1    0    0  501  502  0.00000000000E+00  0.00000000000E+00  0.11857775787E+03  0.11857775787E+03  0.00000000000E+00 0. -1.
         21   -1    0    0  502  503 -0.00000000000E+00 -0.00000000000E+00 -0.80815447455E+03  0.80815447455E+03  0.00000000000E+00 0. -1.
         -6    2    1    2    0  503  0.10800809856E+03 -0.13690899383E+03 -0.62851690598E+03  0.67369036127E+03  0.16856862051E+03 0.  0.
        -24    2    3    3    0    0  0.93450331900E+02 -0.10669782753E+03 -0.28425116324E+03  0.32776315106E+03  0.80700486117E+02 0.  0.
          6    2    1    2  501    0 -0.10800809856E+03  0.13690899383E+03 -0.61059810695E+02  0.25304187115E+03  0.17289322175E+03 0.  0.
         24    2    5    5    0    0 -0.13604908186E+03  0.13830439503E+03 -0.73399452981E+02  0.22201606478E+03  0.79159301172E+02 0.  0.
          5    1    5    5  501    0  0.28040983304E+02 -0.13954011965E+01  0.12339642286E+02  0.31025806370E+02  0.47000000000E+01 0. -1.
        -11    1    6    6    0    0 -0.15443634097E+02 -0.92215009703E+01 -0.12744510458E+02  0.22044601631E+02  0.00000000000E+00 0.  1.
         12    1    6    6    0    0 -0.12060544777E+03  0.14752589600E+03 -0.60654942523E+02  0.19997146315E+03  0.00000000000E+00 0. -1.
         -5    1    3    3    0  503  0.14557766659E+02 -0.30211166304E+02 -0.34426574274E+03  0.34592721021E+03  0.47000000000E+01 0.  1.
         13    1    4    4    0    0  0.60073897412E+02 -0.38130267213E+02 -0.67848665316E+02  0.98316996563E+02  0.00000000000E+00 0. -1.
        -14    1    4    4    0    0  0.33376434488E+02 -0.68567560313E+02 -0.21640249792E+03  0.22944615450E+03  0.00000000000E+00 0.  1.
</event>
<event>
12    1  0.1040325E-001  0.2042431E+03  0.7818608E-02  0.1146364E+00
         21   -1    0    0  501  502  0.00000000000E+00  0.00000000000E+00  0.10621539773E+03  0.10621539773E+03  0.00000000000E+00 0.  1.
         21   -1    0    0  502  503 -0.00000000000E+00 -0.00000000000E+00 -0.84561036688E+03  0.84561036688E+03  0.00000000000E+00 0.  1.
         -6    2    1    2    0  503 -0.41987575250E+02  0.10134012563E+03 -0.71885717337E+03  0.74730908633E+03  0.17228597525E+03 0.  0.
        -24    2    3    3    0    0  0.40916189966E+02  0.41710892680E+02 -0.24721749145E+03  0.26471737559E+03  0.74463868373E+02 0.  0.
          6    2    1    2  501    0  0.41987575250E+02 -0.10134012563E+03 -0.20537795780E+02  0.20451667828E+03  0.17138405148E+03 0.  0.
         24    2    5    5    0    0  0.41081934711E+02 -0.62325095756E+02 -0.79127721458E+02  0.13396271219E+03  0.78183559860E+02 0.  0.
          5    1    5    5  501    0  0.90564053889E+00 -0.39015029872E+02  0.58589925677E+02  0.70553966094E+02  0.47000000000E+01 0. -1.
        -11    1    6    6    0    0  0.72708445535E+01 -0.27396484006E+02  0.11920476610E+02  0.30749476078E+02  0.00000000000E+00 0.  1.
         12    1    6    6    0    0  0.33811090157E+02 -0.34928611750E+02 -0.91048198068E+02  0.10321323611E+03  0.00000000000E+00 0. -1.
         -5    1    3    3    0  503 -0.82903765216E+02  0.59629232948E+02 -0.47163968192E+03  0.48259171074E+03  0.47000000000E+01 0.  1.
         13    1    4    4    0    0 -0.16505118838E+02  0.13301639406E+02 -0.21940358423E+02  0.30507898755E+02  0.00000000000E+00 0. -1.
        -14    1    4    4    0    0  0.57421308804E+02  0.28409253275E+02 -0.22527713303E+03  0.23420947684E+03  0.00000000000E+00 0.  1.
</event>
<event>
12    1  0.1040325E-001  0.2070111E+03  0.7818608E-02  0.1144096E+00
         21   -1    0    0  501  502  0.00000000000E+00  0.00000000000E+00  0.12315197887E+04  0.12315197887E+04  0.00000000000E+00 0. -1.
         21   -1    0    0  502  503 -0.00000000000E+00 -0.00000000000E+00 -0.49569901864E+02  0.49569901864E+02  0.00000000000E+00 0. -1.
         -6    2    1    2    0  503 -0.82187492868E+02 -0.78989737172E+02  0.94133995091E+03  0.96368340238E+03  0.17196114176E+03 0.  0.
        -24    2    3    3    0    0 -0.11041340853E+03 -0.98564891786E+02  0.72625007695E+03  0.74581731306E+03  0.83054990923E+02 0.  0.
          6    2    1    2  501    0  0.82187492868E+02  0.78989737172E+02  0.24060993595E+03  0.31740628821E+03  0.17279886561E+03 0.  0.
         24    2    5    5    0    0  0.79981790946E+02 -0.65251596611E+00  0.19515978228E+03  0.22556098308E+03  0.79955636510E+02 0.  0.
          5    1    5    5  501    0  0.22057019214E+01  0.79642253138E+02  0.45450153674E+02  0.91845305132E+02  0.47000000000E+01 0. -1.
        -11    1    6    6    0    0  0.25179444714E+02  0.60611929080E+01  0.15534857738E+03  0.15749261249E+03  0.00000000000E+00 0.  1.
         12    1    6    6    0    0  0.54802346232E+02 -0.67137088741E+01  0.39811204901E+02  0.68068370592E+02  0.00000000000E+00 0. -1.
         -5    1    3    3    0  503  0.28225915660E+02  0.19575154614E+02  0.21508987397E+03  0.21786608932E+03  0.47000000000E+01 0.  1.
         11    1    4    4    0    0 -0.74849207333E+02 -0.20430035913E+02  0.44651243136E+03  0.45320320118E+03  0.00000000000E+00 0. -1.
        -12    1    4    4    0    0 -0.35564201195E+02 -0.78134855873E+02  0.27973764559E+03  0.29261411188E+03  0.00000000000E+00 0.  1.
</event>
<event>
12    1  0.1040325E-001  0.3410330E+03  0.7818608E-02  0.1066372E+00
         21   -1    0    0  501  502  0.00000000000E+00  0.00000000000E+00  0.57726615221E+03  0.57726615221E+03  0.00000000000E+00 0. -1.
         21   -1    0    0  502  503 -0.00000000000E+00 -0.00000000000E+00 -0.21601535212E+03  0.21601535212E+03  0.00000000000E+00 0.  1.
         -6    2    1    2    0  503  0.22545789206E+03  0.18930113967E+03  0.77372254027E+02  0.34955798119E+03  0.17186661675E+03 0.  0.
        -24    2    3    3    0    0  0.47565183029E+02  0.11648901264E+03  0.30032173954E+02  0.15154132798E+03  0.78934820654E+02 0.  0.
          6    2    1    2  501    0 -0.22545789206E+03 -0.18930113967E+03  0.28387854606E+03  0.44372352314E+03  0.17215502752E+03 0.  0.
         24    2    5    5    0    0 -0.24632851569E+03 -0.16628521408E+03  0.26776943887E+03  0.40841192312E+03  0.82288009354E+02 0.  0.
          5    1    5    5  501    0  0.20870623637E+02 -0.23015925587E+02  0.16109107188E+02  0.35311600021E+02  0.47000000000E+01 0. -1.
        -11    1    6    6    0    0 -0.10700004735E+03 -0.11526895700E+03  0.11060913857E+03  0.19227668636E+03  0.00000000000E+00 0.  1.
         12    1    6    6    0    0 -0.13932846834E+03 -0.51016257077E+02  0.15716030031E+03  0.21613523676E+03  0.00000000000E+00 0. -1.
         -5    1    3    3    0  503  0.17789270903E+03  0.72812127024E+02  0.47340080073E+02  0.19801665321E+03  0.47000000000E+01 0.  1.
         11    1    4    4    0    0 -0.12089572000E+02  0.28795505824E+01  0.19060267471E+02  0.22753974571E+02  0.00000000000E+00 0. -1.
        -12    1    4    4    0    0  0.59654755029E+02  0.11360946206E+03  0.10971906483E+02  0.12878735341E+03  0.00000000000E+00 0.  1.
</event>
<event>
12    1  0.1040325E-001  0.2498837E+03  0.7818608E-02  0.1113412E+00
         21   -1    0    0  501  502  0.00000000000E+00  0.00000000000E+00  0.30019875277E+03  0.30019875277E+03  0.00000000000E+00 0.  1.
         21   -1    0    0  502  503 -0.00000000000E+00 -0.00000000000E+00 -0.35428040078E+03  0.35428040078E+03  0.00000000000E+00 0. -1.
         -6    2    1    2    0  503  0.17593473887E+03 -0.43397696963E+02 -0.23743219430E+03  0.34454486744E+03  0.17175775484E+03 0.  0.
        -24    2    3    3    0    0  0.93111027399E+02 -0.27609821669E+02 -0.22824236494E+03  0.25960037291E+03  0.76588581297E+02 0.  0.
          6    2    1    2  501    0 -0.17593473887E+03  0.43397696963E+02  0.18335054630E+03  0.30993428611E+03  0.17206233300E+03 0.  0.
         24    2    5    5    0    0 -0.14738629661E+03  0.59628882091E+01  0.19900835587E+03  0.26009820017E+03  0.79299883730E+02 0.  0.
          5    1    5    5  501    0 -0.28548442255E+02  0.37434808754E+02 -0.15657809574E+02  0.49836085944E+02  0.47000000000E+01 0. -1.
        -11    1    6    6    0    0 -0.96858927462E+02  0.41749774366E+02  0.12927500514E+03  0.16684340695E+03  0.00000000000E+00 0.  1.
         12    1    6    6    0    0 -0.50527369150E+02 -0.35786886157E+02  0.69733350730E+02  0.93254793218E+02  0.00000000000E+00 0. -1.
         -5    1    3    3    0  503  0.82823711468E+02 -0.15787875294E+02 -0.91898293613E+01  0.84944494532E+02  0.47000000000E+01 0.  1.
         13    1    4    4    0    0  0.73519374225E+02  0.32785678924E+01 -0.88249693433E+02  0.11490803186E+03  0.00000000000E+00 0. -1.
        -14    1    4    4    0    0  0.19591653174E+02 -0.30888389561E+02 -0.13999267151E+03  0.14469234105E+03  0.00000000000E+00 0.  1.
</event>
<event>
12    1  0.1040325E-001  0.2491406E+03  0.7818608E-02  0.1114103E+00
         21   -1    0    0  501  502  0.00000000000E+00  0.00000000000E+00  0.23196654860E+03  0.23196654860E+03  0.00000000000E+00 0.  1.
         21   -1    0    0  502  503 -0.00000000000E+00 -0.00000000000E+00 -0.26591734460E+03  0.26591734460E+03  0.00000000000E+00 0. -1.
         -6    2    1    2    0  503  0.33930946764E+02  0.17357938354E+03 -0.13940303073E+02  0.24953033217E+03  0.17547063311E+03 0.  0.
        -24    2    3    3    0    0  0.79430172361E+02  0.15009193418E+03  0.19356145099E+02  0.18827199993E+03  0.78961665510E+02 0.  0.
          6    2    1    2  501    0 -0.33930946764E+02 -0.17357938354E+03 -0.20010492924E+02  0.24835356102E+03  0.17319919142E+03 0.  0.
         24    2    5    5    0    0 -0.39035210237E+02 -0.64013768206E+02  0.46617285483E+02  0.11993226830E+03  0.81173071376E+02 0.  0.
          5    1    5    5  501    0  0.51042634727E+01 -0.10956561533E+03 -0.66627778407E+02  0.12842129272E+03  0.47000000000E+01 0. -1.
        -13    1    6    6    0    0  0.22196311309E+02 -0.11463816015E+01  0.48859923109E+01  0.22756611069E+02  0.00000000000E+00 0.  1.
         14    1    6    6    0    0 -0.61231521546E+02 -0.62867386604E+02  0.41731293172E+02  0.97175657235E+02  0.00000000000E+00 0. -1.
         -5    1    3    3    0  503 -0.45499225597E+02  0.23487449361E+02 -0.33296448172E+02  0.61258332235E+02  0.47000000000E+01 0.  1.
         11    1    4    4    0    0  0.68655180383E+02  0.65706480610E+02 -0.15593887512E+02  0.96301841702E+02  0.00000000000E+00 0. -1.
        -12    1    4    4    0    0  0.10774991978E+02  0.84385453566E+02  0.34950032611E+02  0.91970158232E+02  0.00000000000E+00 0.  1.
</event>
<event>
12    1  0.1040325E-001  0.5147418E+03  0.7818608E-02  0.1010531E+00
         21   -1    0    0  503  502  0.00000000000E+00  0.00000000000E+00  0.65361494476E+03  0.65361494476E+03  0.00000000000E+00 0.  1.
         21   -1    0    0  501  503 -0.00000000000E+00 -0.00000000000E+00 -0.46496832297E+03  0.46496832297E+03  0.00000000000E+00 0. -1.
          6    2    1    2  501    0 -0.20553764522E+03  0.43029361883E+03 -0.11594890052E+03  0.52763933041E+03  0.19380607176E+03 0.  0.
         24    2    3    3    0    0 -0.67640359656E+02  0.12537513245E+03  0.34299272266E+02  0.16077757425E+03  0.66172851026E+02 0.  0.
         -6    2    1    2    0  502  0.20553764522E+03 -0.43029361883E+03  0.30459552231E+03  0.59094393732E+03  0.17040534862E+03 0.  0.
        -24    2    5    5    0    0  0.14633725780E+03 -0.38067550130E+03  0.30172109664E+03  0.51350366497E+03  0.79510775857E+02 0.  0.
          5    1    3    3  501    0 -0.13789728556E+03  0.30491848638E+03 -0.15024817279E+03  0.36686175616E+03  0.47000000000E+01 0. -1.
        -13    1    4    4    0    0  0.10755884353E+02  0.34762917585E+02  0.15244641207E+02  0.39453118669E+02  0.00000000000E+00 0.  1.
         14    1    4    4    0    0 -0.78396244009E+02  0.90612214867E+02  0.19054631059E+02  0.12132445558E+03  0.00000000000E+00 0. -1.
         -5    1    5    5    0  502  0.59200387424E+02 -0.49618117532E+02  0.28744256747E+01  0.77440272349E+02  0.47000000000E+01 0.  1.
         11    1    6    6    0    0  0.74242040579E+02 -0.24592795612E+03  0.14672999028E+03  0.29584139372E+03  0.00000000000E+00 0. -1.
        -12    1    6    6    0    0  0.72095217218E+02 -0.13474754518E+03  0.15499110636E+03  0.21766227126E+03  0.00000000000E+00 0.  1.
</event>
<event>
12    1  0.1040325E-001  0.2512997E+03  0.7818608E-02  0.1112489E+00
         21   -1    0    0  501  502  0.00000000000E+00  0.00000000000E+00  0.63191175179E+02  0.63191175179E+02  0.00000000000E+00 0.  1.
         21   -1    0    0  502  503 -0.00000000000E+00 -0.00000000000E+00 -0.10630416527E+04  0.10630416527E+04  0.00000000000E+00 0.  1.
         -6    2    1    2    0  503 -0.93915651215E+02  0.15644699165E+03 -0.63779091859E+03  0.68550764305E+03  0.17276475947E+03 0.  0.
        -24    2    3    3    0    0 -0.18986376184E+02  0.10042467547E+02 -0.27999352050E+03  0.29169328449E+03  0.78913034785E+02 0.  0.
          6    2    1    2  501    0  0.93915651215E+02 -0.15644699165E+03 -0.36205955895E+03  0.44072518484E+03  0.17278817549E+03 0.  0.
         24    2    5    5    0    0  0.30446650353E+01 -0.10248514317E+03 -0.27392431698E+03  0.30303230886E+03  0.79256382839E+02 0.  0.
          5    1    5    5  501    0  0.90870986180E+02 -0.53961848471E+02 -0.88135241962E+02  0.13769287598E+03  0.47000000000E+01 0. -1.
        -13    1    6    6    0    0 -0.32637717741E+02 -0.44798299885E+02 -0.77916433674E+02  0.95619448484E+02  0.00000000000E+00 0.  1.
         14    1    6    6    0    0  0.35682382776E+02 -0.57686843289E+02 -0.19600788331E+03  0.20741286038E+03  0.00000000000E+00 0. -1.
         -5    1    3    3    0  503 -0.74929275031E+02  0.14640452410E+03 -0.35779739809E+03  0.39381435856E+03  0.47000000000E+01 0.  1.
         13    1    4    4    0    0 -0.49146165728E+02  0.11509508059E+02 -0.15101446459E+03  0.15922682845E+03  0.00000000000E+00 0. -1.
        -14    1    4    4    0    0  0.30159789544E+02 -0.14670405127E+01 -0.12897905591E+03  0.13246645604E+03  0.00000000000E+00 0.  1.
</event>
<event>
12    1  0.1040325E-001  0.1795167E+03  0.7818608E-02  0.1168369E+00
         21   -1    0    0  503  502  0.00000000000E+00  0.00000000000E+00  0.42900692535E+03  0.42900692535E+03  0.00000000000E+00 0.  1.
         21   -1    0    0  501  503 -0.00000000000E+00 -0.00000000000E+00 -0.15617153128E+03  0.15617153128E+03  0.00000000000E+00 0.  1.
          6    2    1    2  501    0 -0.42777581865E+02 -0.31608177110E+02 -0.74512984296E+02  0.19436672805E+03  0.17145623865E+03 0.  0.
         24    2    3    3    0    0 -0.46767865843E+02 -0.30078899816E+02  0.20840117458E+02  0.98802272996E+02  0.78965848086E+02 0.  0.
         -6    2    1    2    0  502  0.42777581865E+02  0.31608177110E+02  0.34734837837E+03  0.39081172858E+03  0.17103775277E+03 0.  0.
        -24    2    5    5    0    0 -0.25096551759E+01 -0.38000057735E+02  0.23596610097E+03  0.25179970783E+03  0.79200942523E+02 0.  0.
          5    1    3    3  501    0  0.39902839776E+01 -0.15292772949E+01 -0.95353101754E+02  0.95564455052E+02  0.47000000000E+01 0. -1.
        -13    1    4    4    0    0  0.71127622101E+01 -0.31252938006E+02 -0.13628225827E+02  0.34829097885E+02  0.00000000000E+00 0.  1.
         14    1    4    4    0    0 -0.53880628053E+02  0.11740381905E+01  0.34468343285E+02  0.63973175111E+02  0.00000000000E+00 0. -1.
         -5    1    5    5    0  502  0.45287237041E+02  0.69608234845E+02  0.11138227739E+03  0.13901202076E+03  0.47000000000E+01 0.  1.
         13    1    6    6    0    0 -0.15092972395E+02  0.13926130394E+01  0.33324815426E+01  0.15519105000E+02  0.00000000000E+00 0. -1.
        -14    1    6    6    0    0  0.12583317219E+02 -0.39392670774E+02  0.23263361943E+03  0.23628060283E+03  0.00000000000E+00 0.  1.
</event>
<event>
12    1  0.1040325E-001  0.1885364E+03  0.7818608E-02  0.1159928E+00
         21   -1    0    0  501  502  0.00000000000E+00  0.00000000000E+00  0.14957204949E+03  0.14957204949E+03  0.00000000000E+00 0. -1.
         21   -1    0    0  502  503 -0.00000000000E+00 -0.00000000000E+00 -0.26932970626E+03  0.26932970626E+03  0.00000000000E+00 0.  1.
         -6    2    1    2    0  503  0.16142588725E+02  0.76588566639E+02 -0.13266929662E+03  0.23053655418E+03  0.17152133638E+03 0.  0.
        -24    2    3    3    0    0  0.61982658210E+02  0.31777411363E+02 -0.12875192327E+03  0.16614099981E+03  0.78575570519E+02 0.  0.
          6    2    1    2  501    0 -0.16142588725E+02 -0.76588566639E+02  0.12911639846E+02  0.18836520157E+03  0.17084597452E+03 0.  0.
         24    2    5    5    0    0  0.79187161843E+01 -0.11092270604E+02 -0.48418157196E+02  0.95348293469E+02  0.81001448061E+02 0.  0.
          5    1    5    5  501    0 -0.24061304909E+02 -0.65496296035E+02  0.61329797042E+02  0.93016908105E+02  0.47000000000E+01 0. -1.
        -13    1    6    6    0    0 -0.33053930820E+02  0.51401408871E+01 -0.36882535641E+02  0.49792618191E+02  0.00000000000E+00 0.  1.
         14    1    6    6    0    0  0.40972647004E+02 -0.16232411492E+02 -0.11535621555E+02  0.45555675278E+02  0.00000000000E+00 0. -1.
         -5    1    3    3    0  503 -0.45840069485E+02  0.44811155276E+02 -0.39173733557E+01  0.64395554362E+02  0.47000000000E+01 0.  1.
         11    1    4    4    0    0  0.72852844489E+02  0.28044437401E+02 -0.65646549440E+02  0.10199753366E+03  0.00000000000E+00 0. -1.
        -12    1    4    4    0    0 -0.10870186279E+02  0.37329739620E+01 -0.63105373827E+02  0.64143466153E+02  0.00000000000E+00 0.  1.
</event>
<event>
12    1  0.1040325E-001  0.1846984E+03  0.7818608E-02  0.1164429E+00
         21   -1    0    0  503  502  0.00000000000E+00  0.00000000000E+00  0.36874428230E+02  0.36874428230E+02  0.00000000000E+00 0.  1.
         21   -1    0    0  501  503 -0.00000000000E+00 -0.00000000000E+00 -0.26723435986E+04  0.26723435986E+04  0.00000000000E+00 0.  1.
          6    2    1    2  501    0 -0.38130023788E+02  0.35856998917E+02 -0.24145774372E+04  0.24212828441E+04  0.17229854255E+03 0.  0.
         24    2    3    3    0    0  0.34516744172E+02  0.26793756988E+02 -0.18118848295E+04  0.18141418682E+04  0.79213455177E+02 0.  0.
         -6    2    1    2    0  502  0.38130023788E+02 -0.35856998917E+02 -0.22089173317E+03  0.28793518274E+03  0.17712675854E+03 0.  0.
        -24    2    5    5    0    0  0.38941082199E+02  0.14198411793E+02 -0.21979623454E+03  0.23764112669E+03  0.80280244102E+02 0.  0.
          5    1    3    3  501    0 -0.72646767959E+02  0.90632419294E+01 -0.60269260774E+03  0.60714097595E+03  0.47000000000E+01 0. -1.
        -13    1    4    4    0    0 -0.10980642325E+02  0.34126769693E+02 -0.11951847333E+04  0.11957222744E+04  0.00000000000E+00 0.  1.
         14    1    4    4    0    0  0.45497386496E+02 -0.73330127047E+01 -0.61670009623E+03  0.61841959376E+03  0.00000000000E+00 0. -1.
         -5    1    5    5    0  502 -0.81105841064E+00 -0.50055410710E+02 -0.10954986269E+01  0.50294056054E+02  0.47000000000E+01 0.  1.
         11    1    6    6    0    0 -0.75197215260E+01 -0.99384867094E+01 -0.14935186314E+03  0.14987094032E+03  0.00000000000E+00 0. -1.
        -12    1    6    6    0    0  0.46460803725E+02  0.24136898502E+02 -0.70444371409E+02  0.87770186369E+02  0.00000000000E+00 0.  1.
</event>
<event>
12    1  0.1040325E-001  0.1974060E+03  0.7818608E-02  0.1152574E+00
         21   -1    0    0  501  502  0.00000000000E+00  0.00000000000E+00  0.21457389772E+02  0.21457389772E+02  0.00000000000E+00 0.  1.
         21   -1    0    0  502  503 -0.00000000000E+00 -0.00000000000E+00 -0.17922863442E+04  0.17922863442E+04  0.00000000000E+00 0.  1.
         -6    2    1    2    0  503 -0.87585766710E+02  0.37378037734E+02 -0.91450494536E+03  0.93496051321E+03  0.16959800097E+03 0.  0.
        -24    2    3    3    0    0 -0.88186118302E+02 -0.18736915834E+02 -0.41672019103E+03  0.43400043488E+03  0.81072784500E+02 0.  0.
          6    2    1    2  501    0  0.87585766710E+02 -0.37378037734E+02 -0.85632400907E+03  0.87878322077E+03  0.17291835170E+03 0.  0.
         24    2    5    5    0    0  0.10970950926E+03 -0.59613972023E+02 -0.52827762048E+03  0.54920709932E+03  0.83433755557E+02 0.  0.
          5    1    5    5  501    0 -0.22123742546E+02  0.22235934289E+02 -0.32804638859E+03  0.32957612145E+03  0.47000000000E+01 0. -1.
        -13    1    6    6    0    0  0.69766674597E+02  0.92067758948E+01 -0.26304046746E+03  0.27229109630E+03  0.00000000000E+00 0.  1.
         14    1    6    6    0    0  0.39942834658E+02 -0.68820747917E+02 -0.26523715302E+03  0.27691600302E+03  0.00000000000E+00 0. -1.
         -5    1    3    3    0  503  0.60035159292E+00  0.56114953568E+02 -0.49778475433E+03  0.50096007833E+03  0.47000000000E+01 0.  1.
         11    1    4    4    0    0  0.21310560989E+01  0.18837955600E+02 -0.33501562655E+02  0.38493696518E+02  0.00000000000E+00 0. -1.
        -12    1    4    4    0    0 -0.90317174401E+02 -0.37574871434E+02 -0.38321862838E+03  0.39550673836E+03  0.00000000000E+00 0.  1.
</event>
<event>
12    1  0.1040325E-001  0.1920431E+03  0.7818608E-02  0.1156839E+00
         21   -1    0    0  503  502  0.00000000000E+00  0.00000000000E+00  0.51504463890E+02  0.51504463890E+02  0.00000000000E+00 0.  1.
         21   -1    0    0  501  503 -0.00000000000E+00 -0.00000000000E+00 -0.75786554626E+03  0.75786554626E+03  0.00000000000E+00 0.  1.
          6    2    1    2  501    0 -0.56086243734E+02 -0.65414802578E+02 -0.45128374775E+03  0.49008172630E+03  0.17058228025E+03 0.  0.
         24    2    3    3    0    0  0.85374840216E+01  0.13534572197E+02 -0.15680709598E+03  0.17839627845E+03  0.83550544793E+02 0.  0.
         -6    2    1    2    0  502  0.56086243734E+02  0.65414802578E+02 -0.25507733462E+03  0.31928828385E+03  0.17162691641E+03 0.  0.
        -24    2    5    5    0    0  0.46429976087E+02  0.74858857287E+02 -0.26936512706E+03  0.29907282722E+03  0.95537391143E+02 0.  0.
          5    1    3    3  501    0 -0.64623727755E+02 -0.78949374775E+02 -0.29447665177E+03  0.31168544785E+03  0.47000000000E+01 0. -1.
        -13    1    4    4    0    0 -0.15737114539E+02  0.42923135761E+02 -0.10038687680E+03  0.11030674227E+03  0.00000000000E+00 0.  1.
         14    1    4    4    0    0  0.24274598560E+02 -0.29388563564E+02 -0.56420219185E+02  0.68089536175E+02  0.00000000000E+00 0. -1.
         -5    1    5    5    0  502  0.96562676471E+01 -0.94440547085E+01  0.14287792442E+02  0.20215456638E+02  0.47000000000E+01 0.  1.
         11    1    6    6    0    0 -0.15338922400E+02  0.35254503465E+02 -0.17691016538E+03  0.18103968948E+03  0.00000000000E+00 0. -1.
        -12    1    6    6    0    0  0.61768898487E+02  0.39604353822E+02 -0.92454961687E+02  0.11803313773E+03  0.00000000000E+00 0.  1.
</event>
<event>
12    1  0.1040325E-001  0.2180907E+03  0.7818608E-02  0.1135339E+00
         21   -1    0    0  503  502  0.00000000000E+00  0.00000000000E+00  0.68197279190E+03  0.68197279190E+03  0.00000000000E+00 0.  1.
         21   -1    0    0  501  503 -0.00000000000E+00 -0.00000000000E+00 -0.69729152987E+02  0.69729152987E+02  0.00000000000E+00 0. -1.
          6    2    1    2  501    0 -0.71623777323E+02  0.11290230862E+03  0.29892505527E+03  0.37002668188E+03  0.17229817139E+03 0.  0.
         24    2    3    3    0    0  0.13482974872E+02  0.10511469100E+03  0.19241453496E+03  0.23338705661E+03  0.78837022104E+02 0.  0.
         -6    2    1    2    0  502  0.71623777323E+02 -0.11290230862E+03  0.31331858365E+03  0.38167526301E+03  0.17213533851E+03 0.  0.
        -24    2    5    5    0    0  0.60096995136E+02  0.22557424887E+01  0.12543725339E+03  0.16095886647E+03  0.80972309823E+02 0.  0.
          5    1    3    3  501    0 -0.85106752195E+02  0.77876176239E+01  0.10651052031E+03  0.13663962527E+03  0.47000000000E+01 0. -1.
        -13    1    4    4    0    0  0.70259696267E+01 -0.10036782379E+02  0.48003251875E+01  0.13158433479E+02  0.00000000000E+00 0.  1.
         14    1    4    4    0    0  0.64570052455E+01  0.11515147338E+03  0.18761420977E+03  0.22022862313E+03  0.00000000000E+00 0. -1.
         -5    1    5    5    0  502  0.11526782187E+02 -0.11515805111E+03  0.18788133026E+03  0.22071639655E+03  0.47000000000E+01 0.  1.
         13    1    6    6    0    0  0.45040571616E+01  0.26676779314E+02  0.71281243256E+01  0.27977620376E+02  0.00000000000E+00 0. -1.
        -14    1    6    6    0    0  0.55592937974E+02 -0.24421036826E+02  0.11830912906E+03  0.13298124609E+03  0.00000000000E+00 0.  1.
</event>
<event>
12    1  0.1040325E-001  0.2064687E+03  0.7818608E-02  0.1144766E+00
         21   -1    0    0  503  502  0.00000000000E+00  0.00000000000E+00  0.13870196721E+03  0.13870196721E+03  0.00000000000E+00 0. -1.
         21   -1    0    0  501  503 -0.00000000000E+00 -0.00000000000E+00 -0.30509710400E+03  0.30509710400E+03  0.00000000000E+00 0. -1.
          6    2    1    2  501    0  0.11032677058E+02  0.11131639004E+03 -0.91598664754E+02  0.22419980840E+03  0.17135396128E+03 0.  0.
         24    2    3    3    0    0  0.32586791738E+02 -0.99014729818E+00 -0.26754171215E+01  0.79262676656E+02  0.72197885471E+02 0.  0.
         -6    2    1    2    0  502 -0.11032677058E+02 -0.11131639004E+03 -0.74796472036E+02  0.21959926281E+03  0.17354038534E+03 0.  0.
        -24    2    5    5    0    0  0.35363091339E+02 -0.30367052877E+02  0.78365297128E+01  0.94876909199E+02  0.82264880549E+02 0.  0.
          5    1    3    3  501    0 -0.21554114679E+02  0.11230653734E+03 -0.88923247633E+02  0.14493713174E+03  0.47000000000E+01 0. -1.
        -13    1    4    4    0    0  0.46076972657E+02  0.14547394100E+02  0.16577306486E+02  0.51083472617E+02  0.00000000000E+00 0.  1.
         14    1    4    4    0    0 -0.13490180919E+02 -0.15537541398E+02 -0.19252723607E+02  0.28179204038E+02  0.00000000000E+00 0. -1.
         -5    1    5    5    0  502 -0.46395768398E+02 -0.80949337162E+02 -0.82633001749E+02  0.12472235361E+03  0.47000000000E+01 0.  1.
         13    1    6    6    0    0 -0.82368842565E+00 -0.48557210697E+02 -0.11634243950E+02  0.49938330024E+02  0.00000000000E+00 0. -1.
        -14    1    6    6    0    0  0.36186779765E+02  0.18190157820E+02  0.19470773663E+02  0.44938579175E+02  0.00000000000E+00 0.  1.
</event>
<event>
12    1  0.1040325E-001  0.1804781E+03  0.7818608E-02  0.1167721E+00
         21   -1    0    0  501  502  0.00000000000E+00  0.00000000000E+00  0.76218478196E+02  0.76218478196E+02  0.00000000000E+00 0.  1.
         21   -1    0    0  502  503 -0.00000000000E+00 -0.00000000000E+00 -0.46528884731E+03  0.46528884731E+03  0.00000000000E+00 0.  1.
         -6    2    1    2    0  503  0.42419711233E+02 -0.36597805118E+02 -0.11430936054E+03  0.21363283603E+03  0.17156202226E+03 0.  0.
        -24    2    3    3    0    0 -0.43131516945E+02 -0.28039399829E+02 -0.53838686766E+02  0.10841377250E+03  0.78793439940E+02 0.  0.
          6    2    1    2  501    0 -0.42419711233E+02  0.36597805118E+02 -0.27476100857E+03  0.32787448947E+03  0.16990949878E+03 0.  0.
         24    2    5    5    0    0  0.38683960498E+01  0.21263872105E+02 -0.46636621252E+02  0.94549513386E+02  0.79356910820E+02 0.  0.
          5    1    5    5  501    0 -0.46288107282E+02  0.15333933012E+02 -0.22812438732E+03  0.23332497609E+03  0.47000000000E+01 0. -1.
        -11    1    6    6    0    0 -0.35986181219E+02 -0.73730407989E+00 -0.26880984606E+02  0.44923670703E+02  0.00000000000E+00 0.  1.
         12    1    6    6    0    0  0.39854577268E+02  0.22001176185E+02 -0.19755636646E+02  0.49625842684E+02  0.00000000000E+00 0. -1.
         -5    1    3    3    0  503  0.85551228177E+02 -0.85584052889E+01 -0.60470673778E+02  0.10521906353E+03  0.47000000000E+01 0.  1.
         13    1    4    4    0    0 -0.16069388253E+02  0.25519103535E+02 -0.33450282575E+02  0.45037443182E+02  0.00000000000E+00 0. -1.
        -14    1    4    4    0    0 -0.27062128692E+02 -0.53558503364E+02 -0.20388404192E+02  0.63376329315E+02  0.00000000000E+00 0.  1.
</event>
<event>
12    1  0.1040325E-001  0.2459958E+03  0.7818608E-02  0.1115880E+00
         21   -1    0    0  503  502  0.00000000000E+00  0.00000000000E+00  0.47292370104E+02  0.47292370104E+02  0.00000000000E+00 0.  1.
         21   -1    0    0  501  503 -0.00000000000E+00 -0.00000000000E+00 -0.12805244559E+04  0.12805244559E+04  0.00000000000E+00 0.  1.
          6    2    1    2  501    0  0.10956525777E+03  0.13726841656E+03 -0.59383308662E+03  0.64276876024E+03  0.17224047282E+03 0.  0.
         24    2    3    3    0    0  0.64214542610E+02  0.93960890117E+02 -0.19913723231E+03  0.24309497248E+03  0.80544223865E+02 0.  0.
         -6    2    1    2    0  502 -0.10956525777E+03 -0.13726841656E+03 -0.63939899913E+03  0.68504806572E+03  0.17208314374E+03 0.  0.
        -24    2    5    5    0    0 -0.75815099460E+01 -0.84878444494E+01 -0.24520877261E+03  0.25797296078E+03  0.79329587999E+02 0.  0.
          5    1    3    3  501    0  0.45350715165E+02  0.43307526446E+02 -0.39469585431E+03  0.39967378776E+03  0.47000000000E+01 0. -1.
        -11    1    4    4    0    0  0.15430044018E+02  0.88553032191E+02 -0.13799601960E+03  0.16468948720E+03  0.00000000000E+00 0.  1.
         12    1    4    4    0    0  0.48784498592E+02  0.54078579266E+01 -0.61141212710E+02  0.78405485279E+02  0.00000000000E+00 0. -1.
         -5    1    5    5    0  502 -0.10198374783E+03 -0.12878057211E+03 -0.39419022652E+03  0.42707510494E+03  0.47000000000E+01 0.  1.
         13    1    6    6    0    0 -0.24137740008E+02  0.28089830288E+02 -0.83335793429E+02  0.91194975326E+02  0.00000000000E+00 0. -1.
        -14    1    6    6    0    0  0.16556230062E+02 -0.36577674737E+02 -0.16187297919E+03  0.16677798546E+03  0.00000000000E+00 0.  1.
</event>
<event>
12    1  0.1040325E-001  0.1782202E+03  0.7818608E-02  0.1169786E+00
         21   -1    0    0  503  502  0.00000000000E+00  0.00000000000E+00  0.32650066855E+02  0.32650066855E+02  0.00000000000E+00 0.  1.
         21   -1    0    0  501  503 -0.00000000000E+00 -0.00000000000E+00 -0.96969814693E+03  0.96969814693E+03  0.00000000000E+00 0.  1.
          6    2    1    2  501    0 -0.32011421506E+02  0.23550110313E+02 -0.44488876998E+03  0.47925821981E+03  0.17373279711E+03 0.  0.
         24    2    3    3    0    0  0.48885096364E+02 -0.15441790884E+01 -0.25379472140E+03  0.27018168988E+03  0.78703543744E+02 0.  0.
         -6    2    1    2    0  502  0.32011421506E+02 -0.23550110313E+02 -0.49215931009E+03  0.52308999398E+03  0.17269341762E+03 0.  0.
        -24    2    5    5    0    0  0.12876469819E+02 -0.68840284948E+02 -0.20520653058E+03  0.23191764988E+03  0.82287835246E+02 0.  0.
          5    1    3    3  501    0 -0.80896517870E+02  0.25094289401E+02 -0.19109404858E+03  0.20907652993E+03  0.47000000000E+01 0. -1.
        -11    1    4    4    0    0  0.28722024268E+02 -0.22028502186E+02 -0.23010450389E+03  0.23293409432E+03  0.00000000000E+00 0.  1.
         12    1    4    4    0    0  0.20163072096E+02  0.20484323097E+02 -0.23690217517E+02  0.37247595562E+02  0.00000000000E+00 0. -1.
         -5    1    5    5    0  502  0.19134951687E+02  0.45290174636E+02 -0.28695277952E+03  0.29117234410E+03  0.47000000000E+01 0.  1.
         13    1    6    6    0    0  0.46050504079E+02 -0.29743404165E+02 -0.12788639396E+03  0.13914111103E+03  0.00000000000E+00 0. -1.
        -14    1    6    6    0    0 -0.33174034260E+02 -0.39096880784E+02 -0.77320136615E+02  0.92776538857E+02  0.00000000000E+00 0.  1.
</event>
<event>
12    1  0.1040325E-001  0.2541129E+03  0.7818608E-02  0.1110858E+00
         21   -1    0    0  501  502  0.00000000000E+00  0.00000000000E+00  0.64427045099E+02  0.64427045099E+02  0.00000000000E+00 0.  1.
         21   -1    0    0  502  503 -0.00000000000E+00 -0.00000000000E+00 -0.10183208849E+04  0.10183208849E+04  0.00000000000E+00 0.  1.
         -6    2    1    2    0  503 -0.15541790825E+03  0.10538287794E+03 -0.40330673302E+03  0.47668612491E+03  0.17121058265E+03 0.  0.
        -24    2    3    3    0    0 -0.42140583703E+02  0.23763143117E+02 -0.26214073414E+03  0.27808234194E+03  0.79192857231E+02 0.  0.
          6    2    1    2  501    0  0.15541790825E+03 -0.10538287794E+03 -0.55058710679E+03  0.60606180510E+03  0.17001315323E+03 0.  0.
         24    2    5    5    0    0  0.15340299324E+03 -0.57276883531E+02 -0.51452080009E+03  0.54572015232E+03  0.79156245543E+02 0.  0.
          5    1    5    5  501    0  0.20149150068E+01 -0.48105994412E+02 -0.36066306707E+02  0.60341652781E+02  0.47000000000E+01 0. -1.
        -11    1    6    6    0    0  0.92289033365E+02 -0.70031734466E+02 -0.27974333183E+03  0.30278381927E+03  0.00000000000E+00 0.  1.
         12    1    6    6    0    0  0.61113959880E+02  0.12754850935E+02 -0.23477746826E+03  0.24293633305E+03  0.00000000000E+00 0. -1.
         -5    1    3    3    0  503 -0.11327732455E+03  0.81619734826E+02 -0.14116599889E+03  0.19860378297E+03  0.47000000000E+01 0.  1.
         11    1    4    4    0    0 -0.64958888709E+02  0.22924613955E+02 -0.17697565217E+03  0.18990939053E+03  0.00000000000E+00 0. -1.
        -12    1    4    4    0    0  0.22818305006E+02  0.83852916215E+00 -0.85165081964E+02  0.88172951410E+02  0.00000000000E+00 0.  1.
</event>
<event>
12    1  0.1040325E-001  0.1843487E+03  0.7818608E-02  0.1164055E+00
         21   -1    0    0  501  502  0.00000000000E+00  0.00000000000E+00  0.79420455183E+03  0.79420455183E+03  0.00000000000E+00 0.  1.
         21   -1    0    0  502  503 -0.00000000000E+00 -0.00000000000E+00 -0.46694938651E+02  0.46694938651E+02  0.00000000000E+00 0. -1.
         -6    2    1    2    0  503 -0.61032647957E+02  0.12893940848E+02  0.24471268442E+03  0.30537247997E+03  0.17168813524E+03 0.  0.
        -24    2    3    3    0    0  0.12768899624E+02 -0.42645125644E+02  0.10940473932E+03  0.14147743325E+03  0.77876925949E+02 0.  0.
          6    2    1    2  501    0  0.61032647957E+02 -0.12893940848E+02  0.50279692875E+03  0.53552701050E+03  0.17347388734E+03 0.  0.
         24    2    5    5    0    0 -0.21352027902E+02 -0.56484755620E+02  0.23991707014E+03  0.25657306446E+03  0.67993383128E+02 0.  0.
          5    1    5    5  501    0  0.82384675859E+02  0.43590814772E+02  0.26287985862E+03  0.27895394605E+03  0.47000000000E+01 0. -1.
        -13    1    6    6    0    0  0.13500813901E+02 -0.43843241446E+02  0.18287580327E+03  0.18854193490E+03  0.00000000000E+00 0.  1.
         14    1    6    6    0    0 -0.34852841803E+02 -0.12641514174E+02  0.57041266869E+02  0.68031129554E+02  0.00000000000E+00 0. -1.
         -5    1    3    3    0  503 -0.73801547580E+02  0.55539066492E+02  0.13530794510E+03  0.16389504672E+03  0.47000000000E+01 0.  1.
         13    1    4    4    0    0  0.60985521717E+01 -0.38160925360E+02  0.76366904339E+01  0.39392481563E+02  0.00000000000E+00 0. -1.
        -14    1    4    4    0    0  0.66703474519E+01 -0.44842002836E+01  0.10176804889E+03  0.10208495169E+03  0.00000000000E+00 0.  1.
</event>
<event>
12    1  0.1040325E-001  0.2202871E+03  0.7818608E-02  0.1133948E+00
         21   -1    0    0  503  502  0.00000000000E+00  0.00000000000E+00  0.30044792051E+03  0.30044792051E+03  0.00000000000E+00 0.  1.
         21   -1    0    0  501  503 -0.00000000000E+00 -0.00000000000E+00 -0.21400260059E+03  0.21400260059E+03  0.00000000000E+00 0. -1.
          6    2    1    2  501    0  0.78345685837E+02 -0.11029447646E+03 -0.85375541111E+02  0.23625284532E+03  0.17384908938E+03 0.  0.
         24    2    3    3    0    0  0.90259132090E+02 -0.28951960293E+02 -0.90593957255E+02  0.15374310647E+03  0.80279205072E+02 0.  0.
         -6    2    1    2    0  502 -0.78345685837E+02  0.11029447646E+03  0.17182086102E+03  0.27819767578E+03  0.17195528633E+03 0.  0.
        -24    2    5    5    0    0 -0.99811854367E+02  0.32924565795E+02  0.76001522189E+02  0.15309637617E+03  0.81337787758E+02 0.  0.
          5    1    3    3  501    0 -0.11913446253E+02 -0.81342516168E+02  0.52184161432E+01  0.82509738850E+02  0.47000000000E+01 0. -1.
        -11    1    4    4    0    0  0.26988305989E+02 -0.54562816067E+01  0.12725345708E+02  0.30332723130E+02  0.00000000000E+00 0.  1.
         12    1    4    4    0    0  0.63270826101E+02 -0.23495678687E+02 -0.10331930296E+03  0.12341038334E+03  0.00000000000E+00 0. -1.
         -5    1    5    5    0  502  0.21466168529E+02  0.77369910666E+02  0.95819338833E+02  0.12510129960E+03  0.47000000000E+01 0.  1.
         13    1    6    6    0    0  0.86040673789E+01  0.19152836408E+02  0.19567776586E+01  0.21087676419E+02  0.00000000000E+00 0. -1.
        -14    1    6    6    0    0 -0.10841592175E+03  0.13771729387E+02  0.74044744531E+02  0.13200869975E+03  0.00000000000E+00 0.  1.
</event>
<event>
12    1  0.1040325E-001  0.1839076E+03  0.7818608E-02  0.1164563E+00
         21   -1    0    0  503  502  0.00000000000E+00  0.00000000000E+00  0.10874469002E+04  0.10874469002E+04  0.00000000000E+00 0. -1.
         21   -1    0    0  501  503 -0.00000000000E+00 -0.00000000000E+00 -0.38518370274E+02  0.38518370274E+02  0.00000000000E+00 0. -1.
          6    2    1    2  501    0  0.11249461588E+02 -0.58039613186E+02  0.26932735778E+03  0.32496590396E+03  0.17196065248E+03 0.  0.
         24    2    3    3    0    0  0.70157093213E+02 -0.20934013058E+02  0.19075420047E+03  0.21988133956E+03  0.81242771124E+02 0.  0.
         -6    2    1    2    0  502 -0.11249461588E+02  0.58039613186E+02  0.77960117219E+03  0.80099936656E+03  0.17414606072E+03 0.  0.
        -24    2    5    5    0    0  0.39536783166E+02  0.55266729061E+02  0.69100917224E+03  0.69873713503E+03  0.78245378042E+02 0.  0.
          5    1    3    3  501    0 -0.58907631625E+02 -0.37105600128E+02  0.78573157311E+02  0.10508456440E+03  0.47000000000E+01 0. -1.
        -11    1    4    4    0    0  0.29403950609E+02 -0.35790464224E+02  0.16036023882E+03  0.16691601432E+03  0.00000000000E+00 0.  1.
         12    1    4    4    0    0  0.40753142604E+02  0.14856451165E+02  0.30393961641E+02  0.52965325238E+02  0.00000000000E+00 0. -1.
         -5    1    5    5    0  502 -0.50786244754E+02  0.27728841248E+01  0.88591999958E+02  0.10226223154E+03  0.47000000000E+01 0.  1.
         11    1    6    6    0    0 -0.37202731982E+01 -0.12168798765E+02  0.26215030054E+03  0.26245894950E+03  0.00000000000E+00 0. -1.
        -12    1    6    6    0    0  0.43257056364E+02  0.67435527826E+02  0.42885887169E+03  0.43627818553E+03  0.00000000000E+00 0.  1.
</event>
<event>
12    1  0.1040325E-001  0.1996195E+03  0.7818608E-02  0.1150297E+00
         21   -1    0    0  503  502  0.00000000000E+00  0.00000000000E+00  0.15145336279E+04  0.15145336279E+04  0.00000000000E+00 0.  1.
         21   -1    0    0  501  503 -0.00000000000E+00 -0.00000000000E+00 -0.32869923790E+03  0.32869923790E+03  0.00000000000E+00 0.  1.
          6    2    1    2  501    0 -0.41404635539E+02 -0.89542338211E+02 -0.29112723363E+03  0.35299151334E+03  0.17353895284E+03 0.  0.
         24    2    3    3    0    0 -0.82033460353E+02 -0.60125666237E+02 -0.26859157522E+03  0.29780104410E+03  0.78736543148E+02 0.  0.
         -6    2    1    2    0  502  0.41404635539E+02  0.89542338211E+02  0.14769616236E+04  0.14902413524E+04  0.17225410502E+03 0.  0.
        -24    2    5    5    0    0 -0.35678267831E+02  0.72523745410E+02  0.70741051995E+03  0.71663783794E+03  0.81286619937E+02 0.  0.
          5    1    3    3  501    0  0.40628824814E+02 -0.29416671974E+02 -0.22535658410E+02  0.55190469248E+02  0.47000000000E+01 0. -1.
        -11    1    4    4    0    0 -0.57851783727E+02 -0.69529108476E+02 -0.25006354876E+03  0.26591898057E+03  0.00000000000E+00 0.  1.
         12    1    4    4    0    0 -0.24181676627E+02  0.94034422394E+01 -0.18528026458E+02  0.31882063528E+02  0.00000000000E+00 0. -1.
         -5    1    5    5    0  502  0.77082903370E+02  0.17018592801E+02  0.76955110364E+03  0.77360351447E+03  0.47000000000E+01 0.  1.
         11    1    6    6    0    0 -0.21020075502E+02 -0.14840395722E+02  0.13812011329E+03  0.14049642918E+03  0.00000000000E+00 0. -1.
        -12    1    6    6    0    0 -0.14658192329E+02  0.87364141133E+02  0.56929040667E+03  0.57614140875E+03  0.00000000000E+00 0.  1.
</event>
<event>
12    1  0.1040325E-001  0.2060607E+03  0.7818608E-02  0.1145723E+00
         21   -1    0    0  501  502  0.00000000000E+00  0.00000000000E+00  0.15182313810E+03  0.15182313810E+03  0.00000000000E+00 0.  1.
         21   -1    0    0  502  503 -0.00000000000E+00 -0.00000000000E+00 -0.33244350894E+03  0.33244350894E+03  0.00000000000E+00 0.  1.
         -6    2    1    2    0  503 -0.10359099966E+03  0.11897228709E+02  0.11087018295E+02  0.20635876403E+03  0.17773119663E+03 0.  0.
        -24    2    3    3    0    0 -0.69689645623E+01 -0.31770266381E+02 -0.30770062642E+02  0.92267690676E+02  0.80675979663E+02 0.  0.
          6    2    1    2  501    0  0.10359099966E+03 -0.11897228709E+02 -0.19170738914E+03  0.27790788301E+03  0.17207100024E+03 0.  0.
         24    2    5    5    0    0  0.12443089519E+03 -0.23627587214E+02 -0.94514743137E+02  0.17770607168E+03  0.81271770546E+02 0.  0.
          5    1    5    5  501    0 -0.20839895520E+02  0.11730358504E+02 -0.97192646005E+02  0.10020181133E+03  0.47000000000E+01 0. -1.
        -11    1    6    6    0    0  0.82184810897E+02 -0.29860357531E+02 -0.10200149672E+03  0.13435136556E+03  0.00000000000E+00 0.  1.
         12    1    6    6    0    0  0.42246084288E+02  0.62327703176E+01  0.74867535861E+01  0.43354706120E+02  0.00000000000E+00 0. -1.
         -5    1    3    3    0  503 -0.96622035103E+02  0.43667495091E+02  0.41857080937E+02  0.11409107336E+03  0.47000000000E+01 0.  1.
         13    1    4    4    0    0 -0.34503030110E+01 -0.30797160262E+02  0.22862785958E+02  0.38510734255E+02  0.00000000000E+00 0. -1.
        -14    1    4    4    0    0 -0.35186615513E+01 -0.97310611865E+00 -0.53632848600E+02  0.53756956421E+02  0.00000000000E+00 0.  1.
</event>
<event>
12    1  0.1040325E-001  0.1915751E+03  0.7818608E-02  0.1157242E+00
         21   -1    0    0  501  502  0.00000000000E+00  0.00000000000E+00  0.31994674222E+03  0.31994674222E+03  0.00000000000E+00 0. -1.
         21   -1    0    0  502  503 -0.00000000000E+00 -0.00000000000E+00 -0.16978986590E+03  0.16978986590E+03  0.00000000000E+00 0. -1.
         -6    2    1    2    0  503 -0.65842123304E+02 -0.52888427781E+02 -0.65157725185E+02  0.20153286430E+03  0.17099004430E+03 0.  0.
        -24    2    3    3    0    0 -0.25986836452E+02  0.26143000710E+02 -0.70892215422E+02  0.11271065448E+03  0.79493479428E+02 0.  0.
          6    2    1    2  501    0  0.65842123304E+02  0.52888427781E+02  0.21531460151E+03  0.28820374382E+03  0.17195537019E+03 0.  0.
         24    2    5    5    0    0  0.26698232151E+02 -0.33238753233E+02  0.67939169905E+02  0.11301315228E+03  0.79615522765E+02 0.  0.
          5    1    5    5  501    0  0.39143891152E+02  0.86127181014E+02  0.14737543160E+03  0.17519059154E+03  0.47000000000E+01 0. -1.
        -13    1    6    6    0    0 -0.22219495802E+02 -0.25392828205E+02  0.50004903380E+02  0.60324058882E+02  0.00000000000E+00 0.  1.
         14    1    6    6    0    0  0.48917727953E+02 -0.78459250278E+01  0.17934266524E+02  0.52689093401E+02  0.00000000000E+00 0. -1.
         -5    1    3    3    0  503 -0.39855286852E+02 -0.79031428491E+02  0.57344902368E+01  0.88822209822E+02  0.47000000000E+01 0.  1.
         11    1    4    4    0    0  0.57572283999E+01 -0.15948652054E+02 -0.55139304974E+02  0.57687504143E+02  0.00000000000E+00 0. -1.
        -12    1    4    4    0    0 -0.31744064851E+02  0.42091652764E+02 -0.15752910448E+02  0.55023150339E+02  0.00000000000E+00 0.  1.
</event>
<event>
12    1  0.1040325E-001  0.2098232E+03  0.7818608E-02  0.1141929E+00
         21   -1    0    0  503  502  0.00000000000E+00  0.00000000000E+00  0.20410462726E+03  0.20410462726E+03  0.00000000000E+00 0.  1.
         21   -1    0    0  501  503 -0.00000000000E+00 -0.00000000000E+00 -0.44041246199E+03  0.44041246199E+03  0.00000000000E+00 0.  1.
          6    2    1    2  501    0 -0.37245854523E+02  0.11264815745E+03 -0.34908544205E+03  0.40729158460E+03  0.17305758574E+03 0.  0.
         24    2    3    3    0    0 -0.42184287317E+02  0.13309036544E+02 -0.25143111135E+03  0.26782435775E+03  0.80966896334E+02 0.  0.
         -6    2    1    2    0  502  0.37245854523E+02 -0.11264815745E+03  0.11277760731E+03  0.23722550464E+03  0.17169825359E+03 0.  0.
        -24    2    5    5    0    0 -0.43962961359E+02 -0.66958118195E+02  0.88070273053E+02  0.14071128895E+03  0.75014413813E+02 0.  0.
          5    1    3    3  501    0  0.49384327936E+01  0.99339120903E+02 -0.97654330698E+02  0.13946722685E+03  0.47000000000E+01 0. -1.
        -13    1    4    4    0    0 -0.29132741312E+02 -0.32996332952E+02 -0.11289334779E+03  0.12117088173E+03  0.00000000000E+00 0.  1.
         14    1    4    4    0    0 -0.13051546004E+02  0.46305369496E+02 -0.13853776356E+03  0.14665347602E+03  0.00000000000E+00 0. -1.
         -5    1    5    5    0  502  0.81208815883E+02 -0.45690039252E+02  0.24707334261E+02  0.96514215690E+02  0.47000000000E+01 0.  1.
         13    1    6    6    0    0 -0.75643194942E+01  0.16645410256E+02  0.11136000391E+02  0.21407921821E+02  0.00000000000E+00 0. -1.
        -14    1    6    6    0    0 -0.36398641865E+02 -0.83603528451E+02  0.76934272662E+02  0.11930336713E+03  0.00000000000E+00 0.  1.
</event>
<event>
12    1  0.1040325E-001  0.2730366E+03  0.7818608E-02  0.1100012E+00
         21   -1    0    0  501  502  0.00000000000E+00  0.00000000000E+00  0.76236157171E+03  0.76236157171E+03  0.00000000000E+00 0.  1.
         21   -1    0    0  502  503 -0.00000000000E+00 -0.00000000000E+00 -0.10862169746E+03  0.10862169746E+03  0.00000000000E+00 0.  1.
         -6    2    1    2    0  503 -0.19768741202E+03 -0.63835969010E+02  0.18046810439E+03  0.32459956238E+03  0.17216502369E+03 0.  0.
        -24    2    3    3    0    0 -0.78900206376E+02 -0.78174480758E+02  0.45109848457E+02  0.14387894764E+03  0.79559795983E+02 0.  0.
          6    2    1    2  501    0  0.19768741202E+03  0.63835969010E+02  0.47327176987E+03  0.54638370679E+03  0.17718251349E+03 0.  0.
         24    2    5    5    0    0  0.11087462061E+03  0.91234709265E+02  0.20213642445E+03  0.26033542896E+03  0.79362760856E+02 0.  0.
          5    1    5    5  501    0  0.86812791412E+02 -0.27398740255E+02  0.27113534541E+03  0.28604827784E+03  0.47000000000E+01 0. -1.
        -11    1    6    6    0    0  0.10092687371E+03  0.81108111080E+02  0.20797490898E+03  0.24498637163E+03  0.00000000000E+00 0.  1.
         12    1    6    6    0    0  0.99477468943E+01  0.10126598185E+02 -0.58384845307E+01  0.15349057322E+02  0.00000000000E+00 0. -1.
         -5    1    3    3    0  503 -0.11878720564E+03  0.14338511748E+02  0.13535825593E+03  0.18072061474E+03  0.47000000000E+01 0.  1.
         11    1    4    4    0    0  0.60132316540E+01 -0.22110415893E+02 -0.13360020614E+02  0.26523943837E+02  0.00000000000E+00 0. -1.
        -12    1    4    4    0    0 -0.84913438030E+02 -0.56064064865E+02  0.58469869071E+02  0.11735500380E+03  0.00000000000E+00 0.  1.
</event>
<event>
12    1  0.1040325E-001  0.2038091E+03  0.7818608E-02  0.1146836E+00
         21   -1    0    0  503  502  0.00000000000E+00  0.00000000000E+00  0.34005867099E+03  0.34005867099E+03  0.00000000000E+00 0.  1.
         21   -1    0    0  501  503 -0.00000000000E+00 -0.00000000000E+00 -0.12339602378E+03  0.12339602378E+03  0.00000000000E+00 0. -1.
          6    2    1    2  501    0 -0.10842592735E+03 -0.59797247688E+01  0.78247465808E+02  0.21708724714E+03  0.17091596806E+03 0.  0.
         24    2    3    3    0    0 -0.55189353933E+02  0.53467086704E+02  0.79624149164E+02  0.13713700386E+03  0.81005916759E+02 0.  0.
         -6    2    1    2    0  502  0.10842592735E+03  0.59797247688E+01  0.13841518140E+03  0.24636744762E+03  0.17247091922E+03 0.  0.
        -24    2    5    5    0    0  0.44207759975E+01 -0.24781053551E+02  0.10683596950E+02  0.78734680370E+02  0.73833371680E+02 0.  0.
          5    1    3    3  501    0 -0.53236573415E+02 -0.59446811473E+02 -0.13766833559E+01  0.79950243279E+02  0.47000000000E+01 0. -1.
        -13    1    4    4    0    0 -0.68760713209E+02  0.16475264503E+02  0.61727835977E+02  0.93860512229E+02  0.00000000000E+00 0.  1.
         14    1    4    4    0    0  0.13571359276E+02  0.36991822202E+02  0.17896313187E+02  0.43276491633E+02  0.00000000000E+00 0. -1.
         -5    1    5    5    0  502  0.10400515135E+03  0.30760778320E+02  0.12773158445E+03  0.16763276725E+03  0.47000000000E+01 0.  1.
         11    1    6    6    0    0  0.10953462129E+02  0.25253750128E+02  0.46262320110E+01  0.27912940560E+02  0.00000000000E+00 0. -1.
        -12    1    6    6    0    0 -0.65326861310E+01 -0.50034803679E+02  0.60573649385E+01  0.50821739809E+02  0.00000000000E+00 0.  1.
</event>
<event>
12    1  0.1040325E-001  0.1887390E+03  0.7818608E-02  0.1160276E+00
         21   -1    0    0  501  502  0.00000000000E+00  0.00000000000E+00  0.10096693640E+04  0.10096693640E+04  0.00000000000E+00 0.  1.
         21   -1    0    0  502  503 -0.00000000000E+00 -0.00000000000E+00 -0.35523537324E+02  0.35523537324E+02  0.00000000000E+00 0.  1.
         -6    2    1    2    0  503 -0.39205905014E+02 -0.67836098802E+02  0.56118820609E+03  0.59114841233E+03  0.16847968265E+03 0.  0.
        -24    2    3    3    0    0 -0.86051557439E+02 -0.49279365322E+02  0.32409329344E+03  0.34871294646E+03  0.82042243960E+02 0.  0.
          6    2    1    2  501    0  0.39205905014E+02  0.67836098802E+02  0.41295762057E+03  0.45404448898E+03  0.17170778168E+03 0.  0.
         24    2    5    5    0    0  0.87834052906E+02  0.18357847909E+02  0.24460125241E+03  0.27189413685E+03  0.77748424691E+02 0.  0.
          5    1    5    5  501    0 -0.48628147893E+02  0.49478250893E+02  0.16835636816E+03  0.18215035213E+03  0.47000000000E+01 0. -1.
        -13    1    6    6    0    0 -0.14722511013E+02  0.29199324767E+01  0.29884401831E+02  0.33441827238E+02  0.00000000000E+00 0.  1.
         14    1    6    6    0    0  0.10255656392E+03  0.15437915432E+02  0.21471685058E+03  0.23845230961E+03  0.00000000000E+00 0. -1.
         -5    1    3    3    0  503  0.46845652425E+02 -0.18556733481E+02  0.23709491265E+03  0.24243546587E+03  0.47000000000E+01 0.  1.
         11    1    4    4    0    0 -0.67241601353E+02 -0.57308938323E+02  0.15519741649E+03  0.17858327315E+03  0.00000000000E+00 0. -1.
        -12    1    4    4    0    0 -0.18809956086E+02  0.80295730009E+01  0.16889587695E+03  0.17012967331E+03  0.00000000000E+00 0.  1.
</event>
<event>
12    1  0.1040325E-001  0.1815798E+03  0.7818608E-02  0.1168667E+00
         21   -1    0    0  503  502  0.00000000000E+00  0.00000000000E+00  0.77289647912E+02  0.77289647912E+02  0.00000000000E+00 0. -1.
         21   -1    0    0  501  503 -0.00000000000E+00 -0.00000000000E+00 -0.64578357359E+03  0.64578357359E+03  0.00000000000E+00 0. -1.
          6    2    1    2  501    0 -0.13448257693E+02  0.80430279716E+01 -0.51021577762E+03  0.54156381525E+03  0.18090240551E+03 0.  0.
         24    2    3    3    0    0 -0.14113315459E+02 -0.43299047433E+02 -0.46186464689E+03  0.47087878959E+03  0.79585735285E+02 0.  0.
         -6    2    1    2    0  502  0.13448257693E+02 -0.80430279716E+01 -0.58278148056E+02  0.18150940625E+03  0.17118345739E+03 0.  0.
        -24    2    5    5    0    0 -0.25391564897E+02  0.32859467651E+02 -0.80280226676E+02  0.12078274464E+03  0.80119163912E+02 0.  0.
          5    1    3    3  501    0  0.66505776613E+00  0.51342075404E+02 -0.48351130732E+02  0.70685025654E+02  0.47000000000E+01 0. -1.
        -13    1    4    4    0    0  0.30806122526E+02 -0.23523298794E+01 -0.15999203763E+03  0.16294785284E+03  0.00000000000E+00 0.  1.
         14    1    4    4    0    0 -0.44919437985E+02 -0.40946717553E+02 -0.30187260926E+03  0.30793093675E+03  0.00000000000E+00 0. -1.
         -5    1    5    5    0  502  0.38839822590E+02 -0.40902495623E+02  0.22002078620E+02  0.60726661612E+02  0.47000000000E+01 0.  1.
         13    1    6    6    0    0  0.32465820882E+01  0.54318596930E+02 -0.46661049645E+02  0.71681963015E+02  0.00000000000E+00 0. -1.
        -14    1    6    6    0    0 -0.28638146985E+02 -0.21459129279E+02 -0.33619177031E+02  0.49100781627E+02  0.00000000000E+00 0.  1.
</event>
<event>
12    1  0.1040325E-001  0.2228693E+03  0.7818608E-02  0.1131862E+00
         21   -1    0    0  503  502  0.00000000000E+00  0.00000000000E+00  0.12905220430E+03  0.12905220430E+03  0.00000000000E+00 0. -1.
         21   -1    0    0  501  503 -0.00000000000E+00 -0.00000000000E+00 -0.38410921345E+03  0.38410921345E+03  0.00000000000E+00 0. -1.
          6    2    1    2  501    0  0.97572913095E+02 -0.10247246486E+03 -0.12244573368E+03  0.25429055980E+03  0.17219074215E+03 0.  0.
         24    2    3    3    0    0  0.11275602886E+03 -0.22458253512E+02 -0.88019965720E+02  0.16574664684E+03  0.80660655708E+02 0.  0.
         -6    2    1    2    0  502 -0.97572913095E+02  0.10247246486E+03 -0.13261127548E+03  0.25887085795E+03  0.17148554250E+03 0.  0.
        -24    2    5    5    0    0 -0.82801508390E+02  0.10830437168E+03 -0.35787071961E+02  0.16064040483E+03  0.77062951063E+02 0.  0.
          5    1    3    3  501    0 -0.15183115767E+02 -0.80014211346E+02 -0.34425767962E+02  0.88543912955E+02  0.47000000000E+01 0. -1.
        -13    1    4    4    0    0  0.14177106833E+02  0.10755060406E+02 -0.53125035921E+02  0.56026164638E+02  0.00000000000E+00 0.  1.
         14    1    4    4    0    0  0.98578922029E+02 -0.33213313918E+02 -0.34894929799E+02  0.10972048221E+03  0.00000000000E+00 0. -1.
         -5    1    5    5    0  502 -0.14771404705E+02 -0.58319068252E+01 -0.96824203514E+02  0.98230453121E+02  0.47000000000E+01 0.  1.
         13    1    6    6    0    0 -0.77962856125E+02  0.11782256729E+03 -0.43087882274E+02  0.14770555134E+03  0.00000000000E+00 0. -1.
        -14    1    6    6    0    0 -0.48386522644E+01 -0.95181956108E+01  0.73008103136E+01  0.12934853484E+02  0.00000000000E+00 0.  1.
</event>
<event>
12    1  0.1040325E-001  0.1718817E+03  0.7818608E-02  0.1176531E+00
         21   -1    0    0  501  502  0.00000000000E+00  0.00000000000E+00  0.27286006186E+03  0.27286006186E+03  0.00000000000E+00 0.  1.
         21   -1    0    0  502  503 -0.00000000000E+00 -0.00000000000E+00 -0.29697944670E+03  0.29697944670E+03  0.00000000000E+00 0.  1.
         -6    2    1    2    0  503 -0.44089956219E+01 -0.37719133498E+01 -0.24012597375E+03  0.29530288836E+03  0.17178371876E+03 0.  0.
        -24    2    3    3    0    0  0.41326283877E+02  0.48731095879E+02 -0.13036182681E+03  0.16523160128E+03  0.78896734576E+02 0.  0.
          6    2    1    2  501    0  0.44089956219E+01  0.37719133498E+01  0.21600658890E+03  0.27453662021E+03  0.16934533596E+03 0.  0.
         24    2    5    5    0    0  0.64974479961E+02  0.76733806902E+01  0.13725306635E+03  0.17499965895E+03  0.86636670030E+02 0.  0.
          5    1    5    5  501    0 -0.60565484339E+02 -0.39014673404E+01  0.78753522557E+02  0.99536961255E+02  0.47000000000E+01 0. -1.
        -13    1    6    6    0    0 -0.14302695370E+02  0.23391488389E+02  0.29058408267E+02  0.39951469496E+02  0.00000000000E+00 0.  1.
         14    1    6    6    0    0  0.79277175331E+02 -0.15718107698E+02  0.10819465808E+03  0.13504818946E+03  0.00000000000E+00 0. -1.
         -5    1    3    3    0  503 -0.45735279499E+02 -0.52503009228E+02 -0.10976414694E+03  0.13007128708E+03  0.47000000000E+01 0.  1.
         13    1    4    4    0    0  0.56725816157E+02  0.53684574357E+02 -0.12639059233E+03  0.14857467339E+03  0.00000000000E+00 0. -1.
        -14    1    4    4    0    0 -0.15399532280E+02 -0.49534784779E+01 -0.39712344812E+01  0.16656927891E+02  0.00000000000E+00 0.  1.
</event>
<event>
12    1  0.1040325E-001  0.2022741E+03  0.7818608E-02  0.1150492E+00
         21   -1    0    0  503  502  0.00000000000E+00  0.00000000000E+00  0.13549270392E+03  0.13549270392E+03  0.00000000000E+00 0. -1.
         21   -1    0    0  501  503 -0.00000000000E+00 -0.00000000000E+00 -0.32837576628E+03  0.32837576628E+03  0.00000000000E+00 0. -1.
          6    2    1    2  501    0  0.72524635468E+02  0.36299080868E+02 -0.18449058667E+03  0.27377288150E+03  0.18530344858E+03 0.  0.
         24    2    3    3    0    0 -0.19433650166E+02  0.69736742246E+02 -0.97262008724E+02  0.14260383673E+03  0.75067142825E+02 0.  0.
         -6    2    1    2    0  502 -0.72524635468E+02 -0.36299080868E+02 -0.83924756891E+01  0.19009558870E+03  0.17172202297E+03 0.  0.
        -24    2    5    5    0    0 -0.10711575194E+03 -0.33207023858E+02 -0.40466089284E+02  0.14258861190E+03  0.78214558203E+02 0.  0.
          5    1    3    3  501    0  0.91958285634E+02 -0.33437661378E+02 -0.87228577942E+02  0.13116904477E+03  0.47000000000E+01 0. -1.
        -11    1    4    4    0    0  0.69942269907E+01  0.55833503186E+02 -0.19911001545E+02  0.59688753310E+02  0.00000000000E+00 0.  1.
         12    1    4    4    0    0 -0.26427877157E+02  0.13903239060E+02 -0.77351007178E+02  0.82915083422E+02  0.00000000000E+00 0. -1.
         -5    1    5    5    0  502  0.34591116474E+02 -0.30920570096E+01  0.32073613595E+02  0.47506976798E+02  0.47000000000E+01 0.  1.
         13    1    6    6    0    0 -0.51516298181E+02  0.16582290630E+02  0.63433511953E+01  0.54489810471E+02  0.00000000000E+00 0. -1.
        -14    1    6    6    0    0 -0.55599453761E+02 -0.49789314488E+02 -0.46809440479E+02  0.88098801432E+02  0.00000000000E+00 0.  1.
</event>
<event>
12    1  0.1040325E-001  0.2120346E+03  0.7818608E-02  0.1140203E+00
         21   -1    0    0  501  502  0.00000000000E+00  0.00000000000E+00  0.20018649897E+03  0.20018649897E+03  0.00000000000E+00 0. -1.
         21   -1    0    0  502  503 -0.00000000000E+00 -0.00000000000E+00 -0.11632540743E+04  0.11632540743E+04  0.00000000000E+00 0.  1.
         -6    2    1    2    0  503  0.65041188071E+02 -0.10450565739E+03 -0.10946042838E+04  0.11149516592E+04  0.17264667911E+03 0.  0.
        -24    2    3    3    0    0 -0.20599512804E+01  0.11743667790E+02 -0.43091645813E+03  0.43781054513E+03  0.76465171198E+02 0.  0.
          6    2    1    2  501    0 -0.65041188071E+02  0.10450565739E+03  0.13153670842E+03  0.24848891405E+03  0.17115211413E+03 0.  0.
         24    2    5    5    0    0 -0.63092157114E+02  0.75266699399E+02  0.16212826413E+03  0.20586675236E+03  0.80310954230E+02 0.  0.
          5    1    5    5  501    0 -0.19490309574E+01  0.29238957995E+02 -0.30591555711E+02  0.42622161690E+02  0.47000000000E+01 0. -1.
        -11    1    6    6    0    0 -0.39433230420E+02  0.19688321689E+02  0.14565610561E+02  0.46419464488E+02  0.00000000000E+00 0.  1.
         12    1    6    6    0    0 -0.23658926693E+02  0.55578377711E+02  0.14756265357E+03  0.15944728787E+03  0.00000000000E+00 0. -1.
         -5    1    3    3    0  503  0.67101139352E+02 -0.11624932518E+03 -0.66368782563E+03  0.67714111410E+03  0.47000000000E+01 0.  1.
         11    1    4    4    0    0  0.23291206459E+02  0.90956037733E+01 -0.48689140385E+02  0.54734291790E+02  0.00000000000E+00 0. -1.
        -12    1    4    4    0    0 -0.25351157739E+02  0.26480640170E+01 -0.38222731774E+03  0.38307625334E+03  0.00000000000E+00 0.  1.
</event>
<event>
12    1  0.1040325E-001  0.2301612E+03  0.7818608E-02  0.1126645E+00
         21   -1    0    0  501  502  0.00000000000E+00  0.00000000000E+00  0.34900615003E+03  0.34900615003E+03  0.00000000000E+00 0.  1.
         21   -1    0    0  502  503 -0.00000000000E+00 -0.00000000000E+00 -0.75186604580E+03  0.75186604580E+03  0.00000000000E+00 0.  1.
         -6    2    1    2    0  503  0.15109055727E+03 -0.20466845631E+02 -0.69341793791E+03  0.73061796384E+03  0.17241497676E+03 0.  0.
        -24    2    3    3    0    0  0.15706195975E+03 -0.16329452752E+02 -0.40529674248E+03  0.44236687725E+03  0.80547466722E+02 0.  0.
          6    2    1    2  501    0 -0.15109055727E+03  0.20466845631E+02  0.29055804214E+03  0.37025423198E+03  0.17151376674E+03 0.  0.
         24    2    5    5    0    0 -0.29446942957E+02  0.54696925043E+02  0.15193919688E+03  0.18262123515E+03  0.80038240362E+02 0.  0.
          5    1    5    5  501    0 -0.12164361431E+03 -0.34230079412E+02  0.13861884526E+03  0.18763299683E+03  0.47000000000E+01 0. -1.
        -13    1    6    6    0    0 -0.53857253024E+02  0.28032176596E+02  0.11954533654E+03  0.13408017794E+03  0.00000000000E+00 0.  1.
         14    1    6    6    0    0  0.24410310066E+02  0.26664748447E+02  0.32393860340E+02  0.48541057210E+02  0.00000000000E+00 0. -1.
         -5    1    3    3    0  503 -0.59714024798E+01 -0.41373928794E+01 -0.28812119543E+03  0.28825108659E+03  0.47000000000E+01 0.  1.
         11    1    4    4    0    0 -0.95106081351E+01 -0.37140911678E+01 -0.22533107998E+02  0.24738372953E+02  0.00000000000E+00 0. -1.
        -12    1    4    4    0    0  0.16657256788E+03 -0.12615361584E+02 -0.38276363448E+03  0.41762850429E+03  0.00000000000E+00 0.  1.
</event>
<event>
12    1  0.1040325E-001  0.1996105E+03  0.7818608E-02  0.1150123E+00
         21   -1    0    0  503  502  0.00000000000E+00  0.00000000000E+00  0.27931510655E+03  0.27931510655E+03  0.00000000000E+00 0. -1.
         21   -1    0    0  501  503 -0.00000000000E+00 -0.00000000000E+00 -0.15122865707E+03  0.15122865707E+03  0.00000000000E+00 0. -1.
          6    2    1    2  501    0 -0.75953034147E+02 -0.65592440741E+02  0.12258073437E+02  0.19998651777E+03  0.17254887785E+03 0.  0.
         24    2    3    3    0    0 -0.42985817305E+02 -0.20033540652E+02  0.72762143712E+02  0.11725029062E+03  0.78766603664E+02 0.  0.
         -6    2    1    2    0  502  0.75953034147E+02  0.65592440741E+02  0.11582837604E+03  0.23055724584E+03  0.17224749413E+03 0.  0.
        -24    2    5    5    0    0  0.88023657296E+02  0.19520720013E+02  0.13301769630E+03  0.17970583362E+03  0.80444119439E+02 0.  0.
          5    1    3    3  501    0 -0.32967216842E+02 -0.45558900089E+02 -0.60504070275E+02  0.82736227153E+02  0.47000000000E+01 0. -1.
        -11    1    4    4    0    0  0.40472038244E+01  0.25863196729E+02  0.19039083983E+02  0.32369299077E+02  0.00000000000E+00 0.  1.
         12    1    4    4    0    0 -0.47033021129E+02 -0.45896737381E+02  0.53723059729E+02  0.84880991544E+02  0.00000000000E+00 0. -1.
         -5    1    5    5    0  502 -0.12070623150E+02  0.46071720728E+02 -0.17189320260E+02  0.50851412223E+02  0.47000000000E+01 0.  1.
         13    1    6    6    0    0  0.72557703950E+02  0.25731864497E+01  0.37978927052E+02  0.81936808523E+02  0.00000000000E+00 0. -1.
        -14    1    6    6    0    0  0.15465953346E+02  0.16947533563E+02  0.95038769252E+02  0.97769025094E+02  0.00000000000E+00 0.  1.
</event>
<event>
12    1  0.1040325E-001  0.1971931E+03  0.7818608E-02  0.1152137E+00
         21   -1    0    0  503  502  0.00000000000E+00  0.00000000000E+00  0.45719559454E+03  0.45719559454E+03  0.00000000000E+00 0. -1.
         21   -1    0    0  501  503 -0.00000000000E+00 -0.00000000000E+00 -0.13072083971E+03  0.13072083971E+03  0.00000000000E+00 0.  1.
          6    2    1    2  501    0 -0.93916505306E+02 -0.21394650828E+02 -0.10555951444E+02  0.19743620180E+03  0.17202204689E+03 0.  0.
         24    2    3    3    0    0 -0.36327613827E+02 -0.75815532652E+02  0.40855893788E+01  0.11672326902E+03  0.80869889156E+02 0.  0.
         -6    2    1    2    0  502  0.93916505306E+02  0.21394650828E+02  0.33703070627E+03  0.39048023245E+03  0.17206706225E+03 0.  0.
        -24    2    5    5    0    0  0.39883192332E+02  0.59596514247E+02  0.28725106979E+03  0.30753999198E+03  0.83218123238E+02 0.  0.
          5    1    3    3  501    0 -0.57588891478E+02  0.54420881824E+02 -0.14641540823E+02  0.80712932780E+02  0.47000000000E+01 0. -1.
        -13    1    4    4    0    0 -0.45378334585E+02 -0.63213111512E+01  0.81011571450E+01  0.46527206787E+02  0.00000000000E+00 0.  1.
         14    1    4    4    0    0  0.90507207574E+01 -0.69494221501E+02 -0.40155677662E+01  0.70196062231E+02  0.00000000000E+00 0. -1.
         -5    1    5    5    0  502  0.54033312973E+02 -0.38201863419E+02  0.49779636485E+02  0.82940240463E+02  0.47000000000E+01 0.  1.
         11    1    6    6    0    0 -0.23846045114E+02  0.81341681407E+01  0.10057494550E+03  0.10368277687E+03  0.00000000000E+00 0. -1.
        -12    1    6    6    0    0  0.63729237446E+02  0.51462346107E+02  0.18667612429E+03  0.20385721511E+03  0.00000000000E+00 0.  1.
</event>
<event>
12    1  0.1040325E-001  0.2047579E+03  0.7818608E-02  0.1145798E+00
         21   -1    0    0  503  502  0.00000000000E+00  0.00000000000E+00  0.13091515614E+03  0.13091515614E+03  0.00000000000E+00 0.  1.
         21   -1    0    0  501  503 -0.00000000000E+00 -0.00000000000E+00 -0.47545709543E+03  0.47545709543E+03  0.00000000000E+00 0.  1.
          6    2    1    2  501    0 -0.48328870941E+00  0.11090005073E+03 -0.34552864586E+03  0.40161202355E+03  0.17205556524E+03 0.  0.
         24    2    3    3    0    0  0.65874289009E+02  0.72502407796E+02 -0.24949451079E+03  0.27863905009E+03  0.76132701456E+02 0.  0.
         -6    2    1    2    0  502  0.48328870941E+00 -0.11090005073E+03  0.98670657640E+00  0.20476022802E+03  0.17212414871E+03 0.  0.
        -24    2    5    5    0    0  0.37192530535E+02  0.51741667663E-01  0.20840296921E+01  0.87793725163E+02  0.79499106872E+02 0.  0.
          5    1    3    3  501    0 -0.66357577719E+02  0.38397642937E+02 -0.96034135072E+02  0.12297297346E+03  0.47000000000E+01 0. -1.
        -11    1    4    4    0    0  0.15347907798E+02 -0.11151501679E+02 -0.86796639042E+02  0.88845769806E+02  0.00000000000E+00 0.  1.
         12    1    4    4    0    0  0.50526381212E+02  0.83653909476E+02 -0.16269787175E+03  0.18979328028E+03  0.00000000000E+00 0. -1.
         -5    1    5    5    0  502 -0.36709241826E+02 -0.11095179240E+03 -0.10973231157E+01  0.11696650286E+03  0.47000000000E+01 0.  1.
         13    1    6    6    0    0  0.23528973060E+02 -0.22833349393E+02 -0.31127446922E+02  0.45209427885E+02  0.00000000000E+00 0. -1.
        -14    1    6    6    0    0  0.13663557475E+02  0.22885091061E+02  0.33211476615E+02  0.42584297278E+02  0.00000000000E+00 0.  1.
</event>
<event>
12    1  0.1040325E-001  0.3419776E+03  0.7818608E-02  0.1065960E+00
         21   -1    0    0  501  502  0.00000000000E+00  0.00000000000E+00  0.24414477476E+03  0.24414477476E+03  0.00000000000E+00 0. -1.
         21   -1    0    0  502  503 -0.00000000000E+00 -0.00000000000E+00 -0.59703389932E+03  0.59703389932E+03  0.00000000000E+00 0.  1.
         -6    2    1    2    0  503 -0.27944774940E+03  0.96530677869E+02 -0.36346940535E+03  0.49903743560E+03  0.17181134157E+03 0.  0.
        -24    2    3    3    0    0 -0.12956288267E+03 -0.66171534177E+01 -0.11284566086E+03  0.18929673812E+03  0.79175656633E+02 0.  0.
          6    2    1    2  501    0  0.27944774940E+03 -0.96530677869E+02  0.10580280783E+02  0.34214123848E+03  0.17187049866E+03 0.  0.
         24    2    5    5    0    0  0.11078593787E+03 -0.93778664326E+02 -0.33472750336E+02  0.16773613592E+03  0.77116952519E+02 0.  0.
          5    1    5    5  501    0  0.16866181153E+03 -0.27520135425E+01  0.44053031118E+02  0.17440510256E+03  0.47000000000E+01 0. -1.
        -11    1    6    6    0    0  0.71297795737E+02 -0.73280399967E+02  0.13392652883E+02  0.10311525516E+03  0.00000000000E+00 0.  1.
         12    1    6    6    0    0  0.39488142136E+02 -0.20498264359E+02 -0.46865403218E+02  0.64620880757E+02  0.00000000000E+00 0. -1.
         -5    1    3    3    0  503 -0.14988486673E+03  0.10314783129E+03 -0.25062374449E+03  0.30974069748E+03  0.47000000000E+01 0.  1.
         13    1    4    4    0    0 -0.13685149437E+02 -0.93973133312E+01  0.10808945033E+02  0.19809747744E+02  0.00000000000E+00 0. -1.
        -14    1    4    4    0    0 -0.11587773324E+03  0.27801599135E+01 -0.12365460589E+03  0.16948699038E+03  0.00000000000E+00 0.  1.
</event>
<event>
12    1  0.1040325E-001  0.2224090E+03  0.7818608E-02  0.1132198E+00
         21   -1    0    0  503  502  0.00000000000E+00  0.00000000000E+00  0.31509084095E+02  0.31509084095E+02  0.00000000000E+00 0. -1.
         21   -1    0    0  501  503 -0.00000000000E+00 -0.00000000000E+00 -0.37077450131E+04  0.37077450131E+04  0.00000000000E+00 0. -1.
          6    2    1    2  501    0  0.13842291756E+03 -0.17112780711E+02 -0.32581118983E+04  0.32656577906E+04  0.17255118779E+03 0.  0.
         24    2    3    3    0    0  0.11326008706E+03 -0.71517165487E+02 -0.26512305017E+04  0.26558052472E+04  0.79597650847E+02 0.  0.
         -6    2    1    2    0  502 -0.13842291756E+03  0.17112780711E+02 -0.41812403075E+03  0.47359630660E+03  0.17323973319E+03 0.  0.
        -24    2    5    5    0    0 -0.14724285363E+03 -0.32081845936E+02 -0.34587475962E+03  0.38561932243E+03  0.79769729257E+02 0.  0.
          5    1    3    3  501    0  0.25162830503E+02  0.54404384775E+02 -0.60688139662E+03  0.60985254339E+03  0.47000000000E+01 0. -1.
        -11    1    4    4    0    0  0.73135689704E+01 -0.21192504185E+02 -0.10682941845E+04  0.10685293983E+04  0.00000000000E+00 0.  1.
         12    1    4    4    0    0  0.10594651809E+03 -0.50324661302E+02 -0.15829363172E+04  0.15872758489E+04  0.00000000000E+00 0. -1.
         -5    1    5    5    0  502  0.88199360699E+01  0.49194626647E+02 -0.72249271134E+02  0.87976984164E+02  0.47000000000E+01 0.  1.
         11    1    6    6    0    0 -0.26440182113E+02 -0.20349849228E+02 -0.22565094229E+02  0.40278816657E+02  0.00000000000E+00 0. -1.
        -12    1    6    6    0    0 -0.12080267152E+03 -0.11731996708E+02 -0.32330966539E+03  0.34534050577E+03  0.00000000000E+00 0.  1.
</event>
<event>
12    1  0.1040325E-001  0.2071205E+03  0.7818608E-02  0.1143935E+00
         21   -1    0    0  501  502  0.00000000000E+00  0.00000000000E+00  0.10023577462E+03  0.10023577462E+03  0.00000000000E+00 0.  1.
         21   -1    0    0  502  503 -0.00000000000E+00 -0.00000000000E+00 -0.52185463000E+03  0.52185463000E+03  0.00000000000E+00 0.  1.
         -6    2    1    2    0  503  0.58040448414E+02  0.10329147395E+03 -0.34336802212E+03  0.40099936203E+03  0.16988545405E+03 0.  0.
        -24    2    3    3    0    0 -0.10115837469E+02  0.35103150919E+02 -0.25755186404E+03  0.27184275287E+03  0.78936419016E+02 0.  0.
          6    2    1    2  501    0 -0.58040448414E+02 -0.10329147395E+03 -0.78250833267E+02  0.22109104258E+03  0.16947045158E+03 0.  0.
         24    2    5    5    0    0 -0.90576184427E+01 -0.12790976504E+03 -0.61609668749E+02  0.16360716446E+03  0.80799780535E+02 0.  0.
          5    1    5    5  501    0 -0.48982829971E+02  0.24618291085E+02 -0.16641164518E+02  0.57483878126E+02  0.47000000000E+01 0. -1.
        -11    1    6    6    0    0 -0.43372308074E+01 -0.93355168186E+02 -0.74518354269E+00  0.93458837445E+02  0.00000000000E+00 0.  1.
         12    1    6    6    0    0 -0.47203876353E+01 -0.34554596850E+02 -0.60864485207E+02  0.70148327010E+02  0.00000000000E+00 0. -1.
         -5    1    3    3    0  503  0.68156285883E+02  0.68188323032E+02 -0.85816158077E+02  0.12915660916E+03  0.47000000000E+01 0.  1.
         13    1    4    4    0    0  0.22015487666E+02 -0.55360453651E+01 -0.15795030499E+03  0.15957326951E+03  0.00000000000E+00 0. -1.
        -14    1    4    4    0    0 -0.32131325134E+02  0.40639196284E+02 -0.99601559043E+02  0.11226948336E+03  0.00000000000E+00 0.  1.
</event>
<event>
12    1  0.1040325E-001  0.3406799E+03  0.7818608E-02  0.1066530E+00
         21   -1    0    0  501  502  0.00000000000E+00  0.00000000000E+00  0.81545494950E+03  0.81545494950E+03  0.00000000000E+00 0.  1.
         21   -1    0    0  502  503 -0.00000000000E+00 -0.00000000000E+00 -0.30085135188E+03  0.30085135188E+03  0.00000000000E+00 0.  1.
         -6    2    1    2    0  503  0.23182723514E+02 -0.29267917263E+03 -0.14793414868E+03  0.37141260584E+03  0.17281283132E+03 0.  0.
        -24    2    3    3    0    0  0.36927139661E+02 -0.30412599779E+03 -0.15272162699E+03  0.35230897451E+03  0.83315556764E+02 0.  0.
          6    2    1    2  501    0 -0.23182723514E+02  0.29267917263E+03  0.66253774630E+03  0.74489369555E+03  0.17237115659E+03 0.  0.
         24    2    5    5    0    0  0.28392785158E+02  0.26657699678E+03  0.58431635991E+03  0.64751796978E+03  0.77359338605E+02 0.  0.
          5    1    5    5  501    0 -0.51575508671E+02  0.26102175848E+02  0.78221386396E+02  0.97375725766E+02  0.47000000000E+01 0. -1.
        -11    1    6    6    0    0  0.15124538664E+02  0.20984804863E+03  0.37222524867E+03  0.42757056837E+03  0.00000000000E+00 0.  1.
         12    1    6    6    0    0  0.13268246494E+02  0.56728948150E+02  0.21209111123E+03  0.21994740141E+03  0.00000000000E+00 0. -1.
         -5    1    3    3    0  503 -0.13744416147E+02  0.11446825156E+02  0.47874783047E+01  0.19103631327E+02  0.47000000000E+01 0.  1.
         11    1    4    4    0    0 -0.19162720590E+02 -0.17145413135E+03 -0.96563433506E+02  0.19770742452E+03  0.00000000000E+00 0. -1.
        -12    1    4    4    0    0  0.56089860251E+02 -0.13267186643E+03 -0.56158193480E+02  0.15460155000E+03  0.00000000000E+00 0.  1.
</event>
<event>
12    1  0.1040325E-001  0.2100915E+03  0.7818608E-02  0.1141661E+00
         21   -1    0    0  503  502  0.00000000000E+00  0.00000000000E+00  0.23098026762E+02  0.23098026762E+02  0.00000000000E+00 0.  1.
         21   -1    0    0  501  503 -0.00000000000E+00 -0.00000000000E+00 -0.19770631276E+04  0.19770631276E+04  0.00000000000E+00 0.  1.
          6    2    1    2  501    0  0.34168179167E+02  0.11490712733E+03 -0.11683151155E+04  0.11869057605E+04  0.17150499324E+03 0.  0.
         24    2    3    3    0    0  0.58780125020E+02  0.81912190960E+02 -0.47204125705E+03  0.48940035569E+03  0.80777779555E+02 0.  0.
         -6    2    1    2    0  502 -0.34168179167E+02 -0.11490712733E+03 -0.78564998536E+03  0.81325539393E+03  0.17253209524E+03 0.  0.
        -24    2    5    5    0    0 -0.55815494060E+02 -0.13850873154E+03 -0.70650518976E+03  0.72774732043E+03  0.90368916927E+02 0.  0.
          5    1    3    3  501    0 -0.24611945853E+02  0.32994936365E+02 -0.69627385845E+03  0.69750540476E+03  0.47000000000E+01 0. -1.
        -13    1    4    4    0    0  0.14585327069E+02  0.39429448824E+02 -0.62671361133E+02  0.75465970520E+02  0.00000000000E+00 0.  1.
         14    1    4    4    0    0  0.44194797951E+02  0.42482742136E+02 -0.40936989592E+03  0.41393438517E+03  0.00000000000E+00 0. -1.
         -5    1    5    5    0  502  0.21647314894E+02  0.23601604214E+02 -0.79144795598E+02  0.85508073501E+02  0.47000000000E+01 0.  1.
         13    1    6    6    0    0 -0.23856272087E+02 -0.55574185695E+02 -0.11827596268E+03  0.13284131579E+03  0.00000000000E+00 0. -1.
        -14    1    6    6    0    0 -0.31959221973E+02 -0.82934545844E+02 -0.58822922708E+03  0.59490600464E+03  0.00000000000E+00 0.  1.
</event>
<event>
12    1  0.1040325E-001  0.1770027E+03  0.7818608E-02  0.1171019E+00
         21   -1    0    0  501  502  0.00000000000E+00  0.00000000000E+00  0.51951104771E+02  0.51951104771E+02  0.00000000000E+00 0. -1.
         21   -1    0    0  502  503 -0.00000000000E+00 -0.00000000000E+00 -0.62293177246E+03  0.62293177246E+03  0.00000000000E+00 0. -1.
         -6    2    1    2    0  503  0.39257778926E+02 -0.95935655773E+01 -0.22048822201E+03  0.28274547192E+03  0.17232740971E+03 0.  0.
        -24    2    3    3    0    0 -0.31866769520E+01 -0.42160734546E+02 -0.21006708097E+03  0.22803859383E+03  0.78011148689E+02 0.  0.
          6    2    1    2  501    0 -0.39257778926E+02  0.95935655773E+01 -0.35049244567E+03  0.39213740531E+03  0.17115367499E+03 0.  0.
         24    2    5    5    0    0 -0.33076552741E+02  0.63856899324E+02 -0.21321698798E+03  0.24432212115E+03  0.95184310616E+02 0.  0.
          5    1    5    5  501    0 -0.61812261852E+01 -0.54263333746E+02 -0.13727545769E+03  0.14781528416E+03  0.47000000000E+01 0. -1.
        -13    1    6    6    0    0 -0.51653184945E+02  0.39020156326E+02 -0.20069036966E+03  0.21087258852E+03  0.00000000000E+00 0.  1.
         14    1    6    6    0    0  0.18576632204E+02  0.24836742998E+02 -0.12526618323E+02  0.33449532634E+02  0.00000000000E+00 0. -1.
         -5    1    3    3    0  503  0.42444455878E+02  0.32567168968E+02 -0.10421141037E+02  0.54706878086E+02  0.47000000000E+01 0.  1.
         13    1    4    4    0    0  0.10894056329E+02  0.20805194513E+02 -0.43947259932E+02  0.49828688901E+02  0.00000000000E+00 0. -1.
        -14    1    4    4    0    0 -0.14080733281E+02 -0.62965929059E+02 -0.16611982104E+03  0.17820990493E+03  0.00000000000E+00 0.  1.
</event>
<event>
12    1  0.1040325E-001  0.2994688E+03  0.7818608E-02  0.1085561E+00
         21   -1    0    0  501  502  0.00000000000E+00  0.00000000000E+00  0.42515435494E+03  0.42515435494E+03  0.00000000000E+00 0. -1.
         21   -1    0    0  502  503 -0.00000000000E+00 -0.00000000000E+00 -0.29525075224E+03  0.29525075224E+03  0.00000000000E+00 0.  1.
         -6    2    1    2    0  503  0.10848536343E+03  0.21972831975E+03 -0.12784751057E+03  0.32561721977E+03  0.17213941812E+03 0.  0.
        -24    2    3    3    0    0  0.39563510884E+02  0.30896759564E+02 -0.66016523584E+02  0.11525386547E+03  0.80033686495E+02 0.  0.
          6    2    1    2  501    0 -0.10848536343E+03 -0.21972831975E+03  0.25775111326E+03  0.39478788741E+03  0.17138328705E+03 0.  0.
         24    2    5    5    0    0  0.83213008837E+01 -0.76983115137E+02  0.65059462086E+02  0.12800679232E+03  0.78468855016E+02 0.  0.
          5    1    5    5  501    0 -0.11680666431E+03 -0.14274520461E+03  0.19269165118E+03  0.26678109510E+03  0.47000000000E+01 0. -1.
        -11    1    6    6    0    0  0.25476080811E+02  0.36838312503E+01  0.26577847286E+02  0.36999773953E+02  0.00000000000E+00 0.  1.
         12    1    6    6    0    0 -0.17154779928E+02 -0.80666946387E+02  0.38481614800E+02  0.91007018363E+02  0.00000000000E+00 0. -1.
         -5    1    3    3    0  503  0.68921852547E+02  0.18883156019E+03 -0.61830986988E+02  0.21036335430E+03  0.47000000000E+01 0.  1.
         11    1    4    4    0    0 -0.80771744050E+01  0.20291987116E+02 -0.62631028306E+02  0.66329866532E+02  0.00000000000E+00 0. -1.
        -12    1    4    4    0    0  0.47640685289E+02  0.10604772448E+02 -0.33854952774E+01  0.48923998935E+02  0.00000000000E+00 0.  1.
</event>
<event>
12    1  0.1040325E-001  0.1871945E+03  0.7818608E-02  0.1161177E+00
         21   -1    0    0  501  502  0.00000000000E+00  0.00000000000E+00  0.21229555541E+03  0.21229555541E+03  0.00000000000E+00 0. -1.
         21   -1    0    0  502  503 -0.00000000000E+00 -0.00000000000E+00 -0.43292271128E+03  0.43292271128E+03  0.00000000000E+00 0. -1.
         -6    2    1    2    0  503 -0.56745892365E+02  0.42636889219E+02 -0.36428837916E+03  0.40925145544E+03  0.17246080705E+03 0.  0.
        -24    2    3    3    0    0 -0.99819017366E+02 -0.34380956484E+01 -0.17494863697E+03  0.20962724274E+03  0.57973257529E+02 0.  0.
          6    2    1    2  501    0  0.56745892365E+02 -0.42636889219E+02  0.14366122329E+03  0.23596681125E+03  0.17321601632E+03 0.  0.
         24    2    5    5    0    0  0.70825179713E+02  0.14802780108E+02  0.40214959692E+02  0.11671597730E+03  0.82280301373E+02 0.  0.
          5    1    5    5  501    0 -0.14079287348E+02 -0.57439669327E+02  0.10344626360E+03  0.11925083395E+03  0.47000000000E+01 0. -1.
        -13    1    6    6    0    0 -0.82910163642E+00 -0.21661052149E+02 -0.78392429864E+01  0.23050863765E+02  0.00000000000E+00 0.  1.
         14    1    6    6    0    0  0.71654281350E+02  0.36463832257E+02  0.48054202679E+02  0.93665113536E+02  0.00000000000E+00 0. -1.
         -5    1    3    3    0  503  0.43073125001E+02  0.46074984867E+02 -0.18933974218E+03  0.19962421271E+03  0.47000000000E+01 0.  1.
         13    1    4    4    0    0 -0.56325563472E+02  0.10433044654E+02 -0.14260172457E+03  0.15367715956E+03  0.00000000000E+00 0. -1.
        -14    1    4    4    0    0 -0.43493453894E+02 -0.13871140302E+02 -0.32346912403E+02  0.55950083172E+02  0.00000000000E+00 0.  1.
</event>
<event>
12    1  0.1040325E-001  0.1969522E+03  0.7818608E-02  0.1152351E+00
         21   -1    0    0  501  502  0.00000000000E+00  0.00000000000E+00  0.11768836893E+04  0.11768836893E+04  0.00000000000E+00 0.  1.
         21   -1    0    0  502  503 -0.00000000000E+00 -0.00000000000E+00 -0.46132237356E+02  0.46132237356E+02  0.00000000000E+00 0.  1.
         -6    2    1    2    0  503  0.79251369864E+02 -0.59089539857E+02  0.23854221461E+03  0.30934216341E+03  0.17034621383E+03 0.  0.
        -24    2    3    3    0    0  0.74164299262E+02 -0.83795898242E+02  0.24681261880E+03  0.28238345392E+03  0.79384194891E+02 0.  0.
          6    2    1    2  501    0 -0.79251369864E+02  0.59089539857E+02  0.89220923737E+03  0.91367376328E+03  0.17026470309E+03 0.  0.
         24    2    5    5    0    0 -0.12076514876E+03  0.45350493679E+02  0.65232695275E+03  0.66979314555E+03  0.80321330397E+02 0.  0.
          5    1    5    5  501    0  0.41513778900E+02  0.13739046178E+02  0.23988228462E+03  0.24388061773E+03  0.47000000000E+01 0. -1.
        -11    1    6    6    0    0 -0.34191114429E+02  0.48006032832E+02  0.17463468037E+03  0.18431191790E+03  0.00000000000E+00 0.  1.
         12    1    6    6    0    0 -0.86574034334E+02 -0.26555391526E+01  0.47769227238E+03  0.48548122765E+03  0.00000000000E+00 0. -1.
         -5    1    3    3    0  503  0.50870706011E+01  0.24706358385E+02 -0.82704041924E+01  0.26958709491E+02  0.47000000000E+01 0.  1.
         11    1    4    4    0    0  0.13536031912E+02  0.80976012954E+01  0.86390628575E+02  0.87818767996E+02  0.00000000000E+00 0. -1.
        -12    1    4    4    0    0  0.60628267350E+02 -0.91893499537E+02  0.16042199023E+03  0.19456468592E+03  0.00000000000E+00 0.  1.
</event>
<event>
12    1  0.1040325E-001  0.3456407E+03  0.7818608E-02  0.1064452E+00
         21   -1    0    0  501  502  0.00000000000E+00  0.00000000000E+00  0.69003505957E+03  0.69003505957E+03  0.00000000000E+00 0.  1.
         21   -1    0    0  502  503 -0.00000000000E+00 -0.00000000000E+00 -0.19603849422E+03  0.19603849422E+03  0.00000000000E+00 0.  1.
         -6    2    1    2    0  503 -0.19095673170E+03 -0.23048237981E+03  0.94928404522E+02  0.35813145355E+03  0.17222118119E+03 0.  0.
        -24    2    3    3    0    0 -0.17462887096E+03 -0.17164508498E+03  0.15813851213E+02  0.25808332091E+03  0.79997780399E+02 0.  0.
          6    2    1    2  501    0  0.19095673170E+03  0.23048237981E+03  0.39906816083E+03  0.52794210024E+03  0.17286082098E+03 0.  0.
         24    2    5    5    0    0  0.16930572221E+03  0.10264970153E+03  0.21479800072E+03  0.30258118580E+03  0.78840370936E+02 0.  0.
          5    1    5    5  501    0  0.21651009490E+02  0.12783267828E+03  0.18427016011E+03  0.22536091444E+03  0.47000000000E+01 0. -1.
        -13    1    6    6    0    0  0.41888153958E+02 -0.97505130105E+01  0.38292204299E+02  0.57584571337E+02  0.00000000000E+00 0.  1.
         14    1    6    6    0    0  0.12741756825E+03  0.11240021454E+03  0.17650579642E+03  0.24499661446E+03  0.00000000000E+00 0. -1.
         -5    1    3    3    0  503 -0.16327860736E+02 -0.58837294831E+02  0.79114553309E+02  0.10004813264E+03  0.47000000000E+01 0.  1.
         13    1    4    4    0    0 -0.48117641099E+01 -0.46224269363E+02  0.18780696180E+01  0.46511969400E+02  0.00000000000E+00 0. -1.
        -14    1    4    4    0    0 -0.16981710685E+03 -0.12542081562E+03  0.13935781595E+02  0.21157135151E+03  0.00000000000E+00 0.  1.
</event>
<event>
12    1  0.1040325E-001  0.2156553E+03  0.7818608E-02  0.1137835E+00
         21   -1    0    0  501  502  0.00000000000E+00  0.00000000000E+00  0.38295328584E+03  0.38295328584E+03  0.00000000000E+00 0. -1.
         21   -1    0    0  502  503 -0.00000000000E+00 -0.00000000000E+00 -0.18955473557E+03  0.18955473557E+03  0.00000000000E+00 0. -1.
         -6    2    1    2    0  503 -0.12912041250E+02  0.12949133128E+03 -0.77822434789E+02  0.22599966486E+03  0.16758517678E+03 0.  0.
        -24    2    3    3    0    0 -0.34325085385E+02  0.15474679810E+03 -0.50450845349E+02  0.18278333725E+03  0.75760659771E+02 0.  0.
          6    2    1    2  501    0  0.12912041250E+02 -0.12949133128E+03  0.27122098506E+03  0.34650835655E+03  0.17196654539E+03 0.  0.
         24    2    5    5    0    0 -0.23109842731E+02 -0.80035984791E+02  0.67789227021E+02  0.13402311565E+03  0.80168525837E+02 0.  0.
          5    1    5    5  501    0  0.36021883980E+02 -0.49455346484E+02  0.20343175804E+03  0.21248524090E+03  0.47000000000E+01 0. -1.
        -11    1    6    6    0    0 -0.10087636771E+02 -0.34339840332E+02 -0.14808621123E+02  0.38733452069E+02  0.00000000000E+00 0.  1.
         12    1    6    6    0    0 -0.13022205959E+02 -0.45696144460E+02  0.82597848144E+02  0.95289663577E+02  0.00000000000E+00 0. -1.
         -5    1    3    3    0  503  0.21413044135E+02 -0.25255466828E+02 -0.27371589439E+02  0.43216327612E+02  0.47000000000E+01 0.  1.
         11    1    4    4    0    0  0.19068259276E+01  0.41681522575E+01 -0.25501679260E+02  0.25910328509E+02  0.00000000000E+00 0. -1.
        -12    1    4    4    0    0 -0.36231911312E+02  0.15057864585E+03 -0.24949166089E+02  0.15687300874E+03  0.00000000000E+00 0.  1.
</event>
<event>
12    1  0.1040325E-001  0.2131686E+03  0.7818608E-02  0.1139814E+00
         21   -1    0    0  501  502  0.00000000000E+00  0.00000000000E+00  0.16392074725E+04  0.16392074725E+04  0.00000000000E+00 0.  1.
         21   -1    0    0  502  503 -0.00000000000E+00 -0.00000000000E+00 -0.29088935564E+02  0.29088935564E+02  0.00000000000E+00 0. -1.
         -6    2    1    2    0  503 -0.11959970385E+03 -0.38985053267E+02  0.58791103321E+03  0.62409860522E+03  0.16743883220E+03 0.  0.
        -24    2    3    3    0    0 -0.15952469315E+02 -0.59502354875E+02  0.34818345003E+03  0.36207739801E+03  0.77931481186E+02 0.  0.
          6    2    1    2  501    0  0.11959970385E+03  0.38985053267E+02  0.10222075037E+04  0.10441978028E+04  0.17209575024E+03 0.  0.
         24    2    5    5    0    0  0.28008373042E+02 -0.20094952750E+02  0.66881545211E+03  0.67434992718E+03  0.79028091299E+02 0.  0.
          5    1    5    5  501    0  0.91591330807E+02  0.59080006017E+02  0.35339205159E+03  0.36984787564E+03  0.47000000000E+01 0. -1.
        -13    1    6    6    0    0  0.41052859028E+02  0.15268089904E+02  0.46662817614E+03  0.46867932168E+03  0.00000000000E+00 0.  1.
         14    1    6    6    0    0 -0.13044485985E+02 -0.35363042654E+02  0.20218727597E+03  0.20567060549E+03  0.00000000000E+00 0. -1.
         -5    1    3    3    0  503 -0.10364723453E+03  0.20517301608E+02  0.23972758318E+03  0.26202120721E+03  0.47000000000E+01 0.  1.
         11    1    4    4    0    0  0.21214228285E+02 -0.49024665039E+02  0.13074006542E+03  0.14123181642E+03  0.00000000000E+00 0. -1.
        -12    1    4    4    0    0 -0.37166697599E+02 -0.10477689836E+02  0.21744338461E+03  0.22084558159E+03  0.00000000000E+00 0.  1.
</event>
<event>
12    1  0.1040325E-001  0.2199950E+03  0.7818608E-02  0.1134042E+00
         21   -1    0    0  503  502  0.00000000000E+00  0.00000000000E+00  0.10286883948E+03  0.10286883948E+03  0.00000000000E+00 0.  1.
         21   -1    0    0  501  503 -0.00000000000E+00 -0.00000000000E+00 -0.67327358065E+03  0.67327358065E+03  0.00000000000E+00 0.  1.
          6    2    1    2  501    0  0.12825379000E+03  0.47216724027E+02 -0.49873814394E+03  0.54476851354E+03  0.17133167672E+03 0.  0.
         24    2    3    3    0    0  0.19811777695E+02  0.43944069818E+02 -0.12527382141E+03  0.15583655227E+03  0.79170151471E+02 0.  0.
         -6    2    1    2    0  502 -0.12825379000E+03 -0.47216724027E+02 -0.71666597233E+02  0.23137390659E+03  0.17239295175E+03 0.  0.
        -24    2    5    5    0    0 -0.11102482463E+03  0.27787852576E+02 -0.24902836807E+02  0.14119928129E+03  0.78856891386E+02 0.  0.
          5    1    3    3  501    0  0.10844201231E+03  0.32726542085E+01 -0.37346432252E+03  0.38893196127E+03  0.47000000000E+01 0. -1.
        -11    1    4    4    0    0  0.11124779693E+02  0.49528668236E+02 -0.13337654015E+03  0.14271002475E+03  0.00000000000E+00 0.  1.
         12    1    4    4    0    0  0.86869980028E+01 -0.55845984174E+01  0.81027187395E+01  0.13126527521E+02  0.00000000000E+00 0. -1.
         -5    1    5    5    0  502 -0.17228965367E+02 -0.75004576602E+02 -0.46763760426E+02  0.90174625300E+02  0.47000000000E+01 0.  1.
         11    1    6    6    0    0 -0.86685898680E+02 -0.98117381457E+01 -0.37066510634E+02  0.94787348554E+02  0.00000000000E+00 0. -1.
        -12    1    6    6    0    0 -0.24338925954E+02  0.37599590721E+02  0.12163673827E+02  0.46411932732E+02  0.00000000000E+00 0.  1.
</event>
<event>
12    1  0.1040325E-001  0.1788240E+03  0.7818608E-02  0.1169025E+00
         21   -1    0    0  501  502  0.00000000000E+00  0.00000000000E+00  0.42573024092E+03  0.42573024092E+03  0.00000000000E+00 0.  1.
         21   -1    0    0  502  503 -0.00000000000E+00 -0.00000000000E+00 -0.75702222701E+02  0.75702222701E+02  0.00000000000E+00 0.  1.
         -6    2    1    2    0  503  0.40872198298E+02  0.23498087013E+02  0.19970247867E+03  0.26806549738E+03  0.17249734552E+03 0.  0.
        -24    2    3    3    0    0 -0.10348865306E+02 -0.46463357060E+02  0.10842058118E+03  0.14207868925E+03  0.78519990791E+02 0.  0.
          6    2    1    2  501    0 -0.40872198298E+02 -0.23498087013E+02  0.15032553955E+03  0.23336696624E+03  0.17216177393E+03 0.  0.
         24    2    5    5    0    0 -0.36970390237E+02 -0.60421313267E+02  0.36935867794E+02  0.11396070005E+03  0.81272615167E+02 0.  0.
          5    1    5    5  501    0 -0.39018080614E+01  0.36923226254E+02  0.11338967176E+03  0.11940626619E+03  0.47000000000E+01 0. -1.
        -13    1    6    6    0    0 -0.26988558518E+02  0.13459998845E+02 -0.12760376420E+01  0.30185793544E+02  0.00000000000E+00 0.  1.
         14    1    6    6    0    0 -0.99818317184E+01 -0.73881312112E+02  0.38211905436E+02  0.83774906511E+02  0.00000000000E+00 0. -1.
         -5    1    3    3    0  503  0.51221063604E+02  0.69961444073E+02  0.91281897486E+02  0.12598680813E+03  0.47000000000E+01 0.  1.
         13    1    4    4    0    0 -0.41870431699E+02 -0.26172736945E+02  0.38019132028E+02  0.62318533440E+02  0.00000000000E+00 0. -1.
        -14    1    4    4    0    0  0.31521566394E+02 -0.20290620115E+02  0.70401449153E+02  0.79760155814E+02  0.00000000000E+00 0.  1.
</event>
<event>
12    1  0.1040325E-001  0.2603212E+03  0.7818608E-02  0.1107144E+00
         21   -1    0    0  503  502  0.00000000000E+00  0.00000000000E+00  0.86096191488E+02  0.86096191488E+02  0.00000000000E+00 0. -1.
         21   -1    0    0  501  503 -0.00000000000E+00 -0.00000000000E+00 -0.83171044930E+03  0.83171044930E+03  0.00000000000E+00 0.  1.
          6    2    1    2  501    0 -0.15448071584E+02 -0.19349445139E+03 -0.48449219294E+03  0.54999981481E+03  0.17345998279E+03 0.  0.
         24    2    3    3    0    0  0.41195385381E+02 -0.17660100916E+03 -0.34080059656E+03  0.39455453672E+03  0.81506193746E+02 0.  0.
         -6    2    1    2    0  502  0.15448071584E+02  0.19349445139E+03 -0.26112206487E+03  0.36780682598E+03  0.17151787908E+03 0.  0.
        -24    2    5    5    0    0  0.70339061668E+01  0.13071913265E+03 -0.26308753596E+03  0.30426556459E+03  0.78901931154E+02 0.  0.
          5    1    3    3  501    0 -0.56643456966E+02 -0.16893442231E+02 -0.14369159639E+03  0.15544527809E+03  0.47000000000E+01 0. -1.
        -11    1    4    4    0    0  0.72142588354E+01 -0.16106656888E+03 -0.28378767181E+03  0.32638922748E+03  0.00000000000E+00 0.  1.
         12    1    4    4    0    0  0.33981126546E+02 -0.15534440286E+02 -0.57012924746E+02  0.68165309245E+02  0.00000000000E+00 0. -1.
         -5    1    5    5    0  502  0.84141654174E+01  0.62775318742E+02  0.19654710921E+01  0.63541261394E+02  0.47000000000E+01 0.  1.
         13    1    6    6    0    0  0.38670546533E+01  0.11402605985E+03 -0.14278374373E+03  0.18276786892E+03  0.00000000000E+00 0. -1.
        -14    1    6    6    0    0  0.31668515135E+01  0.16693072804E+02 -0.12030379223E+03  0.12149769567E+03  0.00000000000E+00 0.  1.
</event>
<event>
12    1  0.1040325E-001  0.3086932E+03  0.7818608E-02  0.1081039E+00
         21   -1    0    0  501  502  0.00000000000E+00  0.00000000000E+00  0.21460736644E+03  0.21460736644E+03  0.00000000000E+00 0.  1.
         21   -1    0    0  502  503 -0.00000000000E+00 -0.00000000000E+00 -0.52887445885E+03  0.52887445885E+03  0.00000000000E+00 0. -1.
         -6    2    1    2    0  503  0.24038285135E+03  0.88638070710E+02 -0.76715160380E+01  0.30878849509E+03  0.17219425003E+03 0.  0.
        -24    2    3    3    0    0  0.78236102133E+02  0.80891220812E+01 -0.52350724879E+02  0.12224621273E+03  0.77570719727E+02 0.  0.
          6    2    1    2  501    0 -0.24038285135E+03 -0.88638070710E+02 -0.30659557638E+03  0.43469333020E+03  0.17122155550E+03 0.  0.
         24    2    5    5    0    0 -0.25595357772E+03 -0.10186566509E+03 -0.28128210059E+03  0.40182573478E+03  0.80345835895E+02 0.  0.
          5    1    5    5  501    0  0.15570726370E+02  0.13227594380E+02 -0.25313475785E+02  0.32867595426E+02  0.47000000000E+01 0. -1.
        -13    1    6    6    0    0 -0.15989826397E+03 -0.80241931761E+02 -0.12929507000E+03  0.22073386138E+03  0.00000000000E+00 0.  1.
         14    1    6    6    0    0 -0.96055313742E+02 -0.21623733328E+02 -0.15198703059E+03  0.18109187339E+03  0.00000000000E+00 0. -1.
         -5    1    3    3    0  503  0.16214674921E+03  0.80548948628E+02  0.44679208841E+02  0.18654228236E+03  0.47000000000E+01 0.  1.
         11    1    4    4    0    0  0.71668773859E+02  0.33171084520E+02 -0.54919297157E+02  0.96191804199E+02  0.00000000000E+00 0. -1.
        -12    1    4    4    0    0  0.65673282737E+01 -0.25081962439E+02  0.25685722788E+01  0.26054408533E+02  0.00000000000E+00 0.  1.
</event>
<event>
12    1  0.1040325E-001  0.3097967E+03  0.7818608E-02  0.1080446E+00
         21   -1    0    0  503  502  0.00000000000E+00  0.00000000000E+00  0.42527070637E+03  0.42527070637E+03  0.00000000000E+00 0. -1.
         21   -1    0    0  501  503 -0.00000000000E+00 -0.00000000000E+00 -0.37227995922E+03  0.37227995922E+03  0.00000000000E+00 0. -1.
          6    2    1    2  501    0  0.21416614532E+03  0.14342919065E+03 -0.22376142289E+03  0.38214028695E+03  0.17182244906E+03 0.  0.
         24    2    3    3    0    0  0.15423007392E+03  0.24775860113E+02 -0.14429319660E+03  0.22719437867E+03  0.79974997147E+02 0.  0.
         -6    2    1    2    0  502 -0.21416614532E+03 -0.14342919065E+03  0.27675217004E+03  0.41541037864E+03  0.17185734935E+03 0.  0.
        -24    2    5    5    0    0 -0.10808490663E+03 -0.10626808201E+02  0.87412315189E+02  0.16092782006E+03  0.80383918344E+02 0.  0.
          5    1    3    3  501    0  0.59936071399E+02  0.11865333053E+03 -0.79468226289E+02  0.15494590827E+03  0.47000000000E+01 0. -1.
        -11    1    4    4    0    0  0.85923426362E+02 -0.25672535302E+02 -0.62628935958E+02  0.10938143300E+03  0.00000000000E+00 0.  1.
         12    1    4    4    0    0  0.68306647558E+02  0.50448395415E+02 -0.81664260644E+02  0.11781294567E+03  0.00000000000E+00 0. -1.
         -5    1    5    5    0  502 -0.10608123869E+03 -0.13280238245E+03  0.18933985486E+03  0.25448255858E+03  0.47000000000E+01 0.  1.
         13    1    6    6    0    0 -0.73539765230E+02 -0.35401899043E+02  0.85752666530E+02  0.11838459082E+03  0.00000000000E+00 0. -1.
        -14    1    6    6    0    0 -0.34545141397E+02  0.24775090843E+02  0.16596486583E+01  0.42543229239E+02  0.00000000000E+00 0.  1.
</event>
<event>
12    1  0.1040325E-001  0.2163433E+03  0.7818608E-02  0.1136915E+00
         21   -1    0    0  503  502  0.00000000000E+00  0.00000000000E+00  0.10238756849E+03  0.10238756849E+03  0.00000000000E+00 0. -1.
         21   -1    0    0  501  503 -0.00000000000E+00 -0.00000000000E+00 -0.45408583830E+03  0.45408583830E+03  0.00000000000E+00 0. -1.
          6    2    1    2  501    0  0.11833256840E+03  0.54448906572E+02 -0.17555124126E+03  0.27860842111E+03  0.17273428679E+03 0.  0.
         24    2    3    3    0    0  0.65240570596E+01 -0.13914063043E+02 -0.90238115819E+02  0.12216335664E+03  0.80899960996E+02 0.  0.
         -6    2    1    2    0  502 -0.11833256840E+03 -0.54448906572E+02 -0.17614702856E+03  0.27786498569E+03  0.17092072557E+03 0.  0.
        -24    2    5    5    0    0 -0.14430440055E+02 -0.21560506945E+02 -0.12804803328E+03  0.15864710762E+03  0.89997293672E+02 0.  0.
          5    1    3    3  501    0  0.11180851134E+03  0.68362969615E+02 -0.85313125439E+02  0.15644506446E+03  0.47000000000E+01 0. -1.
        -11    1    4    4    0    0 -0.44500647117E+01 -0.15224183275E+02  0.11648486765E+02  0.19679077119E+02  0.00000000000E+00 0.  1.
         12    1    4    4    0    0  0.10974121771E+02  0.13101202321E+01 -0.10188660258E+03  0.10248427953E+03  0.00000000000E+00 0. -1.
         -5    1    5    5    0  502 -0.10390212834E+03 -0.32888399628E+02 -0.48098995274E+02  0.11921787807E+03  0.47000000000E+01 0.  1.
         11    1    6    6    0    0 -0.47529006304E+02 -0.62666657096E+01 -0.36963046856E+02  0.60535480276E+02  0.00000000000E+00 0. -1.
        -12    1    6    6    0    0  0.33098566249E+02 -0.15293841235E+02 -0.91084986427E+02  0.98111627343E+02  0.00000000000E+00 0.  1.
</event>
<event>
12    1  0.1040325E-001  0.1876280E+03  0.7818608E-02  0.1162007E+00
         21   -1    0    0  501  502  0.00000000000E+00  0.00000000000E+00  0.32817395213E+02  0.32817395213E+02  0.00000000000E+00 0. -1.
         21   -1    0    0  502  503 -0.00000000000E+00 -0.00000000000E+00 -0.21567395973E+04  0.21567395973E+04  0.00000000000E+00 0. -1.
         -6    2    1    2    0  503 -0.31660717051E+01  0.59058177558E+02 -0.18418070918E+04  0.18507455164E+04  0.17177808509E+03 0.  0.
        -24    2    3    3    0    0  0.34766732287E+02  0.93913337051E+02 -0.11927391980E+04  0.11996195681E+04  0.80198959389E+02 0.  0.
          6    2    1    2  501    0  0.31660717051E+01 -0.59058177558E+02 -0.28211511021E+03  0.33881147609E+03  0.17806287815E+03 0.  0.
         24    2    5    5    0    0  0.54458036371E+02 -0.27330071680E+02 -0.89891396214E+02  0.13729327700E+03  0.84002203859E+02 0.  0.
          5    1    5    5  501    0 -0.51291964666E+02 -0.31728105879E+02 -0.19222371399E+03  0.20151819909E+03  0.47000000000E+01 0. -1.
        -13    1    6    6    0    0  0.24317106219E+02  0.27095650478E+02 -0.13633550308E+02  0.38876337581E+02  0.00000000000E+00 0.  1.
         14    1    6    6    0    0  0.30140930152E+02 -0.54425722158E+02 -0.76257845905E+02  0.98416939421E+02  0.00000000000E+00 0. -1.
         -5    1    3    3    0  503 -0.37932803992E+02 -0.34855159493E+02 -0.64906789380E+03  0.65112594828E+03  0.47000000000E+01 0.  1.
         11    1    4    4    0    0  0.56057415095E+02  0.52824153877E+02 -0.57281607505E+03  0.57797152253E+03  0.00000000000E+00 0. -1.
        -12    1    4    4    0    0 -0.21290682808E+02  0.41089183175E+02 -0.61992312299E+03  0.62164804558E+03  0.00000000000E+00 0.  1.
</event>
<event>
12    1  0.1040325E-001  0.2087813E+03  0.7818608E-02  0.1142848E+00
         21   -1    0    0  501  502  0.00000000000E+00  0.00000000000E+00  0.16123794806E+03  0.16123794806E+03  0.00000000000E+00 0.  1.
         21   -1    0    0  502  503 -0.00000000000E+00 -0.00000000000E+00 -0.53771702286E+03  0.53771702286E+03  0.00000000000E+00 0.  1.
         -6    2    1    2    0  503  0.57796280151E+02  0.10024063401E+03 -0.43595524097E+03  0.48337006046E+03  0.17378448871E+03 0.  0.
        -24    2    3    3    0    0  0.68050386235E+02  0.74298861329E+01 -0.30248683063E+03  0.32041335403E+03  0.80500785459E+02 0.  0.
          6    2    1    2  501    0 -0.57796280151E+02 -0.10024063401E+03  0.59476166165E+02  0.21558491047E+03  0.17190359092E+03 0.  0.
         24    2    5    5    0    0  0.33150053309E+02 -0.57586282221E+02  0.49702723670E+02  0.11454907784E+03  0.78968503589E+02 0.  0.
          5    1    5    5  501    0 -0.90946333460E+02 -0.42654351791E+02  0.97734424941E+01  0.10103583263E+03  0.47000000000E+01 0. -1.
        -13    1    6    6    0    0  0.12213616239E+02 -0.71066876325E+02  0.52916167677E+02  0.89441568266E+02  0.00000000000E+00 0.  1.
         14    1    6    6    0    0  0.20936437070E+02  0.13480594104E+02 -0.32134440061E+01  0.25107509573E+02  0.00000000000E+00 0. -1.
         -5    1    3    3    0  503 -0.10254106084E+02  0.92810747880E+02 -0.13346841033E+03  0.16295670643E+03  0.47000000000E+01 0.  1.
         13    1    4    4    0    0  0.68898357251E+02  0.24235383236E+02 -0.29103444596E+03  0.30005897115E+03  0.00000000000E+00 0. -1.
        -14    1    4    4    0    0 -0.84797101604E+00 -0.16805497103E+02 -0.11452384674E+02  0.20354382880E+02  0.00000000000E+00 0.  1.
</event>
<event>
12    1  0.1040325E-001  0.2076293E+03  0.7818608E-02  0.1144362E+00
         21   -1    0    0  501  502  0.00000000000E+00  0.00000000000E+00  0.17040740802E+04  0.17040740802E+04  0.00000000000E+00 0.  1.
         21   -1    0    0  502  503 -0.00000000000E+00 -0.00000000000E+00 -0.27963096615E+02  0.27963096615E+02  0.00000000000E+00 0.  1.
         -6    2    1    2    0  503  0.10672395763E+03  0.18096735649E+02  0.11392584604E+04  0.11580240721E+04  0.17717905378E+03 0.  0.
        -24    2    3    3    0    0  0.79105164440E+02 -0.45540473659E+02  0.47262696304E+03  0.48777625572E+03  0.78853456949E+02 0.  0.
          6    2    1    2  501    0 -0.10672395763E+03 -0.18096735649E+02  0.53685252322E+03  0.57401310470E+03  0.17193870335E+03 0.  0.
         24    2    5    5    0    0 -0.48700226057E+02  0.44809061391E+02  0.39214032918E+03  0.40582392006E+03  0.80866880255E+02 0.  0.
          5    1    5    5  501    0 -0.58023731576E+02 -0.62905797040E+02  0.14471219403E+03  0.16818918464E+03  0.47000000000E+01 0. -1.
        -13    1    6    6    0    0  0.55881896639E+00 -0.11208956307E+02  0.19046005561E+03  0.19079042367E+03  0.00000000000E+00 0.  1.
         14    1    6    6    0    0 -0.49259045023E+02  0.56018017698E+02  0.20168027357E+03  0.21503349640E+03  0.00000000000E+00 0. -1.
         -5    1    3    3    0  503  0.27618793193E+02  0.63637209308E+02  0.66663149731E+03  0.67024781637E+03  0.47000000000E+01 0.  1.
         11    1    4    4    0    0  0.12187077307E+02 -0.31508679482E+02  0.54688088544E+02  0.64281480728E+02  0.00000000000E+00 0. -1.
        -12    1    4    4    0    0  0.66918087133E+02 -0.14031794177E+02  0.41793887450E+03  0.42349477500E+03  0.00000000000E+00 0.  1.
</event>
<event>
12    1  0.1040325E-001  0.2011323E+03  0.7818608E-02  0.1148924E+00
         21   -1    0    0  503  502  0.00000000000E+00  0.00000000000E+00  0.42623394966E+03  0.42623394966E+03  0.00000000000E+00 0. -1.
         21   -1    0    0  501  503 -0.00000000000E+00 -0.00000000000E+00 -0.10569389585E+03  0.10569389585E+03  0.00000000000E+00 0. -1.
          6    2    1    2  501    0 -0.32622928642E+02  0.98404894858E+02  0.73886550563E+02  0.21366354539E+03  0.17159577345E+03 0.  0.
         24    2    3    3    0    0 -0.56208425206E+02  0.64091243166E+02 -0.13140462579E+02  0.11707424289E+03  0.79162062101E+02 0.  0.
         -6    2    1    2    0  502  0.32622928642E+02 -0.98404894858E+02  0.24665350325E+03  0.31826430013E+03  0.17235554899E+03 0.  0.
        -24    2    5    5    0    0  0.34785013528E+02  0.13364048352E+02  0.96723380961E+02  0.13118650121E+03  0.80410762475E+02 0.  0.
          5    1    3    3  501    0  0.23585496564E+02  0.34313651692E+02  0.87027013142E+02  0.96589302498E+02  0.47000000000E+01 0. -1.
        -13    1    4    4    0    0  0.36047559297E+01 -0.14337375953E+02 -0.10982635665E+02  0.18416647379E+02  0.00000000000E+00 0.  1.
         14    1    4    4    0    0 -0.59813181136E+02  0.78428619119E+02 -0.21578269136E+01  0.98657595508E+02  0.00000000000E+00 0. -1.
         -5    1    5    5    0  502 -0.21620848863E+01 -0.11176894321E+03  0.14993012229E+03  0.18707779891E+03  0.47000000000E+01 0.  1.
         11    1    6    6    0    0  0.28661116372E+02 -0.27312888268E+02  0.74659808055E+02  0.84507635134E+02  0.00000000000E+00 0. -1.
        -12    1    6    6    0    0  0.61238971560E+01  0.40676936619E+02  0.22063572907E+02  0.46678866080E+02  0.00000000000E+00 0.  1.
</event>
<event>
12    1  0.1040325E-001  0.2142365E+03  0.7818608E-02  0.1138386E+00
         21   -1    0    0  501  502  0.00000000000E+00  0.00000000000E+00  0.27599414124E+03  0.27599414124E+03  0.00000000000E+00 0.  1.
         21   -1    0    0  502  503 -0.00000000000E+00 -0.00000000000E+00 -0.32501670412E+03  0.32501670412E+03  0.00000000000E+00 0. -1.
         -6    2    1    2    0  503  0.67612366615E+02  0.10895367407E+03 -0.23483704144E+03  0.31741904833E+03  0.17077494254E+03 0.  0.
        -24    2    3    3    0    0  0.81110375209E+02  0.12052659524E+03 -0.12970993990E+03  0.21069545105E+03  0.80388752042E+02 0.  0.
          6    2    1    2  501    0 -0.67612366615E+02 -0.10895367407E+03  0.18581447855E+03  0.28359179702E+03  0.17162444956E+03 0.  0.
         24    2    5    5    0    0 -0.50149883410E+02 -0.42300358192E+02  0.18711433482E+03  0.21451660275E+03  0.81861269555E+02 0.  0.
          5    1    5    5  501    0 -0.17462483205E+02 -0.66653315880E+02 -0.12998562610E+01  0.69075194273E+02  0.47000000000E+01 0. -1.
        -11    1    6    6    0    0 -0.63956858195E+02 -0.26637715297E+02  0.82006851467E+02  0.10735535047E+03  0.00000000000E+00 0.  1.
         12    1    6    6    0    0  0.13806974785E+02 -0.15662642895E+02  0.10510748335E+03  0.10716125228E+03  0.00000000000E+00 0. -1.
         -5    1    3    3    0  503 -0.13498008594E+02 -0.11572921169E+02 -0.10512710154E+03  0.10672359729E+03  0.47000000000E+01 0.  1.
         13    1    4    4    0    0  0.47096045325E+02  0.11436239584E+03 -0.12493346348E+03  0.17579865006E+03  0.00000000000E+00 0. -1.
        -14    1    4    4    0    0  0.34014329884E+02  0.61641994030E+01 -0.47764764215E+01  0.34896800981E+02  0.00000000000E+00 0.  1.
</event>
<event>
12    1  0.1040325E-001  0.1925018E+03  0.7818608E-02  0.1159796E+00
         21   -1    0    0  501  502  0.00000000000E+00  0.00000000000E+00  0.39256423053E+03  0.39256423053E+03  0.00000000000E+00 0. -1.
         21   -1    0    0  502  503 -0.00000000000E+00 -0.00000000000E+00 -0.11526082689E+03  0.11526082689E+03  0.00000000000E+00 0. -1.
         -6    2    1    2    0  503 -0.43495559976E+02 -0.48568767105E+01  0.86227366200E+01  0.17730088053E+03  0.17159777872E+03 0.  0.
        -24    2    3    3    0    0 -0.87821929214E+02  0.28096250484E+02  0.44183109928E+01  0.12170858973E+03  0.79318149240E+02 0.  0.
          6    2    1    2  501    0  0.43495559976E+02  0.48568767105E+01  0.26868066702E+03  0.33052417689E+03  0.18746060304E+03 0.  0.
         24    2    5    5    0    0  0.26899595634E+02  0.66954088512E+02  0.23387195075E+03  0.25727647062E+03  0.79301038917E+02 0.  0.
          5    1    5    5  501    0  0.16595964341E+02 -0.62097211801E+02  0.34808716270E+02  0.73247706273E+02  0.47000000000E+01 0. -1.
        -13    1    6    6    0    0 -0.27267049411E+02  0.14406763326E+02  0.83875430799E+02  0.89365176131E+02  0.00000000000E+00 0.  1.
         14    1    6    6    0    0  0.54166645046E+02  0.52547325186E+02  0.14999651995E+03  0.16791129449E+03  0.00000000000E+00 0. -1.
         -5    1    3    3    0  503  0.44326369239E+02 -0.32953127195E+02  0.42044256273E+01  0.55592290802E+02  0.47000000000E+01 0.  1.
         13    1    4    4    0    0 -0.66915856433E+02  0.34357105601E+02 -0.29977202867E+02  0.80973917030E+02  0.00000000000E+00 0. -1.
        -14    1    4    4    0    0 -0.20906072781E+02 -0.62608551173E+01  0.34395513860E+02  0.40734672696E+02  0.00000000000E+00 0.  1.
</event>
<event>
12    1  0.1040325E-001  0.1833410E+03  0.7818608E-02  0.1165032E+00
         21   -1    0    0  501  502  0.00000000000E+00  0.00000000000E+00  0.13256133522E+04  0.13256133522E+04  0.00000000000E+00 0.  1.
         21   -1    0    0  502  503 -0.00000000000E+00 -0.00000000000E+00 -0.36946963255E+02  0.36946963255E+02  0.00000000000E+00 0.  1.
         -6    2    1    2    0  503 -0.64017654054E-02 -0.63509919481E+02  0.25659634846E+03  0.31433204560E+03  0.17008656305E+03 0.  0.
        -24    2    3    3    0    0  0.38402590660E+02 -0.70793482712E+02  0.24467578113E+03  0.27319215111E+03  0.91001304363E+02 0.  0.
          6    2    1    2  501    0  0.64017654054E-02  0.63509919481E+02  0.10320700405E+04  0.10482282698E+04  0.17198961411E+03 0.  0.
         24    2    5    5    0    0  0.56563123427E+02  0.11438233844E+02  0.74406261195E+03  0.75009995503E+03  0.75435746962E+02 0.  0.
          5    1    5    5  501    0 -0.56556721661E+02  0.52071685637E+02  0.28800742852E+03  0.29812831481E+03  0.47000000000E+01 0. -1.
        -13    1    6    6    0    0  0.46919509498E+02  0.41765225446E+02  0.52292137138E+03  0.52668067657E+03  0.00000000000E+00 0.  1.
         14    1    6    6    0    0  0.96436139287E+01 -0.30326991601E+02  0.22114124057E+03  0.22341927847E+03  0.00000000000E+00 0. -1.
         -5    1    3    3    0  503 -0.38408992425E+02  0.72835632311E+01  0.11920567339E+02  0.41139894484E+02  0.47000000000E+01 0.  1.
         11    1    4    4    0    0  0.59033594232E+02 -0.24690496599E+02  0.18061112252E+03  0.19161149091E+03  0.00000000000E+00 0. -1.
        -12    1    4    4    0    0 -0.20631003572E+02 -0.46102986113E+02  0.64064658606E+02  0.81580660204E+02  0.00000000000E+00 0.  1.
</event>
<event>
12    1  0.1040325E-001  0.1829020E+03  0.7818608E-02  0.1168437E+00
         21   -1    0    0  503  502  0.00000000000E+00  0.00000000000E+00  0.14066837551E+03  0.14066837551E+03  0.00000000000E+00 0.  1.
         21   -1    0    0  501  503 -0.00000000000E+00 -0.00000000000E+00 -0.23937996521E+03  0.23937996521E+03  0.00000000000E+00 0. -1.
          6    2    1    2  501    0 -0.15710475947E+02  0.35945885886E+02 -0.10133344592E+03  0.19712754145E+03  0.16447454079E+03 0.  0.
         24    2    3    3    0    0 -0.39241480215E+02  0.10559080813E+02  0.21067223703E+01  0.87948072456E+02  0.77968180770E+02 0.  0.
         -6    2    1    2    0  502  0.15710475947E+02 -0.35945885886E+02  0.26218562277E+01  0.18292079927E+03  0.17864551186E+03 0.  0.
        -24    2    5    5    0    0 -0.23002475576E+02 -0.16830330582E+02 -0.63973699321E+02  0.10341510709E+03  0.76089922192E+02 0.  0.
          5    1    3    3  501    0  0.23531004268E+02  0.25386805073E+02 -0.10344016829E+03  0.10917946899E+03  0.47000000000E+01 0. -1.
        -13    1    4    4    0    0 -0.43841165371E+02  0.39223417171E+02  0.30076364244E+01  0.58903056903E+02  0.00000000000E+00 0.  1.
         14    1    4    4    0    0  0.45996851558E+01 -0.28664336358E+02 -0.90091405406E+00  0.29045015554E+02  0.00000000000E+00 0. -1.
         -5    1    5    5    0  502  0.38712951523E+02 -0.19115555304E+02  0.66595555549E+02  0.79505692180E+02  0.47000000000E+01 0.  1.
         11    1    6    6    0    0  0.17053288201E+02 -0.27574440837E+01 -0.58028081261E+02  0.60544829269E+02  0.00000000000E+00 0. -1.
        -12    1    6    6    0    0 -0.40055763778E+02 -0.14072886498E+02 -0.59456180601E+01  0.42870277820E+02  0.00000000000E+00 0.  1.
</event>
<event>
12    1  0.1040325E-001  0.2170858E+03  0.7818608E-02  0.1136280E+00
         21   -1    0    0  503  502  0.00000000000E+00  0.00000000000E+00  0.83919749880E+03  0.83919749880E+03  0.00000000000E+00 0.  1.
         21   -1    0    0  501  503 -0.00000000000E+00 -0.00000000000E+00 -0.23687145897E+03  0.23687145897E+03  0.00000000000E+00 0.  1.
          6    2    1    2  501    0 -0.11253568044E+03 -0.68132399278E+02 -0.16897130217E+03  0.27509555307E+03  0.17268456550E+03 0.  0.
         24    2    3    3    0    0 -0.79568862397E+02 -0.97918603425E+02 -0.17529449894E+03  0.22997236761E+03  0.78992858818E+02 0.  0.
         -6    2    1    2    0  502  0.11253568044E+03  0.68132399278E+02  0.77129734200E+03  0.80097340470E+03  0.17132571918E+03 0.  0.
        -24    2    5    5    0    0  0.67315291694E+02  0.10222490537E+03  0.40973620058E+03  0.43497377148E+03  0.79606206023E+02 0.  0.
          5    1    3    3  501    0 -0.32966818041E+02  0.29786204147E+02  0.63231967702E+01  0.45123185466E+02  0.47000000000E+01 0. -1.
        -11    1    4    4    0    0 -0.31849177663E+02  0.20330646878E+01 -0.70979027881E+02  0.77823684497E+02  0.00000000000E+00 0.  1.
         12    1    4    4    0    0 -0.47719684734E+02 -0.99951668112E+02 -0.10431547106E+03  0.15214868311E+03  0.00000000000E+00 0. -1.
         -5    1    5    5    0  502  0.45220388744E+02 -0.34092506088E+02  0.36156114142E+03  0.36599963322E+03  0.47000000000E+01 0.  1.
         13    1    6    6    0    0 -0.86044622252E+01  0.50083583514E+02  0.19086168817E+03  0.19751097721E+03  0.00000000000E+00 0. -1.
        -14    1    6    6    0    0  0.75919753919E+02  0.52141321852E+02  0.21887451241E+03  0.23746279427E+03  0.00000000000E+00 0.  1.
</event>
<event>
12    1  0.1040325E-001  0.1769446E+03  0.7818608E-02  0.1170873E+00
         21   -1    0    0  501  502  0.00000000000E+00  0.00000000000E+00  0.66438313289E+03  0.66438313289E+03  0.00000000000E+00 0. -1.
         21   -1    0    0  502  503 -0.00000000000E+00 -0.00000000000E+00 -0.19042882673E+03  0.19042882673E+03  0.00000000000E+00 0. -1.
         -6    2    1    2    0  503  0.31457777125E+02  0.25904769637E+02 -0.13384841768E+03  0.22186661901E+03  0.17218812063E+03 0.  0.
        -24    2    3    3    0    0  0.41932696348E+01  0.81729321389E+02 -0.81181580663E+02  0.14028463774E+03  0.79950391255E+02 0.  0.
          6    2    1    2  501    0 -0.31457777125E+02 -0.25904769637E+02  0.60780272384E+03  0.63294534060E+03  0.17185751145E+03 0.  0.
         24    2    5    5    0    0 -0.36835743548E+02  0.35234605133E+01  0.13871622914E+03  0.16288239506E+03  0.76936308838E+02 0.  0.
          5    1    5    5  501    0  0.53779664228E+01 -0.29428230150E+02  0.46908649470E+03  0.47006294554E+03  0.47000000000E+01 0. -1.
        -11    1    6    6    0    0 -0.31761282326E+02  0.33359703697E+02  0.11668718276E+03  0.12544938225E+03  0.00000000000E+00 0.  1.
         12    1    6    6    0    0 -0.50744612211E+01 -0.29836243184E+02  0.22029046382E+02  0.37433012817E+02  0.00000000000E+00 0. -1.
         -5    1    3    3    0  503  0.27264507490E+02 -0.55824551752E+02 -0.52666837019E+02  0.81581981274E+02  0.47000000000E+01 0.  1.
         13    1    4    4    0    0  0.23703938090E+02  0.76195496658E+02 -0.88090862321E+02  0.11885970897E+03  0.00000000000E+00 0. -1.
        -14    1    4    4    0    0 -0.19510668456E+02  0.55338247307E+01  0.69092816581E+01  0.21424928769E+02  0.00000000000E+00 0.  1.
</event>
<event>
12    1  0.1040325E-001  0.1944779E+03  0.7818608E-02  0.1154877E+00
         21   -1    0    0  501  502  0.00000000000E+00  0.00000000000E+00  0.26478713888E+03  0.26478713888E+03  0.00000000000E+00 0.  1.
         21   -1    0    0  502  503 -0.00000000000E+00 -0.00000000000E+00 -0.34438858893E+03  0.34438858893E+03  0.00000000000E+00 0. -1.
         -6    2    1    2    0  503  0.57678879073E+01  0.83372520561E+02 -0.27349337960E+03  0.33455648055E+03  0.17362362823E+03 0.  0.
        -24    2    3    3    0    0  0.38802738281E+02  0.32464032684E+02 -0.56302687471E+02  0.10899748112E+03  0.78427624966E+02 0.  0.
          6    2    1    2  501    0 -0.57678879073E+01 -0.83372520561E+02  0.19389192955E+03  0.27461924726E+03  0.17560582253E+03 0.  0.
         24    2    5    5    0    0  0.37429356420E+01 -0.22948322938E+02  0.11897556415E+02  0.82563054246E+02  0.78322863742E+02 0.  0.
          5    1    5    5  501    0 -0.95108235493E+01 -0.60424197623E+02  0.18199437314E+03  0.19205619302E+03  0.47000000000E+01 0. -1.
        -11    1    6    6    0    0  0.12027303700E+01 -0.43692675997E+02  0.31525351274E+02  0.53891968502E+02  0.00000000000E+00 0.  1.
         12    1    6    6    0    0  0.25402052720E+01  0.20744353059E+02 -0.19627794860E+02  0.28671085743E+02  0.00000000000E+00 0. -1.
         -5    1    3    3    0  503 -0.33034850374E+02  0.50908487877E+02 -0.21719069213E+03  0.22555899943E+03  0.47000000000E+01 0.  1.
         13    1    4    4    0    0  0.19311664547E+01 -0.24299402777E+02 -0.23189726443E+02  0.33644520976E+02  0.00000000000E+00 0. -1.
        -14    1    4    4    0    0  0.36871571826E+02  0.56763435462E+02 -0.33112961028E+02  0.75352960144E+02  0.00000000000E+00 0.  1.
</event>
<event>
12    1  0.1040325E-001  0.1770347E+03  0.7818608E-02  0.1171762E+00
         21   -1    0    0  501  502  0.00000000000E+00  0.00000000000E+00  0.27459631287E+03  0.27459631287E+03  0.00000000000E+00 0.  1.
         21   -1    0    0  502  503 -0.00000000000E+00 -0.00000000000E+00 -0.22289669470E+03  0.22289669470E+03  0.00000000000E+00 0.  1.
         -6    2    1    2    0  503 -0.44094787541E+02  0.10327403807E+02 -0.14989291203E+03  0.23196807087E+03  0.17114407752E+03 0.  0.
        -24    2    3    3    0    0  0.23577308258E+01  0.40002063516E+02 -0.20917908394E+02  0.91628969216E+02  0.79703106136E+02 0.  0.
          6    2    1    2  501    0  0.44094787541E+02 -0.10327403807E+02  0.20159253019E+03  0.26552493669E+03  0.16677211463E+03 0.  0.
         24    2    5    5    0    0  0.82829983279E+02 -0.48465540881E+02  0.15154491788E+03  0.19148584981E+03  0.67016816990E+02 0.  0.
          5    1    5    5  501    0 -0.38735195738E+02  0.38138137075E+02  0.50047612309E+02  0.74039086881E+02  0.47000000000E+01 0. -1.
        -11    1    6    6    0    0  0.41326845141E+02  0.10742949402E+02  0.74180688445E+02  0.85592602656E+02  0.00000000000E+00 0.  1.
         12    1    6    6    0    0  0.41503138138E+02 -0.59208490284E+02  0.77364229438E+02  0.10589324716E+03  0.00000000000E+00 0. -1.
         -5    1    3    3    0  503 -0.46452518366E+02 -0.29674659710E+02 -0.12897500364E+03  0.14033910166E+03  0.47000000000E+01 0.  1.
         11    1    4    4    0    0  0.30245781217E+02 -0.27383735966E+01  0.99835257807E+01  0.31968371219E+02  0.00000000000E+00 0. -1.
        -12    1    4    4    0    0 -0.27888050392E+02  0.42740437113E+02 -0.30901434175E+02  0.59660597997E+02  0.00000000000E+00 0.  1.
</event>
<event>
12    1  0.1040325E-001  0.2284331E+03  0.7818608E-02  0.1128274E+00
         21   -1    0    0  503  502  0.00000000000E+00  0.00000000000E+00  0.72272872805E+02  0.72272872805E+02  0.00000000000E+00 0.  1.
         21   -1    0    0  501  503 -0.00000000000E+00 -0.00000000000E+00 -0.73322515894E+03  0.73322515894E+03  0.00000000000E+00 0. -1.
          6    2    1    2  501    0  0.12018473559E+03 -0.82486732199E+02 -0.39571279254E+03  0.45544995783E+03  0.17203958339E+03 0.  0.
         24    2    3    3    0    0  0.84402516080E+02 -0.60408057806E+01 -0.11990339648E+03  0.16697593845E+03  0.79648374004E+02 0.  0.
         -6    2    1    2    0  502 -0.12018473559E+03  0.82486732199E+02 -0.26523949359E+03  0.35004807391E+03  0.17587846209E+03 0.  0.
        -24    2    5    5    0    0 -0.12342690178E+03  0.11827884819E+02 -0.12596067712E+03  0.19376671523E+03  0.79406226497E+02 0.  0.
          5    1    3    3  501    0  0.35782219513E+02 -0.76445926419E+02 -0.27580939606E+03  0.28847401938E+03  0.47000000000E+01 0. -1.
        -13    1    4    4    0    0  0.59514687897E+02  0.30796897112E+02 -0.94264272832E+02  0.11565552334E+03  0.00000000000E+00 0.  1.
         14    1    4    4    0    0  0.24887828183E+02 -0.36837702893E+02 -0.25639123643E+02  0.51320415112E+02  0.00000000000E+00 0. -1.
         -5    1    5    5    0  502  0.32421661842E+01  0.70658847380E+02 -0.13927881647E+03  0.15628135868E+03  0.47000000000E+01 0.  1.
         11    1    6    6    0    0 -0.30497352542E+02  0.17686171070E+02 -0.85039276774E+02  0.92057415527E+02  0.00000000000E+00 0. -1.
        -12    1    6    6    0    0 -0.92929549234E+02 -0.58582862503E+01 -0.40921400349E+02  0.10170929970E+03  0.00000000000E+00 0.  1.
</event>
<event>
12    1  0.1040325E-001  0.2157262E+03  0.7818608E-02  0.1137137E+00
         21   -1    0    0  501  502  0.00000000000E+00  0.00000000000E+00  0.27151714284E+03  0.27151714284E+03  0.00000000000E+00 0. -1.
         21   -1    0    0  502  503 -0.00000000000E+00 -0.00000000000E+00 -0.17155358166E+03  0.17155358166E+03  0.00000000000E+00 0. -1.
         -6    2    1    2    0  503  0.15749206330E+02 -0.12910151740E+03  0.41264595479E+02  0.21950110865E+03  0.17193815912E+03 0.  0.
        -24    2    3    3    0    0 -0.23397740028E+02 -0.11595395749E+03  0.78930526535E+02  0.16341052028E+03  0.80499662256E+02 0.  0.
          6    2    1    2  501    0 -0.15749206330E+02  0.12910151740E+03  0.58698965703E+02  0.22356961585E+03  0.17211207180E+03 0.  0.
         24    2    5    5    0    0 -0.64200590345E+02  0.49853538759E+02  0.62135072100E+02  0.13050149263E+03  0.81010994725E+02 0.  0.
          5    1    5    5  501    0  0.48451384015E+02  0.79247978641E+02 -0.34361063979E+01  0.93068123215E+02  0.47000000000E+01 0. -1.
        -13    1    6    6    0    0 -0.11345333501E+02  0.78511789714E+01 -0.19927103647E+02  0.24237307261E+02  0.00000000000E+00 0.  1.
         14    1    6    6    0    0 -0.52855256844E+02  0.42002359788E+02  0.82062175748E+02  0.10626418537E+03  0.00000000000E+00 0. -1.
         -5    1    3    3    0  503  0.39146946358E+02 -0.13147559906E+02 -0.37665931056E+02  0.56090588363E+02  0.47000000000E+01 0.  1.
         13    1    4    4    0    0 -0.83399296084E+01  0.73992158729E+01  0.26093083523E+02  0.28375197429E+02  0.00000000000E+00 0. -1.
        -14    1    4    4    0    0 -0.15057810420E+02 -0.12335317337E+03  0.52837443012E+02  0.13503532285E+03  0.00000000000E+00 0.  1.
</event>
<event>
12    1  0.1040325E-001  0.2542345E+03  0.7818608E-02  0.1110777E+00
         21   -1    0    0  503  502  0.00000000000E+00  0.00000000000E+00  0.26520034638E+03  0.26520034638E+03  0.00000000000E+00 0. -1.
         21   -1    0    0  501  503 -0.00000000000E+00 -0.00000000000E+00 -0.37268033263E+03  0.37268033263E+03  0.00000000000E+00 0.  1.
          6    2    1    2  501    0 -0.11434450532E+03 -0.14750955667E+03  0.13446475181E+03  0.28692133580E+03  0.17149153989E+03 0.  0.
         24    2    3    3    0    0 -0.78230806751E+02 -0.93777763456E+02  0.15993023056E+03  0.21719411419E+03  0.81739076015E+02 0.  0.
         -6    2    1    2    0  502  0.11434450532E+03  0.14750955667E+03 -0.24194473806E+03  0.35095934321E+03  0.17263102011E+03 0.  0.
        -24    2    5    5    0    0  0.14918187253E+03  0.10796204370E+03 -0.18014015520E+03  0.26959876062E+03  0.79510893848E+02 0.  0.
          5    1    3    3  501    0 -0.36113698564E+02 -0.53731793219E+02 -0.25465478746E+02  0.69727221616E+02  0.47000000000E+01 0. -1.
        -13    1    4    4    0    0  0.72991080171E+01  0.10042309393E+02  0.14670796124E+02  0.19218668390E+02  0.00000000000E+00 0.  1.
         14    1    4    4    0    0 -0.85529914768E+02 -0.10382007285E+03  0.14525943444E+03  0.19797544580E+03  0.00000000000E+00 0. -1.
         -5    1    5    5    0  502 -0.34837367216E+02  0.39547512970E+02 -0.61804582858E+02  0.81360582587E+02  0.47000000000E+01 0.  1.
         11    1    6    6    0    0  0.25168311252E+02  0.49094595054E+02 -0.20024114172E+02  0.58691467039E+02  0.00000000000E+00 0. -1.
        -12    1    6    6    0    0  0.12401356128E+03  0.58867448650E+02 -0.16011604103E+03  0.21090729359E+03  0.00000000000E+00 0.  1.
</event>
<event>
12    1  0.1040325E-001  0.2719675E+03  0.7818608E-02  0.1100541E+00
         21   -1    0    0  503  502  0.00000000000E+00  0.00000000000E+00  0.52031569186E+03  0.52031569186E+03  0.00000000000E+00 0.  1.
         21   -1    0    0  501  503 -0.00000000000E+00 -0.00000000000E+00 -0.25826877701E+03  0.25826877701E+03  0.00000000000E+00 0. -1.
          6    2    1    2  501    0 -0.85622734218E+02  0.19208893733E+03  0.39396513512E+03  0.47872210286E+03  0.17244393761E+03 0.  0.
         24    2    3    3    0    0 -0.90187798385E+02  0.20856358660E+03  0.30779352374E+03  0.39074545547E+03  0.79451551779E+02 0.  0.
         -6    2    1    2    0  502  0.85622734218E+02 -0.19208893733E+03 -0.13191822027E+03  0.29986236601E+03  0.16818326091E+03 0.  0.
        -24    2    5    5    0    0  0.92659434670E+02 -0.21316748880E+03 -0.12639214619E+03  0.27648613919E+03  0.80271174362E+02 0.  0.
          5    1    3    3  501    0  0.45650641675E+01 -0.16474649266E+02  0.86171611378E+02  0.87976647394E+02  0.47000000000E+01 0. -1.
        -11    1    4    4    0    0 -0.66090026394E+02  0.13847295078E+03  0.26199923278E+03  0.30362188272E+03  0.00000000000E+00 0.  1.
         12    1    4    4    0    0 -0.24097771991E+02  0.70090635820E+02  0.45794290960E+02  0.87123572752E+02  0.00000000000E+00 0. -1.
         -5    1    5    5    0  502 -0.70367004522E+01  0.21078551472E+02 -0.55260740886E+01  0.23376226818E+02  0.47000000000E+01 0.  1.
         13    1    6    6    0    0  0.15868487316E+02 -0.85884619214E+02 -0.85704545189E+02  0.12236521472E+03  0.00000000000E+00 0. -1.
        -14    1    6    6    0    0  0.76790947354E+02 -0.12728286959E+03 -0.40687600997E+02  0.15412092447E+03  0.00000000000E+00 0.  1.
</event>
<event>
12    1  0.1040325E-001  0.2149964E+03  0.7818608E-02  0.1138099E+00
         21   -1    0    0  503  502  0.00000000000E+00  0.00000000000E+00  0.31736493758E+02  0.31736493758E+02  0.00000000000E+00 0. -1.
         21   -1    0    0  501  503 -0.00000000000E+00 -0.00000000000E+00 -0.19052539898E+04  0.19052539898E+04  0.00000000000E+00 0. -1.
          6    2    1    2  501    0  0.11770556401E+03  0.40005501488E+02 -0.14182970503E+04  0.14344999079E+04  0.17540930069E+03 0.  0.
         24    2    3    3    0    0  0.37519052841E+01  0.52237805899E+02 -0.75213050496E+03  0.75853021788E+03  0.83216163105E+02 0.  0.
         -6    2    1    2    0  502 -0.11770556401E+03 -0.40005501488E+02 -0.45522044568E+03  0.50249057565E+03  0.17267334625E+03 0.  0.
        -24    2    5    5    0    0 -0.62790410485E+02  0.44747159799E+02 -0.24861522162E+03  0.27247645371E+03  0.80553990892E+02 0.  0.
          5    1    3    3  501    0  0.11395365872E+03 -0.12232304410E+02 -0.66616654538E+03  0.67596969000E+03  0.47000000000E+01 0. -1.
        -11    1    4    4    0    0 -0.15210393118E+02  0.26152625199E+02 -0.66392911318E+03  0.66461807317E+03  0.00000000000E+00 0.  1.
         12    1    4    4    0    0  0.18962298402E+02  0.26085180700E+02 -0.88201391777E+02  0.93912144711E+02  0.00000000000E+00 0. -1.
         -5    1    5    5    0  502 -0.54915153522E+02 -0.84752661287E+02 -0.20660522406E+03  0.23001412194E+03  0.47000000000E+01 0.  1.
         11    1    6    6    0    0 -0.10753896032E+02 -0.88384992610E+01 -0.11308255748E+01  0.13965819544E+02  0.00000000000E+00 0. -1.
        -12    1    6    6    0    0 -0.52036514453E+02  0.53585659060E+02 -0.24748439604E+03  0.25851063417E+03  0.00000000000E+00 0.  1.
</event>
<event>
12    1  0.1040325E-001  0.1774127E+03  0.7818608E-02  0.1170794E+00
         21   -1    0    0  503  502  0.00000000000E+00  0.00000000000E+00  0.10540095740E+03  0.10540095740E+03  0.00000000000E+00 0. -1.
         21   -1    0    0  501  503 -0.00000000000E+00 -0.00000000000E+00 -0.32501205720E+03  0.32501205720E+03  0.00000000000E+00 0. -1.
          6    2    1    2  501    0  0.48344322261E+00 -0.42934524180E+02 -0.17413829886E+03  0.24726544663E+03  0.17021294570E+03 0.  0.
         24    2    3    3    0    0 -0.36718318738E+02 -0.58776643787E+02 -0.50447023742E+02  0.11704806920E+03  0.79702067176E+02 0.  0.
         -6    2    1    2    0  502 -0.48344322261E+00  0.42934524180E+02 -0.45472800939E+02  0.18314756796E+03  0.17213845863E+03 0.  0.
        -24    2    5    5    0    0 -0.10602918148E+02 -0.16244887892E+02  0.39572377490E+02  0.78939223953E+02  0.65491295317E+02 0.  0.
          5    1    3    3  501    0  0.37201761961E+02  0.15842119606E+02 -0.12369127512E+03  0.13021737744E+03  0.47000000000E+01 0. -1.
        -13    1    4    4    0    0 -0.32175221658E+02 -0.78713797997E+02 -0.38290143640E+02  0.93259004840E+02  0.00000000000E+00 0.  1.
         14    1    4    4    0    0 -0.45430970796E+01  0.19937154210E+02 -0.12156880102E+02  0.23789064355E+02  0.00000000000E+00 0. -1.
         -5    1    5    5    0  502  0.10119474925E+02  0.59179412073E+02 -0.85045178429E+02  0.10420834400E+03  0.47000000000E+01 0.  1.
         13    1    6    6    0    0 -0.34838850724E+02  0.23425471746E+01  0.97541429813E+01  0.36254328739E+02  0.00000000000E+00 0. -1.
        -14    1    6    6    0    0  0.24235932577E+02 -0.18587435067E+02  0.29818234508E+02  0.42684895214E+02  0.00000000000E+00 0.  1.
</event>
<event>
12    1  0.1040325E-001  0.1826163E+03  0.7818608E-02  0.1166317E+00
         21   -1    0    0  501  502  0.00000000000E+00  0.00000000000E+00  0.41907383319E+03  0.41907383319E+03  0.00000000000E+00 0.  1.
         21   -1    0    0  502  503 -0.00000000000E+00 -0.00000000000E+00 -0.80237256720E+02  0.80237256720E+02  0.00000000000E+00 0.  1.
         -6    2    1    2    0  503 -0.14385814694E+02  0.52466582176E+02  0.21156362474E+03  0.27671930272E+03  0.16986674565E+03 0.  0.
        -24    2    3    3    0    0 -0.10469016250E+02  0.35448030941E+02  0.29044071782E+02  0.93305972762E+02  0.80599523872E+02 0.  0.
          6    2    1    2  501    0  0.14385814694E+02 -0.52466582176E+02  0.12727295173E+03  0.22259178719E+03  0.17432442621E+03 0.  0.
         24    2    5    5    0    0 -0.38679886896E+02 -0.14863315728E+02  0.83136991896E+01  0.86932773119E+02  0.75968004076E+02 0.  0.
          5    1    5    5  501    0  0.53065701590E+02 -0.37603266448E+02  0.11895925254E+03  0.13565901407E+03  0.47000000000E+01 0. -1.
        -11    1    6    6    0    0 -0.46479856672E+02  0.19059032408E+02 -0.30203802241E+01  0.50326399526E+02  0.00000000000E+00 0.  1.
         12    1    6    6    0    0  0.77999697754E+01 -0.33922348135E+02  0.11334079414E+02  0.36606373593E+02  0.00000000000E+00 0. -1.
         -5    1    3    3    0  503 -0.39167984440E+01  0.17018551234E+02  0.18251955295E+03  0.18341332996E+03  0.47000000000E+01 0.  1.
         13    1    4    4    0    0 -0.17843339635E+02  0.84484077302E+01  0.52941744179E+02  0.56502996728E+02  0.00000000000E+00 0. -1.
        -14    1    4    4    0    0  0.73743233853E+01  0.26999623211E+02 -0.23897672397E+02  0.36802976033E+02  0.00000000000E+00 0.  1.
</event>
<event>
12    1  0.1040325E-001  0.3680836E+03  0.7818608E-02  0.1055459E+00
         21   -1    0    0  501  502  0.00000000000E+00  0.00000000000E+00  0.10895615688E+04  0.10895615688E+04  0.00000000000E+00 0. -1.
         21   -1    0    0  502  503 -0.00000000000E+00 -0.00000000000E+00 -0.19829766901E+03  0.19829766901E+03  0.00000000000E+00 0.  1.
         -6    2    1    2    0  503 -0.29948031791E+03  0.12699109240E+03  0.51996726220E+02  0.37142323136E+03  0.17157027391E+03 0.  0.
        -24    2    3    3    0    0 -0.61951274676E+02  0.33317018323E+02 -0.16453006326E+02  0.10703273528E+03  0.78976710868E+02 0.  0.
          6    2    1    2  501    0  0.29948031791E+03 -0.12699109240E+03  0.83926717361E+03  0.91643600649E+03  0.17225088372E+03 0.  0.
         24    2    5    5    0    0  0.21176049140E+03 -0.15309025211E+03  0.60308455833E+03  0.66309779015E+03  0.87798427097E+02 0.  0.
          5    1    5    5  501    0  0.87719826510E+02  0.26099159710E+02  0.23618261528E+03  0.25333821634E+03  0.47000000000E+01 0. -1.
        -13    1    6    6    0    0  0.29307502075E+02 -0.65476419210E+02  0.12874941304E+03  0.14738555732E+03  0.00000000000E+00 0.  1.
         14    1    6    6    0    0  0.18245298932E+03 -0.87613832900E+02  0.47433514529E+03  0.51571223283E+03  0.00000000000E+00 0. -1.
         -5    1    3    3    0  503 -0.23752904323E+03  0.93674074077E+02  0.68449732546E+02  0.26439049608E+03  0.47000000000E+01 0.  1.
         13    1    4    4    0    0 -0.28811523631E+02 -0.20194798219E+02 -0.25486481857E+02  0.43445304999E+02  0.00000000000E+00 0. -1.
        -14    1    4    4    0    0 -0.33139751046E+02  0.53511816542E+02  0.90334755309E+01  0.63587430276E+02  0.00000000000E+00 0.  1.
</event>
<event>
12    1  0.1040325E-001  0.2794140E+03  0.7818608E-02  0.1096114E+00
         21   -1    0    0  501  502  0.00000000000E+00  0.00000000000E+00  0.94985914683E+02  0.94985914683E+02  0.00000000000E+00 0.  1.
         21   -1    0    0  502  503 -0.00000000000E+00 -0.00000000000E+00 -0.83347355985E+03  0.83347355985E+03  0.00000000000E+00 0. -1.
         -6    2    1    2    0  503  0.18288274733E+03 -0.12216381287E+03 -0.30906425584E+03  0.41613474774E+03  0.17110615884E+03 0.  0.
        -24    2    3    3    0    0  0.14856986254E+03 -0.21365227538E+02 -0.20363452667E+03  0.26621728158E+03  0.82916485429E+02 0.  0.
          6    2    1    2  501    0 -0.18288274733E+03  0.12216381287E+03 -0.42942338933E+03  0.51232472680E+03  0.17234291960E+03 0.  0.
         24    2    5    5    0    0 -0.45925401753E+02  0.73479012191E+02 -0.10630529027E+03  0.15798742949E+03  0.78427707970E+02 0.  0.
          5    1    5    5  501    0 -0.13695734558E+03  0.48684800680E+02 -0.32311809906E+03  0.35433729731E+03  0.47000000000E+01 0. -1.
        -11    1    6    6    0    0 -0.32200072187E+02  0.10463152911E+02 -0.24556760550E+00  0.33858271089E+02  0.00000000000E+00 0.  1.
         12    1    6    6    0    0 -0.13725329566E+02  0.63015859281E+02 -0.10605972267E+03  0.12412915840E+03  0.00000000000E+00 0. -1.
         -5    1    3    3    0  503  0.34312884792E+02 -0.10079858533E+03 -0.10542972917E+03  0.14991746616E+03  0.47000000000E+01 0.  1.
         13    1    4    4    0    0  0.10930529661E+03 -0.40207930945E+02 -0.18552132743E+03  0.21904905503E+03  0.00000000000E+00 0. -1.
        -14    1    4    4    0    0  0.39264565927E+02  0.18842703407E+02 -0.18113199245E+02  0.47168226551E+02  0.00000000000E+00 0.  1.
</event>
<event>
12    1  0.1040325E-001  0.2489704E+03  0.7818608E-02  0.1114975E+00
         21   -1    0    0  501  502  0.00000000000E+00  0.00000000000E+00  0.25418478022E+03  0.25418478022E+03  0.00000000000E+00 0.  1.
         21   -1    0    0  502  503 -0.00000000000E+00 -0.00000000000E+00 -0.38773668621E+03  0.38773668621E+03  0.00000000000E+00 0. -1.
         -6    2    1    2    0  503 -0.15321336295E+03 -0.76152954088E+02 -0.26693888067E+03  0.36502416348E+03  0.18086643390E+03 0.  0.
        -24    2    3    3    0    0 -0.12467074719E+03 -0.11664466820E+02 -0.25257278073E+03  0.29289982132E+03  0.79488620396E+02 0.  0.
          6    2    1    2  501    0  0.15321336295E+03  0.76152954088E+02  0.13338697467E+03  0.27689730295E+03  0.17206517477E+03 0.  0.
         24    2    5    5    0    0  0.11366661883E+03  0.11949487160E+03  0.93899222105E+02  0.20601825537E+03  0.80170649611E+02 0.  0.
          5    1    5    5  501    0  0.39546744114E+02 -0.43341917507E+02  0.39487752566E+02  0.70879047580E+02  0.47000000000E+01 0. -1.
        -11    1    6    6    0    0 -0.81405267657E+01  0.20621586656E+02 -0.18092152040E+01  0.22243904151E+02  0.00000000000E+00 0.  1.
         12    1    6    6    0    0  0.12180714560E+03  0.98873284940E+02  0.95708437309E+02  0.18377435122E+03  0.00000000000E+00 0. -1.
         -5    1    3    3    0  503 -0.28542615756E+02 -0.64488487268E+02 -0.14366099935E+02  0.72124342157E+02  0.47000000000E+01 0.  1.
         11    1    4    4    0    0 -0.60920962882E+01  0.22263001201E+02 -0.59217157645E+02  0.63556483692E+02  0.00000000000E+00 0. -1.
        -12    1    4    4    0    0 -0.11857865090E+03 -0.33927468021E+02 -0.19335562309E+03  0.22934333763E+03  0.00000000000E+00 0.  1.
</event>
<event>
12    1  0.1040325E-001  0.2565373E+03  0.7818608E-02  0.1109362E+00
         21   -1    0    0  503  502  0.00000000000E+00  0.00000000000E+00  0.14980777607E+03  0.14980777607E+03  0.00000000000E+00 0. -1.
         21   -1    0    0  501  503 -0.00000000000E+00 -0.00000000000E+00 -0.46952384258E+03  0.46952384258E+03  0.00000000000E+00 0.  1.
          6    2    1    2  501    0  0.83479447721E+02  0.17115445810E+03 -0.23991609832E+03  0.35066932906E+03  0.17072368727E+03 0.  0.
         24    2    3    3    0    0  0.11087534848E+01  0.27845489799E+02 -0.11654263760E+03  0.14435526635E+03  0.80496309900E+02 0.  0.
         -6    2    1    2    0  502 -0.83479447721E+02 -0.17115445810E+03 -0.79799968180E+02  0.26866228958E+03  0.17189742350E+03 0.  0.
        -24    2    5    5    0    0 -0.11628441152E+03 -0.10163573352E+03 -0.29283472723E+02  0.17655895072E+03  0.80396856991E+02 0.  0.
          5    1    3    3  501    0  0.82370694236E+02  0.14330896830E+03 -0.12337346073E+03  0.20631406272E+03  0.47000000000E+01 0. -1.
        -11    1    4    4    0    0 -0.37209461659E+01  0.14874112055E+02 -0.12642293720E+03  0.12734929800E+03  0.00000000000E+00 0.  1.
         12    1    4    4    0    0  0.48296996507E+01  0.12971377744E+02  0.98802996030E+01  0.17005968351E+02  0.00000000000E+00 0. -1.
         -5    1    5    5    0  502  0.32804963798E+02 -0.69518724576E+02 -0.50516495457E+02  0.92103338863E+02  0.47000000000E+01 0.  1.
         11    1    6    6    0    0 -0.28686483141E+01 -0.43815445589E+02  0.63399327968E+01  0.44364593576E+02  0.00000000000E+00 0. -1.
        -12    1    6    6    0    0 -0.11341576320E+03 -0.57820287931E+02 -0.35623405519E+02  0.13219435714E+03  0.00000000000E+00 0.  1.
</event>
<event>
12    1  0.1040325E-001  0.1796987E+03  0.7818608E-02  0.1168247E+00
         21   -1    0    0  503  502  0.00000000000E+00  0.00000000000E+00  0.11601948259E+04  0.11601948259E+04  0.00000000000E+00 0. -1.
         21   -1    0    0  501  503 -0.00000000000E+00 -0.00000000000E+00 -0.10324929926E+03  0.10324929926E+03  0.00000000000E+00 0. -1.
          6    2    1    2  501    0 -0.58833171270E+01 -0.50921039036E+02 -0.12022628580E+02  0.17947708611E+03  0.17158063761E+03 0.  0.
         24    2    3    3    0    0 -0.65812860094E+02 -0.40255735868E+02 -0.31632319791E+02  0.11535276310E+03  0.79710723720E+02 0.  0.
         -6    2    1    2    0  502  0.58833171270E+01  0.50921039036E+02  0.10689681553E+04  0.10839670391E+04  0.17223257306E+03 0.  0.
        -24    2    5    5    0    0 -0.23836653879E+02 -0.19439569845E+02  0.78891396020E+03  0.79364595110E+03  0.80886192596E+02 0.  0.
          5    1    3    3  501    0  0.59929542967E+02 -0.10665303168E+02  0.19609691211E+02  0.64124323008E+02  0.47000000000E+01 0. -1.
        -13    1    4    4    0    0 -0.80151377117E+01  0.11475906384E+02  0.18347531741E+02  0.23077495116E+02  0.00000000000E+00 0.  1.
         14    1    4    4    0    0 -0.57797722382E+02 -0.51731642252E+02 -0.49979851532E+02  0.92275267986E+02  0.00000000000E+00 0. -1.
         -5    1    5    5    0  502  0.29719971006E+02  0.70360608881E+02  0.28005419507E+03  0.29032108799E+03  0.47000000000E+01 0.  1.
         11    1    6    6    0    0 -0.76708701244E+01 -0.10263312535E+02  0.75385494271E+03  0.75396382704E+03  0.00000000000E+00 0. -1.
        -12    1    6    6    0    0 -0.16165783754E+02 -0.91762573104E+01  0.35059017489E+02  0.39682124060E+02  0.00000000000E+00 0.  1.
</event>
<event>
12    1  0.1040325E-001  0.1944859E+03  0.7818608E-02  0.1154494E+00
         21   -1    0    0  501  502  0.00000000000E+00  0.00000000000E+00  0.40117426926E+03  0.40117426926E+03  0.00000000000E+00 0.  1.
         21   -1    0    0  502  503 -0.00000000000E+00 -0.00000000000E+00 -0.98778702512E+02  0.98778702512E+02  0.00000000000E+00 0.  1.
         -6    2    1    2    0  503 -0.88248675246E+02  0.76950363654E+01  0.97677518068E+02  0.21763656229E+03  0.17314079081E+03 0.  0.
        -24    2    3    3    0    0 -0.10694837820E+03 -0.96048356662E+01  0.12216756653E+03  0.18198804287E+03  0.81636541867E+02 0.  0.
          6    2    1    2  501    0  0.88248675246E+02 -0.76950363654E+01  0.20471804868E+03  0.28231640949E+03  0.17304922231E+03 0.  0.
         24    2    5    5    0    0  0.87893749794E+02 -0.59371955203E+02  0.18553275716E+03  0.22699195446E+03  0.76502307774E+02 0.  0.
          5    1    5    5  501    0  0.35492545148E+00  0.51676918838E+02  0.19185291525E+02  0.55324455023E+02  0.47000000000E+01 0. -1.
        -11    1    6    6    0    0  0.66699355499E+02 -0.78688658988E+01  0.61655075041E+02  0.91170561876E+02  0.00000000000E+00 0.  1.
         12    1    6    6    0    0  0.21194394295E+02 -0.51503089305E+02  0.12387768212E+03  0.13582139259E+03  0.00000000000E+00 0. -1.
         -5    1    3    3    0  503  0.18699702954E+02  0.17299872032E+02 -0.24490048464E+02  0.35648519417E+02  0.47000000000E+01 0.  1.
         11    1    4    4    0    0 -0.69987900748E+02  0.32472900368E+02  0.56199432760E+02  0.95452458072E+02  0.00000000000E+00 0. -1.
        -12    1    4    4    0    0 -0.36960477453E+02 -0.42077736034E+02  0.65968133772E+02  0.86535584800E+02  0.00000000000E+00 0.  1.
</event>
<event>
12    1  0.1040325E-001  0.1951317E+03  0.7818608E-02  0.1154245E+00
         21   -1    0    0  501  502  0.00000000000E+00  0.00000000000E+00  0.23509130286E+03  0.23509130286E+03  0.00000000000E+00 0. -1.
         21   -1    0    0  502  503 -0.00000000000E+00 -0.00000000000E+00 -0.20181019314E+03  0.20181019314E+03  0.00000000000E+00 0. -1.
         -6    2    1    2    0  503  0.92197898119E+02  0.13432289488E+02 -0.81895654864E+02  0.21162059864E+03  0.17145116116E+03 0.  0.
        -24    2    3    3    0    0  0.74062448851E+02  0.18833359389E+02 -0.12500567808E+03  0.16430643397E+03  0.74365603186E+02 0.  0.
          6    2    1    2  501    0 -0.92197898119E+02 -0.13432289488E+02  0.11517676459E+03  0.22528089737E+03  0.16972011312E+03 0.  0.
         24    2    5    5    0    0 -0.10015786499E+03 -0.14686565107E+02  0.19929365743E+02  0.12957775600E+03  0.78395931778E+02 0.  0.
          5    1    5    5  501    0  0.79599668663E+01  0.12542756193E+01  0.95247398845E+02  0.95703141363E+02  0.47000000000E+01 0. -1.
        -13    1    6    6    0    0 -0.64928050965E+02  0.98316821485E+01 -0.22313160915E+02  0.69355539981E+02  0.00000000000E+00 0.  1.
         14    1    6    6    0    0 -0.35229814020E+02 -0.24518247256E+02  0.42242526658E+02  0.60222216024E+02  0.00000000000E+00 0. -1.
         -5    1    3    3    0  503  0.18135449268E+02 -0.54010699013E+01  0.43110023215E+02  0.47314164664E+02  0.47000000000E+01 0.  1.
         13    1    4    4    0    0  0.56980867126E+02  0.45162283434E+02 -0.69721712450E+02  0.10073513910E+03  0.00000000000E+00 0. -1.
        -14    1    4    4    0    0  0.17081581724E+02 -0.26328924045E+02 -0.55283965629E+02  0.63571294868E+02  0.00000000000E+00 0.  1.
</event>
<event>
12    1  0.1040325E-001  0.2221757E+03  0.7818608E-02  0.1132579E+00
         21   -1    0    0  503  502  0.00000000000E+00  0.00000000000E+00  0.41703736319E+03  0.41703736319E+03  0.00000000000E+00 0.  1.
         21   -1    0    0  501  503 -0.00000000000E+00 -0.00000000000E+00 -0.31363211432E+03  0.31363211432E+03  0.00000000000E+00 0. -1.
          6    2    1    2  501    0  0.21925928860E+02 -0.13603203305E+03 -0.23714449393E+03  0.32496081398E+03  0.17428872383E+03 0.  0.
         24    2    3    3    0    0  0.71178728115E+02 -0.92379035203E+02 -0.21044047045E+03  0.25378063890E+03  0.80741089878E+02 0.  0.
         -6    2    1    2    0  502 -0.21925928860E+02  0.13603203305E+03  0.34054974280E+03  0.40570866353E+03  0.17216251615E+03 0.  0.
        -24    2    5    5    0    0 -0.26591799235E+02  0.27753858000E+01  0.17201740635E+03  0.19075670887E+03  0.77995559736E+02 0.  0.
          5    1    3    3  501    0 -0.49252799255E+02 -0.43652997842E+02 -0.26704023472E+02  0.71180175081E+02  0.47000000000E+01 0. -1.
        -11    1    4    4    0    0 -0.17240269073E+02 -0.16260707387E+02 -0.23190709443E+02  0.33157902330E+02  0.00000000000E+00 0.  1.
         12    1    4    4    0    0  0.88418997188E+02 -0.76118327816E+02 -0.18724976101E+03  0.22062273657E+03  0.00000000000E+00 0. -1.
         -5    1    5    5    0  502  0.46658703748E+01  0.13325664725E+03  0.16853233645E+03  0.21495195466E+03  0.47000000000E+01 0.  1.
         11    1    6    6    0    0  0.17004468422E+02 -0.72816651248E+01  0.12302890897E+03  0.12441176405E+03  0.00000000000E+00 0. -1.
        -12    1    6    6    0    0 -0.43596267657E+02  0.10057050925E+02  0.48988497386E+02  0.66344944819E+02  0.00000000000E+00 0.  1.
</event>
<event>
12    1  0.1040325E-001  0.1981181E+03  0.7818608E-02  0.1151381E+00
         21   -1    0    0  503  502  0.00000000000E+00  0.00000000000E+00  0.76534526026E+03  0.76534526026E+03  0.00000000000E+00 0. -1.
         21   -1    0    0  501  503 -0.00000000000E+00 -0.00000000000E+00 -0.14011750964E+03  0.14011750964E+03  0.00000000000E+00 0. -1.
          6    2    1    2  501    0 -0.56236942503E+02 -0.81296171485E+02 -0.47914953676E+02  0.20382985227E+03  0.17169480100E+03 0.  0.
         24    2    3    3    0    0 -0.23944500572E+01  0.12139836116E+02 -0.52039580258E+02  0.95809465055E+02  0.79487273627E+02 0.  0.
         -6    2    1    2    0  502  0.56236942503E+02  0.81296171485E+02  0.67314270429E+03  0.70163291762E+03  0.17145258689E+03 0.  0.
        -24    2    5    5    0    0 -0.30266337534E+02  0.56840735314E+02  0.28154053897E+03  0.29981799543E+03  0.80491210195E+02 0.  0.
          5    1    3    3  501    0 -0.53842492446E+02 -0.93436007601E+02  0.41246265825E+01  0.10802038721E+03  0.47000000000E+01 0. -1.
        -11    1    4    4    0    0  0.66874525144E+01 -0.19511219736E+02  0.11955345419E+02  0.23839882568E+02  0.00000000000E+00 0.  1.
         12    1    4    4    0    0 -0.90819025716E+01  0.31651055853E+02 -0.63994925678E+02  0.71969582487E+02  0.00000000000E+00 0. -1.
         -5    1    5    5    0  502  0.86503280037E+02  0.24455436171E+02  0.39160216532E+03  0.40181492220E+03  0.47000000000E+01 0.  1.
         11    1    6    6    0    0  0.58026320947E+01  0.15275483761E+02  0.20443660027E+03  0.20508860152E+03  0.00000000000E+00 0. -1.
        -12    1    6    6    0    0 -0.36068969629E+02  0.41565251553E+02  0.77103938703E+02  0.94729393909E+02  0.00000000000E+00 0.  1.
</event>
<event>
12    1  0.1040325E-001  0.1884169E+03  0.7818608E-02  0.1160157E+00
         21   -1    0    0  501  502  0.00000000000E+00  0.00000000000E+00  0.11376732008E+03  0.11376732008E+03  0.00000000000E+00 0. -1.
         21   -1    0    0  502  503 -0.00000000000E+00 -0.00000000000E+00 -0.31594326822E+03  0.31594326822E+03  0.00000000000E+00 0. -1.
         -6    2    1    2    0  503 -0.50808269691E+02 -0.58477728874E+02 -0.12983940845E+03  0.22788514661E+03  0.17050584451E+03 0.  0.
        -24    2    3    3    0    0 -0.64348729184E+02 -0.88085178160E+02 -0.13901615113E+03  0.19373477761E+03  0.79422391173E+02 0.  0.
          6    2    1    2  501    0  0.50808269691E+02  0.58477728874E+02 -0.72336539686E+02  0.20182544170E+03  0.17175508405E+03 0.  0.
         24    2    5    5    0    0  0.22802008669E+02  0.30543591175E+02  0.28755102194E+02  0.93168749479E+02  0.80004483725E+02 0.  0.
          5    1    5    5  501    0  0.28006261022E+02  0.27934137698E+02 -0.10109164188E+03  0.10865669222E+03  0.47000000000E+01 0. -1.
        -13    1    6    6    0    0 -0.24995315401E+02 -0.84872015552E+01  0.40846058719E+01  0.26711091093E+02  0.00000000000E+00 0.  1.
         14    1    6    6    0    0  0.47797324070E+02  0.39030792731E+02  0.24670496322E+02  0.66457658386E+02  0.00000000000E+00 0. -1.
         -5    1    3    3    0  503  0.13540459493E+02  0.29607449286E+02  0.91767426808E+01  0.34150368999E+02  0.47000000000E+01 0.  1.
         11    1    4    4    0    0 -0.42597750112E+02 -0.10620324507E+02 -0.88334531770E+02  0.98642531954E+02  0.00000000000E+00 0. -1.
        -12    1    4    4    0    0 -0.21750979072E+02 -0.77464853653E+02 -0.50681619363E+02  0.95092245653E+02  0.00000000000E+00 0.  1.
</event>
<event>
12    1  0.1040325E-001  0.2862690E+03  0.7818608E-02  0.1092393E+00
         21   -1    0    0  503  502  0.00000000000E+00  0.00000000000E+00  0.10616571071E+04  0.10616571071E+04  0.00000000000E+00 0.  1.
         21   -1    0    0  501  503 -0.00000000000E+00 -0.00000000000E+00 -0.77365896681E+02  0.77365896681E+02  0.00000000000E+00 0. -1.
          6    2    1    2  501    0 -0.38623900397E+02  0.22425947338E+03  0.45510488393E+03  0.53765267699E+03  0.17368312704E+03 0.  0.
         24    2    3    3    0    0 -0.23242449148E+01  0.81023591249E+02  0.30586813615E+03  0.32758630700E+03  0.84777634809E+02 0.  0.
         -6    2    1    2    0  502  0.38623900397E+02 -0.22425947338E+03  0.52918632653E+03  0.60137032683E+03  0.17269622093E+03 0.  0.
        -24    2    5    5    0    0  0.64405811199E+02 -0.19129934006E+03  0.51503197124E+03  0.55694608698E+03  0.64710635741E+02 0.  0.
          5    1    3    3  501    0 -0.36299655483E+02  0.14323588213E+03  0.14923674778E+03  0.21006637000E+03  0.47000000000E+01 0. -1.
        -13    1    4    4    0    0  0.19173333534E+02  0.91304631902E+02  0.23634721572E+03  0.25409478331E+03  0.00000000000E+00 0.  1.
         14    1    4    4    0    0 -0.21497578449E+02 -0.10281040653E+02  0.69520920435E+02  0.73491523690E+02  0.00000000000E+00 0. -1.
         -5    1    5    5    0  502 -0.25781910801E+02 -0.32960133317E+02  0.14154355292E+02  0.44424239854E+02  0.47000000000E+01 0.  1.
         11    1    6    6    0    0  0.57143398664E+02 -0.14166335033E+03  0.30638138981E+03  0.34234986324E+03  0.00000000000E+00 0. -1.
        -12    1    6    6    0    0  0.72624125346E+01 -0.49635989729E+02  0.20865058143E+03  0.21459622374E+03  0.00000000000E+00 0.  1.
</event>
<event>
12    1  0.1040325E-001  0.1934244E+03  0.7818608E-02  0.1156603E+00
         21   -1    0    0  501  502  0.00000000000E+00  0.00000000000E+00  0.32358590853E+02  0.32358590853E+02  0.00000000000E+00 0. -1.
         21   -1    0    0  502  503 -0.00000000000E+00 -0.00000000000E+00 -0.12196359936E+04  0.12196359936E+04  0.00000000000E+00 0. -1.
         -6    2    1    2    0  503 -0.86083303271E+02  0.16125817261E+02 -0.76080225639E+03  0.78370617648E+03  0.16644795177E+03 0.  0.
        -24    2    3    3    0    0 -0.11035073902E+03  0.12948982890E+02 -0.73515379207E+03  0.74794398365E+03  0.81388837805E+02 0.  0.
          6    2    1    2  501    0  0.86083303271E+02 -0.16125817261E+02 -0.42647514635E+03  0.46828840795E+03  0.17246044616E+03 0.  0.
         24    2    5    5    0    0  0.57508819550E+02  0.42724866143E+02 -0.34397851606E+03  0.36289539080E+03  0.90769855338E+02 0.  0.
          5    1    5    5  501    0  0.28574483721E+02 -0.58850683404E+02 -0.82496630283E+02  0.10539301716E+03  0.47000000000E+01 0. -1.
        -11    1    6    6    0    0 -0.34494332138E+00  0.28842240169E+02 -0.25005755299E+03  0.25171566024E+03  0.00000000000E+00 0.  1.
         12    1    6    6    0    0  0.57853762871E+02  0.13882625975E+02 -0.93920963071E+02  0.11117973056E+03  0.00000000000E+00 0. -1.
         -5    1    3    3    0  503  0.24267435751E+02  0.31768343710E+01 -0.25648464315E+02  0.35762192834E+02  0.47000000000E+01 0.  1.
         13    1    4    4    0    0 -0.62002904678E+00 -0.37930608815E+01 -0.25879448548E+03  0.25882302344E+03  0.00000000000E+00 0. -1.
        -14    1    4    4    0    0 -0.10973070997E+03  0.16742043771E+02 -0.47635930659E+03  0.48912096021E+03  0.00000000000E+00 0.  1.
</event>
<event>
12    1  0.1040325E-001  0.1958853E+03  0.7818608E-02  0.1153383E+00
         21   -1    0    0  503  502  0.00000000000E+00  0.00000000000E+00  0.36574393609E+03  0.36574393609E+03  0.00000000000E+00 0.  1.
         21   -1    0    0  501  503 -0.00000000000E+00 -0.00000000000E+00 -0.21869320735E+03  0.21869320735E+03  0.00000000000E+00 0.  1.
          6    2    1    2  501    0 -0.55378740758E+02  0.72655832950E+02 -0.13748591889E+03  0.23931865407E+03  0.17327828861E+03 0.  0.
         24    2    3    3    0    0 -0.10475723184E+03  0.63527600014E+02 -0.10981933369E+03  0.18179396412E+03  0.77323513583E+02 0.  0.
         -6    2    1    2    0  502  0.55378740758E+02 -0.72655832950E+02  0.28453664762E+03  0.34511848937E+03  0.17262674438E+03 0.  0.
        -24    2    5    5    0    0 -0.10621766907E+02 -0.26742034770E+00  0.19999018455E+03  0.21563357245E+03  0.79930408513E+02 0.  0.
          5    1    3    3  501    0  0.49378491078E+02  0.91282329356E+01 -0.27666585200E+02  0.57524689954E+02  0.47000000000E+01 0. -1.
        -11    1    4    4    0    0 -0.40625930555E+02  0.30068495580E+02 -0.30092519018E+00  0.50543755459E+02  0.00000000000E+00 0.  1.
         12    1    4    4    0    0 -0.64131301281E+02  0.33459104435E+02 -0.10951840849E+03  0.13125020866E+03  0.00000000000E+00 0. -1.
         -5    1    5    5    0  502  0.66000507666E+02 -0.72388412602E+02  0.84546463073E+02  0.12948491692E+03  0.47000000000E+01 0.  1.
         11    1    6    6    0    0 -0.33019509118E+02  0.28568431082E+02  0.97380185290E+02  0.10672086827E+03  0.00000000000E+00 0. -1.
        -12    1    6    6    0    0  0.22397742211E+02 -0.28835851430E+02  0.10260999926E+03  0.10891270418E+03  0.00000000000E+00 0.  1.
</event>
<event>
12    1  0.1040325E-001  0.1759109E+03  0.7818608E-02  0.1172180E+00
         21   -1    0    0  501  502  0.00000000000E+00  0.00000000000E+00  0.57135379094E+02  0.57135379094E+02  0.00000000000E+00 0.  1.
         21   -1    0    0  502  503 -0.00000000000E+00 -0.00000000000E+00 -0.59505845485E+03  0.59505845485E+03  0.00000000000E+00 0.  1.
         -6    2    1    2    0  503 -0.67648939270E+01 -0.29263015354E+02 -0.37165668259E+03  0.41118527578E+03  0.17332787846E+03 0.  0.
        -24    2    3    3    0    0 -0.71265131649E+02 -0.31526558123E+02 -0.20230065218E+03  0.22988729089E+03  0.76485095163E+02 0.  0.
          6    2    1    2  501    0  0.67648939270E+01  0.29263015354E+02 -0.16626639317E+03  0.24100855816E+03  0.17186775076E+03 0.  0.
         24    2    5    5    0    0  0.42175403439E+02  0.35622014045E+02 -0.28827467970E+02  0.98861137476E+02  0.76777659859E+02 0.  0.
          5    1    5    5  501    0 -0.35410509512E+02 -0.63589986914E+01 -0.13743892520E+03  0.14214742068E+03  0.47000000000E+01 0. -1.
        -11    1    6    6    0    0  0.44170990209E+02 -0.10512436391E+02 -0.26615653916E+02  0.52630606384E+02  0.00000000000E+00 0.  1.
         12    1    6    6    0    0 -0.19955867700E+01  0.46134450436E+02 -0.22118140540E+01  0.46230531092E+02  0.00000000000E+00 0. -1.
         -5    1    3    3    0  503  0.64500237722E+02  0.22635427686E+01 -0.16935603041E+03  0.18129798489E+03  0.47000000000E+01 0.  1.
         11    1    4    4    0    0  0.15947559500E+02 -0.64935796792E+01 -0.21060870067E+02  0.27203887204E+02  0.00000000000E+00 0. -1.
        -12    1    4    4    0    0 -0.87212691149E+02 -0.25032978443E+02 -0.18123978212E+03  0.20268340368E+03  0.00000000000E+00 0.  1.
</event>
<event>
12    1  0.1040325E-001  0.1875564E+03  0.7818608E-02  0.1161098E+00
         21   -1    0    0  501  502  0.00000000000E+00  0.00000000000E+00  0.83343144739E+02  0.83343144739E+02  0.00000000000E+00 0. -1.
         21   -1    0    0  502  503 -0.00000000000E+00 -0.00000000000E+00 -0.49158096948E+03  0.49158096948E+03  0.00000000000E+00 0.  1.
         -6    2    1    2    0  503 -0.63450490324E+02 -0.28508914717E+02 -0.31446273166E+03  0.36523106222E+03  0.17224458268E+03 0.  0.
        -24    2    3    3    0    0 -0.11102316513E+03 -0.21063384938E+02 -0.22768498955E+03  0.26587784472E+03  0.77979256637E+02 0.  0.
          6    2    1    2  501    0  0.63450490324E+02  0.28508914717E+02 -0.93775093074E+02  0.20969305200E+03  0.17418003627E+03 0.  0.
         24    2    5    5    0    0  0.62523029388E+02 -0.28976773195E+02 -0.11024227399E+03  0.14970369839E+03  0.74223013609E+02 0.  0.
          5    1    5    5  501    0  0.92746093619E+00  0.57485687912E+02  0.16467180915E+02  0.59989353604E+02  0.47000000000E+01 0. -1.
        -11    1    6    6    0    0  0.41564462851E+02  0.17973091052E+02 -0.74152556562E+02  0.86886352315E+02  0.00000000000E+00 0.  1.
         12    1    6    6    0    0  0.20958566537E+02 -0.46949864247E+02 -0.36089717427E+02  0.62817346076E+02  0.00000000000E+00 0. -1.
         -5    1    3    3    0  503  0.47572674803E+02 -0.74455297780E+01 -0.86777742113E+02  0.99353217501E+02  0.47000000000E+01 0.  1.
         11    1    4    4    0    0 -0.53263956606E+02  0.54871160479E+01 -0.37556687232E+02  0.65403839885E+02  0.00000000000E+00 0. -1.
        -12    1    4    4    0    0 -0.57759208522E+02 -0.26550500986E+02 -0.19012830232E+03  0.20047400483E+03  0.00000000000E+00 0.  1.
</event>
<event>
12    1  0.1040325E-001  0.2221598E+03  0.7818608E-02  0.1133387E+00
         21   -1    0    0  501  502  0.00000000000E+00  0.00000000000E+00  0.32048305053E+03  0.32048305053E+03  0.00000000000E+00 0.  1.
         21   -1    0    0  502  503 -0.00000000000E+00 -0.00000000000E+00 -0.20538104742E+03  0.20538104742E+03  0.00000000000E+00 0.  1.
         -6    2    1    2    0  503  0.21935032183E+02  0.12862594594E+03 -0.78494464651E+02  0.23561909816E+03  0.17980322252E+03 0.  0.
        -24    2    3    3    0    0  0.25823361884E+01 -0.84908512519E+01 -0.85417540206E+01  0.80406293791E+02  0.79457205490E+02 0.  0.
          6    2    1    2  501    0 -0.21935032183E+02 -0.12862594594E+03  0.19359646777E+03  0.29024499979E+03  0.17244357908E+03 0.  0.
         24    2    5    5    0    0 -0.37747550479E+02 -0.31447712225E+01  0.65053048678E+02  0.10985358776E+03  0.80007152481E+02 0.  0.
          5    1    5    5  501    0  0.15812518296E+02 -0.12548117472E+03  0.12854341909E+03  0.18039141203E+03  0.47000000000E+01 0. -1.
        -11    1    6    6    0    0  0.70880591752E+01 -0.17833641231E+02  0.59294893200E+02  0.62323059152E+02  0.00000000000E+00 0.  1.
         12    1    6    6    0    0 -0.44835609654E+02  0.14688870008E+02  0.57581554779E+01  0.47530528607E+02  0.00000000000E+00 0. -1.
         -5    1    3    3    0  503  0.19352695994E+02  0.13711679719E+03 -0.69952710630E+02  0.15521280437E+03  0.47000000000E+01 0.  1.
         13    1    4    4    0    0  0.33773932889E+02 -0.21887805543E+02  0.10351318972E+02  0.41556039016E+02  0.00000000000E+00 0. -1.
        -14    1    4    4    0    0 -0.31191596700E+02  0.13396954291E+02 -0.18893072992E+02  0.38850254775E+02  0.00000000000E+00 0.  1.
</event>
<event>
12    1  0.1040325E-001  0.2224219E+03  0.7818608E-02  0.1132125E+00
         21   -1    0    0  503  502  0.00000000000E+00  0.00000000000E+00  0.12020006469E+03  0.12020006469E+03  0.00000000000E+00 0.  1.
         21   -1    0    0  501  503 -0.00000000000E+00 -0.00000000000E+00 -0.57834692369E+03  0.57834692369E+03  0.00000000000E+00 0. -1.
          6    2    1    2  501    0 -0.12801369117E+03  0.59359309485E+02 -0.41689382597E+03  0.47251661400E+03  0.17193154343E+03 0.  0.
         24    2    3    3    0    0 -0.13430977455E+03  0.90221812824E+02 -0.39286783802E+03  0.43262334545E+03  0.81478401019E+02 0.  0.
         -6    2    1    2    0  502  0.12801369117E+03 -0.59359309485E+02 -0.41253033036E+02  0.22603037438E+03  0.17168833583E+03 0.  0.
        -24    2    5    5    0    0  0.66552550964E+02 -0.88664262090E+02 -0.68013325499E+02  0.15271969811E+03  0.80043115465E+02 0.  0.
          5    1    3    3  501    0  0.62960833814E+01 -0.30862503340E+02 -0.24025987947E+02  0.39893268545E+02  0.47000000000E+01 0. -1.
        -11    1    4    4    0    0 -0.34640138821E+02  0.17821870793E+02 -0.29279553457E+02  0.48732438342E+02  0.00000000000E+00 0.  1.
         12    1    4    4    0    0 -0.99669635730E+02  0.72399942031E+02 -0.36358828456E+03  0.38389090711E+03  0.00000000000E+00 0. -1.
         -5    1    5    5    0  502  0.61461140205E+02  0.29304952605E+02  0.26760292463E+02  0.73310676271E+02  0.47000000000E+01 0.  1.
         13    1    6    6    0    0  0.60134538423E+02 -0.54645712035E+02 -0.81947108965E+02  0.11540210233E+03  0.00000000000E+00 0. -1.
        -14    1    6    6    0    0  0.64180125405E+01 -0.34018550055E+02  0.13933783466E+02  0.37317595776E+02  0.00000000000E+00 0.  1.
</event>
<event>
12    1  0.1040325E-001  0.1756596E+03  0.7818608E-02  0.1172597E+00
         21   -1    0    0  503  502  0.00000000000E+00  0.00000000000E+00  0.14430151764E+03  0.14430151764E+03  0.00000000000E+00 0.  1.
         21   -1    0    0  501  503 -0.00000000000E+00 -0.00000000000E+00 -0.31883641568E+03  0.31883641568E+03  0.00000000000E+00 0.  1.
          6    2    1    2  501    0  0.25202402553E+02  0.23024270089E+02 -0.22210239890E+03  0.28317094471E+03  0.17231085347E+03 0.  0.
         24    2    3    3    0    0  0.42712119475E+02 -0.11199903972E+02 -0.39863206702E+02  0.96861799872E+02  0.76441938926E+02 0.  0.
         -6    2    1    2    0  502 -0.25202402553E+02 -0.23024270089E+02  0.47567500859E+02  0.17996698861E+03  0.17017688370E+03 0.  0.
        -24    2    5    5    0    0 -0.31993691752E+02 -0.68408752566E+02  0.74596404337E+02  0.12650181788E+03  0.68809393593E+02 0.  0.
          5    1    3    3  501    0 -0.17509716922E+02  0.34224174061E+02 -0.18223919220E+03  0.18630914483E+03  0.47000000000E+01 0. -1.
        -11    1    4    4    0    0  0.42972165755E+02 -0.40408641315E+02 -0.24685763720E+02  0.63944133844E+02  0.00000000000E+00 0.  1.
         12    1    4    4    0    0 -0.26004628042E+00  0.29208737343E+02 -0.15177442982E+02  0.32917666028E+02  0.00000000000E+00 0. -1.
         -5    1    5    5    0  502  0.67912891992E+01  0.45384482477E+02 -0.27028903478E+02  0.53465170737E+02  0.47000000000E+01 0.  1.
         13    1    6    6    0    0  0.14623727745E+02  0.37088831212E+01  0.47703676372E+01  0.15822946457E+02  0.00000000000E+00 0. -1.
        -14    1    6    6    0    0 -0.46617419497E+02 -0.72117635687E+02  0.69826036700E+02  0.11067887142E+03  0.00000000000E+00 0.  1.
</event>
<event>
12    1  0.1040325E-001  0.2470271E+03  0.7818608E-02  0.1115289E+00
         21   -1    0    0  501  502  0.00000000000E+00  0.00000000000E+00  0.49173911586E+02  0.49173911586E+02  0.00000000000E+00 0.  1.
         21   -1    0    0  502  503 -0.00000000000E+00 -0.00000000000E+00 -0.14932840345E+04  0.14932840345E+04  0.00000000000E+00 0. -1.
         -6    2    1    2    0  503  0.16715855762E+03  0.58284312775E+02 -0.40392865258E+03  0.47347730833E+03  0.17228859690E+03 0.  0.
        -24    2    3    3    0    0  0.29258238403E+02 -0.13450362704E+02 -0.18999185238E+03  0.20899024591E+03  0.80889196694E+02 0.  0.
          6    2    1    2  501    0 -0.16715855762E+03 -0.58284312775E+02 -0.10401814703E+04  0.10689806377E+04  0.17147322875E+03 0.  0.
         24    2    5    5    0    0 -0.11851655208E+02 -0.24760440829E+02 -0.44566954906E+03  0.45358596890E+03  0.79783100088E+02 0.  0.
          5    1    5    5  501    0 -0.15530690242E+03 -0.33523871947E+02 -0.59451192125E+03  0.61539466884E+03  0.47000000000E+01 0. -1.
        -11    1    6    6    0    0 -0.33120630553E+02 -0.39932119134E+02 -0.20341243359E+03  0.20992419690E+03  0.00000000000E+00 0.  1.
         12    1    6    6    0    0  0.21268975346E+02  0.15171678306E+02 -0.24225711547E+03  0.24366177200E+03  0.00000000000E+00 0. -1.
         -5    1    3    3    0  503  0.13790031922E+03  0.71734675479E+02 -0.21393680020E+03  0.26448706242E+03  0.47000000000E+01 0.  1.
         11    1    4    4    0    0  0.43302391385E+02  0.20927265563E+02 -0.85538749540E+02  0.98132182369E+02  0.00000000000E+00 0. -1.
        -12    1    4    4    0    0 -0.14044152982E+02 -0.34377628267E+02 -0.10445310284E+03  0.11085806354E+03  0.00000000000E+00 0.  1.
</event>
<event>
12    1  0.1040325E-001  0.1754431E+03  0.7818608E-02  0.1172552E+00
         21   -1    0    0  501  502  0.00000000000E+00  0.00000000000E+00  0.62607589239E+02  0.62607589239E+02  0.00000000000E+00 0. -1.
         21   -1    0    0  502  503 -0.00000000000E+00 -0.00000000000E+00 -0.49362869433E+03  0.49362869433E+03  0.00000000000E+00 0. -1.
         -6    2    1    2    0  503  0.28392562775E+02 -0.15861691467E+02 -0.24268726030E+03  0.29884568528E+03  0.17132981765E+03 0.  0.
        -24    2    3    3    0    0  0.13723199943E+02  0.26023909692E+02 -0.39976136261E+02  0.91280072515E+02  0.76605418057E+02 0.  0.
          6    2    1    2  501    0 -0.28392562775E+02  0.15861691467E+02 -0.18833384478E+03  0.25739059829E+03  0.17240229732E+03 0.  0.
         24    2    5    5    0    0 -0.68875671923E+02  0.55997784115E+02 -0.11248775658E+03  0.16239319225E+03  0.76409708144E+02 0.  0.
          5    1    5    5  501    0  0.40483109148E+02 -0.40136092648E+02 -0.75846088202E+02  0.94997406043E+02  0.47000000000E+01 0. -1.
        -11    1    6    6    0    0 -0.28925135973E+02  0.46810012631E+02 -0.15606705929E+02  0.57196241516E+02  0.00000000000E+00 0.  1.
         12    1    6    6    0    0 -0.39950535950E+02  0.91877714841E+01 -0.96881050653E+02  0.10519695073E+03  0.00000000000E+00 0. -1.
         -5    1    3    3    0  503  0.14669362833E+02 -0.41885601159E+02 -0.20271112404E+03  0.20756561276E+03  0.47000000000E+01 0.  1.
         11    1    4    4    0    0  0.18095844005E+02  0.49505128917E+02 -0.41877394900E+02  0.67319637276E+02  0.00000000000E+00 0. -1.
        -12    1    4    4    0    0 -0.43726440626E+01 -0.23481219226E+02  0.19012586387E+01  0.23960435239E+02  0.00000000000E+00 0.  1.
</event>
<event>
12    1  0.1040325E-001  0.2630875E+03  0.7818608E-02  0.1105314E+00
         21   -1    0    0  503  502  0.00000000000E+00  0.00000000000E+00  0.34005334784E+02  0.34005334784E+02  0.00000000000E+00 0. -1.
         21   -1    0    0  501  503 -0.00000000000E+00 -0.00000000000E+00 -0.21667678538E+04  0.21667678538E+04  0.00000000000E+00 0.  1.
          6    2    1    2  501    0 -0.13703195058E+03  0.14453082678E+03 -0.13378078917E+04  0.13634155059E+04  0.17177011192E+03 0.  0.
         24    2    3    3    0    0 -0.72000393527E+02  0.35220927106E+01 -0.52342483876E+03  0.53434710500E+03  0.79729574144E+02 0.  0.
         -6    2    1    2    0  502  0.13703195058E+03 -0.14453082678E+03 -0.79495462731E+03  0.83735768265E+03  0.17189564810E+03 0.  0.
        -24    2    5    5    0    0  0.17722830182E+02 -0.30970258096E+02 -0.41401984143E+03  0.42231061296E+03  0.75236753768E+02 0.  0.
          5    1    3    3  501    0 -0.65031557051E+02  0.14100873406E+03 -0.81438305292E+03  0.82906840091E+03  0.47000000000E+01 0. -1.
        -11    1    4    4    0    0 -0.47260489576E+02  0.26447886407E+02 -0.45339277734E+03  0.45661587260E+03  0.00000000000E+00 0.  1.
         12    1    4    4    0    0 -0.24739903950E+02 -0.22925793696E+02 -0.70032061422E+02  0.77731232404E+02  0.00000000000E+00 0. -1.
         -5    1    5    5    0  502  0.11930912040E+03 -0.11356056868E+03 -0.38093478588E+03  0.41504706969E+03  0.47000000000E+01 0.  1.
         13    1    6    6    0    0  0.25773464022E+02  0.30024998673E-01 -0.44650194863E+02  0.51554943996E+02  0.00000000000E+00 0. -1.
        -14    1    6    6    0    0 -0.80506338400E+01 -0.31000283094E+02 -0.36936964657E+03  0.37075566896E+03  0.00000000000E+00 0.  1.
</event>
<event>
12    1  0.1040325E-001  0.2041524E+03  0.7818608E-02  0.1146798E+00
         21   -1    0    0  501  502  0.00000000000E+00  0.00000000000E+00  0.85592171196E+02  0.85592171196E+02  0.00000000000E+00 0. -1.
         21   -1    0    0  502  503 -0.00000000000E+00 -0.00000000000E+00 -0.12995493056E+04  0.12995493056E+04  0.00000000000E+00 0.  1.
         -6    2    1    2    0  503  0.28254869319E+02 -0.10151586898E+03 -0.11552465866E+04  0.11727147061E+04  0.17193398978E+03 0.  0.
        -24    2    3    3    0    0 -0.40015660059E+02 -0.63198413155E+02 -0.87406143795E+03  0.88079644630E+03  0.78890367178E+02 0.  0.
          6    2    1    2  501    0 -0.28254869319E+02  0.10151586898E+03 -0.58710547864E+02  0.21242677072E+03  0.17485535506E+03 0.  0.
         24    2    5    5    0    0 -0.69307707207E+02  0.80325524535E+02 -0.85985389283E+02  0.15857165796E+03  0.80596125008E+02 0.  0.
          5    1    5    5  501    0  0.41052837887E+02  0.21190344447E+02  0.27274841419E+02  0.53855112764E+02  0.47000000000E+01 0. -1.
        -11    1    6    6    0    0 -0.54774344011E+02  0.48778424335E+01 -0.24674513986E+02  0.60273159442E+02  0.00000000000E+00 0.  1.
         12    1    6    6    0    0 -0.14533363196E+02  0.75447682102E+02 -0.61310875297E+02  0.98298498514E+02  0.00000000000E+00 0. -1.
         -5    1    3    3    0  503  0.68270529378E+02 -0.38317455828E+02 -0.28118514861E+03  0.29191825980E+03  0.47000000000E+01 0.  1.
         13    1    4    4    0    0 -0.24162276450E+02  0.11869690837E+02 -0.12799683970E+03  0.13079715645E+03  0.00000000000E+00 0. -1.
        -14    1    4    4    0    0 -0.15853383609E+02 -0.75068103991E+02 -0.74606459825E+03  0.74999928985E+03  0.00000000000E+00 0.  1.
</event>
<event>
12    1  0.1040325E-001  0.1840714E+03  0.7818608E-02  0.1164571E+00
         21   -1    0    0  501  502  0.00000000000E+00  0.00000000000E+00  0.46077048115E+02  0.46077048115E+02  0.00000000000E+00 0.  1.
         21   -1    0    0  502  503 -0.00000000000E+00 -0.00000000000E+00 -0.19500130789E+04  0.19500130789E+04  0.00000000000E+00 0.  1.
         -6    2    1    2    0  503 -0.34759503549E+02  0.52863129208E+02 -0.17405389993E+04  0.17499583276E+04  0.16992765192E+03 0.  0.
        -24    2    3    3    0    0 -0.58149890794E+02  0.84567979926E+02 -0.15415791905E+04  0.15470805238E+04  0.80365375051E+02 0.  0.
          6    2    1    2  501    0  0.34759503549E+02 -0.52863129208E+02 -0.16339703157E+03  0.24613179946E+03  0.17285699078E+03 0.  0.
         24    2    5    5    0    0  0.28915786310E+02 -0.91585957988E+02 -0.68776013397E+02  0.14361919740E+03  0.81683679182E+02 0.  0.
          5    1    5    5  501    0  0.58437172391E+01  0.38722828781E+02 -0.94621018173E+02  0.10251260206E+03  0.47000000000E+01 0. -1.
        -13    1    6    6    0    0  0.39528570461E+02 -0.64603924285E+02 -0.82109954019E+02  0.11170595089E+03  0.00000000000E+00 0.  1.
         14    1    6    6    0    0 -0.10612784151E+02 -0.26982033704E+02  0.13333940622E+02  0.31913246509E+02  0.00000000000E+00 0. -1.
         -5    1    3    3    0  503  0.23390387245E+02 -0.31704850718E+02 -0.19895980871E+03  0.20287780375E+03  0.47000000000E+01 0.  1.
         13    1    4    4    0    0  0.18835334048E+02  0.30943154418E+02 -0.47858619842E+03  0.47995520409E+03  0.00000000000E+00 0. -1.
        -14    1    4    4    0    0 -0.76985224842E+02  0.53624825508E+02 -0.10629929921E+04  0.10671253198E+04  0.00000000000E+00 0.  1.
</event>
<event>
12    1  0.1040325E-001  0.2059564E+03  0.7818608E-02  0.1145567E+00
         21   -1    0    0  501  502  0.00000000000E+00  0.00000000000E+00  0.54109756903E+02  0.54109756903E+02  0.00000000000E+00 0. -1.
         21   -1    0    0  502  503 -0.00000000000E+00 -0.00000000000E+00 -0.82986592067E+03  0.82986592067E+03  0.00000000000E+00 0.  1.
         -6    2    1    2    0  503 -0.26637010709E+02  0.10532593233E+03 -0.50992375813E+03  0.54994568886E+03  0.17497125259E+03 0.  0.
        -24    2    3    3    0    0  0.11415626274E+02 -0.77623673283E+01 -0.14638100396E+03  0.16729390093E+03  0.79807769654E+02 0.  0.
          6    2    1    2  501    0  0.26637010709E+02 -0.10532593233E+03 -0.26583240564E+03  0.33402998871E+03  0.17060505008E+03 0.  0.
         24    2    5    5    0    0  0.64013687130E+01 -0.22347439818E+02 -0.22027404170E+03  0.23711473733E+03  0.84630725050E+02 0.  0.
          5    1    5    5  501    0  0.20235641996E+02 -0.82978492510E+02 -0.45558363935E+02  0.96915251383E+02  0.47000000000E+01 0. -1.
        -11    1    6    6    0    0  0.27340143096E+02 -0.42037295848E+02 -0.18466825340E+03  0.19135564136E+03  0.00000000000E+00 0.  1.
         12    1    6    6    0    0 -0.20938774383E+02  0.19689856029E+02 -0.35605788301E+02  0.45759095967E+02  0.00000000000E+00 0. -1.
         -5    1    3    3    0  503 -0.38052636983E+02  0.11308829966E+03 -0.36354275417E+03  0.38265178793E+03  0.47000000000E+01 0.  1.
         11    1    4    4    0    0 -0.35088605957E+00  0.18707321483E+02 -0.66060649456E+00  0.18722270136E+02  0.00000000000E+00 0. -1.
        -12    1    4    4    0    0  0.11766512333E+02 -0.26469688811E+02 -0.14572039747E+03  0.14857163079E+03  0.00000000000E+00 0.  1.
</event>
<event>
12    1  0.1040325E-001  0.1751092E+03  0.7818608E-02  0.1173008E+00
         21   -1    0    0  501  502  0.00000000000E+00  0.00000000000E+00  0.85647611048E+02  0.85647611048E+02  0.00000000000E+00 0. -1.
         21   -1    0    0  502  503 -0.00000000000E+00 -0.00000000000E+00 -0.35817506518E+03  0.35817506518E+03  0.00000000000E+00 0. -1.
         -6    2    1    2    0  503 -0.27979103561E+02  0.44974543379E+00 -0.11442387464E+03  0.20789904384E+03  0.17130720018E+03 0.  0.
        -24    2    3    3    0    0  0.17773105375E+02  0.24752064144E+02 -0.20787603779E+01  0.84095239309E+02  0.78352664764E+02 0.  0.
          6    2    1    2  501    0  0.27979103561E+02 -0.44974543379E+00 -0.15810357949E+03  0.23592363239E+03  0.17285886140E+03 0.  0.
         24    2    5    5    0    0 -0.20374651315E+02  0.27336982025E+02 -0.23812233983E+02  0.90436714380E+02  0.80307781804E+02 0.  0.
          5    1    5    5  501    0  0.48353754875E+02 -0.27786727459E+02 -0.13429134551E+03  0.14548691801E+03  0.47000000000E+01 0. -1.
        -11    1    6    6    0    0 -0.61674499496E+01  0.45957890758E+02 -0.40590065457E+02  0.61625632456E+02  0.00000000000E+00 0.  1.
         12    1    6    6    0    0 -0.14207201365E+02 -0.18620908733E+02  0.16777831474E+02  0.28811081924E+02  0.00000000000E+00 0. -1.
         -5    1    3    3    0  503 -0.45752208936E+02 -0.24302318710E+02 -0.11234511427E+03  0.12380380453E+03  0.47000000000E+01 0.  1.
         11    1    4    4    0    0  0.15381105421E+02  0.40651698764E+02 -0.29343849528E+02  0.52442354271E+02  0.00000000000E+00 0. -1.
        -12    1    4    4    0    0  0.23919999539E+01 -0.15899634620E+02  0.27265089150E+02  0.31652885037E+02  0.00000000000E+00 0.  1.
</event>
<event>
12    1  0.1040325E-001  0.2756070E+03  0.7818608E-02  0.1098225E+00
         21   -1    0    0  503  502  0.00000000000E+00  0.00000000000E+00  0.19355952610E+03  0.19355952610E+03  0.00000000000E+00 0. -1.
         21   -1    0    0  501  503 -0.00000000000E+00 -0.00000000000E+00 -0.59725744035E+03  0.59725744035E+03  0.00000000000E+00 0.  1.
          6    2    1    2  501    0 -0.12950131418E+03  0.17089418743E+03 -0.43385582386E+03  0.51356489938E+03  0.17187965646E+03 0.  0.
         24    2    3    3    0    0 -0.18004229652E+02  0.13471805704E+02 -0.95618736130E+02  0.12415531598E+03  0.75933905159E+02 0.  0.
         -6    2    1    2    0  502  0.12950131418E+03 -0.17089418743E+03  0.30157909599E+02  0.27725206707E+03  0.17315829611E+03 0.  0.
        -24    2    5    5    0    0  0.25374183989E+02 -0.23349084637E+02  0.41502431330E+02  0.96247081573E+02  0.79699560467E+02 0.  0.
          5    1    3    3  501    0 -0.11149708453E+03  0.15742238173E+03 -0.33823708773E+03  0.38940958340E+03  0.47000000000E+01 0. -1.
        -13    1    4    4    0    0 -0.22566835324E+02 -0.19462786956E+02 -0.83679640825E+02  0.88827610692E+02  0.00000000000E+00 0.  1.
         14    1    4    4    0    0  0.45626056725E+01  0.32934592660E+02 -0.11939095305E+02  0.35327705288E+02  0.00000000000E+00 0. -1.
         -5    1    5    5    0  502  0.10412713019E+03 -0.14754510280E+03 -0.11344521731E+02  0.18100498550E+03  0.47000000000E+01 0.  1.
         11    1    6    6    0    0  0.45005518255E+02 -0.40596166825E+02  0.31078800027E+02  0.68113414578E+02  0.00000000000E+00 0. -1.
        -12    1    6    6    0    0 -0.19631334266E+02  0.17247082188E+02  0.10423631303E+02  0.28133666996E+02  0.00000000000E+00 0.  1.
</event>
<event>
12    1  0.1040325E-001  0.2785324E+03  0.7818608E-02  0.1096601E+00
         21   -1    0    0  503  502  0.00000000000E+00  0.00000000000E+00  0.73520384318E+02  0.73520384318E+02  0.00000000000E+00 0. -1.
         21   -1    0    0  501  503 -0.00000000000E+00 -0.00000000000E+00 -0.26677217891E+04  0.26677217891E+04  0.00000000000E+00 0. -1.
          6    2    1    2  501    0  0.23426659895E+02  0.21624554558E+03 -0.23644110785E+04  0.23807603931E+04  0.17398091063E+03 0.  0.
         24    2    3    3    0    0  0.36588906788E+02  0.79695293496E+02 -0.64021725026E+03  0.65111139312E+03  0.79861322419E+02 0.  0.
         -6    2    1    2    0  502 -0.23426659895E+02 -0.21624554558E+03 -0.22979032637E+03  0.36048178032E+03  0.17272109157E+03 0.  0.
        -24    2    5    5    0    0 -0.55384262721E+02 -0.10790568572E+03 -0.61924581483E+02  0.15809647472E+03  0.80304345844E+02 0.  0.
          5    1    3    3  501    0 -0.13162246893E+02  0.13655025208E+03 -0.17241938282E+04  0.17296490000E+04  0.47000000000E+01 0. -1.
        -11    1    4    4    0    0 -0.16813467780E+02  0.57945926260E+02 -0.36027887626E+03  0.36529616990E+03  0.00000000000E+00 0.  1.
         12    1    4    4    0    0  0.53402374567E+02  0.21749367236E+02 -0.27993837400E+03  0.28581522322E+03  0.00000000000E+00 0. -1.
         -5    1    5    5    0  502  0.31957602827E+02 -0.10833985986E+03 -0.16786574489E+03  0.20238530560E+03  0.47000000000E+01 0.  1.
         11    1    6    6    0    0 -0.58034782578E+02 -0.69856241864E+02 -0.74992147827E+02  0.11777840529E+03  0.00000000000E+00 0. -1.
        -12    1    6    6    0    0  0.26505198568E+01 -0.38049443853E+02  0.13067566344E+02  0.40318069438E+02  0.00000000000E+00 0.  1.
</event>
<event>
12    1  0.1040325E-001  0.1985034E+03  0.7818608E-02  0.1151186E+00
         21   -1    0    0  503  502  0.00000000000E+00  0.00000000000E+00  0.51354017811E+03  0.51354017811E+03  0.00000000000E+00 0. -1.
         21   -1    0    0  501  503 -0.00000000000E+00 -0.00000000000E+00 -0.12113502680E+03  0.12113502680E+03  0.00000000000E+00 0.  1.
          6    2    1    2  501    0  0.75805000962E+02  0.52505781028E+02  0.36326151641E+01  0.19853664005E+03  0.17578494343E+03 0.  0.
         24    2    3    3    0    0  0.64606364185E+02  0.10046459863E+03  0.21632211171E+02  0.14589128786E+03  0.80927111914E+02 0.  0.
         -6    2    1    2    0  502 -0.75805000962E+02 -0.52505781028E+02  0.38877253614E+03  0.43613856486E+03  0.17484137864E+03 0.  0.
        -24    2    5    5    0    0 -0.86408840722E+02 -0.73566336951E+02  0.18566180890E+03  0.23160972593E+03  0.79336398782E+02 0.  0.
          5    1    3    3  501    0  0.11198636777E+02 -0.47958817598E+02 -0.17999596007E+02  0.52645352192E+02  0.47000000000E+01 0. -1.
        -11    1    4    4    0    0 -0.36537801659E+01  0.45090417073E+02 -0.18989541967E+02  0.49062190385E+02  0.00000000000E+00 0.  1.
         12    1    4    4    0    0  0.68260144351E+02  0.55374181554E+02  0.40621753138E+02  0.96829097474E+02  0.00000000000E+00 0. -1.
         -5    1    5    5    0  502  0.10603839760E+02  0.21060555922E+02  0.20311072724E+03  0.20452883893E+03  0.47000000000E+01 0.  1.
         13    1    6    6    0    0 -0.23534200060E+02 -0.61299677206E+02  0.13433383203E+03  0.14952286590E+03  0.00000000000E+00 0. -1.
        -14    1    6    6    0    0 -0.62874640662E+02 -0.12266659745E+02  0.51327976870E+02  0.82086860028E+02  0.00000000000E+00 0.  1.
</event>
<event>
12    1  0.1040325E-001  0.1904282E+03  0.7818608E-02  0.1158567E+00
         21   -1    0    0  503  502  0.00000000000E+00  0.00000000000E+00  0.73885703604E+03  0.73885703604E+03  0.00000000000E+00 0.  1.
         21   -1    0    0  501  503 -0.00000000000E+00 -0.00000000000E+00 -0.48629751767E+02  0.48629751767E+02  0.00000000000E+00 0.  1.
          6    2    1    2  501    0  0.45073024525E+02 -0.58475972340E+02  0.36172971939E+03  0.40778488052E+03  0.17317361811E+03 0.  0.
         24    2    3    3    0    0  0.72425892092E+01 -0.76524558720E+01  0.32385654577E+03  0.33382111275E+03  0.80264923224E+02 0.  0.
         -6    2    1    2    0  502 -0.45073024525E+02  0.58475972340E+02  0.32849756488E+03  0.37970190729E+03  0.17553310623E+03 0.  0.
        -24    2    5    5    0    0  0.22761408706E+02 -0.13282375949E+02  0.10046818057E+03  0.13116567052E+03  0.80100403100E+02 0.  0.
          5    1    3    3  501    0  0.37830435316E+02 -0.50823516469E+02  0.37873173619E+02  0.73963767768E+02  0.47000000000E+01 0. -1.
        -13    1    4    4    0    0 -0.22185827153E+01 -0.40892227711E+02  0.23382655783E+03  0.23738566836E+03  0.00000000000E+00 0.  1.
         14    1    4    4    0    0  0.94611719245E+01  0.33239771839E+02  0.90029987944E+02  0.96435444393E+02  0.00000000000E+00 0. -1.
         -5    1    5    5    0  502 -0.67834433231E+02  0.71758348290E+02  0.22802938431E+03  0.24853623677E+03  0.47000000000E+01 0.  1.
         11    1    6    6    0    0 -0.15927283600E+02 -0.36030082806E+02  0.44711092554E+02  0.59589655371E+02  0.00000000000E+00 0. -1.
        -12    1    6    6    0    0  0.38688692305E+02  0.22747706856E+02  0.55757088021E+02  0.71576015145E+02  0.00000000000E+00 0.  1.
</event>
<event>
12    1  0.1040325E-001  0.1865531E+03  0.7818608E-02  0.1162382E+00
         21   -1    0    0  503  502  0.00000000000E+00  0.00000000000E+00  0.26691583650E+02  0.26691583650E+02  0.00000000000E+00 0.  1.
         21   -1    0    0  501  503 -0.00000000000E+00 -0.00000000000E+00 -0.14928715190E+04  0.14928715190E+04  0.00000000000E+00 0.  1.
          6    2    1    2  501    0 -0.23999975563E+02  0.63674240807E+02 -0.10251354985E+04  0.10419716126E+04  0.17369986552E+03 0.  0.
         24    2    3    3    0    0 -0.63518294740E+01  0.48163074725E+02 -0.26439938252E+03  0.28085822973E+03  0.81328249859E+02 0.  0.
         -6    2    1    2    0  502  0.23999975563E+02 -0.63674240807E+02 -0.44104443681E+03  0.47759149007E+03  0.17012650699E+03 0.  0.
        -24    2    5    5    0    0 -0.48492003453E+02 -0.47115899396E+02 -0.31495579545E+03  0.33113432510E+03  0.76690324009E+02 0.  0.
          5    1    3    3  501    0 -0.17648146090E+02  0.15511166081E+02 -0.76073611600E+03  0.76111338283E+03  0.47000000000E+01 0. -1.
        -13    1    4    4    0    0  0.51983530835E+01  0.24610138111E+02 -0.24934980758E+03  0.25061525954E+03  0.00000000000E+00 0.  1.
         14    1    4    4    0    0 -0.11550182557E+02  0.23552936615E+02 -0.15049574944E+02  0.30242970196E+02  0.00000000000E+00 0. -1.
         -5    1    5    5    0  502  0.72491979016E+02 -0.16558341411E+02 -0.12608864136E+03  0.14645716497E+03  0.47000000000E+01 0.  1.
         13    1    6    6    0    0 -0.23339403987E+02  0.82655535576E+01 -0.19572254885E+03  0.19728244545E+03  0.00000000000E+00 0. -1.
        -14    1    6    6    0    0 -0.25152599466E+02 -0.55381452953E+02 -0.11923324660E+03  0.13385187965E+03  0.00000000000E+00 0.  1.
</event>
<event>
12    1  0.1040325E-001  0.2231055E+03  0.7818608E-02  0.1131690E+00
         21   -1    0    0  501  502  0.00000000000E+00  0.00000000000E+00  0.99745878200E+02  0.99745878200E+02  0.00000000000E+00 0.  1.
         21   -1    0    0  502  503 -0.00000000000E+00 -0.00000000000E+00 -0.20203215852E+04  0.20203215852E+04  0.00000000000E+00 0. -1.
         -6    2    1    2    0  503  0.13530586007E+03  0.44226524177E+02 -0.18802149708E+04  0.18933406485E+04  0.17107546110E+03 0.  0.
        -24    2    3    3    0    0  0.14696287777E+03  0.58346490168E+02 -0.18440469759E+04  0.18525304370E+04  0.79733119886E+02 0.  0.
          6    2    1    2  501    0 -0.13530586007E+03 -0.44226524177E+02 -0.40360736213E+02  0.22672681498E+03  0.17179172970E+03 0.  0.
         24    2    5    5    0    0 -0.14016290704E+03 -0.53165701685E+01 -0.70858290480E+02  0.17682925750E+03  0.81078866225E+02 0.  0.
          5    1    5    5  501    0  0.48570469734E+01 -0.38909954009E+02  0.30497554266E+02  0.49897557480E+02  0.47000000000E+01 0. -1.
        -11    1    6    6    0    0 -0.11622705728E+03 -0.42396974477E+01 -0.16557223105E+02  0.11747699994E+03  0.00000000000E+00 0.  1.
         12    1    6    6    0    0 -0.23935849760E+02 -0.10768727208E+01 -0.54301067375E+02  0.59352257553E+02  0.00000000000E+00 0. -1.
         -5    1    3    3    0  503 -0.11657017705E+02 -0.14119965991E+02 -0.36167994982E+02  0.40810211496E+02  0.47000000000E+01 0.  1.
         13    1    4    4    0    0  0.70217184770E+01 -0.94296368339E+01 -0.39309477664E+03  0.39327055064E+03  0.00000000000E+00 0. -1.
        -14    1    4    4    0    0  0.13994115930E+03  0.67776127002E+02 -0.14509521992E+04  0.14592598863E+04  0.00000000000E+00 0.  1.
</event>
<event>
12    1  0.1040325E-001  0.1852805E+03  0.7818608E-02  0.1164235E+00
         21   -1    0    0  503  502  0.00000000000E+00  0.00000000000E+00  0.56311308120E+02  0.56311308120E+02  0.00000000000E+00 0. -1.
         21   -1    0    0  501  503 -0.00000000000E+00 -0.00000000000E+00 -0.12088827071E+04  0.12088827071E+04  0.00000000000E+00 0.  1.
          6    2    1    2  501    0  0.23189433256E+02 -0.60756281355E+02 -0.10242775614E+04  0.10398316840E+04  0.16696207011E+03 0.  0.
         24    2    3    3    0    0  0.76225471703E+02 -0.54415925923E+02 -0.55923777048E+03  0.57171084643E+03  0.73041032795E+02 0.  0.
         -6    2    1    2    0  502 -0.23189433256E+02  0.60756281355E+02 -0.12829383758E+03  0.22536233115E+03  0.17349292782E+03 0.  0.
        -24    2    5    5    0    0  0.40126247140E+02 -0.39669179517E+01 -0.39435126316E+02  0.98413804263E+02  0.80649212857E+02 0.  0.
          5    1    3    3  501    0 -0.53036038447E+02 -0.63403554319E+01 -0.46503979088E+03  0.46812083759E+03  0.47000000000E+01 0. -1.
        -11    1    4    4    0    0 -0.12124592133E+02 -0.98741129041E+01 -0.14405864531E+03  0.14490478642E+03  0.00000000000E+00 0.  1.
         12    1    4    4    0    0  0.88350063836E+02 -0.44541813019E+02 -0.41517912517E+03  0.42680606001E+03  0.00000000000E+00 0. -1.
         -5    1    5    5    0  502 -0.63315680396E+02  0.64723199307E+02 -0.88858711260E+02  0.12694852689E+03  0.47000000000E+01 0.  1.
         11    1    6    6    0    0 -0.22079268811E+02  0.12384916550E+02 -0.64225114095E+01  0.26117597937E+02  0.00000000000E+00 0. -1.
        -12    1    6    6    0    0  0.62205515951E+02 -0.16351834502E+02 -0.33012614906E+02  0.72296206327E+02  0.00000000000E+00 0.  1.
</event>
<event>
12    1  0.1040325E-001  0.1927677E+03  0.7818608E-02  0.1156314E+00
         21   -1    0    0  503  502  0.00000000000E+00  0.00000000000E+00  0.12631515538E+03  0.12631515538E+03  0.00000000000E+00 0. -1.
         21   -1    0    0  501  503 -0.00000000000E+00 -0.00000000000E+00 -0.30788977394E+03  0.30788977394E+03  0.00000000000E+00 0.  1.
          6    2    1    2  501    0  0.15199475827E+02  0.81365158418E+02 -0.14051657291E+03  0.23854624627E+03  0.17409219189E+03 0.  0.
         24    2    3    3    0    0 -0.26623380195E+02  0.74919390786E+02 -0.15673365213E+03  0.19298548613E+03  0.79726035022E+02 0.  0.
         -6    2    1    2    0  502 -0.15199475827E+02 -0.81365158418E+02 -0.41058045656E+02  0.19565868305E+03  0.17246809580E+03 0.  0.
        -24    2    5    5    0    0 -0.10224127992E+01 -0.80825728974E+02  0.35345902994E+02  0.11780668584E+03  0.78072008928E+02 0.  0.
          5    1    3    3  501    0  0.41822856023E+02  0.64457676326E+01  0.16217079216E+02  0.45560760140E+02  0.47000000000E+01 0. -1.
        -13    1    4    4    0    0  0.20754361335E+02 -0.31910447055E+00 -0.49562126866E+02  0.53733134671E+02  0.00000000000E+00 0.  1.
         14    1    4    4    0    0 -0.47377741530E+02  0.75238495256E+02 -0.10717152526E+03  0.13925235146E+03  0.00000000000E+00 0. -1.
         -5    1    5    5    0  502 -0.14177063028E+02 -0.53942944479E+00 -0.76403948650E+02  0.77851997210E+02  0.47000000000E+01 0.  1.
         11    1    6    6    0    0 -0.25709961183E+02 -0.81157065660E+02  0.16428430889E+02  0.86702737858E+02  0.00000000000E+00 0. -1.
        -12    1    6    6    0    0  0.24687548384E+02  0.33133668668E+00  0.18917472105E+02  0.31103947982E+02  0.00000000000E+00 0.  1.
</event>
<event>
12    1  0.1040325E-001  0.1935339E+03  0.7818608E-02  0.1156647E+00
         21   -1    0    0  501  502  0.00000000000E+00  0.00000000000E+00  0.45741844128E+03  0.45741844128E+03  0.00000000000E+00 0. -1.
         21   -1    0    0  502  503 -0.00000000000E+00 -0.00000000000E+00 -0.27881618093E+03  0.27881618093E+03  0.00000000000E+00 0. -1.
         -6    2    1    2    0  503  0.18680753550E+02  0.68766818536E+02 -0.22242167686E+03  0.29095317456E+03  0.17350648854E+03 0.  0.
        -24    2    3    3    0    0  0.29752415240E+02 -0.15908366690E+02 -0.16966149639E+03  0.19046339732E+03  0.79705708821E+02 0.  0.
          6    2    1    2  501    0 -0.18680753550E+02 -0.68766818536E+02  0.40102393720E+03  0.44528144765E+03  0.17993755453E+03 0.  0.
         24    2    5    5    0    0 -0.43139497661E+02  0.25123816002E+02  0.22934756096E+03  0.24802894558E+03  0.80161285757E+02 0.  0.
          5    1    5    5  501    0  0.24458744111E+02 -0.93890634538E+02  0.17167637624E+03  0.19725250208E+03  0.47000000000E+01 0. -1.
        -13    1    6    6    0    0  0.23230292691E+02  0.72215384300E+01  0.42968627229E+02  0.49377120631E+02  0.00000000000E+00 0.  1.
         14    1    6    6    0    0 -0.66369790353E+02  0.17902277571E+02  0.18637893373E+03  0.19865182494E+03  0.00000000000E+00 0. -1.
         -5    1    3    3    0  503 -0.11071661690E+02  0.84675185226E+02 -0.52760180465E+02  0.10048977723E+03  0.47000000000E+01 0.  1.
         13    1    4    4    0    0  0.15019170045E+02 -0.47696594200E+02 -0.81800395118E+02  0.95874111254E+02  0.00000000000E+00 0. -1.
        -14    1    4    4    0    0  0.14733245195E+02  0.31788227510E+02 -0.87861101272E+02  0.94589286069E+02  0.00000000000E+00 0.  1.
</event>
<event>
12    1  0.1040325E-001  0.2282165E+03  0.7818608E-02  0.1128321E+00
         21   -1    0    0  503  502  0.00000000000E+00  0.00000000000E+00  0.19055620505E+03  0.19055620505E+03  0.00000000000E+00 0. -1.
         21   -1    0    0  501  503 -0.00000000000E+00 -0.00000000000E+00 -0.29209881923E+03  0.29209881923E+03  0.00000000000E+00 0. -1.
          6    2    1    2  501    0 -0.91817046839E+02 -0.11336356296E+03 -0.11612662215E+03  0.25397298279E+03  0.17243902144E+03 0.  0.
         24    2    3    3    0    0  0.24028765592E+02 -0.24449876827E+02 -0.46313056200E+02  0.92041145797E+02  0.71773917911E+02 0.  0.
         -6    2    1    2    0  502  0.91817046839E+02  0.11336356296E+03  0.14584007976E+02  0.22868204149E+03  0.17550246527E+03 0.  0.
        -24    2    5    5    0    0  0.11692913461E+03  0.12768110581E+03 -0.88024259454E+01  0.19120372406E+03  0.80662842065E+02 0.  0.
          5    1    3    3  501    0 -0.11584581243E+03 -0.88913686132E+02 -0.69813565952E+02  0.16193183699E+03  0.47000000000E+01 0. -1.
        -11    1    4    4    0    0  0.22363496630E+02  0.22310624390E+02 -0.26485113081E+02  0.41223187130E+02  0.00000000000E+00 0.  1.
         12    1    4    4    0    0  0.16652689620E+01 -0.46760501217E+02 -0.19827943119E+02  0.50817958667E+02  0.00000000000E+00 0. -1.
         -5    1    5    5    0  502 -0.25112087771E+02 -0.14317542856E+02  0.23386433921E+02  0.37478317428E+02  0.47000000000E+01 0.  1.
         11    1    6    6    0    0  0.70729788706E+02  0.11891051484E+03  0.13774912509E+02  0.13904014443E+03  0.00000000000E+00 0. -1.
        -12    1    6    6    0    0  0.46199345905E+02  0.87705909772E+01 -0.22577338454E+02  0.52163579630E+02  0.00000000000E+00 0.  1.
</event>
<event>
12    1  0.1040325E-001  0.1961660E+03  0.7818608E-02  0.1153065E+00
         21   -1    0    0  501  502  0.00000000000E+00  0.00000000000E+00  0.70915982352E+03  0.70915982352E+03  0.00000000000E+00 0.  1.
         21   -1    0    0  502  503 -0.00000000000E+00 -0.00000000000E+00 -0.22268109763E+03  0.22268109763E+03  0.00000000000E+00 0.  1.
         -6    2    1    2    0  503  0.58229384183E+02  0.74334391994E+02 -0.16206803754E+03  0.25427615165E+03  0.17168007890E+03 0.  0.
        -24    2    3    3    0    0  0.49025332871E+02 -0.22998527891E+02 -0.72160073706E+02  0.12137038121E+03  0.81186683949E+02 0.  0.
          6    2    1    2  501    0 -0.58229384183E+02 -0.74334391994E+02  0.64854676343E+03  0.67756476951E+03  0.17194432096E+03 0.  0.
         24    2    5    5    0    0  0.21549676340E+02 -0.79097787119E+02  0.43548478738E+03  0.44995790654E+03  0.78065800101E+02 0.  0.
          5    1    5    5  501    0 -0.79779060523E+02  0.47633951250E+01  0.21306197605E+03  0.22760686297E+03  0.47000000000E+01 0. -1.
        -11    1    6    6    0    0 -0.19296549389E+02 -0.37774181608E+02  0.29342188538E+03  0.29647200278E+03  0.00000000000E+00 0.  1.
         12    1    6    6    0    0  0.40846225730E+02 -0.41323605511E+02  0.14206290200E+03  0.15348590376E+03  0.00000000000E+00 0. -1.
         -5    1    3    3    0  503  0.92040513116E+01  0.97332919884E+02 -0.89907963833E+02  0.13290577043E+03  0.47000000000E+01 0.  1.
         13    1    4    4    0    0  0.65876551598E+02 -0.24301100422E+02 -0.76582713609E+02  0.10389983424E+03  0.00000000000E+00 0. -1.
        -14    1    4    4    0    0 -0.16851218726E+02  0.13025725316E+01  0.44226399027E+01  0.17470546971E+02  0.00000000000E+00 0.  1.
</event>
<event>
12    1  0.1040325E-001  0.1875358E+03  0.7818608E-02  0.1161302E+00
         21   -1    0    0  503  502  0.00000000000E+00  0.00000000000E+00  0.27317012717E+03  0.27317012717E+03  0.00000000000E+00 0.  1.
         21   -1    0    0  501  503 -0.00000000000E+00 -0.00000000000E+00 -0.14426752896E+03  0.14426752896E+03  0.00000000000E+00 0.  1.
          6    2    1    2  501    0 -0.48136839332E+02 -0.45094151985E+02 -0.74198625471E+01  0.18768251294E+03  0.17555350597E+03 0.  0.
         24    2    3    3    0    0 -0.66842613698E+02  0.31435438825E+01 -0.54814527559E+02  0.11736092614E+03  0.79316692315E+02 0.  0.
         -6    2    1    2    0  502  0.48136839332E+02  0.45094151985E+02  0.13632246075E+03  0.22975514319E+03  0.17278013392E+03 0.  0.
        -24    2    5    5    0    0 -0.17135716618E+02  0.23050527747E+02  0.82689212126E+01  0.84268968877E+02  0.78790382942E+02 0.  0.
          5    1    3    3  501    0  0.18705774366E+02 -0.48237695867E+02  0.47394665012E+02  0.70321586791E+02  0.47000000000E+01 0. -1.
        -11    1    4    4    0    0 -0.61427916495E+02  0.31658703602E+02 -0.55022671201E+02  0.88335478630E+02  0.00000000000E+00 0.  1.
         12    1    4    4    0    0 -0.54146972027E+01 -0.28515159719E+02  0.20814364245E+00  0.29025447514E+02  0.00000000000E+00 0. -1.
         -5    1    5    5    0  502  0.65272555950E+02  0.22043624238E+02  0.12805353954E+03  0.14548617432E+03  0.47000000000E+01 0.  1.
         13    1    6    6    0    0 -0.65408616370E+01 -0.51502127110E+01 -0.32515817467E+02  0.33564653246E+02  0.00000000000E+00 0. -1.
        -14    1    6    6    0    0 -0.10594854981E+02  0.28200740458E+02  0.40784738680E+02  0.50704315631E+02  0.00000000000E+00 0.  1.
</event>
<event>
12    1  0.1040325E-001  0.1991199E+03  0.7818608E-02  0.1150745E+00
         21   -1    0    0  501  502  0.00000000000E+00  0.00000000000E+00  0.44835123483E+03  0.44835123483E+03  0.00000000000E+00 0. -1.
         21   -1    0    0  502  503 -0.00000000000E+00 -0.00000000000E+00 -0.22748356392E+03  0.22748356392E+03  0.00000000000E+00 0. -1.
         -6    2    1    2    0  503 -0.13882193982E+01 -0.98743529102E+02 -0.15414402404E+03  0.25181169547E+03  0.17290615413E+03 0.  0.
        -24    2    3    3    0    0  0.20473298434E+02 -0.13422553003E+03 -0.11714302688E+03  0.19588261410E+03  0.78815359542E+02 0.  0.
          6    2    1    2  501    0  0.13882193982E+01  0.98743529102E+02  0.37501169495E+03  0.42402310327E+03  0.17149230031E+03 0.  0.
         24    2    5    5    0    0  0.32666528308E+02  0.14091296050E+02  0.89226469038E+02  0.12429052493E+03  0.78873982497E+02 0.  0.
          5    1    5    5  501    0 -0.31278308910E+02  0.84652233052E+02  0.28578522591E+03  0.29973257834E+03  0.47000000000E+01 0. -1.
        -11    1    6    6    0    0  0.58826426223E+02  0.62592562905E+01  0.63184524444E+02  0.86556402656E+02  0.00000000000E+00 0.  1.
         12    1    6    6    0    0 -0.26159897915E+02  0.78320397598E+01  0.26041944594E+02  0.37734122277E+02  0.00000000000E+00 0. -1.
         -5    1    3    3    0  503 -0.21861517832E+02  0.35482000932E+02 -0.37000997164E+02  0.55929081373E+02  0.47000000000E+01 0.  1.
         13    1    4    4    0    0 -0.16771376086E+02 -0.10300857598E+03 -0.58223575696E+02  0.11950744976E+03  0.00000000000E+00 0. -1.
        -14    1    4    4    0    0  0.37244674520E+02 -0.31216954050E+02 -0.58919451181E+02  0.76375164338E+02  0.00000000000E+00 0.  1.
</event>
<event>
12    1  0.1040325E-001  0.1910713E+03  0.7818608E-02  0.1157801E+00
         21   -1    0    0  501  502  0.00000000000E+00  0.00000000000E+00  0.14664086685E+03  0.14664086685E+03  0.00000000000E+00 0.  1.
         21   -1    0    0  502  503 -0.00000000000E+00 -0.00000000000E+00 -0.12301527425E+04  0.12301527425E+04  0.00000000000E+00 0. -1.
         -6    2    1    2    0  503 -0.64123274653E+02 -0.52896979551E+02 -0.11567212119E+04  0.11721772770E+04  0.17054536642E+03 0.  0.
        -24    2    3    3    0    0 -0.10488059543E+03 -0.12205071865E+02 -0.78412762117E+03  0.79512944933E+03  0.78903813767E+02 0.  0.
          6    2    1    2  501    0  0.64123274653E+02  0.52896979551E+02  0.73209336194E+02  0.20461633235E+03  0.17204171517E+03 0.  0.
         24    2    5    5    0    0  0.75658118505E+02  0.26564794981E+02  0.11062708402E+03  0.15719677500E+03  0.77734388284E+02 0.  0.
          5    1    5    5  501    0 -0.11534843852E+02  0.26332184570E+02 -0.37417747829E+02  0.47419557352E+02  0.47000000000E+01 0. -1.
        -11    1    6    6    0    0  0.72325779785E+02  0.48590161396E+02  0.99623371235E+02  0.13235119305E+03  0.00000000000E+00 0.  1.
         12    1    6    6    0    0  0.33323387200E+01 -0.22025366415E+02  0.11003712788E+02  0.24845581945E+02  0.00000000000E+00 0. -1.
         -5    1    3    3    0  503  0.40757320781E+02 -0.40691907685E+02 -0.37259359071E+03  0.37704782772E+03  0.47000000000E+01 0.  1.
         11    1    4    4    0    0 -0.46563200994E+02 -0.31419734722E+00 -0.59589506139E+03  0.59771159818E+03  0.00000000000E+00 0. -1.
        -12    1    4    4    0    0 -0.58317394440E+02 -0.11890874518E+02 -0.18823255978E+03  0.19741785115E+03  0.00000000000E+00 0.  1.
</event>
<event>
12    1  0.1040325E-001  0.1755095E+03  0.7818608E-02  0.1173263E+00
         21   -1    0    0  503  502  0.00000000000E+00  0.00000000000E+00  0.53177748652E+03  0.53177748652E+03  0.00000000000E+00 0.  1.
         21   -1    0    0  501  503 -0.00000000000E+00 -0.00000000000E+00 -0.52944047133E+03  0.52944047133E+03  0.00000000000E+00 0.  1.
          6    2    1    2  501    0  0.69251423962E+01 -0.97973666227E+01 -0.50028386399E+03  0.53017689325E+03  0.17509896510E+03 0.  0.
         24    2    3    3    0    0  0.61850322663E+02 -0.38318013838E+02 -0.25321128285E+03  0.27542769679E+03  0.80316435432E+02 0.  0.
         -6    2    1    2    0  502 -0.69251423962E+01  0.97973666227E+01  0.50262087919E+03  0.53104106460E+03  0.17097636709E+03 0.  0.
        -24    2    5    5    0    0  0.57456117106E+02  0.90131238341E+01  0.37008608370E+03  0.38361947993E+03  0.82569693210E+02 0.  0.
          5    1    3    3  501    0 -0.54925180267E+02  0.28520647215E+02 -0.24707258115E+03  0.25474919646E+03  0.47000000000E+01 0. -1.
        -11    1    4    4    0    0  0.71402828433E+01  0.15012737639E+02 -0.12558228537E+03  0.12667784467E+03  0.00000000000E+00 0.  1.
         12    1    4    4    0    0  0.54710039820E+02 -0.53330751477E+02 -0.12762899748E+03  0.14874985212E+03  0.00000000000E+00 0. -1.
         -5    1    5    5    0  502 -0.64381259502E+02  0.78424278868E+00  0.13253479549E+03  0.14742158467E+03  0.47000000000E+01 0.  1.
         13    1    6    6    0    0  0.51435365385E+02 -0.30943182493E+02  0.24062646084E+03  0.24800034478E+03  0.00000000000E+00 0. -1.
        -14    1    6    6    0    0  0.60207517210E+01  0.39956306328E+02  0.12945962286E+03  0.13561913515E+03  0.00000000000E+00 0.  1.
</event>
<event>
12    1  0.1040325E-001  0.1971185E+03  0.7818608E-02  0.1152625E+00
         21   -1    0    0  503  502  0.00000000000E+00  0.00000000000E+00  0.14168912975E+04  0.14168912975E+04  0.00000000000E+00 0.  1.
         21   -1    0    0  501  503 -0.00000000000E+00 -0.00000000000E+00 -0.17755476323E+03  0.17755476323E+03  0.00000000000E+00 0.  1.
          6    2    1    2  501    0  0.15743319900E+02 -0.95724254267E+02 -0.11456558430E+03  0.22626966898E+03  0.16929768167E+03 0.  0.
         24    2    3    3    0    0 -0.49613593479E+02 -0.81510940461E+02 -0.94281037643E+02  0.15621899269E+03  0.80061960666E+02 0.  0.
         -6    2    1    2    0  502 -0.15743319900E+02  0.95724254267E+02  0.13539021186E+04  0.13681763918E+04  0.17159460165E+03 0.  0.
        -24    2    5    5    0    0 -0.38900396272E+02  0.24491413180E+01  0.89006992148E+03  0.89446878791E+03  0.79565748309E+02 0.  0.
          5    1    3    3  501    0  0.65356913379E+02 -0.14213313806E+02 -0.20284546656E+02  0.70050676290E+02  0.47000000000E+01 0. -1.
        -13    1    4    4    0    0 -0.27705881616E+02 -0.83769620591E+02 -0.38535516607E+02  0.96280586051E+02  0.00000000000E+00 0.  1.
         14    1    4    4    0    0 -0.21907711863E+02  0.22586801299E+01 -0.55745521036E+02  0.59938406641E+02  0.00000000000E+00 0. -1.
         -5    1    5    5    0  502  0.23157076372E+02  0.93275112950E+02  0.46383219711E+03  0.47370760386E+03  0.47000000000E+01 0.  1.
         11    1    6    6    0    0 -0.19473049351E+02  0.70083792390E+01  0.49373809602E+02  0.53535876804E+02  0.00000000000E+00 0. -1.
        -12    1    6    6    0    0 -0.19427346920E+02 -0.45592379210E+01  0.84069611188E+03  0.84093291111E+03  0.00000000000E+00 0.  1.
</event>
<event>
12    1  0.1040325E-001  0.1946532E+03  0.7818608E-02  0.1157487E+00
         21   -1    0    0  501  502  0.00000000000E+00  0.00000000000E+00  0.67105431697E+03  0.67105431697E+03  0.00000000000E+00 0.  1.
         21   -1    0    0  502  503 -0.00000000000E+00 -0.00000000000E+00 -0.56577150033E+02  0.56577150033E+02  0.00000000000E+00 0.  1.
         -6    2    1    2    0  503 -0.33486286088E+02  0.41581713554E+02  0.39421528437E+03  0.43368393271E+03  0.17270116619E+03 0.  0.
        -24    2    3    3    0    0  0.28859545162E+02 -0.66410877925E+01  0.11015505847E+03  0.13885390849E+03  0.79178870937E+02 0.  0.
          6    2    1    2  501    0  0.33486286088E+02 -0.41581713554E+02  0.22026188257E+03  0.29394753430E+03  0.18718836969E+03 0.  0.
         24    2    5    5    0    0  0.42436315052E+02  0.35312762852E+02  0.19276107588E+03  0.21165994174E+03  0.67788395072E+02 0.  0.
          5    1    5    5  501    0 -0.89500289634E+01 -0.76894476406E+02  0.27500806691E+02  0.82287592557E+02  0.47000000000E+01 0. -1.
        -13    1    6    6    0    0 -0.11231510312E+02 -0.11518702659E+02  0.39762856017E+02  0.42894196035E+02  0.00000000000E+00 0.  1.
         14    1    6    6    0    0  0.53667825364E+02  0.46831465511E+02  0.15299821986E+03  0.16876574570E+03  0.00000000000E+00 0. -1.
         -5    1    3    3    0  503 -0.62345831251E+02  0.48222801347E+02  0.28406022590E+03  0.29483002422E+03  0.47000000000E+01 0.  1.
         13    1    4    4    0    0 -0.27075164478E+02 -0.84275805871E+01  0.32449605294E+02  0.43093683177E+02  0.00000000000E+00 0. -1.
        -14    1    4    4    0    0  0.55934709640E+02  0.17864927946E+01  0.77705453174E+02  0.95760225313E+02  0.00000000000E+00 0.  1.
</event>
<event>
12    1  0.1040325E-001  0.2882283E+03  0.7818608E-02  0.1091545E+00
         21   -1    0    0  503  502  0.00000000000E+00  0.00000000000E+00  0.12529501837E+04  0.12529501837E+04  0.00000000000E+00 0. -1.
         21   -1    0    0  501  503 -0.00000000000E+00 -0.00000000000E+00 -0.89826318171E+02  0.89826318171E+02  0.00000000000E+00 0. -1.
          6    2    1    2  501    0 -0.21477214710E+03 -0.80034804836E+02  0.92700021452E+03  0.97017762380E+03  0.17141347337E+03 0.  0.
         24    2    3    3    0    0 -0.18200441841E+03 -0.49572354078E+01  0.55973633220E+03  0.59385965356E+03  0.78831110820E+02 0.  0.
         -6    2    1    2    0  502  0.21477214710E+03  0.80034804836E+02  0.23612365099E+03  0.37259887805E+03  0.17476527175E+03 0.  0.
        -24    2    5    5    0    0  0.67826392266E+02  0.16638023071E+02  0.10345008914E+02  0.95813235322E+02  0.64775871695E+02 0.  0.
          5    1    3    3  501    0 -0.32767728689E+02 -0.75077569428E+02  0.36726388231E+03  0.37631797024E+03  0.47000000000E+01 0. -1.
        -11    1    4    4    0    0 -0.50364559757E+02 -0.96888791062E+01  0.70383583985E+02  0.87087956414E+02  0.00000000000E+00 0.  1.
         12    1    4    4    0    0 -0.13163985865E+03  0.47316436984E+01  0.48935274822E+03  0.50677169714E+03  0.00000000000E+00 0. -1.
         -5    1    5    5    0  502  0.14694575483E+03  0.63396781765E+02  0.22577864208E+03  0.27678564273E+03  0.47000000000E+01 0.  1.
         11    1    6    6    0    0  0.73743567490E+02  0.44881135097E+00 -0.33159979007E+01  0.73819448791E+02  0.00000000000E+00 0. -1.
        -12    1    6    6    0    0 -0.59171752239E+01  0.16189211721E+02  0.13661006814E+02  0.21993786530E+02  0.00000000000E+00 0.  1.
</event>
<event>
12    1  0.1040325E-001  0.1782458E+03  0.7818608E-02  0.1170191E+00
         21   -1    0    0  501  502  0.00000000000E+00  0.00000000000E+00  0.58797873897E+03  0.58797873897E+03  0.00000000000E+00 0.  1.
         21   -1    0    0  502  503 -0.00000000000E+00 -0.00000000000E+00 -0.78475789573E+02  0.78475789573E+02  0.00000000000E+00 0.  1.
         -6    2    1    2    0  503  0.10742970582E+02 -0.45021376649E+02  0.67000753281E+02  0.19042233726E+03  0.17213143180E+03 0.  0.
        -24    2    3    3    0    0 -0.56228376954E+02 -0.44002057156E+02  0.21200721204E+02  0.10914544422E+03  0.79783745252E+02 0.  0.
          6    2    1    2  501    0 -0.10742970582E+02  0.45021376649E+02  0.44250219612E+03  0.47603219129E+03  0.16928117970E+03 0.  0.
         24    2    5    5    0    0 -0.41287503044E+02  0.82954641199E+02  0.36044872781E+03  0.38049809955E+03  0.79179466884E+02 0.  0.
          5    1    5    5  501    0  0.30544532462E+02 -0.37933264550E+02  0.82053468307E+02  0.95534091737E+02  0.47000000000E+01 0. -1.
        -13    1    6    6    0    0 -0.24536972809E+02  0.36121100996E+02  0.29541116242E+03  0.29862108407E+03  0.00000000000E+00 0.  1.
         14    1    6    6    0    0 -0.16750530235E+02  0.46833540204E+02  0.65037565395E+02  0.81877015479E+02  0.00000000000E+00 0. -1.
         -5    1    3    3    0  503  0.66971347536E+02 -0.10193194930E+01  0.45800032076E+02  0.81276893034E+02  0.47000000000E+01 0.  1.
         13    1    4    4    0    0  0.15509705616E+02  0.23350670994E+01 -0.95649554070E+01  0.18370952033E+02  0.00000000000E+00 0. -1.
        -14    1    4    4    0    0 -0.71738082571E+02 -0.46337124256E+02  0.30765676611E+02  0.90774492191E+02  0.00000000000E+00 0.  1.
</event>
<event>
12    1  0.1040325E-001  0.1743321E+03  0.7818608E-02  0.1173971E+00
         21   -1    0    0  503  502  0.00000000000E+00  0.00000000000E+00  0.94373884700E+03  0.94373884700E+03  0.00000000000E+00 0.  1.
         21   -1    0    0  501  503 -0.00000000000E+00 -0.00000000000E+00 -0.60063382047E+02  0.60063382047E+02  0.00000000000E+00 0.  1.
          6    2    1    2  501    0 -0.13038266325E+02  0.15817739787E+02  0.99011745665E+02  0.20048688418E+03  0.17312269542E+03 0.  0.
         24    2    3    3    0    0  0.12480681223E+02 -0.50509305278E+02  0.27215933751E+02  0.99357154629E+02  0.80150981295E+02 0.  0.
         -6    2    1    2    0  502  0.13038266325E+02 -0.15817739787E+02  0.78466371929E+03  0.80331534487E+03  0.17087478938E+03 0.  0.
        -24    2    5    5    0    0  0.67390198313E+02 -0.41264097526E+02  0.50682491075E+03  0.51903002487E+03  0.79224440606E+02 0.  0.
          5    1    3    3  501    0 -0.25518947548E+02  0.66327045066E+02  0.71795811914E+02  0.10112972955E+03  0.47000000000E+01 0. -1.
        -13    1    4    4    0    0  0.18801738279E+02  0.12583520758E+02 -0.11173508982E+02  0.25232868643E+02  0.00000000000E+00 0.  1.
         14    1    4    4    0    0 -0.63210570557E+01 -0.63092826037E+02  0.38389442733E+02  0.74124285986E+02  0.00000000000E+00 0. -1.
         -5    1    5    5    0  502 -0.54351931988E+02  0.25446357739E+02  0.27783880854E+03  0.28428531999E+03  0.47000000000E+01 0.  1.
         11    1    6    6    0    0 -0.71741500863E+01 -0.17495949848E+02  0.27597608179E+02  0.33454516403E+02  0.00000000000E+00 0. -1.
        -12    1    6    6    0    0  0.74564348399E+02 -0.23768147678E+02  0.47922730257E+03  0.48557550847E+03  0.00000000000E+00 0.  1.
</event>
<event>
12    1  0.1040325E-001  0.1740978E+03  0.7818608E-02  0.1174352E+00
         21   -1    0    0  503  502  0.00000000000E+00  0.00000000000E+00  0.51292285692E+03  0.51292285692E+03  0.00000000000E+00 0. -1.
         21   -1    0    0  501  503 -0.00000000000E+00 -0.00000000000E+00 -0.65458746423E+02  0.65458746423E+02  0.00000000000E+00 0. -1.
          6    2    1    2  501    0  0.16028758183E+00 -0.10181274712E+02  0.12549823146E+03  0.21235963200E+03  0.17100620795E+03 0.  0.
         24    2    3    3    0    0  0.32940555009E+02 -0.14329464902E+02  0.14799295543E+03  0.17211219704E+03  0.80189025329E+02 0.  0.
         -6    2    1    2    0  502 -0.16028758183E+00  0.10181274712E+02  0.32196587904E+03  0.36602197135E+03  0.17379980493E+03 0.  0.
        -24    2    5    5    0    0 -0.59015627894E+02 -0.19435359008E+02  0.14916610971E+03  0.18102752181E+03  0.81607952143E+02 0.  0.
          5    1    3    3  501    0 -0.32780267427E+02  0.41481901893E+01 -0.22494723972E+02  0.40247434962E+02  0.47000000000E+01 0. -1.
        -13    1    4    4    0    0 -0.17286668324E+02  0.26986216861E+01  0.30354758196E+01  0.17757408995E+02  0.00000000000E+00 0.  1.
         14    1    4    4    0    0  0.50227223333E+02 -0.17028086588E+02  0.14495747961E+03  0.15435478804E+03  0.00000000000E+00 0. -1.
         -5    1    5    5    0  502  0.58855340312E+02  0.29616633720E+02  0.17279976933E+03  0.18499444953E+03  0.47000000000E+01 0.  1.
         11    1    6    6    0    0 -0.19359497812E+02  0.22145429782E+02  0.10359693536E+03  0.10769185314E+03  0.00000000000E+00 0. -1.
        -12    1    6    6    0    0 -0.39656130083E+02 -0.41580788790E+02  0.45569174344E+02  0.73335668674E+02  0.00000000000E+00 0.  1.
</event>
<event>
12    1  0.1040325E-001  0.1932977E+03  0.7818608E-02  0.1155786E+00
         21   -1    0    0  501  502  0.00000000000E+00  0.00000000000E+00  0.23053602960E+02  0.23053602960E+02  0.00000000000E+00 0.  1.
         21   -1    0    0  502  503 -0.00000000000E+00 -0.00000000000E+00 -0.16505044284E+04  0.16505044284E+04  0.00000000000E+00 0.  1.
         -6    2    1    2    0  503 -0.41819622479E+02 -0.75444073446E+02 -0.94122272925E+03  0.96062536516E+03  0.17163967229E+03 0.  0.
        -24    2    3    3    0    0 -0.73318379272E+02  0.14155720701E+01 -0.50574457390E+03  0.51727122842E+03  0.80089706783E+02 0.  0.
          6    2    1    2  501    0  0.41819622479E+02  0.75444073446E+02 -0.68622809621E+03  0.71293266621E+03  0.17298351795E+03 0.  0.
         24    2    5    5    0    0  0.59590617178E+02  0.65740243154E+02 -0.26001939443E+03  0.28621739810E+03  0.80233984479E+02 0.  0.
          5    1    5    5  501    0 -0.17770994698E+02  0.97038302912E+01 -0.42620870178E+03  0.42671526812E+03  0.47000000000E+01 0. -1.
        -11    1    6    6    0    0  0.10280514634E+02  0.32479227261E+02 -0.19557457552E+03  0.19851952996E+03  0.00000000000E+00 0.  1.
         12    1    6    6    0    0  0.49310102544E+02  0.33261015893E+02 -0.64444818912E+02  0.87697868136E+02  0.00000000000E+00 0. -1.
         -5    1    3    3    0  503  0.31498756793E+02 -0.76859645516E+02 -0.43547815534E+03  0.44335413675E+03  0.47000000000E+01 0.  1.
         13    1    4    4    0    0 -0.63011925295E+02  0.88037380965E+01 -0.49874473823E+03  0.50278655755E+03  0.00000000000E+00 0. -1.
        -14    1    4    4    0    0 -0.10306453977E+02 -0.73881660264E+01 -0.69998356684E+01  0.14484670870E+02  0.00000000000E+00 0.  1.
</event>
<event>
12    1  0.1040325E-001  0.1768941E+03  0.7818608E-02  0.1171149E+00
         21   -1    0    0  501  502  0.00000000000E+00  0.00000000000E+00  0.51937633336E+02  0.51937633336E+02  0.00000000000E+00 0. -1.
         21   -1    0    0  502  503 -0.00000000000E+00 -0.00000000000E+00 -0.77805145581E+03  0.77805145581E+03  0.00000000000E+00 0. -1.
         -6    2    1    2    0  503  0.34328074114E+02  0.15754480886E+02 -0.56155258963E+03  0.58838629177E+03  0.17155319024E+03 0.  0.
        -24    2    3    3    0    0 -0.98266655046E+01  0.26716637797E+02 -0.13535670710E+03  0.15974328156E+03  0.79913301502E+02 0.  0.
          6    2    1    2  501    0 -0.34328074114E+02 -0.15754480886E+02 -0.16456123285E+03  0.24160279738E+03  0.17281461745E+03 0.  0.
         24    2    5    5    0    0  0.38976095638E+02 -0.22525860571E+02 -0.50745184755E+02  0.10597265438E+03  0.81416087327E+02 0.  0.
          5    1    5    5  501    0 -0.73304169752E+02  0.67713796855E+01 -0.11381604809E+03  0.13563014300E+03  0.47000000000E+01 0. -1.
        -11    1    6    6    0    0 -0.16968372080E+02  0.15921172904E+02 -0.41444761249E+01  0.23634425740E+02  0.00000000000E+00 0.  1.
         12    1    6    6    0    0  0.55944467719E+02 -0.38447033475E+02 -0.46600708630E+02  0.82338228644E+02  0.00000000000E+00 0. -1.
         -5    1    3    3    0  503  0.44154739618E+02 -0.10962156911E+02 -0.42619588252E+03  0.42864301020E+03  0.47000000000E+01 0.  1.
         13    1    4    4    0    0 -0.23117298773E+02  0.42083121203E+02 -0.13021611247E+03  0.13878629089E+03  0.00000000000E+00 0. -1.
        -14    1    4    4    0    0  0.13290633269E+02 -0.15366483406E+02 -0.51405946368E+01  0.20956990675E+02  0.00000000000E+00 0.  1.
</event>
<event>
12    1  0.1040325E-001  0.2469950E+03  0.7818608E-02  0.1115223E+00
         21   -1    0    0  501  502  0.00000000000E+00  0.00000000000E+00  0.11512517470E+03  0.11512517470E+03  0.00000000000E+00 0.  1.
         21   -1    0    0  502  503 -0.00000000000E+00 -0.00000000000E+00 -0.61947274586E+03  0.61947274586E+03  0.00000000000E+00 0. -1.
         -6    2    1    2    0  503 -0.51667350291E+02  0.16915239244E+03 -0.39186380190E+03  0.46319576399E+03  0.17236887649E+03 0.  0.
        -24    2    3    3    0    0 -0.58442599162E+02  0.25644287376E+02 -0.14766266109E+03  0.17982892156E+03  0.80380424707E+02 0.  0.
          6    2    1    2  501    0  0.51667350291E+02 -0.16915239244E+03 -0.11248376926E+03  0.27140215657E+03  0.17240790378E+03 0.  0.
         24    2    5    5    0    0  0.81583695794E+02 -0.51367249383E+02 -0.61484006590E+02  0.13952572408E+03  0.79954054831E+02 0.  0.
          5    1    5    5  501    0 -0.29916345503E+02 -0.11778514306E+03 -0.50999762667E+02  0.13187643249E+03  0.47000000000E+01 0. -1.
        -13    1    6    6    0    0  0.10577466348E+02 -0.21753555711E+02  0.17044878948E+02  0.29591010100E+02  0.00000000000E+00 0.  1.
         14    1    6    6    0    0  0.71006229447E+02 -0.29613693672E+02 -0.78528885538E+02  0.10993471398E+03  0.00000000000E+00 0. -1.
         -5    1    3    3    0  503  0.67752488704E+01  0.14350810507E+03 -0.24420114081E+03  0.28336684243E+03  0.47000000000E+01 0.  1.
         13    1    4    4    0    0 -0.33312585822E+02  0.37866767785E+02 -0.14282554055E+03  0.15146866181E+03  0.00000000000E+00 0. -1.
        -14    1    4    4    0    0 -0.25130013340E+02 -0.12222480409E+02 -0.48371205388E+01  0.28360259747E+02  0.00000000000E+00 0.  1.
</event>
<event>
12    1  0.1040325E-001  0.2260029E+03  0.7818608E-02  0.1129588E+00
         21   -1    0    0  501  502  0.00000000000E+00  0.00000000000E+00  0.35447943389E+03  0.35447943389E+03  0.00000000000E+00 0. -1.
         21   -1    0    0  502  503 -0.00000000000E+00 -0.00000000000E+00 -0.27439112551E+03  0.27439112551E+03  0.00000000000E+00 0. -1.
         -6    2    1    2    0  503 -0.35867447765E+02 -0.14102513234E+03 -0.17691074849E+03  0.28700994576E+03  0.17292407083E+03 0.  0.
        -24    2    3    3    0    0 -0.54219255119E+02 -0.15177694465E+03 -0.19025558875E+03  0.26146459271E+03  0.78680211210E+02 0.  0.
          6    2    1    2  501    0  0.35867447765E+02  0.14102513234E+03  0.25699905688E+03  0.34186061364E+03  0.17217898294E+03 0.  0.
         24    2    5    5    0    0 -0.65852574157E+01  0.11123343185E+02  0.58805468099E+02  0.10107129570E+03  0.81180227627E+02 0.  0.
          5    1    5    5  501    0  0.42452705181E+02  0.12990178915E+03  0.19819358878E+03  0.24078931794E+03  0.47000000000E+01 0. -1.
        -11    1    6    6    0    0 -0.35757244553E+02  0.90595638503E+01  0.17157826687E+01  0.36926956893E+02  0.00000000000E+00 0.  1.
         12    1    6    6    0    0  0.29171987137E+02  0.20637793346E+01  0.57089685431E+02  0.64144338809E+02  0.00000000000E+00 0. -1.
         -5    1    3    3    0  503  0.18351807354E+02  0.10751812313E+02  0.13344840256E+02  0.25545353053E+02  0.47000000000E+01 0.  1.
         13    1    4    4    0    0 -0.47991446708E+02 -0.35114061579E+02 -0.42453730110E+02  0.73065008574E+02  0.00000000000E+00 0. -1.
        -14    1    4    4    0    0 -0.62278084110E+01 -0.11666288307E+03 -0.14780185864E+03  0.18839958413E+03  0.00000000000E+00 0.  1.
</event>
<event>
12    1  0.1040325E-001  0.1960265E+03  0.7818608E-02  0.1153171E+00
         21   -1    0    0  501  502  0.00000000000E+00  0.00000000000E+00  0.20558150049E+03  0.20558150049E+03  0.00000000000E+00 0.  1.
         21   -1    0    0  502  503 -0.00000000000E+00 -0.00000000000E+00 -0.19962714361E+03  0.19962714361E+03  0.00000000000E+00 0.  1.
         -6    2    1    2    0  503  0.56873001623E+01 -0.96007932377E+02 -0.48464414881E+02  0.20176873551E+03  0.17062225721E+03 0.  0.
        -24    2    3    3    0    0 -0.64494418570E+02 -0.60598117198E+02 -0.16855931466E+02  0.11691288786E+03  0.74517374406E+02 0.  0.
          6    2    1    2  501    0 -0.56873001623E+01  0.96007932377E+02  0.54418771770E+02  0.20343990860E+03  0.17081137323E+03 0.  0.
         24    2    5    5    0    0  0.15877899960E+02  0.11880935504E+03  0.78103997804E+02  0.16384139014E+03  0.79849834682E+02 0.  0.
          5    1    5    5  501    0 -0.21565200122E+02 -0.22801422659E+02 -0.23685226034E+02  0.39598518455E+02  0.47000000000E+01 0. -1.
        -13    1    6    6    0    0  0.83136570402E+01  0.11288676790E+03  0.92740938962E+02  0.14633325329E+03  0.00000000000E+00 0.  1.
         14    1    6    6    0    0  0.75642429199E+01  0.59225871370E+01 -0.14636941158E+02  0.17508136846E+02  0.00000000000E+00 0. -1.
         -5    1    3    3    0  503  0.70181718732E+02 -0.35409815179E+02 -0.31608483415E+02  0.84855847642E+02  0.47000000000E+01 0.  1.
         13    1    4    4    0    0  0.12519707309E+02 -0.57658338958E+01  0.11779804955E+02  0.18131511696E+02  0.00000000000E+00 0. -1.
        -14    1    4    4    0    0 -0.77014125879E+02 -0.54832283303E+02 -0.28635736420E+02  0.98781376167E+02  0.00000000000E+00 0.  1.
</event>
<event>
12    1  0.1040325E-001  0.1817376E+03  0.7818608E-02  0.1167329E+00
         21   -1    0    0  501  502  0.00000000000E+00  0.00000000000E+00  0.97182357859E+03  0.97182357859E+03  0.00000000000E+00 0.  1.
         21   -1    0    0  502  503 -0.00000000000E+00 -0.00000000000E+00 -0.33084739529E+02  0.33084739529E+02  0.00000000000E+00 0.  1.
         -6    2    1    2    0  503 -0.39157387701E+02 -0.17146809086E+02  0.47373427985E+03  0.50565108916E+03  0.17155623563E+03 0.  0.
        -24    2    3    3    0    0 -0.68410713914E+02 -0.68066226248E+01  0.46194353979E+03  0.47212814027E+03  0.69186638861E+02 0.  0.
          6    2    1    2  501    0  0.39157387701E+02  0.17146809086E+02  0.46500455921E+03  0.49925722896E+03  0.17663868918E+03 0.  0.
         24    2    5    5    0    0  0.77238178188E+02 -0.25607141811E+02  0.22140367550E+03  0.24897433409E+03  0.79669125955E+02 0.  0.
          5    1    5    5  501    0 -0.38080790487E+02  0.42753950898E+02  0.24360088371E+03  0.25028289487E+03  0.47000000000E+01 0. -1.
        -13    1    6    6    0    0  0.90274768026E+02 -0.63318423197E+01  0.18047059532E+03  0.20188923137E+03  0.00000000000E+00 0.  1.
         14    1    6    6    0    0 -0.13036589838E+02 -0.19275299492E+02  0.40933080185E+02  0.47085102724E+02  0.00000000000E+00 0. -1.
         -5    1    3    3    0  503  0.29253326213E+02 -0.10340186461E+02  0.11790740066E+02  0.33522948884E+02  0.47000000000E+01 0.  1.
         11    1    4    4    0    0 -0.46371282343E+02 -0.37486984519E+02  0.29456335334E+03  0.30053808239E+03  0.00000000000E+00 0. -1.
        -12    1    4    4    0    0 -0.22039431570E+02  0.30680361894E+02  0.16738018645E+03  0.17159005788E+03  0.00000000000E+00 0.  1.
</event>
<event>
12    1  0.1040325E-001  0.2936301E+03  0.7818608E-02  0.1088477E+00
         21   -1    0    0  501  502  0.00000000000E+00  0.00000000000E+00  0.26052414516E+02  0.26052414516E+02  0.00000000000E+00 0.  1.
         21   -1    0    0  502  503 -0.00000000000E+00 -0.00000000000E+00 -0.33346631527E+04  0.33346631527E+04  0.00000000000E+00 0.  1.
         -6    2    1    2    0  503 -0.16958748338E+03  0.16759461524E+03 -0.15059497611E+04  0.15342968738E+04  0.17127271866E+03 0.  0.
        -24    2    3    3    0    0 -0.16436704540E+01  0.18937065154E+02 -0.41126994544E+03  0.41686670573E+03  0.65372534289E+02 0.  0.
          6    2    1    2  501    0  0.16958748338E+03 -0.16759461524E+03 -0.18026609770E+04  0.18264186934E+04  0.17137904216E+03 0.  0.
         24    2    5    5    0    0  0.17744055861E+03 -0.13296491534E+03 -0.12168348723E+04  0.12394985950E+04  0.80652589328E+02 0.  0.
          5    1    5    5  501    0 -0.78530752281E+01 -0.34629699900E+02 -0.58582610474E+03  0.58692009839E+03  0.47000000000E+01 0. -1.
        -13    1    6    6    0    0  0.18365877161E+03 -0.12322561549E+03 -0.11884090231E+04  0.12088139241E+04  0.00000000000E+00 0.  1.
         14    1    6    6    0    0 -0.62182129986E+01 -0.97392998443E+01 -0.28425849113E+02  0.30684670964E+02  0.00000000000E+00 0. -1.
         -5    1    3    3    0  503 -0.16794381292E+03  0.14865755008E+03 -0.10946798157E+04  0.11174301680E+04  0.47000000000E+01 0.  1.
         11    1    4    4    0    0  0.18775205030E+02  0.19736047278E+02 -0.71979684354E+02  0.76961645291E+02  0.00000000000E+00 0. -1.
        -12    1    4    4    0    0 -0.20418875484E+02 -0.79898212395E+00 -0.33929026108E+03  0.33990506044E+03  0.00000000000E+00 0.  1.
</event>
<event>
12    1  0.1040325E-001  0.1906648E+03  0.7818608E-02  0.1157936E+00
         21   -1    0    0  501  502  0.00000000000E+00  0.00000000000E+00  0.29156935863E+03  0.29156935863E+03  0.00000000000E+00 0. -1.
         21   -1    0    0  502  503 -0.00000000000E+00 -0.00000000000E+00 -0.16150104072E+03  0.16150104072E+03  0.00000000000E+00 0.  1.
         -6    2    1    2    0  503 -0.65318804466E+02  0.49186108133E+02 -0.43401881484E+02  0.19554233729E+03  0.17224187327E+03 0.  0.
        -24    2    3    3    0    0 -0.21163738040E+02  0.75860218102E+02  0.19719472196E+02  0.11388712727E+03  0.79867037477E+02 0.  0.
          6    2    1    2  501    0  0.65318804466E+02 -0.49186108133E+02  0.17347019939E+03  0.25752806206E+03  0.17188069473E+03 0.  0.
         24    2    5    5    0    0  0.84912786990E+02 -0.32068969484E+01  0.17163762845E+03  0.20729400660E+03  0.79314967622E+02 0.  0.
          5    1    5    5  501    0 -0.19593982524E+02 -0.45979211184E+02  0.18325709444E+01  0.50234055466E+02  0.47000000000E+01 0. -1.
        -13    1    6    6    0    0  0.15678045225E+02  0.14732298158E+02  0.17694244262E+00  0.21514483952E+02  0.00000000000E+00 0.  1.
         14    1    6    6    0    0  0.69234741765E+02 -0.17939195106E+02  0.17146068601E+03  0.18577952265E+03  0.00000000000E+00 0. -1.
         -5    1    3    3    0  503 -0.44155066426E+02 -0.26674109969E+02 -0.63121353680E+02  0.81655210024E+02  0.47000000000E+01 0.  1.
         13    1    4    4    0    0  0.68501279462E+01  0.54630802331E+02  0.44572576574E+02  0.70838996313E+02  0.00000000000E+00 0. -1.
        -14    1    4    4    0    0 -0.28013865987E+02  0.21229415771E+02 -0.24853104378E+02  0.43048130955E+02  0.00000000000E+00 0.  1.
</event>
<event>
12    1  0.1040325E-001  0.1916797E+03  0.7818608E-02  0.1158887E+00
         21   -1    0    0  503  502  0.00000000000E+00  0.00000000000E+00  0.17422208195E+03  0.17422208195E+03  0.00000000000E+00 0.  1.
         21   -1    0    0  501  503 -0.00000000000E+00 -0.00000000000E+00 -0.22586079957E+03  0.22586079957E+03  0.00000000000E+00 0.  1.
          6    2    1    2  501    0 -0.17780280939E+02  0.65605571654E+02 -0.91775068503E+02  0.21251769851E+03  0.17922298837E+03 0.  0.
         24    2    3    3    0    0 -0.13447874827E+02  0.95683971258E+02 -0.81871374220E+01  0.12345304734E+03  0.76402604573E+02 0.  0.
         -6    2    1    2    0  502  0.17780280939E+02 -0.65605571654E+02  0.40136350883E+02  0.18756518301E+03  0.17014564877E+03 0.  0.
        -24    2    5    5    0    0  0.46432351216E+02  0.13702439908E+02 -0.16569471073E+01  0.93334234880E+02  0.79779783329E+02 0.  0.
          5    1    3    3  501    0 -0.43324061123E+01 -0.30078399604E+02 -0.83587931081E+02  0.89064651169E+02  0.47000000000E+01 0. -1.
        -13    1    4    4    0    0 -0.14975723946E+02  0.78369958013E+02 -0.38438149071E+02  0.88564179727E+02  0.00000000000E+00 0.  1.
         14    1    4    4    0    0  0.15278491184E+01  0.17314013244E+02  0.30251011649E+02  0.34888867614E+02  0.00000000000E+00 0. -1.
         -5    1    5    5    0  502 -0.28652070277E+02 -0.79308011561E+02  0.41793297991E+02  0.94230948132E+02  0.47000000000E+01 0.  1.
         13    1    6    6    0    0  0.32317014233E+02 -0.31840605990E+02  0.27492784359E+01  0.45450766007E+02  0.00000000000E+00 0. -1.
        -14    1    6    6    0    0  0.14115336983E+02  0.45543045897E+02 -0.44062255431E+01  0.47883468873E+02  0.00000000000E+00 0.  1.
</event>
<event>
12    1  0.1040325E-001  0.2444338E+03  0.7818608E-02  0.1117033E+00
         21   -1    0    0  501  502  0.00000000000E+00  0.00000000000E+00  0.98944715934E+03  0.98944715934E+03  0.00000000000E+00 0.  1.
         21   -1    0    0  502  503 -0.00000000000E+00 -0.00000000000E+00 -0.96116353113E+02  0.96116353113E+02  0.00000000000E+00 0. -1.
         -6    2    1    2    0  503 -0.69140599740E+02  0.15989448438E+03  0.11516888870E+03  0.27020691586E+03  0.17146788558E+03 0.  0.
        -24    2    3    3    0    0 -0.40887157994E+02  0.16784993959E+03  0.46160816751E+02  0.19506870832E+03  0.77946251067E+02 0.  0.
          6    2    1    2  501    0  0.69140599740E+02 -0.15989448438E+03  0.77816191753E+03  0.81535659660E+03  0.17006981229E+03 0.  0.
         24    2    5    5    0    0  0.42942281639E+02 -0.17447085164E+03  0.52662293088E+03  0.56199366687E+03  0.78873649903E+02 0.  0.
          5    1    5    5  501    0  0.26198318101E+02  0.14576367262E+02  0.25153898665E+03  0.25336292972E+03  0.47000000000E+01 0. -1.
        -11    1    6    6    0    0  0.34112468013E+02 -0.45359426311E+02  0.25331337493E+03  0.25959353603E+03  0.00000000000E+00 0.  1.
         12    1    6    6    0    0  0.88298136253E+01 -0.12911142533E+03  0.27330955595E+03  0.30240013084E+03  0.00000000000E+00 0. -1.
         -5    1    3    3    0  503 -0.28253441746E+02 -0.79554552035E+01  0.69008071945E+02  0.75138207535E+02  0.47000000000E+01 0.  1.
         11    1    4    4    0    0 -0.40580498789E+01  0.61281606033E+02  0.54360588673E+02  0.82018148039E+02  0.00000000000E+00 0. -1.
        -12    1    4    4    0    0 -0.36829108115E+02  0.10656833355E+03 -0.81997719222E+01  0.11305056028E+03  0.00000000000E+00 0.  1.
</event>
<event>
12    1  0.1040325E-001  0.2552748E+03  0.7818608E-02  0.1110034E+00
         21   -1    0    0  501  502  0.00000000000E+00  0.00000000000E+00  0.45473011807E+02  0.45473011807E+02  0.00000000000E+00 0. -1.
         21   -1    0    0  502  503 -0.00000000000E+00 -0.00000000000E+00 -0.15952381733E+04  0.15952381733E+04  0.00000000000E+00 0. -1.
         -6    2    1    2    0  503  0.18830521737E+03  0.96901041448E+01 -0.10368381529E+04  0.10677719830E+04  0.17190374973E+03 0.  0.
        -24    2    3    3    0    0  0.15876871279E+03 -0.18412862385E+02 -0.98757296960E+03  0.10036523282E+04  0.80443073279E+02 0.  0.
          6    2    1    2  501    0 -0.18830521737E+03 -0.96901041448E+01 -0.51292700854E+03  0.57293920214E+03  0.17208271342E+03 0.  0.
         24    2    5    5    0    0 -0.23474383368E+02 -0.17148102552E+02 -0.11856656555E+03  0.14542654202E+03  0.79030023156E+02 0.  0.
          5    1    5    5  501    0 -0.16483083400E+03  0.74579984072E+01 -0.39436044299E+03  0.42751266013E+03  0.47000000000E+01 0. -1.
        -11    1    6    6    0    0 -0.26308884955E+02  0.18242492076E+02 -0.13899705058E+02  0.34901973374E+02  0.00000000000E+00 0.  1.
         12    1    6    6    0    0  0.28345015876E+01 -0.35390594629E+02 -0.10466686050E+03  0.11052456864E+03  0.00000000000E+00 0. -1.
         -5    1    3    3    0  503  0.29536504576E+02  0.28102966530E+02 -0.49265183346E+02  0.64119654712E+02  0.47000000000E+01 0.  1.
         13    1    4    4    0    0  0.13709756544E+03 -0.25858475948E+01 -0.61439042837E+03  0.62950617752E+03  0.00000000000E+00 0. -1.
        -14    1    4    4    0    0  0.21671147352E+02 -0.15827014791E+02 -0.37318254123E+03  0.37414615072E+03  0.00000000000E+00 0.  1.
</event>
<event>
12    1  0.1040325E-001  0.1823002E+03  0.7818608E-02  0.1165638E+00
         21   -1    0    0  503  502  0.00000000000E+00  0.00000000000E+00  0.14355464735E+03  0.14355464735E+03  0.00000000000E+00 0.  1.
         21   -1    0    0  501  503 -0.00000000000E+00 -0.00000000000E+00 -0.42222178936E+03  0.42222178936E+03  0.00000000000E+00 0. -1.
          6    2    1    2  501    0 -0.47785854615E+02 -0.35332428973E+02 -0.32961204890E+03  0.37666625998E+03  0.17234123182E+03 0.  0.
         24    2    3    3    0    0 -0.21352739731E+02 -0.40948803704E+02 -0.68618261799E+02  0.11423512590E+03  0.78793744154E+02 0.  0.
         -6    2    1    2    0  502  0.47785854615E+02  0.35332428973E+02  0.50944906891E+02  0.18911017673E+03  0.17214937399E+03 0.  0.
        -24    2    5    5    0    0  0.65028207603E+02  0.51850531191E+01  0.90930857943E+02  0.13593942077E+03  0.77172227092E+02 0.  0.
          5    1    3    3  501    0 -0.26433114884E+02  0.56163747309E+01 -0.26099378710E+03  0.26243113408E+03  0.47000000000E+01 0. -1.
        -13    1    4    4    0    0  0.19497273053E+02 -0.41932191123E+02 -0.53378771539E+02  0.70623972983E+02  0.00000000000E+00 0.  1.
         14    1    4    4    0    0 -0.40850012784E+02  0.98338741863E+00 -0.15239490259E+02  0.43611152915E+02  0.00000000000E+00 0. -1.
         -5    1    5    5    0  502 -0.17242352988E+02  0.30147375854E+02 -0.39985951052E+02  0.53170755956E+02  0.47000000000E+01 0.  1.
         11    1    6    6    0    0  0.29776536422E+02 -0.13540994318E+02 -0.40031460692E+01  0.32954905960E+02  0.00000000000E+00 0. -1.
        -12    1    6    6    0    0  0.35251671181E+02  0.18726047437E+02  0.94934004012E+02  0.10298451481E+03  0.00000000000E+00 0.  1.
</event>
<event>
12    1  0.1040325E-001  0.2234687E+03  0.7818608E-02  0.1131526E+00
         21   -1    0    0  501  502  0.00000000000E+00  0.00000000000E+00  0.39006964437E+03  0.39006964437E+03  0.00000000000E+00 0.  1.
         21   -1    0    0  502  503 -0.00000000000E+00 -0.00000000000E+00 -0.15508435374E+03  0.15508435374E+03  0.00000000000E+00 0. -1.
         -6    2    1    2    0  503  0.11394180073E+03  0.85936932757E+02  0.20668033861E+01  0.22237033505E+03  0.17051804559E+03 0.  0.
        -24    2    3    3    0    0  0.61902626368E+02 -0.80386852581E+00 -0.44224853246E+02  0.11102829560E+03  0.80863239017E+02 0.  0.
          6    2    1    2  501    0 -0.11394180073E+03 -0.85936932757E+02  0.23291848724E+03  0.32278366305E+03  0.17196040552E+03 0.  0.
         24    2    5    5    0    0 -0.77859836972E+02 -0.56205572946E+02  0.50868946314E+02  0.13476774028E+03  0.79708678801E+02 0.  0.
          5    1    5    5  501    0 -0.36081963754E+02 -0.29731359811E+02  0.18204954093E+03  0.18801592277E+03  0.47000000000E+01 0. -1.
        -13    1    6    6    0    0 -0.56333028867E+02 -0.51182352091E+02  0.71574804698E+02  0.10447964383E+03  0.00000000000E+00 0.  1.
         14    1    6    6    0    0 -0.21526808105E+02 -0.50232208553E+01 -0.20705858384E+02  0.30288096447E+02  0.00000000000E+00 0. -1.
         -5    1    3    3    0  503  0.52039174358E+02  0.86740801283E+02  0.46291656632E+02  0.11134203945E+03  0.47000000000E+01 0.  1.
         11    1    4    4    0    0 -0.17934393374E+02 -0.83305210701E+01 -0.70075216824E+00  0.19787144831E+02  0.00000000000E+00 0. -1.
        -12    1    4    4    0    0  0.79837019742E+02  0.75266525442E+01 -0.43524101078E+02  0.91241150773E+02  0.00000000000E+00 0.  1.
</event>
<event>
12    1  0.1040325E-001  0.2059466E+03  0.7818608E-02  0.1145853E+00
         21   -1    0    0  501  502  0.00000000000E+00  0.00000000000E+00  0.23939524095E+03  0.23939524095E+03  0.00000000000E+00 0. -1.
         21   -1    0    0  502  503 -0.00000000000E+00 -0.00000000000E+00 -0.19855207616E+03  0.19855207616E+03  0.00000000000E+00 0. -1.
         -6    2    1    2    0  503  0.76286979777E+02 -0.84531449432E+02 -0.58113358559E+02  0.21398872791E+03  0.17160636352E+03 0.  0.
        -24    2    3    3    0    0  0.62405399886E+01 -0.89917237058E+02 -0.74637569862E+02  0.14166549516E+03  0.79839162226E+02 0.  0.
          6    2    1    2  501    0 -0.76286979777E+02  0.84531449432E+02  0.98956523350E+02  0.22395858920E+03  0.16552880999E+03 0.  0.
         24    2    5    5    0    0 -0.66036505368E+02  0.10786605357E+02  0.62825298650E+01  0.10498828483E+03  0.80659152449E+02 0.  0.
          5    1    5    5  501    0 -0.10250474409E+02  0.73744844075E+02  0.92673993485E+02  0.11897030437E+03  0.47000000000E+01 0. -1.
        -11    1    6    6    0    0 -0.67148815382E+01 -0.26262990649E+02  0.20035068494E+02  0.33708133759E+02  0.00000000000E+00 0.  1.
         12    1    6    6    0    0 -0.59321623830E+02  0.37049596006E+02 -0.13752538629E+02  0.71280151072E+02  0.00000000000E+00 0. -1.
         -5    1    3    3    0  503  0.70046439789E+02  0.53857876260E+01  0.16524211302E+02  0.72323232745E+02  0.47000000000E+01 0.  1.
         13    1    4    4    0    0  0.28711392835E+02 -0.18615635433E+02 -0.54312838655E+02  0.64193227087E+02  0.00000000000E+00 0. -1.
        -14    1    4    4    0    0 -0.22470852846E+02 -0.71301601625E+02 -0.20324731207E+02  0.77472268074E+02  0.00000000000E+00 0.  1.
</event>
<event>
12    1  0.1040325E-001  0.1818691E+03  0.7818608E-02  0.1166220E+00
         21   -1    0    0  501  502  0.00000000000E+00  0.00000000000E+00  0.49766159456E+03  0.49766159456E+03  0.00000000000E+00 0. -1.
         21   -1    0    0  502  503 -0.00000000000E+00 -0.00000000000E+00 -0.22395385624E+03  0.22395385624E+03  0.00000000000E+00 0. -1.
         -6    2    1    2    0  503 -0.28832790569E+02  0.52016529496E+02 -0.16612556573E+03  0.24566409993E+03  0.17092716944E+03 0.  0.
        -24    2    3    3    0    0 -0.12763897439E+02  0.90033213712E+02 -0.65982364688E+02  0.13724718095E+03  0.78830321458E+02 0.  0.
          6    2    1    2  501    0  0.28832790569E+02 -0.52016529496E+02  0.43983330405E+03  0.47595135088E+03  0.17187002035E+03 0.  0.
         24    2    5    5    0    0  0.14379909567E+02  0.96686473553E+01  0.93169417578E+02  0.12351428274E+03  0.79214727973E+02 0.  0.
          5    1    5    5  501    0  0.14452881001E+02 -0.61685176851E+02  0.34666388647E+03  0.35243706814E+03  0.47000000000E+01 0. -1.
        -13    1    6    6    0    0 -0.28252310166E+02 -0.63649228407E+00  0.10909840129E+02  0.30292288851E+02  0.00000000000E+00 0.  1.
         14    1    6    6    0    0  0.42632219734E+02  0.10305139639E+02  0.82259577448E+02  0.93221993888E+02  0.00000000000E+00 0. -1.
         -5    1    3    3    0  503 -0.16068893129E+02 -0.38016684215E+02 -0.10014320104E+03  0.10841691898E+03  0.47000000000E+01 0.  1.
         13    1    4    4    0    0 -0.75396923890E+01  0.78633245341E+02 -0.83991498937E+02  0.11530223817E+03  0.00000000000E+00 0. -1.
        -14    1    4    4    0    0 -0.52242050504E+01  0.11399968370E+02  0.18009134249E+02  0.21944942781E+02  0.00000000000E+00 0.  1.
</event>
<event>
12    1  0.1040325E-001  0.1846869E+03  0.7818608E-02  0.1163776E+00
         21   -1    0    0  503  502  0.00000000000E+00  0.00000000000E+00  0.57966992071E+03  0.57966992071E+03  0.00000000000E+00 0. -1.
         21   -1    0    0  501  503 -0.00000000000E+00 -0.00000000000E+00 -0.17267183992E+03  0.17267183992E+03  0.00000000000E+00 0. -1.
          6    2    1    2  501    0  0.17732494301E+02  0.65312431981E+02 -0.10236267852E+03  0.21115724800E+03  0.17184036285E+03 0.  0.
         24    2    3    3    0    0 -0.62186906083E+01  0.86287644239E+02 -0.16245984775E+02  0.11922361036E+03  0.80412110939E+02 0.  0.
         -6    2    1    2    0  502 -0.17732494301E+02 -0.65312431981E+02  0.50936075931E+03  0.54118451262E+03  0.16985917240E+03 0.  0.
        -24    2    5    5    0    0  0.29849037195E+02 -0.87376115980E+02  0.27229642463E+03  0.29834218297E+03  0.79606310103E+02 0.  0.
          5    1    3    3  501    0  0.23951184909E+02 -0.20975212258E+02 -0.86116693746E+02  0.91933637639E+02  0.47000000000E+01 0. -1.
        -13    1    4    4    0    0 -0.28886177141E+01 -0.68463863059E+01  0.18364354828E+02  0.19810770959E+02  0.00000000000E+00 0.  1.
         14    1    4    4    0    0 -0.33300728942E+01  0.93134030545E+02 -0.34610339604E+02  0.99412839404E+02  0.00000000000E+00 0. -1.
         -5    1    5    5    0  502 -0.47581531496E+02  0.22063683998E+02  0.23706433469E+03  0.24284232965E+03  0.47000000000E+01 0.  1.
         13    1    6    6    0    0  0.71737103618E+01 -0.96009976799E+02  0.19766143078E+03  0.21986227276E+03  0.00000000000E+00 0. -1.
        -14    1    6    6    0    0  0.22675326833E+02  0.86338608192E+01  0.74634993849E+02  0.78479910209E+02  0.00000000000E+00 0.  1.
</event>
<event>
12    1  0.1040325E-001  0.1875052E+03  0.7818608E-02  0.1161414E+00
         21   -1    0    0  501  502  0.00000000000E+00  0.00000000000E+00  0.14244563031E+03  0.14244563031E+03  0.00000000000E+00 0.  1.
         21   -1    0    0  502  503 -0.00000000000E+00 -0.00000000000E+00 -0.40028658347E+03  0.40028658347E+03  0.00000000000E+00 0.  1.
         -6    2    1    2    0  503  0.35382408378E+02 -0.66197798375E+02 -0.29842992463E+03  0.35088417478E+03  0.16859780800E+03 0.  0.
        -24    2    3    3    0    0 -0.35007538038E+02  0.22226117252E+01 -0.14446873763E+03  0.16823085787E+03  0.78739682911E+02 0.  0.
          6    2    1    2  501    0 -0.35382408378E+02  0.66197798375E+02  0.40588971471E+02  0.19184803900E+03  0.17182590645E+03 0.  0.
         24    2    5    5    0    0 -0.31567441170E+02  0.49000198308E+02  0.93475672855E+02  0.13590695744E+03  0.79595708976E+02 0.  0.
          5    1    5    5  501    0 -0.38149672080E+01  0.17197600068E+02 -0.52886701383E+02  0.55941081560E+02  0.47000000000E+01 0. -1.
        -13    1    6    6    0    0  0.23386062883E+02  0.34671280082E+02  0.37644273839E+02  0.56268081117E+02  0.00000000000E+00 0.  1.
         14    1    6    6    0    0 -0.54953504053E+02  0.14328918226E+02  0.55831399016E+02  0.79638876319E+02  0.00000000000E+00 0. -1.
         -5    1    3    3    0  503  0.70389946417E+02 -0.68420410101E+02 -0.15396118700E+03  0.18265331691E+03  0.47000000000E+01 0.  1.
         11    1    4    4    0    0 -0.36085271382E+02  0.54812602473E+01 -0.16228001067E+02  0.39944199119E+02  0.00000000000E+00 0. -1.
        -12    1    4    4    0    0  0.10777333437E+01 -0.32586485221E+01 -0.12824073656E+03  0.12828665875E+03  0.00000000000E+00 0.  1.
</event>
<event>
12    1  0.1040325E-001  0.2038437E+03  0.7818608E-02  0.1146729E+00
         21   -1    0    0  503  502  0.00000000000E+00  0.00000000000E+00  0.82483471502E+02  0.82483471502E+02  0.00000000000E+00 0. -1.
         21   -1    0    0  501  503 -0.00000000000E+00 -0.00000000000E+00 -0.63254367111E+03  0.63254367111E+03  0.00000000000E+00 0. -1.
          6    2    1    2  501    0 -0.10437261438E+03  0.34950855997E+02 -0.43828483040E+03  0.48336924527E+03  0.17157222896E+03 0.  0.
         24    2    3    3    0    0 -0.73911120210E+02  0.72087296547E+02 -0.19000617481E+03  0.23044356712E+03  0.79639557693E+02 0.  0.
         -6    2    1    2    0  502  0.10437261438E+03 -0.34950855997E+02 -0.11177536920E+03  0.23165789733E+03  0.17045950625E+03 0.  0.
        -24    2    5    5    0    0  0.39102142700E+02  0.12389818132E+02  0.58596774225E+01  0.88964281171E+02  0.78726249419E+02 0.  0.
          5    1    3    3  501    0 -0.30461494165E+02 -0.37136440551E+02 -0.24827865559E+03  0.25292567815E+03  0.47000000000E+01 0. -1.
        -13    1    4    4    0    0  0.84309756962E+01 -0.61021944536E+01 -0.16930832986E+01  0.10544413658E+02  0.00000000000E+00 0.  1.
         14    1    4    4    0    0 -0.82342095907E+02  0.78189491001E+02 -0.18831309151E+03  0.21989915347E+03  0.00000000000E+00 0. -1.
         -5    1    5    5    0  502  0.65270471675E+02 -0.47340674129E+02 -0.11763504662E+03  0.14269361616E+03  0.47000000000E+01 0.  1.
         11    1    6    6    0    0  0.24370428786E+02  0.38389532531E+02 -0.19781541869E+02  0.49588137754E+02  0.00000000000E+00 0. -1.
        -12    1    6    6    0    0  0.14731713914E+02 -0.25999714398E+02  0.25641219292E+02  0.39376143417E+02  0.00000000000E+00 0.  1.
</event>
<event>
12    1  0.1040325E-001  0.2063119E+03  0.7818608E-02  0.1145159E+00
         21   -1    0    0  501  502  0.00000000000E+00  0.00000000000E+00  0.17560666848E+03  0.17560666848E+03  0.00000000000E+00 0. -1.
         21   -1    0    0  502  503 -0.00000000000E+00 -0.00000000000E+00 -0.97268904796E+03  0.97268904796E+03  0.00000000000E+00 0. -1.
         -6    2    1    2    0  503  0.10416134813E+03 -0.37108755742E+02 -0.89652988266E+03  0.91926649039E+03  0.17046525642E+03 0.  0.
        -24    2    3    3    0    0  0.23759453004E+02 -0.25355109367E+02 -0.71741208717E+03  0.72252328820E+03  0.78437274309E+02 0.  0.
          6    2    1    2  501    0 -0.10416134813E+03  0.37108755742E+02  0.99447503178E+02  0.22902922605E+03  0.17417788119E+03 0.  0.
         24    2    5    5    0    0 -0.13050655390E+03 -0.32638084003E+01  0.50434274400E+02  0.16012058800E+03  0.77797002581E+02 0.  0.
          5    1    5    5  501    0  0.26345205766E+02  0.40372564143E+02  0.49013228778E+02  0.68908638047E+02  0.47000000000E+01 0. -1.
        -13    1    6    6    0    0 -0.52065514274E+02 -0.18333184660E+02  0.57778873632E+02  0.79908207804E+02  0.00000000000E+00 0.  1.
         14    1    6    6    0    0 -0.78441039627E+02  0.15069376260E+02 -0.73445992315E+01  0.80212380194E+02  0.00000000000E+00 0. -1.
         -5    1    3    3    0  503  0.80401895131E+02 -0.11753646376E+02 -0.17911779549E+03  0.19674320218E+03  0.47000000000E+01 0.  1.
         13    1    4    4    0    0  0.23423680959E+01 -0.50410884768E+02 -0.34745736897E+03  0.35110307211E+03  0.00000000000E+00 0. -1.
        -14    1    4    4    0    0  0.21417084908E+02  0.25055775401E+02 -0.36995471820E+03  0.37142021610E+03  0.00000000000E+00 0.  1.
</event>
<event>
12    1  0.1040325E-001  0.2107662E+03  0.7818608E-02  0.1141382E+00
         21   -1    0    0  503  502  0.00000000000E+00  0.00000000000E+00  0.10959012487E+03  0.10959012487E+03  0.00000000000E+00 0. -1.
         21   -1    0    0  501  503 -0.00000000000E+00 -0.00000000000E+00 -0.48580066462E+03  0.48580066462E+03  0.00000000000E+00 0.  1.
          6    2    1    2  501    0  0.10645759809E+03 -0.60776529182E+02 -0.31149476456E+03  0.37491283432E+03  0.16883020553E+03 0.  0.
         24    2    3    3    0    0  0.27470607651E+02 -0.91066103092E+02 -0.19167320971E+03  0.22816237281E+03  0.79194568180E+02 0.  0.
         -6    2    1    2    0  502 -0.10645759809E+03  0.60776529182E+02 -0.64715775195E+02  0.22047795517E+03  0.17145083980E+03 0.  0.
        -24    2    5    5    0    0  0.38106388133E+01  0.33196063406E+02  0.38941265486E+00  0.89403389955E+02  0.82923548521E+02 0.  0.
          5    1    3    3  501    0  0.78986990438E+02  0.30289573910E+02 -0.11982155485E+03  0.14675046150E+03  0.47000000000E+01 0. -1.
        -13    1    4    4    0    0 -0.23103123522E+01 -0.76683999752E+02 -0.76528353889E+02  0.10836218118E+03  0.00000000000E+00 0.  1.
         14    1    4    4    0    0  0.29780920003E+02 -0.14382103340E+02 -0.11514485582E+03  0.11980019163E+03  0.00000000000E+00 0. -1.
         -5    1    5    5    0  502 -0.11026823690E+03  0.27580465775E+02 -0.65105187850E+02  0.13107456522E+03  0.47000000000E+01 0.  1.
         13    1    6    6    0    0 -0.34606024681E+02  0.34158875352E+02  0.10328859873E+02  0.49710069964E+02  0.00000000000E+00 0. -1.
        -14    1    6    6    0    0  0.38416663495E+02 -0.96281194507E+00 -0.99394472186E+01  0.39693319991E+02  0.00000000000E+00 0.  1.
</event>
<event>
12    1  0.1040325E-001  0.2438288E+03  0.7818608E-02  0.1117279E+00
         21   -1    0    0  501  502  0.00000000000E+00  0.00000000000E+00  0.35267506081E+03  0.35267506081E+03  0.00000000000E+00 0. -1.
         21   -1    0    0  502  503 -0.00000000000E+00 -0.00000000000E+00 -0.48591451619E+03  0.48591451619E+03  0.00000000000E+00 0. -1.
         -6    2    1    2    0  503  0.15276939621E+03 -0.81303343213E+02 -0.40548591272E+03  0.47311640518E+03  0.17167290235E+03 0.  0.
        -24    2    3    3    0    0  0.55316519737E+02 -0.84030864483E+02 -0.13921460801E+03  0.18951986039E+03  0.80099730692E+02 0.  0.
          6    2    1    2  501    0 -0.15276939621E+03  0.81303343213E+02  0.27224645734E+03  0.36547317181E+03  0.17176665493E+03 0.  0.
         24    2    5    5    0    0 -0.42258003285E+02 -0.24386451331E+02  0.70620759532E+02  0.11237612984E+03  0.72530442103E+02 0.  0.
          5    1    5    5  501    0 -0.11051139292E+03  0.10568979454E+03  0.20162569781E+03  0.25309704197E+03  0.47000000000E+01 0. -1.
        -11    1    6    6    0    0 -0.55025714731E+01 -0.11430305733E+02 -0.14193557254E+02  0.19036471561E+02  0.00000000000E+00 0.  1.
         12    1    6    6    0    0 -0.36755431812E+02 -0.12956145598E+02  0.84814316786E+02  0.93339658282E+02  0.00000000000E+00 0. -1.
         -5    1    3    3    0  503  0.97452876471E+02  0.27275212700E+01 -0.26627130471E+03  0.28359654479E+03  0.47000000000E+01 0.  1.
         13    1    4    4    0    0  0.23646869443E+02 -0.10422864295E+02 -0.94051599489E+02  0.97537243661E+02  0.00000000000E+00 0. -1.
        -14    1    4    4    0    0  0.31669650294E+02 -0.73608000188E+02 -0.45163008521E+02  0.91982616728E+02  0.00000000000E+00 0.  1.
</event>
<event>
12    1  0.1040325E-001  0.2591638E+03  0.7818608E-02  0.1107720E+00
         21   -1    0    0  503  502  0.00000000000E+00  0.00000000000E+00  0.12212124041E+03  0.12212124041E+03  0.00000000000E+00 0.  1.
         21   -1    0    0  501  503 -0.00000000000E+00 -0.00000000000E+00 -0.58944578510E+03  0.58944578510E+03  0.00000000000E+00 0.  1.
          6    2    1    2  501    0 -0.14685151980E+03  0.12658177086E+03 -0.32711330585E+03  0.41733560981E+03  0.17198134425E+03 0.  0.
         24    2    3    3    0    0 -0.83877643585E+02  0.14655130077E+03 -0.19560328690E+03  0.27008933212E+03  0.78580268687E+02 0.  0.
         -6    2    1    2    0  502  0.14685151980E+03 -0.12658177086E+03 -0.14021123884E+03  0.29423141570E+03  0.17124433103E+03 0.  0.
        -24    2    5    5    0    0  0.10276660831E+03 -0.52290120179E+02 -0.15332153433E+03  0.20672885215E+03  0.77033064132E+02 0.  0.
          5    1    3    3  501    0 -0.62973876211E+02 -0.19969529910E+02 -0.13151001895E+03  0.14724627769E+03  0.47000000000E+01 0. -1.
        -11    1    4    4    0    0 -0.76024115627E+02  0.10980485271E+03 -0.18978226501E+03  0.23206481842E+03  0.00000000000E+00 0.  1.
         12    1    4    4    0    0 -0.78535279577E+01  0.36746448056E+02 -0.58210218922E+01  0.38024513698E+02  0.00000000000E+00 0. -1.
         -5    1    5    5    0  502  0.44084911484E+02 -0.74291650677E+02  0.13110295487E+02  0.87502563555E+02  0.47000000000E+01 0.  1.
         13    1    6    6    0    0  0.49286084420E+02  0.16054193465E+02 -0.54583557715E+02  0.75274298523E+02  0.00000000000E+00 0. -1.
        -14    1    6    6    0    0  0.53480523891E+02 -0.68344313644E+02 -0.98737976613E+02  0.13145455363E+03  0.00000000000E+00 0.  1.
</event>
<event>
12    1  0.1040325E-001  0.2561276E+03  0.7818608E-02  0.1109495E+00
         21   -1    0    0  501  502  0.00000000000E+00  0.00000000000E+00  0.38968726817E+02  0.38968726817E+02  0.00000000000E+00 0.  1.
         21   -1    0    0  502  503 -0.00000000000E+00 -0.00000000000E+00 -0.19756786505E+04  0.19756786505E+04  0.00000000000E+00 0.  1.
         -6    2    1    2    0  503  0.88316703647E+02 -0.16799285947E+03 -0.13558839973E+04  0.13798633076E+04  0.17198805934E+03 0.  0.
        -24    2    3    3    0    0  0.63355096460E+01 -0.89958270991E+02 -0.97929889459E+03  0.98660926407E+03  0.78986617903E+02 0.  0.
          6    2    1    2  501    0 -0.88316703647E+02  0.16799285947E+03 -0.58082592638E+03  0.63478406971E+03  0.17196109277E+03 0.  0.
         24    2    5    5    0    0 -0.77370530474E+02  0.71636807042E+02 -0.47207722361E+03  0.48900108751E+03  0.71743483447E+02 0.  0.
          5    1    5    5  501    0 -0.10946173173E+02  0.96356052433E+02 -0.10874870276E+03  0.14578298220E+03  0.47000000000E+01 0. -1.
        -13    1    6    6    0    0 -0.79174971098E+02  0.59739940388E+02 -0.28933578408E+03  0.30586391169E+03  0.00000000000E+00 0.  1.
         14    1    6    6    0    0  0.18044406238E+01  0.11896866654E+02 -0.18274143953E+03  0.18313717581E+03  0.00000000000E+00 0. -1.
         -5    1    3    3    0  503  0.81981194001E+02 -0.78034588483E+02 -0.37658510275E+03  0.39325404357E+03  0.47000000000E+01 0.  1.
         11    1    4    4    0    0 -0.29265646173E+02 -0.82265543446E+01 -0.21835284661E+03  0.22045888474E+03  0.00000000000E+00 0. -1.
        -12    1    4    4    0    0  0.35601155819E+02 -0.81731716647E+02 -0.76094604798E+03  0.76615037933E+03  0.00000000000E+00 0.  1.
</event>
<event>
12    1  0.1040325E-001  0.2430642E+03  0.7818608E-02  0.1118916E+00
         21   -1    0    0  501  502  0.00000000000E+00  0.00000000000E+00  0.51057946546E+02  0.51057946546E+02  0.00000000000E+00 0. -1.
         21   -1    0    0  502  503 -0.00000000000E+00 -0.00000000000E+00 -0.17725950551E+04  0.17725950551E+04  0.00000000000E+00 0. -1.
         -6    2    1    2    0  503  0.45998085158E+02 -0.15471196424E+03 -0.14042151302E+04  0.14239363129E+04  0.17240323490E+03 0.  0.
        -24    2    3    3    0    0 -0.54666998731E+01 -0.15407938399E+03 -0.12190106093E+04  0.12316557137E+04  0.84962285937E+02 0.  0.
          6    2    1    2  501    0 -0.45998085158E+02  0.15471196424E+03 -0.31732197836E+03  0.39971668882E+03  0.18173766163E+03 0.  0.
         24    2    5    5    0    0 -0.10165733240E+03  0.95056052967E+02 -0.22763689252E+03  0.27838126870E+03  0.79421089726E+02 0.  0.
          5    1    5    5  501    0  0.55659247238E+02  0.59655911271E+02 -0.89685085844E+02  0.12133542012E+03  0.47000000000E+01 0. -1.
        -11    1    6    6    0    0 -0.47510024591E+02  0.22597770251E+02 -0.28896178122E+02  0.60023751691E+02  0.00000000000E+00 0.  1.
         12    1    6    6    0    0 -0.54147307805E+02  0.72458282716E+02 -0.19874071440E+03  0.21835751701E+03  0.00000000000E+00 0. -1.
         -5    1    3    3    0  503  0.51464785031E+02 -0.63258024520E+00 -0.18520452094E+03  0.19228059921E+03  0.47000000000E+01 0.  1.
         11    1    4    4    0    0  0.31536988333E+02 -0.65466865947E+02 -0.35756045440E+03  0.36486979968E+03  0.00000000000E+00 0. -1.
        -12    1    4    4    0    0 -0.37003688206E+02 -0.88612518045E+02 -0.86145015490E+03  0.86678591398E+03  0.00000000000E+00 0.  1.
</event>
<event>
12    1  0.1040325E-001  0.1988888E+03  0.7818608E-02  0.1152088E+00
         21   -1    0    0  503  502  0.00000000000E+00  0.00000000000E+00  0.95511375335E+02  0.95511375335E+02  0.00000000000E+00 0. -1.
         21   -1    0    0  501  503 -0.00000000000E+00 -0.00000000000E+00 -0.52515389278E+03  0.52515389278E+03  0.00000000000E+00 0. -1.
          6    2    1    2  501    0  0.76687954225E+02  0.47221846967E+02 -0.36859809446E+03  0.41883325239E+03  0.17732961658E+03 0.  0.
         24    2    3    3    0    0  0.12219526819E+03  0.34055168461E+02 -0.25150965449E+03  0.29243677372E+03  0.78553944851E+02 0.  0.
         -6    2    1    2    0  502 -0.76687954225E+02 -0.47221846967E+02 -0.61044422983E+02  0.20183201572E+03  0.16999645831E+03 0.  0.
        -24    2    5    5    0    0 -0.97182277596E+02 -0.25689090711E+02 -0.92760209099E+02  0.15810950469E+03  0.79308477602E+02 0.  0.
          5    1    3    3  501    0 -0.45507313966E+02  0.13166678505E+02 -0.11708843997E+03  0.12639647867E+03  0.47000000000E+01 0. -1.
        -11    1    4    4    0    0  0.25367910734E+02  0.12831728977E+02 -0.14161723932E+03  0.14444246826E+03  0.00000000000E+00 0.  1.
         12    1    4    4    0    0  0.96827357458E+02  0.21223439484E+02 -0.10989241517E+03  0.14799430546E+03  0.00000000000E+00 0. -1.
         -5    1    5    5    0  502  0.20494323371E+02 -0.21532756256E+02  0.31715786115E+02  0.43722511037E+02  0.47000000000E+01 0.  1.
         13    1    6    6    0    0 -0.71730480348E+02 -0.14300299947E+02 -0.13881876703E+02  0.74447746039E+02  0.00000000000E+00 0. -1.
        -14    1    6    6    0    0 -0.25451797248E+02 -0.11388790764E+02 -0.78878332396E+02  0.83661758646E+02  0.00000000000E+00 0.  1.
</event>
<event>
12    1  0.1040325E-001  0.2217932E+03  0.7818608E-02  0.1132708E+00
         21   -1    0    0  503  502  0.00000000000E+00  0.00000000000E+00  0.49120434630E+03  0.49120434630E+03  0.00000000000E+00 0. -1.
         21   -1    0    0  501  503 -0.00000000000E+00 -0.00000000000E+00 -0.12408199969E+03  0.12408199969E+03  0.00000000000E+00 0.  1.
          6    2    1    2  501    0  0.34574738266E+02  0.13602306628E+03  0.47657877102E+02  0.22685567803E+03  0.17173974006E+03 0.  0.
         24    2    3    3    0    0 -0.18751400440E+02  0.18600249671E+02 -0.90848796420E+01  0.85881831614E+02  0.81213112593E+02 0.  0.
         -6    2    1    2    0  502 -0.34574738266E+02 -0.13602306628E+03  0.31946446950E+03  0.38843066796E+03  0.17065505985E+03 0.  0.
        -24    2    5    5    0    0 -0.51903377162E+02 -0.29500143429E+02  0.91111436052E+02  0.13581512468E+03  0.81118649460E+02 0.  0.
          5    1    3    3  501    0  0.53326138706E+02  0.11742281661E+03  0.56742756744E+02  0.14097384641E+03  0.47000000000E+01 0. -1.
        -11    1    4    4    0    0  0.24155575164E+02 -0.11408843969E+02 -0.18749681234E+02  0.32637464341E+02  0.00000000000E+00 0.  1.
         12    1    4    4    0    0 -0.42906975604E+02  0.30009093639E+02  0.96648015923E+01  0.53244367273E+02  0.00000000000E+00 0. -1.
         -5    1    5    5    0  502  0.17328638896E+02 -0.10652292285E+03  0.22835303345E+03  0.25261554328E+03  0.47000000000E+01 0.  1.
         13    1    6    6    0    0  0.57497154447E+01  0.46396522373E+01  0.62539629825E+02  0.62974525796E+02  0.00000000000E+00 0. -1.
        -14    1    6    6    0    0 -0.57653092607E+02 -0.34139795666E+02  0.28571806228E+02  0.72840598888E+02  0.00000000000E+00 0.  1.
</event>
<event>
12    1  0.1040325E-001  0.1942701E+03  0.7818608E-02  0.1155281E+00
         21   -1    0    0  503  502  0.00000000000E+00  0.00000000000E+00  0.36013946563E+03  0.36013946563E+03  0.00000000000E+00 0. -1.
         21   -1    0    0  501  503 -0.00000000000E+00 -0.00000000000E+00 -0.23065523745E+03  0.23065523745E+03  0.00000000000E+00 0.  1.
          6    2    1    2  501    0 -0.59207911289E+02 -0.67488004566E+02 -0.15454900031E+03  0.24824635562E+03  0.17228073619E+03 0.  0.
         24    2    3    3    0    0 -0.39670021047E+02  0.22073636781E+02 -0.36643819855E+02  0.98825010644E+02  0.79766265957E+02 0.  0.
         -6    2    1    2    0  502  0.59207911289E+02  0.67488004566E+02  0.28403322849E+03  0.34254834747E+03  0.16912802236E+03 0.  0.
        -24    2    5    5    0    0  0.10402545107E+03  0.49054554549E+02  0.23967774268E+03  0.27668558809E+03  0.76693223492E+02 0.  0.
          5    1    3    3  501    0 -0.19537890242E+02 -0.89561641347E+02 -0.11790518045E+03  0.14942134497E+03  0.47000000000E+01 0. -1.
        -11    1    4    4    0    0 -0.56813919067E+02  0.38020584764E+02 -0.27697147765E+02  0.73759868898E+02  0.00000000000E+00 0.  1.
         12    1    4    4    0    0  0.17143898020E+02 -0.15946947983E+02 -0.89466720900E+01  0.25065141746E+02  0.00000000000E+00 0. -1.
         -5    1    5    5    0  502 -0.44817539777E+02  0.18433450017E+02  0.44355485812E+02  0.65862759378E+02  0.47000000000E+01 0.  1.
         13    1    6    6    0    0  0.45839749309E+02  0.59704977379E+02  0.10138388317E+03  0.12627216125E+03  0.00000000000E+00 0. -1.
        -14    1    6    6    0    0  0.58185701757E+02 -0.10650422830E+02  0.13829385951E+03  0.15041342684E+03  0.00000000000E+00 0.  1.
</event>
<event>
12    1  0.1040325E-001  0.2138112E+03  0.7818608E-02  0.1138663E+00
         21   -1    0    0  503  502  0.00000000000E+00  0.00000000000E+00  0.25354410747E+03  0.25354410747E+03  0.00000000000E+00 0.  1.
         21   -1    0    0  501  503 -0.00000000000E+00 -0.00000000000E+00 -0.19086609352E+03  0.19086609352E+03  0.00000000000E+00 0. -1.
          6    2    1    2  501    0  0.12318087137E+03  0.25814927851E+02 -0.21818087332E+02  0.21450843673E+03  0.17233079505E+03 0.  0.
         24    2    3    3    0    0  0.12559637887E+03  0.72464379925E+02 -0.15261622956E+02  0.16710502672E+03  0.81643346807E+02 0.  0.
         -6    2    1    2    0  502 -0.12318087137E+03 -0.25814927851E+02  0.84496101282E+02  0.22990176426E+03  0.17284470633E+03 0.  0.
        -24    2    5    5    0    0 -0.10805978174E+03 -0.49629312937E+02  0.25994620638E+01  0.14315545711E+03  0.79666445662E+02 0.  0.
          5    1    3    3  501    0 -0.24155074995E+01 -0.46649452075E+02 -0.65564643766E+01  0.47403410009E+02  0.47000000000E+01 0. -1.
        -13    1    4    4    0    0  0.10338184289E+03  0.47580825939E+02 -0.45035984635E+02  0.12239272997E+03  0.00000000000E+00 0.  1.
         14    1    4    4    0    0  0.22214535974E+02  0.24883553986E+02  0.29774361680E+02  0.44712296753E+02  0.00000000000E+00 0. -1.
         -5    1    5    5    0  502 -0.15121089622E+02  0.23814385086E+02  0.81896639219E+02  0.86746307147E+02  0.47000000000E+01 0.  1.
         11    1    6    6    0    0 -0.13730959963E+02  0.19445377921E+02 -0.94687632855E+01  0.25618732642E+02  0.00000000000E+00 0. -1.
        -12    1    6    6    0    0 -0.94328821782E+02 -0.69074690858E+02  0.12068225349E+02  0.11753672447E+03  0.00000000000E+00 0.  1.
</event>
<event>
12    1  0.1040325E-001  0.1757825E+03  0.7818608E-02  0.1176135E+00
         21   -1    0    0  503  502  0.00000000000E+00  0.00000000000E+00  0.38609525031E+03  0.38609525031E+03  0.00000000000E+00 0. -1.
         21   -1    0    0  501  503 -0.00000000000E+00 -0.00000000000E+00 -0.24805749390E+03  0.24805749390E+03  0.00000000000E+00 0. -1.
          6    2    1    2  501    0  0.34479570800E+02 -0.10307669418E+02 -0.19827102184E+03  0.25467537739E+03  0.15573394265E+03 0.  0.
         24    2    3    3    0    0  0.67140945286E+02  0.29222367815E+02 -0.13072591595E+03  0.16974116427E+03  0.79755529169E+02 0.  0.
         -6    2    1    2    0  502 -0.34479570800E+02  0.10307669418E+02  0.33630877825E+03  0.37947736682E+03  0.17205925942E+03 0.  0.
        -24    2    5    5    0    0  0.44991943739E+02  0.12834223097E+02  0.22150606075E+03  0.23974956343E+03  0.78904536823E+02 0.  0.
          5    1    3    3  501    0 -0.32661374487E+02 -0.39530037233E+02 -0.67545105898E+02  0.84934213117E+02  0.47000000000E+01 0. -1.
        -13    1    4    4    0    0  0.57859929499E+02 -0.13698232747E+02 -0.49342322788E+02  0.77266278803E+02  0.00000000000E+00 0.  1.
         14    1    4    4    0    0  0.92810157876E+01  0.42920600562E+02 -0.81383593159E+02  0.92474885467E+02  0.00000000000E+00 0. -1.
         -5    1    5    5    0  502 -0.79471514539E+02 -0.25265536797E+01  0.11480271750E+03  0.13972780339E+03  0.47000000000E+01 0.  1.
         11    1    6    6    0    0 -0.34262524522E+01 -0.20130381818E+02  0.12650368859E+03  0.12814115149E+03  0.00000000000E+00 0. -1.
        -12    1    6    6    0    0  0.48418196191E+02  0.32964604915E+02  0.95002372158E+02  0.11160841194E+03  0.00000000000E+00 0.  1.
</event>
<event>
12    1  0.1040325E-001  0.1951877E+03  0.7818608E-02  0.1154419E+00
         21   -1    0    0  503  502  0.00000000000E+00  0.00000000000E+00  0.99775737454E+02  0.99775737454E+02  0.00000000000E+00 0.  1.
         21   -1    0    0  501  503 -0.00000000000E+00 -0.00000000000E+00 -0.37690904706E+03  0.37690904706E+03  0.00000000000E+00 0.  1.
          6    2    1    2  501    0 -0.23986176702E+02 -0.88052950888E+02 -0.13897571644E+03  0.23754933454E+03  0.16966666658E+03 0.  0.
         24    2    3    3    0    0 -0.59586440605E+02 -0.33291917203E+02 -0.13696963893E+03  0.17203396271E+03  0.78588209548E+02 0.  0.
         -6    2    1    2    0  502  0.23986176702E+02  0.88052950888E+02 -0.13815759316E+03  0.23913544997E+03  0.17253864509E+03 0.  0.
        -24    2    5    5    0    0 -0.36983116939E+02  0.27023574703E+02 -0.11992427008E+03  0.15083831754E+03  0.79198124690E+02 0.  0.
          5    1    3    3  501    0  0.35600263902E+02 -0.54761033685E+02 -0.20060775086E+01  0.65515371838E+02  0.47000000000E+01 0. -1.
        -13    1    4    4    0    0 -0.34605562373E+02 -0.38287881449E+02 -0.13717007237E+03  0.14655761859E+03  0.00000000000E+00 0.  1.
         14    1    4    4    0    0 -0.24980878231E+02  0.49959642457E+01  0.20043343659E+00  0.25476344116E+02  0.00000000000E+00 0. -1.
         -5    1    5    5    0  502  0.60969293641E+02  0.61029376185E+02 -0.18233323078E+02  0.88297132428E+02  0.47000000000E+01 0.  1.
         13    1    6    6    0    0 -0.48843950673E+02 -0.55462384790E+01 -0.38820573531E+02  0.62638081132E+02  0.00000000000E+00 0. -1.
        -14    1    6    6    0    0  0.11860833734E+02  0.32569813182E+02 -0.81103696552E+02  0.88200236406E+02  0.00000000000E+00 0.  1.
</event>
<event>
12    1  0.1040325E-001  0.1773460E+03  0.7818608E-02  0.1170462E+00
         21   -1    0    0  501  502  0.00000000000E+00  0.00000000000E+00  0.17867253712E+04  0.17867253712E+04  0.00000000000E+00 0. -1.
         21   -1    0    0  502  503 -0.00000000000E+00 -0.00000000000E+00 -0.25433690157E+02  0.25433690157E+02  0.00000000000E+00 0. -1.
         -6    2    1    2    0  503  0.36467547299E+02  0.29742670481E+02  0.37658786396E+03  0.41614464031E+03  0.17071448072E+03 0.  0.
        -24    2    3    3    0    0  0.53074650364E+02 -0.25788879550E+02  0.31906100780E+03  0.33434624118E+03  0.80656664162E+02 0.  0.
          6    2    1    2  501    0 -0.36467547299E+02 -0.29742670481E+02  0.13847038171E+04  0.13960144210E+04  0.17098857934E+03 0.  0.
         24    2    5    5    0    0 -0.15587172880E+02 -0.80916607276E+02  0.11047159406E+04  0.11105848100E+04  0.78808969362E+02 0.  0.
          5    1    5    5  501    0 -0.20880374419E+02  0.51173936795E+02  0.27998787651E+03  0.28542961100E+03  0.47000000000E+01 0. -1.
        -13    1    6    6    0    0 -0.22556921401E+02 -0.13401133445E+02  0.94019144809E+02  0.97611498664E+02  0.00000000000E+00 0.  1.
         14    1    6    6    0    0  0.69697485203E+01 -0.67515473831E+02  0.10106967957E+04  0.10129733114E+04  0.00000000000E+00 0. -1.
         -5    1    3    3    0  503 -0.16607103065E+02  0.55531550030E+02  0.57526856162E+02  0.81798399134E+02  0.47000000000E+01 0.  1.
         11    1    4    4    0    0 -0.11589265971E+02 -0.32788316478E+02  0.10348489819E+03  0.10917192376E+03  0.00000000000E+00 0. -1.
        -12    1    4    4    0    0  0.64663916336E+02  0.69994369286E+01  0.21557610961E+03  0.22517431742E+03  0.00000000000E+00 0.  1.
</event>
<event>
12    1  0.1040325E-001  0.2106227E+03  0.7818608E-02  0.1141642E+00
         21   -1    0    0  503  502  0.00000000000E+00  0.00000000000E+00  0.60483421573E+03  0.60483421573E+03  0.00000000000E+00 0.  1.
         21   -1    0    0  501  503 -0.00000000000E+00 -0.00000000000E+00 -0.12353617946E+03  0.12353617946E+03  0.00000000000E+00 0.  1.
          6    2    1    2  501    0  0.23382283610E+02 -0.11868571691E+03  0.52729804392E+01  0.20783048864E+03  0.16891618366E+03 0.  0.
         24    2    3    3    0    0  0.20940026345E+02 -0.93955406255E+02 -0.59138081147E+02  0.13863202233E+03  0.80345640235E+02 0.  0.
         -6    2    1    2    0  502 -0.23382283610E+02  0.11868571691E+03  0.47602505583E+03  0.52053990654E+03  0.17242073523E+03 0.  0.
        -24    2    5    5    0    0 -0.47302583259E+02  0.90532838022E+02  0.46337608404E+03  0.48120986951E+03  0.80073804153E+02 0.  0.
          5    1    3    3  501    0  0.24422572655E+01 -0.24730310658E+02  0.64411061587E+02  0.69198466316E+02  0.47000000000E+01 0. -1.
        -13    1    4    4    0    0 -0.19964482227E+02  0.21610712524E+01 -0.38589492064E+01  0.20448527294E+02  0.00000000000E+00 0.  1.
         14    1    4    4    0    0  0.40904508571E+02 -0.96116477508E+02 -0.55279131941E+02  0.11818349503E+03  0.00000000000E+00 0. -1.
         -5    1    5    5    0  502  0.23920299649E+02  0.28152878891E+02  0.12648971789E+02  0.39330037026E+02  0.47000000000E+01 0.  1.
         11    1    6    6    0    0 -0.59152284875E+02  0.61024443724E+02  0.22137179549E+03  0.23712538324E+03  0.00000000000E+00 0. -1.
        -12    1    6    6    0    0  0.11849701615E+02  0.29508394298E+02  0.24200428855E+03  0.24408448627E+03  0.00000000000E+00 0.  1.
</event>
<event>
12    1  0.1040325E-001  0.2592685E+03  0.7818608E-02  0.1107703E+00
         21   -1    0    0  501  502  0.00000000000E+00  0.00000000000E+00  0.84354345288E+03  0.84354345288E+03  0.00000000000E+00 0.  1.
         21   -1    0    0  502  503 -0.00000000000E+00 -0.00000000000E+00 -0.17459080837E+03  0.17459080837E+03  0.00000000000E+00 0. -1.
         -6    2    1    2    0  503 -0.17051462407E+03  0.95866468246E+02 -0.41094192519E+02  0.26250499327E+03  0.17016028349E+03 0.  0.
        -24    2    3    3    0    0 -0.18531317930E+03  0.45318435806E+02 -0.31411864190E+02  0.20874684689E+03  0.78700735871E+02 0.  0.
          6    2    1    2  501    0  0.17051462407E+03 -0.95866468246E+02  0.71004683703E+03  0.75562926798E+03  0.16894810773E+03 0.  0.
         24    2    5    5    0    0  0.68159705337E+02  0.96131666360E+01  0.38593322627E+03  0.39971606867E+03  0.78040515206E+02 0.  0.
          5    1    5    5  501    0  0.10235491873E+03 -0.10547963488E+03  0.32411361076E+03  0.35591319931E+03  0.47000000000E+01 0. -1.
        -13    1    6    6    0    0 -0.13939875312E+02 -0.10429929558E+02  0.10191008105E+03  0.10338649899E+03  0.00000000000E+00 0.  1.
         14    1    6    6    0    0  0.82099580649E+02  0.20043096194E+02  0.28402314522E+03  0.29632956968E+03  0.00000000000E+00 0. -1.
         -5    1    3    3    0  503  0.14798555233E+02  0.50548032439E+02 -0.96823283295E+01  0.53758146381E+02  0.47000000000E+01 0.  1.
         11    1    4    4    0    0 -0.24769160496E+01 -0.13350261627E+02 -0.67112433851E+01  0.15146134371E+02  0.00000000000E+00 0. -1.
        -12    1    4    4    0    0 -0.18283626325E+03  0.58668697433E+02 -0.24700620805E+02  0.19360071251E+03  0.00000000000E+00 0.  1.
</event>
<event>
12    1  0.1040325E-001  0.2080953E+03  0.7818608E-02  0.1144086E+00
         21   -1    0    0  503  502  0.00000000000E+00  0.00000000000E+00  0.59540203207E+02  0.59540203207E+02  0.00000000000E+00 0.  1.
         21   -1    0    0  501  503 -0.00000000000E+00 -0.00000000000E+00 -0.77689786972E+03  0.77689786972E+03  0.00000000000E+00 0.  1.
          6    2    1    2  501    0  0.10290400655E+03 -0.33057706773E+02 -0.24002920630E+03  0.31767543866E+03  0.17782468307E+03 0.  0.
         24    2    3    3    0    0  0.10249545905E+03 -0.74345974983E+02 -0.22977228321E+03  0.27487143798E+03  0.82014402173E+02 0.  0.
         -6    2    1    2    0  502 -0.10290400655E+03  0.33057706773E+02 -0.47732846022E+03  0.51876263427E+03  0.17201792127E+03 0.  0.
        -24    2    5    5    0    0 -0.32225089230E+02  0.27041041866E+02 -0.41375325659E+03  0.42339174706E+03  0.79367120530E+02 0.  0.
          5    1    3    3  501    0  0.40854750056E+00  0.41288268210E+02 -0.10256923085E+02  0.42804000677E+02  0.47000000000E+01 0. -1.
        -11    1    4    4    0    0  0.49648145936E+02 -0.72546735590E+02 -0.91751325574E+02  0.12706798568E+03  0.00000000000E+00 0.  1.
         12    1    4    4    0    0  0.52847313115E+02 -0.17992393930E+01 -0.13802095764E+03  0.14780345230E+03  0.00000000000E+00 0. -1.
         -5    1    5    5    0  502 -0.70678917321E+02  0.60166649075E+01 -0.63575203632E+02  0.95370887209E+02  0.47000000000E+01 0.  1.
         11    1    6    6    0    0 -0.15263983947E+02 -0.22505895302E+02 -0.24984468980E+03  0.25132026092E+03  0.00000000000E+00 0. -1.
        -12    1    6    6    0    0 -0.16961105283E+02  0.49546937168E+02 -0.16390856679E+03  0.17207148614E+03  0.00000000000E+00 0.  1.
</event>
<event>
12    1  0.1040325E-001  0.1815734E+03  0.7818608E-02  0.1166517E+00
         21   -1    0    0  501  502  0.00000000000E+00  0.00000000000E+00  0.65957395122E+02  0.65957395122E+02  0.00000000000E+00 0.  1.
         21   -1    0    0  502  503 -0.00000000000E+00 -0.00000000000E+00 -0.60396275463E+03  0.60396275463E+03  0.00000000000E+00 0.  1.
         -6    2    1    2    0  503  0.54542297313E+02 -0.19088552715E+02 -0.40922805233E+03  0.44731628303E+03  0.17112867443E+03 0.  0.
        -24    2    3    3    0    0  0.54743899930E+02  0.45291995420E+02 -0.17834927096E+03  0.20758310363E+03  0.78955829615E+02 0.  0.
          6    2    1    2  501    0 -0.54542297313E+02  0.19088552715E+02 -0.12877730718E+03  0.22260386673E+03  0.17213265697E+03 0.  0.
         24    2    5    5    0    0 -0.92003988722E+02 -0.14460860738E+02 -0.12201889943E+03  0.17164596703E+03  0.76810648642E+02 0.  0.
          5    1    5    5  501    0  0.37461691409E+02  0.33549413453E+02 -0.67584077558E+01  0.50957899698E+02  0.47000000000E+01 0. -1.
        -13    1    6    6    0    0 -0.31339001692E+02  0.14087520925E+02 -0.23066158555E+01  0.34437069410E+02  0.00000000000E+00 0.  1.
         14    1    6    6    0    0 -0.60664987030E+02 -0.28548381663E+02 -0.11971228357E+03  0.13720889762E+03  0.00000000000E+00 0. -1.
         -5    1    3    3    0  503 -0.20160261641E+00 -0.64380548135E+02 -0.23087878137E+03  0.23973317940E+03  0.47000000000E+01 0.  1.
         11    1    4    4    0    0  0.67001963881E+02  0.48756350129E+02 -0.17613552192E+03  0.19465396714E+03  0.00000000000E+00 0. -1.
        -12    1    4    4    0    0 -0.12258063951E+02 -0.34643547093E+01 -0.22137490384E+01  0.12929136483E+02  0.00000000000E+00 0.  1.
</event>
<event>
12    1  0.1040325E-001  0.1837534E+03  0.7818608E-02  0.1165343E+00
         21   -1    0    0  503  502  0.00000000000E+00  0.00000000000E+00  0.19215123616E+03  0.19215123616E+03  0.00000000000E+00 0.  1.
         21   -1    0    0  501  503 -0.00000000000E+00 -0.00000000000E+00 -0.17224129672E+03  0.17224129672E+03  0.00000000000E+00 0. -1.
          6    2    1    2  501    0 -0.19516395578E+02  0.52450598954E+02 -0.39861994578E+01  0.17909184067E+03  0.17007657858E+03 0.  0.
         24    2    3    3    0    0  0.52772274067E+02  0.14903810973E+02 -0.11581657100E+02  0.97145553242E+02  0.79347887444E+02 0.  0.
         -6    2    1    2    0  502  0.19516395578E+02 -0.52450598954E+02  0.23896138897E+02  0.18530069220E+03  0.17502390136E+03 0.  0.
        -24    2    5    5    0    0  0.14036014848E+02  0.12837069687E+02  0.44449376483E+02  0.11647453566E+03  0.10596589223E+03 0.  0.
          5    1    3    3  501    0 -0.72288669645E+02  0.37546787981E+02  0.75954576423E+01  0.81946287430E+02  0.47000000000E+01 0. -1.
        -13    1    4    4    0    0 -0.87895128179E+01 -0.21381704192E+02  0.53028103236E+01  0.23718191479E+02  0.00000000000E+00 0.  1.
         14    1    4    4    0    0  0.61561786885E+02  0.36285515165E+02 -0.16884467424E+02  0.73427361763E+02  0.00000000000E+00 0. -1.
         -5    1    5    5    0  502  0.54803807300E+01 -0.65287668641E+02 -0.20553237586E+02  0.68826156545E+02  0.47000000000E+01 0.  1.
         13    1    6    6    0    0 -0.11133646334E+02  0.65436868159E+01 -0.32658348438E+02  0.35119021064E+02  0.00000000000E+00 0. -1.
        -14    1    6    6    0    0  0.25169661182E+02  0.62933828710E+01  0.77107724920E+02  0.81355514591E+02  0.00000000000E+00 0.  1.
</event>
<event>
12    1  0.1040325E-001  0.1972930E+03  0.7818608E-02  0.1152170E+00
         21   -1    0    0  501  502  0.00000000000E+00  0.00000000000E+00  0.30941356095E+04  0.30941356095E+04  0.00000000000E+00 0.  1.
         21   -1    0    0  502  503 -0.00000000000E+00 -0.00000000000E+00 -0.12543515601E+02  0.12543515601E+02  0.00000000000E+00 0. -1.
         -6    2    1    2    0  503  0.65370146286E+02  0.73335077444E+02  0.15246084659E+04  0.15372452935E+04  0.17041369846E+03 0.  0.
        -24    2    3    3    0    0  0.98089587231E+02  0.14811238563E+02  0.92872113049E+03  0.93757921310E+03  0.81797938291E+02 0.  0.
          6    2    1    2  501    0 -0.65370146286E+02 -0.73335077444E+02  0.15569836280E+04  0.15694338315E+04  0.17109425521E+03 0.  0.
         24    2    5    5    0    0  0.25507044387E+01 -0.74231765172E+02  0.11228417565E+04  0.11299849715E+04  0.10283756430E+03 0.  0.
          5    1    5    5  501    0 -0.67920850725E+02  0.89668772784E+00  0.43414187149E+03  0.43944886004E+03  0.47000000000E+01 0. -1.
        -11    1    6    6    0    0 -0.46883945826E+02 -0.13989594149E+02  0.43155872663E+03  0.43432332156E+03  0.00000000000E+00 0.  1.
         12    1    6    6    0    0  0.49434650265E+02 -0.60242171023E+02  0.69128302984E+03  0.69566164992E+03  0.00000000000E+00 0. -1.
         -5    1    3    3    0  503 -0.32719440945E+02  0.58523838881E+02  0.59588733541E+03  0.59966608044E+03  0.47000000000E+01 0.  1.
         11    1    4    4    0    0  0.11906272024E+02 -0.29380269249E+02  0.23664227976E+03  0.23875621061E+03  0.00000000000E+00 0. -1.
        -12    1    4    4    0    0  0.86183315207E+02  0.44191507812E+02  0.69207885073E+03  0.69882300249E+03  0.00000000000E+00 0.  1.
</event>
<event>
12    1  0.1040325E-001  0.2526983E+03  0.7818608E-02  0.1113951E+00
         21   -1    0    0  501  502  0.00000000000E+00  0.00000000000E+00  0.32468595978E+03  0.32468595978E+03  0.00000000000E+00 0. -1.
         21   -1    0    0  502  503 -0.00000000000E+00 -0.00000000000E+00 -0.26013327277E+03  0.26013327277E+03  0.00000000000E+00 0.  1.
         -6    2    1    2    0  503  0.87106709642E+02  0.13955073604E+03  0.18815462395E+03  0.30351177202E+03  0.17220698723E+03 0.  0.
        -24    2    3    3    0    0  0.39112359418E+02  0.12205420174E+03  0.20032220955E+03  0.25078866035E+03  0.79617584098E+02 0.  0.
          6    2    1    2  501    0 -0.87106709642E+02 -0.13955073604E+03 -0.12360193694E+03  0.28130746052E+03  0.19181882529E+03 0.  0.
         24    2    5    5    0    0 -0.12754715637E+03 -0.63119442586E+02 -0.59318105170E+02  0.17345722465E+03  0.79475971543E+02 0.  0.
          5    1    5    5  501    0  0.40440446724E+02 -0.76431293449E+02 -0.64283831772E+02  0.10785023587E+03  0.47000000000E+01 0. -1.
        -13    1    6    6    0    0 -0.65696228299E+02 -0.74659356685E+02 -0.28841483443E+02  0.10354634286E+03  0.00000000000E+00 0.  1.
         14    1    6    6    0    0 -0.61850928067E+02  0.11539914099E+02 -0.30476621726E+02  0.69910881785E+02  0.00000000000E+00 0. -1.
         -5    1    3    3    0  503  0.47994350224E+02  0.17496534292E+02 -0.12167585597E+02  0.52723111677E+02  0.47000000000E+01 0.  1.
         11    1    4    4    0    0  0.47516592259E+02  0.42687311781E+02  0.52032940749E+02  0.82386042810E+02  0.00000000000E+00 0. -1.
        -12    1    4    4    0    0 -0.84042328407E+01  0.79366889962E+02  0.14828926880E+03  0.16840261754E+03  0.00000000000E+00 0.  1.
</event>
<event>
12    1  0.1040325E-001  0.3654328E+03  0.7818608E-02  0.1056603E+00
         21   -1    0    0  501  502  0.00000000000E+00  0.00000000000E+00  0.17187804685E+03  0.17187804685E+03  0.00000000000E+00 0.  1.
         21   -1    0    0  502  503 -0.00000000000E+00 -0.00000000000E+00 -0.87882302829E+03  0.87882302829E+03  0.00000000000E+00 0. -1.
         -6    2    1    2    0  503 -0.30056162897E+03  0.11771229270E+03 -0.17110971538E+03  0.40211756864E+03  0.16800752261E+03 0.  0.
        -24    2    3    3    0    0 -0.15951240954E+03  0.10412660732E+03 -0.15676293059E+03  0.25961362701E+03  0.80858269662E+02 0.  0.
          6    2    1    2  501    0  0.30056162897E+03 -0.11771229270E+03 -0.53583526606E+03  0.64858350649E+03  0.17131157545E+03 0.  0.
         24    2    5    5    0    0  0.13070563422E+03 -0.24400019718E+02 -0.33641725832E+03  0.37046865422E+03  0.79944532588E+02 0.  0.
          5    1    5    5  501    0  0.16985599475E+03 -0.93312272981E+02 -0.19941800774E+03  0.27811485227E+03  0.47000000000E+01 0. -1.
        -11    1    6    6    0    0  0.26381502017E+01  0.15370390125E+02 -0.12828481574E+02  0.20193530364E+02  0.00000000000E+00 0.  1.
         12    1    6    6    0    0  0.12806748402E+03 -0.39770409843E+02 -0.32358877674E+03  0.35027512386E+03  0.00000000000E+00 0. -1.
         -5    1    3    3    0  503 -0.14104921942E+03  0.13585685381E+02 -0.14346784791E+02  0.14250394163E+03  0.47000000000E+01 0.  1.
         13    1    4    4    0    0 -0.24632231653E+02  0.45274039554E+02 -0.11446374452E+02  0.52796827385E+02  0.00000000000E+00 0. -1.
        -14    1    4    4    0    0 -0.13488017789E+03  0.58852567765E+02 -0.14531655614E+03  0.20681679963E+03  0.00000000000E+00 0.  1.
</event>
<event>
12    1  0.1040325E-001  0.2100117E+03  0.7818608E-02  0.1141559E+00
         21   -1    0    0  501  502  0.00000000000E+00  0.00000000000E+00  0.17676239979E+03  0.17676239979E+03  0.00000000000E+00 0. -1.
         21   -1    0    0  502  503 -0.00000000000E+00 -0.00000000000E+00 -0.30085503732E+03  0.30085503732E+03  0.00000000000E+00 0. -1.
         -6    2    1    2    0  503  0.82767602500E+02 -0.88379088323E+02 -0.16071259024E+03  0.26444933015E+03  0.17159129429E+03 0.  0.
        -24    2    3    3    0    0  0.11464526243E+03 -0.29435177006E+02 -0.11787474153E+03  0.18477661734E+03  0.78980869709E+02 0.  0.
          6    2    1    2  501    0 -0.82767602500E+02  0.88379088323E+02  0.36619952721E+02  0.21316810696E+03  0.17157587713E+03 0.  0.
         24    2    5    5    0    0 -0.21976012669E+02  0.27485366498E+02 -0.42245851796E+02  0.96353861795E+02  0.79126254711E+02 0.  0.
          5    1    5    5  501    0 -0.60791589831E+02  0.60893721825E+02  0.78865804516E+02  0.11681424517E+03  0.47000000000E+01 0. -1.
        -13    1    6    6    0    0 -0.46331395097E+02  0.29910396995E+02 -0.45717287121E+02  0.71633095436E+02  0.00000000000E+00 0.  1.
         14    1    6    6    0    0  0.24355382429E+02 -0.24250304973E+01  0.34714353250E+01  0.24720766359E+02  0.00000000000E+00 0. -1.
         -5    1    3    3    0  503 -0.31877659935E+02 -0.58943911317E+02 -0.42837848712E+02  0.79672712811E+02  0.47000000000E+01 0.  1.
         13    1    4    4    0    0 -0.46384833683E+01 -0.52199767509E+01  0.73545658263E+01  0.10141662770E+02  0.00000000000E+00 0. -1.
        -14    1    4    4    0    0  0.11928374580E+03 -0.24215200255E+02 -0.12522930736E+03  0.17463495457E+03  0.00000000000E+00 0.  1.
</event>
<event>
12    1  0.1040325E-001  0.1859234E+03  0.7818608E-02  0.1162889E+00
         21   -1    0    0  501  502  0.00000000000E+00  0.00000000000E+00  0.21211063645E+03  0.21211063645E+03  0.00000000000E+00 0.  1.
         21   -1    0    0  502  503 -0.00000000000E+00 -0.00000000000E+00 -0.31428767062E+03  0.31428767062E+03  0.00000000000E+00 0. -1.
         -6    2    1    2    0  503 -0.29443683058E+02  0.60314883994E+02 -0.23549070163E+03  0.30003897850E+03  0.17338599240E+03 0.  0.
        -24    2    3    3    0    0  0.61879167387E+00  0.68611927475E+02 -0.24522636904E+03  0.26703191051E+03  0.80387123755E+02 0.  0.
          6    2    1    2  501    0  0.29443683058E+02 -0.60314883994E+02  0.13331366747E+03  0.22635932857E+03  0.17017989303E+03 0.  0.
         24    2    5    5    0    0  0.19524958691E+02 -0.99560026186E+02  0.13679147876E+03  0.18546009325E+03  0.73417400527E+02 0.  0.
          5    1    5    5  501    0  0.99187243666E+01  0.39245142192E+02 -0.34778112881E+01  0.40899235324E+02  0.47000000000E+01 0. -1.
        -11    1    6    6    0    0 -0.70146629726E+00 -0.96498051920E+02  0.80841912662E+02  0.12588796973E+03  0.00000000000E+00 0.  1.
         12    1    6    6    0    0  0.20226424989E+02 -0.30619742659E+01  0.55949566095E+02  0.59572123518E+02  0.00000000000E+00 0. -1.
         -5    1    3    3    0  503 -0.30062474732E+02 -0.82970434819E+01  0.97356674035E+01  0.33007067991E+02  0.47000000000E+01 0.  1.
         13    1    4    4    0    0 -0.36086333434E+02  0.39375408433E+02 -0.17162680449E+03  0.17974539291E+03  0.00000000000E+00 0. -1.
        -14    1    4    4    0    0  0.36705125108E+02  0.29236519043E+02 -0.73599564541E+02  0.87286517604E+02  0.00000000000E+00 0.  1.
</event>
<event>
12    1  0.1040325E-001  0.2176343E+03  0.7818608E-02  0.1136102E+00
         21   -1    0    0  503  502  0.00000000000E+00  0.00000000000E+00  0.34761415943E+03  0.34761415943E+03  0.00000000000E+00 0. -1.
         21   -1    0    0  501  503 -0.00000000000E+00 -0.00000000000E+00 -0.14849796952E+03  0.14849796952E+03  0.00000000000E+00 0. -1.
          6    2    1    2  501    0 -0.10818396665E+03  0.71813624292E+02  0.23742399786E+02  0.21661143381E+03  0.17174354262E+03 0.  0.
         24    2    3    3    0    0 -0.55254760791E+02  0.68848913866E+02 -0.47514428323E+02  0.12767372587E+03  0.79055030503E+02 0.  0.
         -6    2    1    2    0  502  0.10818396665E+03 -0.71813624292E+02  0.17537379013E+03  0.27950069515E+03  0.17465309917E+03 0.  0.
        -24    2    5    5    0    0  0.74617940058E+02 -0.33430330150E+02  0.19366112145E+03  0.22512724669E+03  0.80574333908E+02 0.  0.
          5    1    3    3  501    0 -0.52929205862E+02  0.29647104254E+01  0.71256828108E+02  0.88937707937E+02  0.47000000000E+01 0. -1.
        -11    1    4    4    0    0  0.38352327254E+01 -0.88203347891E+01 -0.26023149755E+02  0.27743677460E+02  0.00000000000E+00 0.  1.
         12    1    4    4    0    0 -0.59089993517E+02  0.77669248655E+02 -0.21491278568E+02  0.99930048409E+02  0.00000000000E+00 0. -1.
         -5    1    5    5    0  502  0.33566026596E+02 -0.38383294142E+02 -0.18287331325E+02  0.54373448461E+02  0.47000000000E+01 0.  1.
         11    1    6    6    0    0 -0.10176301123E+02 -0.11375550407E+01  0.75279121402E+02  0.75972345331E+02  0.00000000000E+00 0. -1.
        -12    1    6    6    0    0  0.84794241180E+02 -0.32292775110E+02  0.11838200005E+03  0.14915490135E+03  0.00000000000E+00 0.  1.
</event>
<event>
12    1  0.1040325E-001  0.1942305E+03  0.7818608E-02  0.1158676E+00
         21   -1    0    0  503  502  0.00000000000E+00  0.00000000000E+00  0.11233868192E+03  0.11233868192E+03  0.00000000000E+00 0. -1.
         21   -1    0    0  501  503 -0.00000000000E+00 -0.00000000000E+00 -0.30705788289E+03  0.30705788289E+03  0.00000000000E+00 0. -1.
          6    2    1    2  501    0 -0.13706949197E+02 -0.42947412918E+02 -0.10967588285E+03  0.22305666139E+03  0.18892621358E+03 0.  0.
         24    2    3    3    0    0  0.21160592460E+02  0.49129868850E+02 -0.52942276211E+02  0.10932556010E+03  0.79294885039E+02 0.  0.
         -6    2    1    2    0  502  0.13706949197E+02  0.42947412918E+02 -0.85043318119E+02  0.19633990343E+03  0.17112752843E+03 0.  0.
        -24    2    5    5    0    0  0.20750340829E+02  0.23438118771E+02  0.21981227890E+02  0.87222694095E+02  0.78388149166E+02 0.  0.
          5    1    3    3  501    0 -0.34867541658E+02 -0.92077281768E+02 -0.56733606641E+02  0.11373110129E+03  0.47000000000E+01 0. -1.
        -13    1    4    4    0    0  0.10931184017E+02  0.50645329942E+02  0.35134329215E+01  0.51930573267E+02  0.00000000000E+00 0.  1.
         14    1    4    4    0    0  0.10229408443E+02 -0.15154610919E+01 -0.56455709133E+02  0.57394986829E+02  0.00000000000E+00 0. -1.
         -5    1    5    5    0  502 -0.70433916321E+01  0.19509294147E+02 -0.10702454601E+03  0.10911720933E+03  0.47000000000E+01 0.  1.
         13    1    6    6    0    0  0.31531529596E+02 -0.15514139314E+02  0.29777240252E+02  0.46060936967E+02  0.00000000000E+00 0. -1.
        -14    1    6    6    0    0 -0.10781188766E+02  0.38952258085E+02 -0.77960123617E+01  0.41161757128E+02  0.00000000000E+00 0.  1.
</event>
<event>
12    1  0.1040325E-001  0.1898099E+03  0.7818608E-02  0.1158685E+00
         21   -1    0    0  503  502  0.00000000000E+00  0.00000000000E+00  0.12120003698E+03  0.12120003698E+03  0.00000000000E+00 0.  1.
         21   -1    0    0  501  503 -0.00000000000E+00 -0.00000000000E+00 -0.40578637759E+03  0.40578637759E+03  0.00000000000E+00 0.  1.
          6    2    1    2  501    0  0.53135539007E+02 -0.59547591603E+02 -0.27884733279E+03  0.33731830310E+03  0.17221643775E+03 0.  0.
         24    2    3    3    0    0 -0.18723258103E+02 -0.75480627103E+02 -0.12201165754E+03  0.16400625108E+03  0.77222537882E+02 0.  0.
         -6    2    1    2    0  502 -0.53135539007E+02  0.59547591603E+02 -0.57390078265E+01  0.18966811147E+03  0.17196440075E+03 0.  0.
        -24    2    5    5    0    0 -0.86893458305E+02  0.48658257307E+02  0.36807845832E+02  0.13407585056E+03  0.81874398244E+02 0.  0.
          5    1    3    3  501    0  0.71858797110E+02  0.15933035500E+02 -0.15683567525E+03  0.17331205202E+03  0.47000000000E+01 0. -1.
        -13    1    4    4    0    0 -0.10629928652E+02 -0.63037967617E+02 -0.13162064734E+03  0.14632421382E+03  0.00000000000E+00 0.  1.
         14    1    4    4    0    0 -0.80933294512E+01 -0.12442659486E+02  0.96089898010E+01  0.17682037261E+02  0.00000000000E+00 0. -1.
         -5    1    5    5    0  502  0.33757919298E+02  0.10889334297E+02 -0.42546853659E+02  0.55592260909E+02  0.47000000000E+01 0.  1.
         13    1    6    6    0    0 -0.41198932094E+02  0.56881335214E+02 -0.65644973024E+01  0.70540278751E+02  0.00000000000E+00 0. -1.
        -14    1    6    6    0    0 -0.45694526211E+02 -0.82230779075E+01  0.43372343135E+02  0.63535571808E+02  0.00000000000E+00 0.  1.
</event>
<event>
12    1  0.1040325E-001  0.2312522E+03  0.7818608E-02  0.1125858E+00
         21   -1    0    0  501  502  0.00000000000E+00  0.00000000000E+00  0.68511507853E+02  0.68511507853E+02  0.00000000000E+00 0.  1.
         21   -1    0    0  502  503 -0.00000000000E+00 -0.00000000000E+00 -0.83097051078E+03  0.83097051078E+03  0.00000000000E+00 0.  1.
         -6    2    1    2    0  503  0.11173218229E+03 -0.10612108248E+03 -0.26885601420E+03  0.35462815971E+03  0.17242914657E+03 0.  0.
        -24    2    3    3    0    0  0.74413130667E+02 -0.68697242058E+02 -0.27208012303E+03  0.30147046673E+03  0.81241761907E+02 0.  0.
          6    2    1    2  501    0 -0.11173218229E+03  0.10612108248E+03 -0.49360298873E+03  0.54485385892E+03  0.17168591204E+03 0.  0.
         24    2    5    5    0    0 -0.11841442123E+03  0.13781161456E+03 -0.42612996947E+03  0.46986292301E+03  0.78551889048E+02 0.  0.
          5    1    5    5  501    0  0.66822389399E+01 -0.31690532085E+02 -0.67473019260E+02  0.74990935913E+02  0.47000000000E+01 0. -1.
        -11    1    6    6    0    0 -0.15803906172E+02 -0.87941814643E+01 -0.53887687614E+02  0.56841744821E+02  0.00000000000E+00 0.  1.
         12    1    6    6    0    0 -0.10261051506E+03  0.14660579603E+03 -0.37224228186E+03  0.41302117819E+03  0.00000000000E+00 0. -1.
         -5    1    3    3    0  503  0.37319051624E+02 -0.37423840418E+02  0.32241088346E+01  0.53157692985E+02  0.47000000000E+01 0.  1.
         13    1    4    4    0    0  0.53552085406E+02  0.40398502883E+01 -0.12560404966E+03  0.13660352680E+03  0.00000000000E+00 0. -1.
        -14    1    4    4    0    0  0.20861045261E+02 -0.72737092346E+02 -0.14647607337E+03  0.16486693993E+03  0.00000000000E+00 0.  1.
</event>
<event>
12    1  0.1040325E-001  0.2561214E+03  0.7818608E-02  0.1109936E+00
         21   -1    0    0  501  502  0.00000000000E+00  0.00000000000E+00  0.15356588847E+03  0.15356588847E+03  0.00000000000E+00 0. -1.
         21   -1    0    0  502  503 -0.00000000000E+00 -0.00000000000E+00 -0.91767249940E+03  0.91767249940E+03  0.00000000000E+00 0.  1.
         -6    2    1    2    0  503 -0.58683452901E+02  0.17616324052E+03 -0.77651867316E+03  0.81766707388E+03  0.17641133462E+03 0.  0.
        -24    2    3    3    0    0 -0.74187716057E+02  0.14450358768E+03 -0.75471269980E+03  0.77595009570E+03  0.78244410087E+02 0.  0.
          6    2    1    2  501    0  0.58683452901E+02 -0.17616324052E+03  0.12412062232E+02  0.25357131399E+03  0.17224144982E+03 0.  0.
         24    2    5    5    0    0 -0.25183955560E+02 -0.69969086682E+02 -0.29525061635E+02  0.11182593358E+03  0.78124294857E+02 0.  0.
          5    1    5    5  501    0  0.83867408462E+02 -0.10619415383E+03  0.41937123867E+02  0.14174538041E+03  0.47000000000E+01 0. -1.
        -13    1    6    6    0    0 -0.30806908535E+02 -0.31714526013E+02  0.20388145642E+02  0.48688327723E+02  0.00000000000E+00 0.  1.
         14    1    6    6    0    0  0.56229529747E+01 -0.38254560669E+02 -0.49913207278E+02  0.63137605854E+02  0.00000000000E+00 0. -1.
         -5    1    3    3    0  503  0.15504263155E+02  0.31659652841E+02 -0.21805973356E+02  0.41716978175E+02  0.47000000000E+01 0.  1.
         11    1    4    4    0    0 -0.21999055755E+02 -0.15309888309E+01 -0.15268228829E+03  0.15426659891E+03  0.00000000000E+00 0. -1.
        -12    1    4    4    0    0 -0.52188660302E+02  0.14603457651E+03 -0.60203041152E+03  0.62168349680E+03  0.00000000000E+00 0.  1.
</event>
<event>
12    1  0.1040325E-001  0.4540695E+03  0.7818608E-02  0.1026539E+00
         21   -1    0    0  501  502  0.00000000000E+00  0.00000000000E+00  0.77638988533E+03  0.77638988533E+03  0.00000000000E+00 0. -1.
         21   -1    0    0  502  503 -0.00000000000E+00 -0.00000000000E+00 -0.31992809860E+03  0.31992809860E+03  0.00000000000E+00 0.  1.
         -6    2    1    2    0  503 -0.38604589646E+03  0.16522244825E+03  0.45465745958E+03  0.64256709740E+03  0.17276914522E+03 0.  0.
        -24    2    3    3    0    0 -0.38859555009E+03  0.15910791321E+03  0.46386074063E+03  0.63029197400E+03  0.76022077049E+02 0.  0.
          6    2    1    2  501    0  0.38604589646E+03 -0.16522244825E+03  0.18043271513E+01  0.45375088653E+03  0.17192067896E+03 0.  0.
         24    2    5    5    0    0  0.22218374058E+03 -0.55779051329E+02 -0.52933450998E+02  0.24918554828E+03  0.82550409396E+02 0.  0.
          5    1    5    5  501    0  0.16386215588E+03 -0.10944339692E+03  0.54737778149E+02  0.20456533826E+03  0.47000000000E+01 0. -1.
        -13    1    6    6    0    0  0.17106593062E+03 -0.69748960195E+02 -0.17778036222E+02  0.18559237225E+03  0.00000000000E+00 0.  1.
         14    1    6    6    0    0  0.51117809956E+02  0.13969908866E+02 -0.35155414776E+02  0.63593176021E+02  0.00000000000E+00 0. -1.
         -5    1    3    3    0  503  0.25496536347E+01  0.61145350340E+01 -0.92032810514E+01  0.12275123399E+02  0.47000000000E+01 0.  1.
         13    1    4    4    0    0 -0.23790323343E+03  0.73669283740E+02  0.31741351506E+03  0.40345563744E+03  0.00000000000E+00 0. -1.
        -14    1    4    4    0    0 -0.15069231666E+03  0.85438629472E+02  0.14644722557E+03  0.22683633656E+03  0.00000000000E+00 0.  1.
</event>
<event>
12    1  0.1040325E-001  0.1823529E+03  0.7818608E-02  0.1165816E+00
         21   -1    0    0  501  502  0.00000000000E+00  0.00000000000E+00  0.50325356417E+03  0.50325356417E+03  0.00000000000E+00 0.  1.
         21   -1    0    0  502  503 -0.00000000000E+00 -0.00000000000E+00 -0.11951805410E+03  0.11951805410E+03  0.00000000000E+00 0.  1.
         -6    2    1    2    0  503  0.23688704981E+02 -0.57079542089E+02 -0.17481282789E+02  0.18205913901E+03  0.17035464766E+03 0.  0.
        -24    2    3    3    0    0  0.11846883917E+02 -0.83104296227E+02  0.33850492941E+02  0.12311375960E+03  0.83453395502E+02 0.  0.
          6    2    1    2  501    0 -0.23688704981E+02  0.57079542089E+02  0.40121679286E+03  0.44071247926E+03  0.17156149230E+03 0.  0.
         24    2    5    5    0    0  0.26644360612E+02  0.66779356761E+02  0.35807277584E+03  0.37354850007E+03  0.78440835451E+02 0.  0.
          5    1    5    5  501    0 -0.50333065594E+02 -0.96998146721E+01  0.43144017014E+02  0.67163979191E+02  0.47000000000E+01 0. -1.
        -13    1    6    6    0    0  0.18644016197E+01 -0.17199396947E+02  0.38701955362E+02  0.42392647919E+02  0.00000000000E+00 0.  1.
         14    1    6    6    0    0  0.24779958993E+02  0.83978753708E+02  0.31937082048E+03  0.33115585215E+03  0.00000000000E+00 0. -1.
         -5    1    3    3    0  503  0.11841821064E+02  0.26024754138E+02 -0.51331775730E+02  0.58945379408E+02  0.47000000000E+01 0.  1.
         13    1    4    4    0    0  0.17704528858E+02 -0.12398737458E+02  0.46286383062E+02  0.51084325283E+02  0.00000000000E+00 0. -1.
        -14    1    4    4    0    0 -0.58576449406E+01 -0.70705558769E+02 -0.12435890122E+02  0.72029434318E+02  0.00000000000E+00 0.  1.
</event>
<event>
12    1  0.1040325E-001  0.1766964E+03  0.7818608E-02  0.1171190E+00
         21   -1    0    0  503  502  0.00000000000E+00  0.00000000000E+00  0.11823736885E+03  0.11823736885E+03  0.00000000000E+00 0.  1.
         21   -1    0    0  501  503 -0.00000000000E+00 -0.00000000000E+00 -0.26907744060E+03  0.26907744060E+03  0.00000000000E+00 0.  1.
          6    2    1    2  501    0 -0.26432680034E+02 -0.26393627364E+02 -0.10428152690E+03  0.20517375462E+03  0.17270298953E+03 0.  0.
         24    2    3    3    0    0  0.47444422248E+02 -0.15446338609E+00 -0.76645921209E+02  0.12191430068E+03  0.82082290489E+02 0.  0.
         -6    2    1    2    0  502  0.26432680034E+02  0.26393627364E+02 -0.46558544842E+02  0.18214105483E+03  0.17208240938E+03 0.  0.
        -24    2    5    5    0    0  0.15370552130E+02  0.73437645761E+02 -0.40089916149E+02  0.13315694008E+03  0.10244133749E+03 0.  0.
          5    1    3    3  501    0 -0.73877102283E+02 -0.26239163978E+02 -0.27635605693E+02  0.83259453937E+02  0.47000000000E+01 0. -1.
        -11    1    4    4    0    0 -0.14370277044E+02 -0.13756341109E+02 -0.48928180510E+02  0.52817692406E+02  0.00000000000E+00 0.  1.
         12    1    4    4    0    0  0.61814699292E+02  0.13601877723E+02 -0.27717740698E+02  0.69096608279E+02  0.00000000000E+00 0. -1.
         -5    1    5    5    0  502  0.11062127904E+02 -0.47044018397E+02 -0.64686286936E+01  0.48984114750E+02  0.47000000000E+01 0.  1.
         13    1    6    6    0    0 -0.10630398667E+02  0.10553385285E+02  0.31196443286E+02  0.34606320095E+02  0.00000000000E+00 0. -1.
        -14    1    6    6    0    0  0.26000950797E+02  0.62884260476E+02 -0.71286359435E+02  0.98550619985E+02  0.00000000000E+00 0.  1.
</event>
<event>
12    1  0.1040325E-001  0.1747547E+03  0.7818608E-02  0.1173557E+00
         21   -1    0    0  503  502  0.00000000000E+00  0.00000000000E+00  0.21240900384E+03  0.21240900384E+03  0.00000000000E+00 0. -1.
         21   -1    0    0  501  503 -0.00000000000E+00 -0.00000000000E+00 -0.15905856800E+03  0.15905856800E+03  0.00000000000E+00 0. -1.
          6    2    1    2  501    0  0.68332986806E+01  0.26288524584E+02 -0.34479031960E+02  0.17588329624E+03  0.17031837763E+03 0.  0.
         24    2    3    3    0    0 -0.36698984699E+01 -0.79010554912E+01  0.42485330353E+02  0.90884192706E+02  0.79868882276E+02 0.  0.
         -6    2    1    2    0  502 -0.68332986806E+01 -0.26288524584E+02  0.87829467801E+02  0.19558427560E+03  0.17263085748E+03 0.  0.
        -24    2    5    5    0    0 -0.92908614336E+01 -0.84320554096E+02  0.61910258744E+02  0.13180613309E+03  0.79647351707E+02 0.  0.
          5    1    3    3  501    0  0.10503197150E+02  0.34189580075E+02 -0.76964362313E+02  0.84999103539E+02  0.47000000000E+01 0. -1.
        -11    1    4    4    0    0 -0.34398228355E+02 -0.13012428569E+02 -0.17066435188E+01  0.36816763075E+02  0.00000000000E+00 0.  1.
         12    1    4    4    0    0  0.30728329885E+02  0.51113730780E+01  0.44191973872E+02  0.54067429631E+02  0.00000000000E+00 0. -1.
         -5    1    5    5    0  502  0.24575627530E+01  0.58032029512E+02  0.25919209057E+02  0.63778142511E+02  0.47000000000E+01 0.  1.
         11    1    6    6    0    0 -0.17247747940E+02 -0.77385990272E+01 -0.14122998886E+02  0.23597241818E+02  0.00000000000E+00 0. -1.
        -12    1    6    6    0    0  0.79568865067E+01 -0.76581955069E+02  0.76033257630E+02  0.10820889127E+03  0.00000000000E+00 0.  1.
</event>
<event>
12    1  0.1040325E-001  0.1762814E+03  0.7818608E-02  0.1172270E+00
         21   -1    0    0  503  502  0.00000000000E+00  0.00000000000E+00  0.95527190094E+03  0.95527190094E+03  0.00000000000E+00 0.  1.
         21   -1    0    0  501  503 -0.00000000000E+00 -0.00000000000E+00 -0.46162804295E+02  0.46162804295E+02  0.00000000000E+00 0.  1.
          6    2    1    2  501    0 -0.28403420807E+02 -0.34281717124E+01  0.17361245256E+03  0.24510777268E+03  0.17064005939E+03 0.  0.
         24    2    3    3    0    0 -0.19746804958E+01 -0.64336864901E+02  0.12428055571E+03  0.16225806980E+03  0.82090761589E+02 0.  0.
         -6    2    1    2    0  502  0.28403420807E+02  0.34281717124E+01  0.73549664408E+03  0.75632693256E+03  0.17394426918E+03 0.  0.
        -24    2    5    5    0    0 -0.50337327877E+02  0.75703856832E+01  0.33107732885E+03  0.34426584974E+03  0.79470877065E+02 0.  0.
          5    1    3    3  501    0 -0.26428740311E+02  0.60908693189E+02  0.49331896853E+02  0.82849702881E+02  0.47000000000E+01 0. -1.
        -13    1    4    4    0    0 -0.40668103803E+02 -0.30584206914E+02  0.78013312208E+02  0.93141640855E+02  0.00000000000E+00 0.  1.
         14    1    4    4    0    0  0.38693423307E+02 -0.33752657987E+02  0.46267243504E+02  0.69116428943E+02  0.00000000000E+00 0. -1.
         -5    1    5    5    0  502  0.78740748683E+02 -0.41422139707E+01  0.40441931523E+03  0.41206108281E+03  0.47000000000E+01 0.  1.
         13    1    6    6    0    0 -0.23172908358E+02 -0.14605005088E+02  0.28524663975E+03  0.28655878165E+03  0.00000000000E+00 0. -1.
        -14    1    6    6    0    0 -0.27164419519E+02  0.22175390771E+02  0.45830689108E+02  0.57707068092E+02  0.00000000000E+00 0.  1.
</event>
<event>
12    1  0.1040325E-001  0.1761894E+03  0.7818608E-02  0.1172240E+00
         21   -1    0    0  503  502  0.00000000000E+00  0.00000000000E+00  0.28255758795E+03  0.28255758795E+03  0.00000000000E+00 0. -1.
         21   -1    0    0  501  503 -0.00000000000E+00 -0.00000000000E+00 -0.10886567267E+03  0.10886567267E+03  0.00000000000E+00 0. -1.
          6    2    1    2  501    0  0.19467382167E+02  0.32677552606E+02  0.70167720274E+02  0.18707074656E+03  0.16918969778E+03 0.  0.
         24    2    3    3    0    0  0.61566477539E+02  0.59163014684E+02  0.25577853926E+02  0.12010687784E+03  0.80503056027E+02 0.  0.
         -6    2    1    2    0  502 -0.19467382167E+02 -0.32677552606E+02  0.10352419501E+03  0.20435251407E+03  0.17203455945E+03 0.  0.
        -24    2    5    5    0    0 -0.41206496148E+02 -0.67173506079E+02  0.11537586412E+03  0.16163118517E+03  0.81257582754E+02 0.  0.
          5    1    3    3  501    0 -0.42099095372E+02 -0.26485462079E+02  0.44589866347E+02  0.66963868716E+02  0.47000000000E+01 0. -1.
        -13    1    4    4    0    0  0.60522264173E+02  0.25017002320E+02 -0.14877082411E+02  0.67157445207E+02  0.00000000000E+00 0.  1.
         14    1    4    4    0    0  0.10442133664E+01  0.34146012364E+02  0.40454936338E+02  0.52949432632E+02  0.00000000000E+00 0. -1.
         -5    1    5    5    0  502  0.21739113981E+02  0.34495953473E+02 -0.11851669109E+02  0.42721328904E+02  0.47000000000E+01 0.  1.
         13    1    6    6    0    0 -0.12041855136E+01 -0.28880634782E+02 -0.48083306905E+01  0.29302920881E+02  0.00000000000E+00 0. -1.
        -14    1    6    6    0    0 -0.40002310635E+02 -0.38292871297E+02  0.12018419481E+03  0.13232826429E+03  0.00000000000E+00 0.  1.
</event>
<event>
12    1  0.1040325E-001  0.1911302E+03  0.7818608E-02  0.1158636E+00
         21   -1    0    0  501  502  0.00000000000E+00  0.00000000000E+00  0.10015139768E+04  0.10015139768E+04  0.00000000000E+00 0. -1.
         21   -1    0    0  502  503 -0.00000000000E+00 -0.00000000000E+00 -0.43595358147E+02  0.43595358147E+02  0.00000000000E+00 0. -1.
         -6    2    1    2    0  503  0.58035073819E+02  0.41586540473E+02  0.24813970072E+03  0.31004684207E+03  0.17163397991E+03 0.  0.
        -24    2    3    3    0    0  0.49522794604E+02  0.66778095562E+02  0.79114337043E+02  0.13887810394E+03  0.78206318137E+02 0.  0.
          6    2    1    2  501    0 -0.58035073819E+02 -0.41586540473E+02  0.70977891797E+03  0.73506249292E+03  0.17729423554E+03 0.  0.
         24    2    5    5    0    0 -0.20711575166E+02  0.34302174990E+02  0.51379819184E+03  0.52156149596E+03  0.80201019799E+02 0.  0.
          5    1    5    5  501    0 -0.37323498653E+02 -0.75888715463E+02  0.19598072613E+03  0.21350099696E+03  0.47000000000E+01 0. -1.
        -11    1    6    6    0    0  0.26931708349E+02  0.73524228499E+01  0.89658222272E+02  0.93904056661E+02  0.00000000000E+00 0.  1.
         12    1    6    6    0    0 -0.47643283514E+02  0.26949752140E+02  0.42413996957E+03  0.42765743930E+03  0.00000000000E+00 0. -1.
         -5    1    3    3    0  503  0.85122792147E+01 -0.25191555089E+02  0.16902536368E+03  0.17116873812E+03  0.47000000000E+01 0.  1.
         13    1    4    4    0    0 -0.63176756155E+01  0.39115890827E+02  0.19195304869E+01  0.39669264395E+02  0.00000000000E+00 0. -1.
        -14    1    4    4    0    0  0.55840470219E+02  0.27662204736E+02  0.77194806556E+02  0.99208839547E+02  0.00000000000E+00 0.  1.
</event>
<event>
12    1  0.1040325E-001  0.1854762E+03  0.7818608E-02  0.1162911E+00
         21   -1    0    0  503  502  0.00000000000E+00  0.00000000000E+00  0.13748843175E+03  0.13748843175E+03  0.00000000000E+00 0. -1.
         21   -1    0    0  501  503 -0.00000000000E+00 -0.00000000000E+00 -0.28476169570E+03  0.28476169570E+03  0.00000000000E+00 0. -1.
          6    2    1    2  501    0 -0.54096385584E+02  0.37156894803E+02 -0.14924968037E+03  0.23806909262E+03  0.17347729537E+03 0.  0.
         24    2    3    3    0    0  0.15078559465E+02  0.69939850997E+02 -0.74016176509E+02  0.13063508803E+03  0.80425034210E+02 0.  0.
         -6    2    1    2    0  502  0.54096385584E+02 -0.37156894803E+02  0.19764164203E+01  0.18418103483E+03  0.17208048584E+03 0.  0.
        -24    2    5    5    0    0  0.45554093864E+02 -0.73672713318E+01 -0.62950806014E+02  0.11208369350E+03  0.80439407106E+02 0.  0.
          5    1    3    3  501    0 -0.69174945049E+02 -0.32782956194E+02 -0.75233503858E+02  0.10743400459E+03  0.47000000000E+01 0. -1.
        -13    1    4    4    0    0 -0.58501416309E+01  0.76201670752E+02 -0.31163239503E+02  0.82535242647E+02  0.00000000000E+00 0.  1.
         14    1    4    4    0    0  0.20928701096E+02 -0.62618197552E+01 -0.42852937006E+02  0.48099845387E+02  0.00000000000E+00 0. -1.
         -5    1    5    5    0  502  0.85422917196E+01 -0.29789623471E+02  0.64927222435E+02  0.72097341334E+02  0.47000000000E+01 0.  1.
         13    1    6    6    0    0 -0.22512094480E+01  0.21061078394E+02  0.73692716596E+01  0.22426393644E+02  0.00000000000E+00 0. -1.
        -14    1    6    6    0    0  0.47805303312E+02 -0.28428349726E+02 -0.70320077674E+02  0.89657299853E+02  0.00000000000E+00 0.  1.
</event>
<event>
12    1  0.1040325E-001  0.2240617E+03  0.7818608E-02  0.1131196E+00
         21   -1    0    0  501  502  0.00000000000E+00  0.00000000000E+00  0.18810580674E+03  0.18810580674E+03  0.00000000000E+00 0.  1.
         21   -1    0    0  502  503 -0.00000000000E+00 -0.00000000000E+00 -0.83461548737E+03  0.83461548737E+03  0.00000000000E+00 0.  1.
         -6    2    1    2    0  503 -0.97081296328E+02 -0.10404975184E+03 -0.74612259676E+03  0.77903950856E+03  0.17306789863E+03 0.  0.
        -24    2    3    3    0    0  0.99391357853E+01 -0.61885749799E+02 -0.27694058575E+03  0.29594011359E+03  0.83401620776E+02 0.  0.
          6    2    1    2  501    0  0.97081296328E+02  0.10404975184E+03  0.99612916134E+02  0.24368178555E+03  0.17090041134E+03 0.  0.
         24    2    5    5    0    0  0.45479395810E+02  0.75391861898E+00  0.88562094081E+02  0.12759132097E+03  0.79795719455E+02 0.  0.
          5    1    5    5  501    0  0.51601900518E+02  0.10329583322E+03  0.11050822053E+02  0.11609046458E+03  0.47000000000E+01 0. -1.
        -11    1    6    6    0    0  0.38477995589E+02  0.33249768556E+02  0.77233842352E+02  0.92472534615E+02  0.00000000000E+00 0.  1.
         12    1    6    6    0    0  0.70014002215E+01 -0.32495849937E+02  0.11328251729E+02  0.35118786360E+02  0.00000000000E+00 0. -1.
         -5    1    3    3    0  503 -0.10702043211E+03 -0.42164002040E+02 -0.46918201102E+03  0.48309939497E+03  0.47000000000E+01 0.  1.
         13    1    4    4    0    0  0.28022176747E+02 -0.33043139731E+01 -0.17283494078E+03  0.17512303571E+03  0.00000000000E+00 0. -1.
        -14    1    4    4    0    0 -0.18083040961E+02 -0.58581435826E+02 -0.10410564497E+03  0.12081707788E+03  0.00000000000E+00 0.  1.
</event>
<event>
12    1  0.1040325E-001  0.2017124E+03  0.7818608E-02  0.1148376E+00
         21   -1    0    0  503  502  0.00000000000E+00  0.00000000000E+00  0.53962334034E+02  0.53962334034E+02  0.00000000000E+00 0.  1.
         21   -1    0    0  501  503 -0.00000000000E+00 -0.00000000000E+00 -0.76051778704E+03  0.76051778704E+03  0.00000000000E+00 0. -1.
          6    2    1    2  501    0  0.90900880792E+02 -0.51585105782E+02 -0.31226603116E+03  0.37174988055E+03  0.17252219047E+03 0.  0.
         24    2    3    3    0    0  0.82926026701E+01  0.44539659232E+01 -0.59695854825E+02  0.10012828872E+03  0.79834040656E+02 0.  0.
         -6    2    1    2    0  502 -0.90900880792E+02  0.51585105782E+02 -0.39428942184E+03  0.44273024052E+03  0.17211021013E+03 0.  0.
        -24    2    5    5    0    0  0.13592964972E+02  0.62348593090E+01 -0.22428281005E+03  0.23803547579E+03  0.78322836271E+02 0.  0.
          5    1    3    3  501    0  0.82608278122E+02 -0.56039071705E+02 -0.25257017634E+03  0.27162159183E+03  0.47000000000E+01 0. -1.
        -11    1    4    4    0    0  0.14323998742E+00 -0.27011208604E+02  0.52370370298E+01  0.27514586400E+02  0.00000000000E+00 0.  1.
         12    1    4    4    0    0  0.81493626827E+01  0.31465174527E+02 -0.64932891854E+02  0.72613702321E+02  0.00000000000E+00 0. -1.
         -5    1    5    5    0  502 -0.10449384576E+03  0.45350246473E+02 -0.17000661179E+03  0.20469476473E+03  0.47000000000E+01 0.  1.
         13    1    6    6    0    0  0.83576898211E+01  0.23387947627E+02 -0.21741850086E+03  0.21883247380E+03  0.00000000000E+00 0. -1.
        -14    1    6    6    0    0  0.52352751506E+01 -0.17153088318E+02 -0.68643091953E+01  0.19203001991E+02  0.00000000000E+00 0.  1.
</event>
<event>
12    1  0.1040325E-001  0.1992573E+03  0.7818608E-02  0.1150406E+00
         21   -1    0    0  501  502  0.00000000000E+00  0.00000000000E+00  0.21367332117E+03  0.21367332117E+03  0.00000000000E+00 0. -1.
         21   -1    0    0  502  503 -0.00000000000E+00 -0.00000000000E+00 -0.18567350675E+03  0.18567350675E+03  0.00000000000E+00 0. -1.
         -6    2    1    2    0  503  0.68183739054E+02  0.73570781632E+02  0.16574793327E+02  0.19976221563E+03  0.17195504307E+03 0.  0.
        -24    2    3    3    0    0  0.23015496623E+02  0.11006499788E+03  0.26650384440E+02  0.14063856994E+03  0.80155770348E+02 0.  0.
          6    2    1    2  501    0 -0.68183739054E+02 -0.73570781632E+02  0.11425021101E+02  0.19958461229E+03  0.17216795339E+03 0.  0.
         24    2    5    5    0    0 -0.95349913050E+01 -0.30862306895E+02  0.62964440792E+02  0.11046620112E+03  0.84822536746E+02 0.  0.
          5    1    5    5  501    0 -0.58648747749E+02 -0.42708474736E+02 -0.51539419692E+02  0.89118411167E+02  0.47000000000E+01 0. -1.
        -13    1    6    6    0    0 -0.38887211025E+02 -0.40936203241E+02  0.54087948037E+02  0.78188835776E+02  0.00000000000E+00 0.  1.
         14    1    6    6    0    0  0.29352219720E+02  0.10073896346E+02  0.88764927549E+01  0.32277365346E+02  0.00000000000E+00 0. -1.
         -5    1    3    3    0  503  0.45168242431E+02 -0.36494216247E+02 -0.10075591113E+02  0.59123645693E+02  0.47000000000E+01 0.  1.
         11    1    4    4    0    0  0.31942779224E+02  0.28337758905E+02 -0.18847330743E+02  0.46675385381E+02  0.00000000000E+00 0. -1.
        -12    1    4    4    0    0 -0.89272826013E+01  0.81727238974E+02  0.45497715183E+02  0.93963184556E+02  0.00000000000E+00 0.  1.
</event>
<event>
12    1  0.1040325E-001  0.1760305E+03  0.7818608E-02  0.1172068E+00
         21   -1    0    0  503  502  0.00000000000E+00  0.00000000000E+00  0.13954092559E+03  0.13954092559E+03  0.00000000000E+00 0.  1.
         21   -1    0    0  501  503 -0.00000000000E+00 -0.00000000000E+00 -0.26913754122E+03  0.26913754122E+03  0.00000000000E+00 0.  1.
          6    2    1    2  501    0 -0.28804845311E+02  0.19313902447E+02 -0.15214123547E+03  0.23266650444E+03  0.17258041841E+03 0.  0.
         24    2    3    3    0    0 -0.18960017175E+02 -0.23208740819E+01 -0.17890238067E+03  0.19656618465E+03  0.79166498153E+02 0.  0.
         -6    2    1    2    0  502  0.28804845311E+02 -0.19313902447E+02  0.22544619840E+02  0.17601196237E+03  0.17108245109E+03 0.  0.
        -24    2    5    5    0    0  0.38728485257E+02  0.51152771684E+02  0.66899032762E+01  0.10295381545E+03  0.80238592268E+02 0.  0.
          5    1    3    3  501    0 -0.98448281358E+01  0.21634776529E+02  0.26761145205E+02  0.36100319793E+02  0.47000000000E+01 0. -1.
        -11    1    4    4    0    0 -0.37555286789E+02  0.24256832556E+02 -0.13335006554E+03  0.14064506202E+03  0.00000000000E+00 0.  1.
         12    1    4    4    0    0  0.18595269614E+02 -0.26577706638E+02 -0.45552315135E+02  0.55921122631E+02  0.00000000000E+00 0. -1.
         -5    1    5    5    0  502 -0.99236399460E+01 -0.70466674131E+02  0.15854716564E+02  0.73058146912E+02  0.47000000000E+01 0.  1.
         11    1    6    6    0    0  0.38949740929E+02 -0.10451244880E+02  0.89468449337E+01  0.41308072725E+02  0.00000000000E+00 0. -1.
        -12    1    6    6    0    0 -0.22125567194E+00  0.61604016564E+02 -0.22569416575E+01  0.61645742728E+02  0.00000000000E+00 0.  1.
</event>
<event>
12    1  0.1040325E-001  0.1976593E+03  0.7818608E-02  0.1153086E+00
         21   -1    0    0  501  502  0.00000000000E+00  0.00000000000E+00  0.14811873436E+04  0.14811873436E+04  0.00000000000E+00 0.  1.
         21   -1    0    0  502  503 -0.00000000000E+00 -0.00000000000E+00 -0.26312553565E+02  0.26312553565E+02  0.00000000000E+00 0.  1.
         -6    2    1    2    0  503  0.38239831765E+02  0.89562126256E+02  0.58805800801E+03  0.61843267250E+03  0.16481228850E+03 0.  0.
        -24    2    3    3    0    0  0.65771880230E+02  0.47391066775E+02  0.52760602732E+03  0.53961044264E+03  0.78990229189E+02 0.  0.
          6    2    1    2  501    0 -0.38239831765E+02 -0.89562126256E+02  0.86681678203E+03  0.88906722467E+03  0.17200446848E+03 0.  0.
         24    2    5    5    0    0 -0.65420840678E+02 -0.53728427268E+02  0.79497733595E+03  0.80417990382E+03  0.86889140468E+02 0.  0.
          5    1    5    5  501    0  0.27181008913E+02 -0.35833698988E+02  0.71839446079E+02  0.84887320853E+02  0.47000000000E+01 0. -1.
        -13    1    6    6    0    0 -0.15696445549E+02 -0.33540820664E+02  0.62124208627E+03  0.62234483593E+03  0.00000000000E+00 0.  1.
         14    1    6    6    0    0 -0.49724395128E+02 -0.20187606605E+02  0.17373524968E+03  0.18183506788E+03  0.00000000000E+00 0. -1.
         -5    1    3    3    0  503 -0.27532048465E+02  0.42171059482E+02  0.60451980690E+02  0.78822229858E+02  0.47000000000E+01 0.  1.
         13    1    4    4    0    0 -0.10720188724E+02 -0.12178041487E+02  0.72956750657E+02  0.74738976493E+02  0.00000000000E+00 0. -1.
        -14    1    4    4    0    0  0.76492068953E+02  0.59569108262E+02  0.45464927666E+03  0.46487146615E+03  0.00000000000E+00 0.  1.
</event>
<event>
12    1  0.1040325E-001  0.1955201E+03  0.7818608E-02  0.1154021E+00
         21   -1    0    0  503  502  0.00000000000E+00  0.00000000000E+00  0.23259755093E+03  0.23259755093E+03  0.00000000000E+00 0.  1.
         21   -1    0    0  501  503 -0.00000000000E+00 -0.00000000000E+00 -0.25943044139E+03  0.25943044139E+03  0.00000000000E+00 0.  1.
          6    2    1    2  501    0 -0.76616875053E+02  0.43514223582E+02 -0.16363849916E+03  0.25339881701E+03  0.17224914763E+03 0.  0.
         24    2    3    3    0    0 -0.28657888368E+01  0.65522911352E+02 -0.13682046491E+03  0.17175996587E+03  0.80499575149E+02 0.  0.
         -6    2    1    2    0  502  0.76616875053E+02 -0.43514223582E+02  0.13680560870E+03  0.23862917531E+03  0.17454075610E+03 0.  0.
        -24    2    5    5    0    0  0.45482551248E+02 -0.64876660242E+02  0.17805676576E+02  0.11369409751E+03  0.79571742332E+02 0.  0.
          5    1    3    3  501    0 -0.73751086216E+02 -0.22008687770E+02 -0.26818034251E+02  0.81638851147E+02  0.47000000000E+01 0. -1.
        -13    1    4    4    0    0  0.26738824629E+02  0.45758496750E+02 -0.12234971505E+03  0.13333513243E+03  0.00000000000E+00 0.  1.
         14    1    4    4    0    0 -0.29604613465E+02  0.19764414602E+02 -0.14470749853E+02  0.38424833432E+02  0.00000000000E+00 0. -1.
         -5    1    5    5    0  502  0.31134323805E+02  0.21362436660E+02  0.11899993212E+03  0.12493507780E+03  0.47000000000E+01 0.  1.
         11    1    6    6    0    0  0.58087732338E+02 -0.60070124844E+02 -0.86387961494E+01  0.84007341024E+02  0.00000000000E+00 0. -1.
        -12    1    6    6    0    0 -0.12605181090E+02 -0.48065353970E+01  0.26444472726E+02  0.29686756485E+02  0.00000000000E+00 0.  1.
</event>
<event>
12    1  0.1040325E-001  0.1763254E+03  0.7818608E-02  0.1171645E+00
         21   -1    0    0  503  502  0.00000000000E+00  0.00000000000E+00  0.47928418057E+03  0.47928418057E+03  0.00000000000E+00 0. -1.
         21   -1    0    0  501  503 -0.00000000000E+00 -0.00000000000E+00 -0.75148890825E+02  0.75148890825E+02  0.00000000000E+00 0. -1.
          6    2    1    2  501    0  0.15131886623E+02 -0.31170066119E+02  0.98273763246E+02  0.20186226831E+03  0.17288752358E+03 0.  0.
         24    2    3    3    0    0 -0.18954739390E+02 -0.40908006974E+02  0.12631191489E+03  0.15642050874E+03  0.80498003281E+02 0.  0.
         -6    2    1    2    0  502 -0.15131886623E+02  0.31170066119E+02  0.30586152650E+03  0.35257080309E+03  0.17191378881E+03 0.  0.
        -24    2    5    5    0    0 -0.36279230662E+02 -0.41400801987E+02  0.14145244006E+03  0.17155649768E+03  0.79953924951E+02 0.  0.
          5    1    3    3  501    0  0.34086626013E+02  0.97379408543E+01 -0.28038151643E+02  0.45441759568E+02  0.47000000000E+01 0. -1.
        -13    1    4    4    0    0 -0.30868779307E+02  0.14658926681E+02  0.60354395537E+02  0.69357182238E+02  0.00000000000E+00 0.  1.
         14    1    4    4    0    0  0.11914039917E+02 -0.55566933654E+02  0.65957519352E+02  0.87063326504E+02  0.00000000000E+00 0. -1.
         -5    1    5    5    0  502  0.21147344039E+02  0.72570868106E+02  0.16440908644E+03  0.18101430541E+03  0.47000000000E+01 0.  1.
         11    1    6    6    0    0 -0.45472138899E+02 -0.16158781806E-01  0.10919933436E+03  0.11828867360E+03  0.00000000000E+00 0. -1.
        -12    1    6    6    0    0  0.91929082373E+01 -0.41384643205E+02  0.32253105698E+02  0.53267824080E+02  0.00000000000E+00 0.  1.
</event>
<event>
12    1  0.1040325E-001  0.2384747E+03  0.7818608E-02  0.1121311E+00
         21   -1    0    0  501  502  0.00000000000E+00  0.00000000000E+00  0.24321139234E+03  0.24321139234E+03  0.00000000000E+00 0.  1.
         21   -1    0    0  502  503 -0.00000000000E+00 -0.00000000000E+00 -0.28905025321E+03  0.28905025321E+03  0.00000000000E+00 0. -1.
         -6    2    1    2    0  503  0.30260723733E+02 -0.16203569006E+03 -0.14212028182E+03  0.27508405942E+03  0.16823135554E+03 0.  0.
        -24    2    3    3    0    0  0.18145888982E+00 -0.17901424211E+03 -0.10377449277E+03  0.22326202799E+03  0.83849007073E+02 0.  0.
          6    2    1    2  501    0 -0.30260723733E+02  0.16203569006E+03  0.96281420954E+02  0.25717758614E+03  0.17233375333E+03 0.  0.
         24    2    5    5    0    0 -0.49802750091E+02  0.49917105766E+02  0.94441158236E+02  0.14325680530E+03  0.81433092365E+02 0.  0.
          5    1    5    5  501    0  0.19542026359E+02  0.11211858430E+03  0.18402627171E+01  0.11392078083E+03  0.47000000000E+01 0. -1.
        -13    1    6    6    0    0  0.17202719464E+02  0.37895077766E+01  0.44358174413E+02  0.47727786073E+02  0.00000000000E+00 0.  1.
         14    1    6    6    0    0 -0.67005469555E+02  0.46127597990E+02  0.50082983823E+02  0.95529019231E+02  0.00000000000E+00 0. -1.
         -5    1    3    3    0  503  0.30079264843E+02  0.16978552050E+02 -0.38345789046E+02  0.51822031423E+02  0.47000000000E+01 0.  1.
         11    1    4    4    0    0 -0.28864605014E+02 -0.28958254951E+02 -0.41388868222E+02  0.58178899655E+02  0.00000000000E+00 0. -1.
        -12    1    4    4    0    0  0.29046063903E+02 -0.15005598716E+03 -0.62385624550E+02  0.16508312834E+03  0.00000000000E+00 0.  1.
</event>
<event>
12    1  0.1040325E-001  0.1948168E+03  0.7818608E-02  0.1155274E+00
         21   -1    0    0  503  502  0.00000000000E+00  0.00000000000E+00  0.95502258462E+02  0.95502258462E+02  0.00000000000E+00 0. -1.
         21   -1    0    0  501  503 -0.00000000000E+00 -0.00000000000E+00 -0.38955333997E+03  0.38955333997E+03  0.00000000000E+00 0. -1.
          6    2    1    2  501    0  0.54589984434E+02  0.59418849113E+02 -0.16667836635E+03  0.25638890859E+03  0.17732154017E+03 0.  0.
         24    2    3    3    0    0 -0.13719357947E+02  0.33591652815E+01 -0.14461653991E+03  0.16518765534E+03  0.78571706664E+02 0.  0.
         -6    2    1    2    0  502 -0.54589984434E+02 -0.59418849113E+02 -0.12737271516E+03  0.22866668985E+03  0.17191271171E+03 0.  0.
        -24    2    5    5    0    0 -0.13495548352E+01 -0.13307577179E+02 -0.20040662630E+01  0.84791115585E+02  0.83705460347E+02 0.  0.
          5    1    3    3  501    0  0.68309342381E+02  0.56059683831E+02 -0.22061826443E+02  0.91201253247E+02  0.47000000000E+01 0. -1.
        -11    1    4    4    0    0 -0.99601894440E+01  0.40457050278E+02 -0.64030096558E+02  0.76392614539E+02  0.00000000000E+00 0.  1.
         12    1    4    4    0    0 -0.37591685035E+01 -0.37097884997E+02 -0.80586443349E+02  0.88795040800E+02  0.00000000000E+00 0. -1.
         -5    1    5    5    0  502 -0.53240429599E+02 -0.46111271934E+02 -0.12536864890E+03  0.14387557426E+03  0.47000000000E+01 0.  1.
         11    1    6    6    0    0  0.41566138373E+01 -0.18547039192E+01  0.40332491024E+02  0.40588510658E+02  0.00000000000E+00 0. -1.
        -12    1    6    6    0    0 -0.55061686725E+01 -0.11452873260E+02 -0.42336557287E+02  0.44202604927E+02  0.00000000000E+00 0.  1.
</event>
<event>
12    1  0.1040325E-001  0.1815285E+03  0.7818608E-02  0.1166498E+00
         21   -1    0    0  501  502  0.00000000000E+00  0.00000000000E+00  0.10339553827E+03  0.10339553827E+03  0.00000000000E+00 0. -1.
         21   -1    0    0  502  503 -0.00000000000E+00 -0.00000000000E+00 -0.49705821262E+03  0.49705821262E+03  0.00000000000E+00 0. -1.
         -6    2    1    2    0  503 -0.98139335101E+01 -0.56925989412E+02 -0.37752291918E+03  0.41889873132E+03  0.17209215855E+03 0.  0.
        -24    2    3    3    0    0  0.50104992119E+02  0.60437417559E+01 -0.21036847988E+03  0.23043610566E+03  0.79365385505E+02 0.  0.
          6    2    1    2  501    0  0.98139335101E+01  0.56925989412E+02 -0.16139755172E+02  0.18155501956E+03  0.17136175732E+03 0.  0.
         24    2    5    5    0    0 -0.36081982352E+02  0.88825091708E+02 -0.48338731855E+01  0.12433700852E+03  0.79022268956E+02 0.  0.
          5    1    5    5  501    0  0.45895915862E+02 -0.31899102296E+02 -0.11305881986E+02  0.57218011042E+02  0.47000000000E+01 0. -1.
        -13    1    6    6    0    0  0.63675808995E+00  0.15998446910E+02 -0.34110969543E+02  0.37681746344E+02  0.00000000000E+00 0.  1.
         14    1    6    6    0    0 -0.36718740442E+02  0.72826644798E+02  0.29277096357E+02  0.86655262179E+02  0.00000000000E+00 0. -1.
         -5    1    3    3    0  503 -0.59918925629E+02 -0.62969731168E+02 -0.16715443930E+03  0.18846262566E+03  0.47000000000E+01 0.  1.
         11    1    4    4    0    0 -0.17910259326E+02 -0.17660268370E+01 -0.91575812071E+02  0.93327517895E+02  0.00000000000E+00 0. -1.
        -12    1    4    4    0    0  0.68015251445E+02  0.78097685929E+01 -0.11879266781E+03  0.13710858777E+03  0.00000000000E+00 0.  1.
</event>
<event>
12    1  0.1040325E-001  0.1981620E+03  0.7818608E-02  0.1151375E+00
         21   -1    0    0  501  502  0.00000000000E+00  0.00000000000E+00  0.12218552533E+03  0.12218552533E+03  0.00000000000E+00 0. -1.
         21   -1    0    0  502  503 -0.00000000000E+00 -0.00000000000E+00 -0.40638764241E+03  0.40638764241E+03  0.00000000000E+00 0. -1.
         -6    2    1    2    0  503  0.96110248640E+02 -0.23200325607E+02 -0.26348451455E+03  0.32968509625E+03  0.17173449939E+03 0.  0.
        -24    2    3    3    0    0  0.13580690212E+03 -0.20439252902E+02 -0.20588977219E+03  0.25952319657E+03  0.78105144127E+02 0.  0.
          6    2    1    2  501    0 -0.96110248640E+02  0.23200325607E+02 -0.20717602527E+02  0.19888807149E+03  0.17132370217E+03 0.  0.
         24    2    5    5    0    0  0.18331639404E+02  0.17651250518E+02 -0.39817730761E+01  0.83000557237E+02  0.78902612990E+02 0.  0.
          5    1    5    5  501    0 -0.11444188804E+03  0.55490750899E+01 -0.16735829450E+02  0.11588751426E+03  0.47000000000E+01 0. -1.
        -11    1    6    6    0    0  0.57262378140E+01  0.12265964017E+02 -0.41184886375E+02  0.43352491722E+02  0.00000000000E+00 0.  1.
         12    1    6    6    0    0  0.12605401590E+02  0.53852865006E+01  0.37203113299E+02  0.39648065515E+02  0.00000000000E+00 0. -1.
         -5    1    3    3    0  503 -0.39696653483E+02 -0.27610727051E+01 -0.57594742361E+02  0.70161899688E+02  0.47000000000E+01 0.  1.
         13    1    4    4    0    0  0.69330386082E+02  0.24656154624E+02 -0.12793472478E+03  0.14758699875E+03  0.00000000000E+00 0. -1.
        -14    1    4    4    0    0  0.66476516041E+02 -0.45095407526E+02 -0.77955047416E+02  0.11193619782E+03  0.00000000000E+00 0.  1.
</event>
<event>
12    1  0.1040325E-001  0.2568527E+03  0.7818608E-02  0.1109952E+00
         21   -1    0    0  503  502  0.00000000000E+00  0.00000000000E+00  0.23853758338E+03  0.23853758338E+03  0.00000000000E+00 0. -1.
         21   -1    0    0  501  503 -0.00000000000E+00 -0.00000000000E+00 -0.38970962836E+03  0.38970962836E+03  0.00000000000E+00 0. -1.
          6    2    1    2  501    0 -0.42962772840E+02 -0.18086205608E+03 -0.24884106335E+03  0.35345178292E+03  0.16866951372E+03 0.  0.
         24    2    3    3    0    0 -0.58792283520E+02 -0.20210467250E+03 -0.22513727641E+03  0.31759398494E+03  0.76657124850E+02 0.  0.
         -6    2    1    2    0  502  0.42962772840E+02  0.18086205608E+03  0.97669018367E+02  0.27479542882E+03  0.17724674150E+03 0.  0.
        -24    2    5    5    0    0 -0.61454123741E+01  0.23949943290E+02 -0.12164404138E+02  0.77011466645E+02  0.71912637206E+02 0.  0.
          5    1    3    3  501    0  0.15829510679E+02  0.21242616422E+02 -0.23703786939E+02  0.35857797981E+02  0.47000000000E+01 0. -1.
        -13    1    4    4    0    0  0.16718411454E+01  0.21652634291E+01 -0.25479498629E+02  0.25625929620E+02  0.00000000000E+00 0.  1.
         14    1    4    4    0    0 -0.60464124665E+02 -0.20426993593E+03 -0.19965777778E+03  0.29196805532E+03  0.00000000000E+00 0. -1.
         -5    1    5    5    0  502  0.49108185214E+02  0.15691211279E+03  0.10983342250E+03  0.19778396218E+03  0.47000000000E+01 0.  1.
         13    1    6    6    0    0 -0.98118423765E+01  0.42022008883E+02 -0.29040837461E+02  0.52014341501E+02  0.00000000000E+00 0. -1.
        -14    1    6    6    0    0  0.36664300024E+01 -0.18072065593E+02  0.16876433323E+02  0.24997125144E+02  0.00000000000E+00 0.  1.
</event>
<event>
12    1  0.1040325E-001  0.1739484E+03  0.7818608E-02  0.1174282E+00
         21   -1    0    0  503  502  0.00000000000E+00  0.00000000000E+00  0.35756692842E+04  0.35756692842E+04  0.00000000000E+00 0. -1.
         21   -1    0    0  501  503 -0.00000000000E+00 -0.00000000000E+00 -0.45659661495E+02  0.45659661495E+02  0.00000000000E+00 0. -1.
          6    2    1    2  501    0  0.94896890804E+01 -0.96736885144E+01  0.13047210076E+03  0.21744197130E+03  0.17341974328E+03 0.  0.
         24    2    3    3    0    0 -0.35558189933E+02  0.97210017854E+01  0.10234190291E+02  0.87500790265E+02  0.78694135099E+02 0.  0.
         -6    2    1    2    0  502 -0.94896890804E+01  0.96736885144E+01  0.33995375219E+04  0.34038869744E+04  0.17148625860E+03 0.  0.
        -24    2    5    5    0    0  0.53687592328E+02 -0.18812358870E+02  0.23531899313E+04  0.23552363203E+04  0.79993809141E+02 0.  0.
          5    1    3    3  501    0  0.45047879013E+02 -0.19394690300E+02  0.12023791047E+03  0.12994118104E+03  0.47000000000E+01 0. -1.
        -11    1    4    4    0    0 -0.74321977860E+01 -0.11074859778E+02  0.39627331196E+02  0.41811666563E+02  0.00000000000E+00 0.  1.
         12    1    4    4    0    0 -0.28125992147E+02  0.20795861564E+02 -0.29393140905E+02  0.45689123702E+02  0.00000000000E+00 0. -1.
         -5    1    5    5    0  502 -0.63177281408E+02  0.28486047384E+02  0.10463475906E+04  0.10486506540E+04  0.47000000000E+01 0.  1.
         13    1    6    6    0    0  0.42383436814E+02 -0.74736761111E+01  0.22758301955E+04  0.22762370900E+04  0.00000000000E+00 0. -1.
        -14    1    6    6    0    0  0.11304155514E+02 -0.11338682759E+02  0.77359735846E+02  0.78999230305E+02  0.00000000000E+00 0.  1.
</event>
<event>
12    1  0.1040325E-001  0.1870931E+03  0.7818608E-02  0.1162115E+00
         21   -1    0    0  503  502  0.00000000000E+00  0.00000000000E+00  0.27941292570E+03  0.27941292570E+03  0.00000000000E+00 0.  1.
         21   -1    0    0  501  503 -0.00000000000E+00 -0.00000000000E+00 -0.26192296036E+03  0.26192296036E+03  0.00000000000E+00 0. -1.
          6    2    1    2  501    0  0.10327161073E+02 -0.62158263690E+02 -0.18884262281E+03  0.26280948479E+03  0.17157211051E+03 0.  0.
         24    2    3    3    0    0  0.21644163717E+02 -0.25209480805E+02 -0.23218140404E+02  0.92671757414E+02  0.83336575601E+02 0.  0.
         -6    2    1    2    0  502 -0.10327161073E+02  0.62158263690E+02  0.20633258815E+03  0.27852640127E+03  0.17616333123E+03 0.  0.
        -24    2    5    5    0    0 -0.22563453638E+02 -0.20582423730E+02  0.30762579589E+02  0.83994485849E+02  0.71944365613E+02 0.  0.
          5    1    3    3  501    0 -0.11317002644E+02 -0.36948782885E+02 -0.16562448241E+03  0.17013772738E+03  0.47000000000E+01 0. -1.
        -13    1    4    4    0    0 -0.24435588870E+02 -0.34316615311E+02 -0.16405605462E+02  0.45209202386E+02  0.00000000000E+00 0.  1.
         14    1    4    4    0    0  0.46079752587E+02  0.91071345057E+01 -0.68125349421E+01  0.47462555027E+02  0.00000000000E+00 0. -1.
         -5    1    5    5    0  502  0.12236292565E+02  0.82740687420E+02  0.17557000856E+03  0.19453191542E+03  0.47000000000E+01 0.  1.
         13    1    6    6    0    0 -0.52668132309E+01  0.26870438778E+02  0.75158662887E+01  0.28394507353E+02  0.00000000000E+00 0. -1.
        -14    1    6    6    0    0 -0.17296640407E+02 -0.47452862508E+02  0.23246713300E+02  0.55599978496E+02  0.00000000000E+00 0.  1.
</event>
<event>
12    1  0.1040325E-001  0.2266527E+03  0.7818608E-02  0.1129462E+00
         21   -1    0    0  503  502  0.00000000000E+00  0.00000000000E+00  0.19117699672E+03  0.19117699672E+03  0.00000000000E+00 0.  1.
         21   -1    0    0  501  503 -0.00000000000E+00 -0.00000000000E+00 -0.27852318918E+03  0.27852318918E+03  0.00000000000E+00 0.  1.
          6    2    1    2  501    0 -0.10997972629E+03 -0.96068317746E+02 -0.93639965279E+02  0.24296007581E+03  0.17010729987E+03 0.  0.
         24    2    3    3    0    0 -0.10530013965E+03 -0.13114255042E+03 -0.90147953194E+02  0.20709387337E+03  0.80465713070E+02 0.  0.
         -6    2    1    2    0  502  0.10997972629E+03  0.96068317746E+02  0.62937728175E+01  0.22674011009E+03  0.17334013983E+03 0.  0.
        -24    2    5    5    0    0  0.13318862446E+03  0.54834777628E+02 -0.28254572204E+02  0.16796480976E+03  0.81656560944E+02 0.  0.
          5    1    3    3  501    0 -0.46795866398E+01  0.35074232676E+02 -0.34920120856E+01  0.35866202438E+02  0.47000000000E+01 0. -1.
        -11    1    4    4    0    0 -0.10414525861E+03 -0.11543846653E+03 -0.48964046558E+02  0.16300230766E+03  0.00000000000E+00 0.  1.
         12    1    4    4    0    0 -0.11548810412E+01 -0.15704083890E+02 -0.41183906636E+02  0.44091565711E+02  0.00000000000E+00 0. -1.
         -5    1    5    5    0  502 -0.23208898166E+02  0.41233540117E+02  0.34548345021E+02  0.58775300326E+02  0.47000000000E+01 0.  1.
         11    1    6    6    0    0  0.87122334470E+02  0.22399039461E+02 -0.55169818663E+02  0.10552595426E+03  0.00000000000E+00 0. -1.
        -12    1    6    6    0    0  0.46066289989E+02  0.32435738167E+02  0.26915246459E+02  0.62438855497E+02  0.00000000000E+00 0.  1.
</event>
<event>
12    1  0.1040325E-001  0.1990080E+03  0.7818608E-02  0.1150897E+00
         21   -1    0    0  503  502  0.00000000000E+00  0.00000000000E+00  0.65172006913E+03  0.65172006913E+03  0.00000000000E+00 0.  1.
         21   -1    0    0  501  503 -0.00000000000E+00 -0.00000000000E+00 -0.78435366970E+02  0.78435366970E+02  0.00000000000E+00 0.  1.
          6    2    1    2  501    0  0.96081618850E+02 -0.10422993475E+02  0.11033572521E+03  0.22624478665E+03  0.17225682846E+03 0.  0.
         24    2    3    3    0    0  0.59177239971E+02  0.58955308813E+02  0.89757241707E+02  0.14487620553E+03  0.77169153961E+02 0.  0.
         -6    2    1    2    0  502 -0.96081618850E+02  0.10422993475E+02  0.46294897695E+03  0.50391064946E+03  0.17396514336E+03 0.  0.
        -24    2    5    5    0    0 -0.13168781963E+03 -0.15205441111E+02  0.36280814531E+03  0.39448078902E+03  0.80077807938E+02 0.  0.
          5    1    3    3  501    0  0.36904378879E+02 -0.69378302288E+02  0.20578483506E+02  0.81368581112E+02  0.47000000000E+01 0. -1.
        -13    1    4    4    0    0  0.47823214154E+02  0.56749857618E+01  0.11479687424E+02  0.49508064987E+02  0.00000000000E+00 0.  1.
         14    1    4    4    0    0  0.11354025817E+02  0.53280323051E+02  0.78277554283E+02  0.95368140546E+02  0.00000000000E+00 0. -1.
         -5    1    5    5    0  502  0.35606200784E+02  0.25628434587E+02  0.10014083164E+03  0.10942986043E+03  0.47000000000E+01 0.  1.
         13    1    6    6    0    0  0.10448212590E+02 -0.58783526173E+01  0.21012669265E+02  0.24191991350E+02  0.00000000000E+00 0. -1.
        -14    1    6    6    0    0 -0.14213603222E+03 -0.93270884941E+01  0.34179547605E+03  0.37028879767E+03  0.00000000000E+00 0.  1.
</event>
<event>
12    1  0.1040325E-001  0.2150427E+03  0.7818608E-02  0.1138051E+00
         21   -1    0    0  503  502  0.00000000000E+00  0.00000000000E+00  0.14456963098E+03  0.14456963098E+03  0.00000000000E+00 0. -1.
         21   -1    0    0  501  503 -0.00000000000E+00 -0.00000000000E+00 -0.34793967192E+03  0.34793967192E+03  0.00000000000E+00 0. -1.
          6    2    1    2  501    0  0.94603388628E+02 -0.82091254920E+02 -0.17598454719E+03  0.27787392940E+03  0.17479869712E+03 0.  0.
         24    2    3    3    0    0  0.42644492258E+02 -0.58127577035E+02 -0.16471455697E+02  0.10834369278E+03  0.79181304492E+02 0.  0.
         -6    2    1    2    0  502 -0.94603388628E+02  0.82091254920E+02 -0.27385493749E+02  0.21463537351E+03  0.17213251587E+03 0.  0.
        -24    2    5    5    0    0 -0.80569913927E+02  0.97799325100E+02 -0.71583437394E+02  0.16544970381E+03  0.78696867548E+02 0.  0.
          5    1    3    3  501    0  0.51958896370E+02 -0.23963677885E+02 -0.15951309149E+03  0.16953023661E+03  0.47000000000E+01 0. -1.
        -13    1    4    4    0    0 -0.19249369729E+02 -0.15056043875E+02  0.12640281059E+02  0.27513622033E+02  0.00000000000E+00 0.  1.
         14    1    4    4    0    0  0.61893861986E+02 -0.43071533160E+02 -0.29111736757E+02  0.80830070749E+02  0.00000000000E+00 0. -1.
         -5    1    5    5    0  502 -0.14033474700E+02 -0.15708070180E+02  0.44197943646E+02  0.49185669696E+02  0.47000000000E+01 0.  1.
         11    1    6    6    0    0 -0.80385548565E+02  0.59537294270E+02 -0.21319167779E+02  0.10227919017E+03  0.00000000000E+00 0. -1.
        -12    1    6    6    0    0 -0.18436536286E+00  0.38262030830E+02 -0.50264269615E+02  0.63170513642E+02  0.00000000000E+00 0.  1.
</event>
<event>
12    1  0.1040325E-001  0.1934087E+03  0.7818608E-02  0.1155643E+00
         21   -1    0    0  503  502  0.00000000000E+00  0.00000000000E+00  0.43012980462E+03  0.43012980462E+03  0.00000000000E+00 0.  1.
         21   -1    0    0  501  503 -0.00000000000E+00 -0.00000000000E+00 -0.96522788440E+02  0.96522788440E+02  0.00000000000E+00 0.  1.
          6    2    1    2  501    0  0.80252333201E+02 -0.35425181886E+02  0.25119451904E+03  0.31641758243E+03  0.17124841481E+03 0.  0.
         24    2    3    3    0    0  0.21696699174E+02 -0.76433615001E+02  0.19424014479E+03  0.22489521025E+03  0.80844155551E+02 0.  0.
         -6    2    1    2    0  502 -0.80252333201E+02  0.35425181886E+02  0.82412497133E+02  0.21023501063E+03  0.17237041369E+03 0.  0.
        -24    2    5    5    0    0 -0.28345439200E+02 -0.23525129400E+02  0.96969706935E+02  0.13021334354E+03  0.78711467635E+02 0.  0.
          5    1    3    3  501    0  0.58555634027E+02  0.41008433115E+02  0.56954374249E+02  0.91522372177E+02  0.47000000000E+01 0. -1.
        -11    1    4    4    0    0  0.40759487111E+02 -0.81328458062E+02  0.13777864992E+03  0.16510181784E+03  0.00000000000E+00 0.  1.
         12    1    4    4    0    0 -0.19062787937E+02  0.48948430611E+01  0.56461494873E+02  0.59793392410E+02  0.00000000000E+00 0. -1.
         -5    1    5    5    0  502 -0.51906894001E+02  0.58950311286E+02 -0.14557209802E+02  0.80021667083E+02  0.47000000000E+01 0.  1.
         11    1    6    6    0    0  0.48872289523E+01  0.54240054536E+01 -0.11222622100E+02  0.13388505846E+02  0.00000000000E+00 0. -1.
        -12    1    6    6    0    0 -0.33232668153E+02 -0.28949134854E+02  0.10819232904E+03  0.11682483770E+03  0.00000000000E+00 0.  1.
</event>
<event>
12    1  0.1040325E-001  0.1955234E+03  0.7818608E-02  0.1153949E+00
         21   -1    0    0  503  502  0.00000000000E+00  0.00000000000E+00  0.86456641855E+03  0.86456641855E+03  0.00000000000E+00 0. -1.
         21   -1    0    0  501  503 -0.00000000000E+00 -0.00000000000E+00 -0.10137055584E+03  0.10137055584E+03  0.00000000000E+00 0. -1.
          6    2    1    2  501    0 -0.69027167956E+02 -0.57682415059E+02  0.18452610328E+02  0.19639224671E+03  0.17360128115E+03 0.  0.
         24    2    3    3    0    0  0.10305304926E+02 -0.11266037619E+02  0.44966687656E+02  0.10061538289E+03  0.88703603992E+02 0.  0.
         -6    2    1    2    0  502  0.69027167956E+02  0.57682415059E+02  0.74474325238E+03  0.76954472768E+03  0.17165245414E+03 0.  0.
        -24    2    5    5    0    0  0.47051565553E+02  0.81765114687E+02  0.71245930635E+03  0.72342264302E+03  0.82720453464E+02 0.  0.
          5    1    3    3  501    0 -0.79332472881E+02 -0.46416377440E+02 -0.26514077328E+02  0.95776863828E+02  0.47000000000E+01 0. -1.
        -13    1    4    4    0    0 -0.14443331574E+02  0.31549613355E+02  0.36645151477E+02  0.50466375505E+02  0.00000000000E+00 0.  1.
         14    1    4    4    0    0  0.24748636500E+02 -0.42815650974E+02  0.83215361790E+01  0.50149007381E+02  0.00000000000E+00 0. -1.
         -5    1    5    5    0  502  0.21975602402E+02 -0.24082699629E+02  0.32283946022E+02  0.46122084657E+02  0.47000000000E+01 0.  1.
         13    1    6    6    0    0  0.55356638695E+02  0.59464910101E+02  0.31690525662E+03  0.32715344206E+03  0.00000000000E+00 0. -1.
        -14    1    6    6    0    0 -0.83050731420E+01  0.22300204586E+02  0.39555404973E+03  0.39626920096E+03  0.00000000000E+00 0.  1.
</event>
<event>
12    1  0.1040325E-001  0.2129084E+03  0.7818608E-02  0.1139330E+00
         21   -1    0    0  501  502  0.00000000000E+00  0.00000000000E+00  0.72555601039E+03  0.72555601039E+03  0.00000000000E+00 0.  1.
         21   -1    0    0  502  503 -0.00000000000E+00 -0.00000000000E+00 -0.64285096227E+02  0.64285096227E+02  0.00000000000E+00 0. -1.
         -6    2    1    2    0  503 -0.77181671897E+02  0.98975005013E+02  0.26329937445E+03  0.33860972630E+03  0.17197942920E+03 0.  0.
        -24    2    3    3    0    0 -0.17095991354E+02  0.12013356748E+03  0.20891774315E+03  0.25472036110E+03  0.80693816346E+02 0.  0.
          6    2    1    2  501    0  0.77181671897E+02 -0.98975005013E+02  0.39797153972E+03  0.45123138032E+03  0.17168386664E+03 0.  0.
         24    2    5    5    0    0  0.34390441480E+02  0.10672950451E+02  0.11190365071E+03  0.14185993584E+03  0.79405289606E+02 0.  0.
          5    1    5    5  501    0  0.42791230417E+02 -0.10964795546E+03  0.28606788901E+03  0.30937144448E+03  0.47000000000E+01 0. -1.
        -13    1    6    6    0    0  0.47651097322E+02  0.35151730098E+02  0.79732872786E+02  0.99315669497E+02  0.00000000000E+00 0.  1.
         14    1    6    6    0    0 -0.13260655842E+02 -0.24478779647E+02  0.32170777925E+02  0.42544266343E+02  0.00000000000E+00 0. -1.
         -5    1    3    3    0  503 -0.60085680543E+02 -0.21158562470E+02  0.54381631295E+02  0.83889365205E+02  0.47000000000E+01 0.  1.
         11    1    4    4    0    0 -0.45784102520E+02  0.10124432198E+03  0.15290456432E+03  0.18901429196E+03  0.00000000000E+00 0. -1.
        -12    1    4    4    0    0  0.28688111166E+02  0.18889245507E+02  0.56013178837E+02  0.65706069138E+02  0.00000000000E+00 0.  1.
</event>
<event>
12    1  0.1040325E-001  0.1831880E+03  0.7818608E-02  0.1164814E+00
         21   -1    0    0  503  502  0.00000000000E+00  0.00000000000E+00  0.49947664317E+03  0.49947664317E+03  0.00000000000E+00 0. -1.
         21   -1    0    0  501  503 -0.00000000000E+00 -0.00000000000E+00 -0.70441129104E+02  0.70441129104E+02  0.00000000000E+00 0.  1.
          6    2    1    2  501    0  0.40054068411E+02 -0.47403077881E+02  0.15222479351E+03  0.23798098190E+03  0.17207899291E+03 0.  0.
         24    2    3    3    0    0 -0.27170674770E+02 -0.62661731958E+02  0.12659095600E+03  0.16428446743E+03  0.79368620238E+02 0.  0.
         -6    2    1    2    0  502 -0.40054068411E+02  0.47403077881E+02  0.27681072056E+03  0.33193679037E+03  0.17235567179E+03 0.  0.
        -24    2    5    5    0    0 -0.44619116649E+02  0.11699320002E+01  0.77196981700E+02  0.12693416067E+03  0.90336442538E+02 0.  0.
          5    1    3    3  501    0  0.67224743181E+02  0.15258654077E+02  0.25633837512E+02  0.73696514474E+02  0.47000000000E+01 0. -1.
        -11    1    4    4    0    0 -0.31943973787E+02 -0.47504889623E+02  0.26751655583E+02  0.63188472650E+02  0.00000000000E+00 0.  1.
         12    1    4    4    0    0  0.47732990170E+01 -0.15156842335E+02  0.99839300412E+02  0.10109599478E+03  0.00000000000E+00 0. -1.
         -5    1    5    5    0  502  0.45650482385E+01  0.46233145881E+02  0.19961373886E+03  0.20500262970E+03  0.47000000000E+01 0.  1.
         11    1    6    6    0    0 -0.48401566490E+02 -0.11853763950E+02  0.93365083578E+02  0.10583129117E+03  0.00000000000E+00 0. -1.
        -12    1    6    6    0    0  0.37824498409E+01  0.13023695950E+02 -0.16168101878E+02  0.21102869505E+02  0.00000000000E+00 0.  1.
</event>
<event>
12    1  0.1040325E-001  0.3097966E+03  0.7818608E-02  0.1080531E+00
         21   -1    0    0  501  502  0.00000000000E+00  0.00000000000E+00  0.11912930927E+04  0.11912930927E+04  0.00000000000E+00 0. -1.
         21   -1    0    0  502  503 -0.00000000000E+00 -0.00000000000E+00 -0.83621466743E+02  0.83621466743E+02  0.00000000000E+00 0. -1.
         -6    2    1    2    0  503 -0.99953643656E+01 -0.25700357683E+03  0.42882673034E+03  0.52902392470E+03  0.17269395598E+03 0.  0.
        -24    2    3    3    0    0  0.39371456575E+02 -0.24443613857E+03  0.36498326181E+03  0.44721254414E+03  0.74075237444E+02 0.  0.
          6    2    1    2  501    0  0.99953643656E+01  0.25700357683E+03  0.67884489562E+03  0.74589063475E+03  0.17138174024E+03 0.  0.
         24    2    5    5    0    0 -0.18116966872E+02  0.12175944644E+03  0.20266363188E+03  0.25005602128E+03  0.79384373831E+02 0.  0.
          5    1    5    5  501    0  0.28112331237E+02  0.13524413039E+03  0.47618126374E+03  0.49583461347E+03  0.47000000000E+01 0. -1.
        -13    1    6    6    0    0 -0.37801611348E+02  0.23109728160E+02  0.45922129576E+02  0.63811153734E+02  0.00000000000E+00 0.  1.
         14    1    6    6    0    0  0.19684644476E+02  0.98649718283E+02  0.15674150230E+03  0.18624486755E+03  0.00000000000E+00 0. -1.
         -5    1    3    3    0  503 -0.49366820940E+02 -0.12567438255E+02  0.63843468538E+02  0.81811380559E+02  0.47000000000E+01 0.  1.
         13    1    4    4    0    0  0.18748965720E+02 -0.14981843803E+03  0.15716985882E+03  0.21794369138E+03  0.00000000000E+00 0. -1.
        -14    1    4    4    0    0  0.20622490855E+02 -0.94617700540E+02  0.20781340299E+03  0.22926885276E+03  0.00000000000E+00 0.  1.
</event>
<event>
12    1  0.1040325E-001  0.1839374E+03  0.7818608E-02  0.1164186E+00
         21   -1    0    0  501  502  0.00000000000E+00  0.00000000000E+00  0.52395950067E+02  0.52395950067E+02  0.00000000000E+00 0. -1.
         21   -1    0    0  502  503 -0.00000000000E+00 -0.00000000000E+00 -0.18652024229E+04  0.18652024229E+04  0.00000000000E+00 0. -1.
         -6    2    1    2    0  503  0.26850204600E+02 -0.61709934406E+02 -0.16818290336E+04  0.16917930608E+04  0.17054563289E+03 0.  0.
        -24    2    3    3    0    0  0.20934716255E+02 -0.90021584056E+02 -0.16004364959E+04  0.16052865426E+04  0.83700408513E+02 0.  0.
          6    2    1    2  501    0 -0.26850204600E+02  0.61709934406E+02 -0.13097743920E+03  0.22580531211E+03  0.17118381906E+03 0.  0.
         24    2    5    5    0    0  0.50227341421E+01  0.99697577599E+02 -0.65599502331E+02  0.14361461988E+03  0.79730982065E+02 0.  0.
          5    1    5    5  501    0 -0.31872938742E+02 -0.37987643193E+02 -0.65377936869E+02  0.82190692226E+02  0.47000000000E+01 0. -1.
        -13    1    6    6    0    0  0.92531474597E+01 -0.12191980263E+02 -0.12150205948E+02  0.19542073207E+02  0.00000000000E+00 0.  1.
         14    1    6    6    0    0 -0.42304133176E+01  0.11188955786E+03 -0.53449296383E+02  0.12407254668E+03  0.00000000000E+00 0. -1.
         -5    1    3    3    0  503  0.59154883446E+01  0.28311649649E+02 -0.81392537711E+02  0.86506518270E+02  0.47000000000E+01 0.  1.
         13    1    4    4    0    0 -0.14332384095E+02 -0.60936820749E+01 -0.71754212517E+03  0.71771111987E+03  0.00000000000E+00 0. -1.
        -14    1    4    4    0    0  0.35267100350E+02 -0.83927901981E+02 -0.88289437073E+03  0.88757542269E+03  0.00000000000E+00 0.  1.
</event>
<event>
12    1  0.1040325E-001  0.3051633E+03  0.7818608E-02  0.1082982E+00
         21   -1    0    0  501  502  0.00000000000E+00  0.00000000000E+00  0.43775644196E+03  0.43775644196E+03  0.00000000000E+00 0. -1.
         21   -1    0    0  502  503 -0.00000000000E+00 -0.00000000000E+00 -0.34183361344E+03  0.34183361344E+03  0.00000000000E+00 0.  1.
         -6    2    1    2    0  503 -0.10745228647E+03 -0.22515401634E+03 -0.19324547979E+03  0.35918196058E+03  0.17154457265E+03 0.  0.
        -24    2    3    3    0    0  0.20339051089E+02 -0.68764275700E+02 -0.55544973828E+02  0.11469904446E+03  0.70202735498E+02 0.  0.
          6    2    1    2  501    0  0.10745228647E+03  0.22515401634E+03  0.28916830832E+03  0.42040809482E+03  0.17573938293E+03 0.  0.
         24    2    5    5    0    0  0.80281393607E+02  0.47484964475E+02  0.14293689095E+03  0.18865333902E+03  0.80369170198E+02 0.  0.
          5    1    5    5  501    0  0.27170892859E+02  0.17766905187E+03  0.14623141737E+03  0.23175475580E+03  0.47000000000E+01 0. -1.
        -11    1    6    6    0    0  0.89029719529E+02  0.50808393420E+02  0.94828623481E+02  0.13964330142E+03  0.00000000000E+00 0.  1.
         12    1    6    6    0    0 -0.87483259226E+01 -0.33234289444E+01  0.48108267464E+02  0.49010037592E+02  0.00000000000E+00 0. -1.
         -5    1    3    3    0  503 -0.12779133755E+03 -0.15638974064E+03 -0.13770050596E+03  0.24448291612E+03  0.47000000000E+01 0.  1.
         13    1    4    4    0    0  0.20790867293E+02 -0.78126349819E+02 -0.63184308032E+02  0.10260722918E+03  0.00000000000E+00 0. -1.
        -14    1    4    4    0    0 -0.45181620397E+00  0.93620741192E+01  0.76393342046E+01  0.12091815281E+02  0.00000000000E+00 0.  1.
</event>
<event>
12    1  0.1040325E-001  0.2013117E+03  0.7818608E-02  0.1148773E+00
         21   -1    0    0  503  502  0.00000000000E+00  0.00000000000E+00  0.95101053471E+02  0.95101053471E+02  0.00000000000E+00 0. -1.
         21   -1    0    0  501  503 -0.00000000000E+00 -0.00000000000E+00 -0.43551231734E+03  0.43551231734E+03  0.00000000000E+00 0. -1.
          6    2    1    2  501    0  0.33184775061E+02  0.97376349037E+02 -0.21160753051E+03  0.29162213632E+03  0.17228563717E+03 0.  0.
         24    2    3    3    0    0 -0.24524428836E+02  0.39800517323E+02 -0.36244963640E+02  0.98181063970E+02  0.78360035376E+02 0.  0.
         -6    2    1    2    0  502 -0.33184775061E+02 -0.97376349037E+02 -0.12880373336E+03  0.23899123449E+03  0.17304053221E+03 0.  0.
        -24    2    5    5    0    0 -0.25612683809E+02 -0.71615718215E+02 -0.29630256111E+02  0.13613981128E+03  0.10895538294E+03 0.  0.
          5    1    3    3  501    0  0.57709203897E+02  0.57575831714E+02 -0.17536256687E+03  0.19344107235E+03  0.47000000000E+01 0. -1.
        -11    1    4    4    0    0  0.63003518878E+01 -0.13173084786E+02 -0.33827021130E+02  0.36844157681E+02  0.00000000000E+00 0.  1.
         12    1    4    4    0    0 -0.30824780724E+02  0.52973602109E+02 -0.24179425103E+01  0.61336906289E+02  0.00000000000E+00 0. -1.
         -5    1    5    5    0  502 -0.75720912514E+01 -0.25760630823E+02 -0.99173477247E+02  0.10285142321E+03  0.47000000000E+01 0.  1.
         11    1    6    6    0    0  0.19881663902E+01 -0.71795873974E+02 -0.61088794578E+02  0.94289135898E+02  0.00000000000E+00 0. -1.
        -12    1    6    6    0    0 -0.27600850199E+02  0.18015575971E+00  0.31458538467E+02  0.41850675387E+02  0.00000000000E+00 0.  1.
</event>
<event>
12    1  0.1040325E-001  0.1861287E+03  0.7818608E-02  0.1162115E+00
         21   -1    0    0  501  502  0.00000000000E+00  0.00000000000E+00  0.46009165242E+03  0.46009165242E+03  0.00000000000E+00 0. -1.
         21   -1    0    0  502  503 -0.00000000000E+00 -0.00000000000E+00 -0.22182699445E+03  0.22182699445E+03  0.00000000000E+00 0. -1.
         -6    2    1    2    0  503 -0.44733071672E+02  0.54806413393E+02 -0.15822451292E+03  0.24391458940E+03  0.17162324954E+03 0.  0.
        -24    2    3    3    0    0  0.39926172918E+02  0.34622351984E+02 -0.65030379149E+02  0.11631435194E+03  0.80667662137E+02 0.  0.
          6    2    1    2  501    0  0.44733071672E+02 -0.54806413393E+02  0.39648917089E+03  0.43800405748E+03  0.17216010307E+03 0.  0.
         24    2    5    5    0    0  0.74063183160E+02  0.15846365678E+02  0.25039115391E+03  0.27302287312E+03  0.78161991288E+02 0.  0.
          5    1    5    5  501    0 -0.29330111487E+02 -0.70652779071E+02  0.14609801698E+03  0.16498118437E+03  0.47000000000E+01 0. -1.
        -11    1    6    6    0    0  0.20642865037E+02  0.29483313588E+02  0.33277114011E+02  0.49017955628E+02  0.00000000000E+00 0.  1.
         12    1    6    6    0    0  0.53420318123E+02 -0.13636947910E+02  0.21711403990E+03  0.22400491749E+03  0.00000000000E+00 0. -1.
         -5    1    3    3    0  503 -0.84659244590E+02  0.20184061410E+02 -0.93194133767E+02  0.12760023745E+03  0.47000000000E+01 0.  1.
         13    1    4    4    0    0  0.63949838421E+01  0.49807862444E+02 -0.61409083251E+02  0.79327135870E+02  0.00000000000E+00 0. -1.
        -14    1    4    4    0    0  0.33531189076E+02 -0.15185510461E+02 -0.36212958982E+01  0.36987216072E+02  0.00000000000E+00 0.  1.
</event>
<event>
12    1  0.1040325E-001  0.2509777E+03  0.7818608E-02  0.1112692E+00
         21   -1    0    0  501  502  0.00000000000E+00  0.00000000000E+00  0.11922593123E+04  0.11922593123E+04  0.00000000000E+00 0. -1.
         21   -1    0    0  502  503 -0.00000000000E+00 -0.00000000000E+00 -0.89814141098E+02  0.89814141098E+02  0.00000000000E+00 0. -1.
         -6    2    1    2    0  503  0.10332442498E+03  0.15068031172E+03  0.13986709610E+03  0.28731970941E+03  0.17207358225E+03 0.  0.
        -24    2    3    3    0    0  0.99237831029E+02  0.64108957225E+02  0.29084065623E+02  0.14658496064E+03  0.81750610450E+02 0.  0.
          6    2    1    2  501    0 -0.10332442498E+03 -0.15068031172E+03  0.96257807506E+03  0.99475374394E+03  0.17204059804E+03 0.  0.
         24    2    5    5    0    0 -0.37447400596E+02  0.10723766777E+02  0.39823410952E+03  0.40407848602E+03  0.56317935749E+02 0.  0.
          5    1    5    5  501    0 -0.65877024382E+02 -0.16140407850E+03  0.56434396553E+03  0.59067525793E+03  0.47000000000E+01 0. -1.
        -11    1    6    6    0    0 -0.46699405216E+02  0.10849047052E+01  0.19949838467E+03  0.20489416036E+03  0.00000000000E+00 0.  1.
         12    1    6    6    0    0  0.92520046206E+01  0.96388620718E+01  0.19873572486E+03  0.19918432565E+03  0.00000000000E+00 0. -1.
         -5    1    3    3    0  503  0.40865939483E+01  0.86571354494E+02  0.11078303048E+03  0.14073474877E+03  0.47000000000E+01 0.  1.
         13    1    4    4    0    0  0.96424512107E+02  0.69937901056E+02  0.24153298085E+01  0.11914205956E+03  0.00000000000E+00 0. -1.
        -14    1    4    4    0    0  0.28133189219E+01 -0.58289438307E+01  0.26668735814E+02  0.27442901076E+02  0.00000000000E+00 0.  1.
</event>
<event>
12    1  0.1040325E-001  0.1943317E+03  0.7818608E-02  0.1154762E+00
         21   -1    0    0  501  502  0.00000000000E+00  0.00000000000E+00  0.14768604050E+03  0.14768604050E+03  0.00000000000E+00 0. -1.
         21   -1    0    0  502  503 -0.00000000000E+00 -0.00000000000E+00 -0.90882865171E+03  0.90882865171E+03  0.00000000000E+00 0.  1.
         -6    2    1    2    0  503 -0.84680384281E+02 -0.21885328765E+02 -0.82850856461E+03  0.85083776675E+03  0.17276784593E+03 0.  0.
        -24    2    3    3    0    0 -0.49498090901E+02 -0.75489548966E+02 -0.65140945123E+03  0.66243025057E+03  0.79566517521E+02 0.  0.
          6    2    1    2  501    0  0.84680384281E+02  0.21885328765E+02  0.67365953398E+02  0.20567692546E+03  0.17353700151E+03 0.  0.
         24    2    5    5    0    0  0.72304259215E+02 -0.29533065155E+02 -0.97672582553E+01  0.11203589789E+03  0.79727882475E+02 0.  0.
          5    1    5    5  501    0  0.12376125066E+02  0.51418393919E+02  0.77133211653E+02  0.93641027573E+02  0.47000000000E+01 0. -1.
        -11    1    6    6    0    0  0.49566924439E+01 -0.38084119766E+01 -0.35076433415E+02  0.35629046898E+02  0.00000000000E+00 0.  1.
         12    1    6    6    0    0  0.67347566771E+02 -0.25724653178E+02  0.25309175159E+02  0.76406850991E+02  0.00000000000E+00 0. -1.
         -5    1    3    3    0  503 -0.35182293380E+02  0.53604220201E+02 -0.17709911338E+03  0.18840751617E+03  0.47000000000E+01 0.  1.
         11    1    4    4    0    0  0.55446298922E+01 -0.44894560498E+02 -0.13923756380E+03  0.14640137860E+03  0.00000000000E+00 0. -1.
        -12    1    4    4    0    0 -0.55042720793E+02 -0.30594988468E+02 -0.51217188743E+03  0.51602887197E+03  0.00000000000E+00 0.  1.
</event>
<event>
12    1  0.1040325E-001  0.1832121E+03  0.7818608E-02  0.1165776E+00
         21   -1    0    0  503  502  0.00000000000E+00  0.00000000000E+00  0.36698881712E+03  0.36698881712E+03  0.00000000000E+00 0.  1.
         21   -1    0    0  501  503 -0.00000000000E+00 -0.00000000000E+00 -0.89436874851E+02  0.89436874851E+02  0.00000000000E+00 0.  1.
          6    2    1    2  501    0  0.58300773331E+02  0.19757056956E+02  0.14941823045E+03  0.23641591121E+03  0.17256116021E+03 0.  0.
         24    2    3    3    0    0  0.81321844695E+02  0.50489016365E+02  0.13233554216E+03  0.19412724494E+03  0.10493001625E+03 0.  0.
         -6    2    1    2    0  502 -0.58300773331E+02 -0.19757056956E+02  0.12813371182E+03  0.22000978076E+03  0.16791883175E+03 0.  0.
        -24    2    5    5    0    0  0.13450270487E+02 -0.27909525879E+02  0.12223546829E+03  0.14740431048E+03  0.76332624924E+02 0.  0.
          5    1    3    3  501    0 -0.23021071363E+02 -0.30731959409E+02  0.17082688289E+02  0.42288666271E+02  0.47000000000E+01 0. -1.
        -11    1    4    4    0    0 -0.18135047619E+02  0.16644555009E+02 -0.68291993836E+00  0.24624937426E+02  0.00000000000E+00 0.  1.
         12    1    4    4    0    0  0.99456892313E+02  0.33844461355E+02  0.13301846210E+03  0.16950230751E+03  0.00000000000E+00 0. -1.
         -5    1    5    5    0  502 -0.71751043818E+02  0.81524689225E+01  0.58982435291E+01  0.72605470285E+02  0.47000000000E+01 0.  1.
         13    1    6    6    0    0  0.30830232959E+02 -0.37455422296E+01  0.12121965186E+02  0.33338782084E+02  0.00000000000E+00 0. -1.
        -14    1    6    6    0    0 -0.17379962472E+02 -0.24163983649E+02  0.11011350311E+03  0.11406552839E+03  0.00000000000E+00 0.  1.
</event>
<event>
12    1  0.1040325E-001  0.2390742E+03  0.7818608E-02  0.1120556E+00
         21   -1    0    0  501  502  0.00000000000E+00  0.00000000000E+00  0.22499422747E+03  0.22499422747E+03  0.00000000000E+00 0.  1.
         21   -1    0    0  502  503 -0.00000000000E+00 -0.00000000000E+00 -0.37900123452E+03  0.37900123452E+03  0.00000000000E+00 0.  1.
         -6    2    1    2    0  503  0.12586755860E+03 -0.10782242027E+03 -0.25114131811E+03  0.34673970345E+03  0.17230247726E+03 0.  0.
        -24    2    3    3    0    0  0.14710953650E+03 -0.11927292282E+03 -0.24713263776E+03  0.32182996336E+03  0.81441628300E+02 0.  0.
          6    2    1    2  501    0 -0.12586755860E+03  0.10782242027E+03  0.97134311053E+02  0.25725575854E+03  0.17110562322E+03 0.  0.
         24    2    5    5    0    0 -0.53011032935E+02  0.13666600993E+03  0.53983538373E+02  0.16767838874E+03  0.60943020543E+02 0.  0.
          5    1    5    5  501    0 -0.72856525664E+02 -0.28843589663E+02  0.43150772680E+02  0.89577369795E+02  0.47000000000E+01 0. -1.
        -11    1    6    6    0    0 -0.42104368732E+02  0.69789137597E+02  0.75260159007E+00  0.81509925788E+02  0.00000000000E+00 0.  1.
         12    1    6    6    0    0 -0.10906664203E+02  0.66876872334E+02  0.53230936783E+02  0.86168462955E+02  0.00000000000E+00 0. -1.
         -5    1    3    3    0  503 -0.21241977897E+02  0.11450502549E+02 -0.40086803455E+01  0.24909740097E+02  0.47000000000E+01 0.  1.
         13    1    4    4    0    0  0.14199340764E+02 -0.39029699194E+02 -0.18500557747E+02  0.45466573812E+02  0.00000000000E+00 0. -1.
        -14    1    4    4    0    0  0.13291019573E+03 -0.80243223622E+02 -0.22863208002E+03  0.27636338954E+03  0.00000000000E+00 0.  1.
</event>
<event>
12    1  0.1040325E-001  0.1983606E+03  0.7818608E-02  0.1151143E+00
         21   -1    0    0  501  502  0.00000000000E+00  0.00000000000E+00  0.13252187357E+03  0.13252187357E+03  0.00000000000E+00 0. -1.
         21   -1    0    0  502  503 -0.00000000000E+00 -0.00000000000E+00 -0.46697582987E+03  0.46697582987E+03  0.00000000000E+00 0. -1.
         -6    2    1    2    0  503 -0.13644935435E+02  0.98004902055E+02 -0.34818632687E+03  0.40072513472E+03  0.17191791729E+03 0.  0.
        -24    2    3    3    0    0 -0.21659633046E+02  0.12922135712E+03 -0.32879771987E+03  0.36282117021E+03  0.79774445277E+02 0.  0.
          6    2    1    2  501    0  0.13644935435E+02 -0.98004902055E+02  0.13732370576E+02  0.19877256872E+03  0.17184531121E+03 0.  0.
         24    2    5    5    0    0  0.46200294591E+02 -0.35673676335E+02  0.58955696059E+02  0.11503325730E+03  0.79685618421E+02 0.  0.
          5    1    5    5  501    0 -0.32555359156E+02 -0.62331225720E+02 -0.45223325483E+02  0.83739311421E+02  0.47000000000E+01 0. -1.
        -11    1    6    6    0    0  0.40166860555E+02  0.13788326277E+02  0.69918771243E+01  0.43039295697E+02  0.00000000000E+00 0.  1.
         12    1    6    6    0    0  0.60334340354E+01 -0.49462002612E+02  0.51963818935E+02  0.71993961600E+02  0.00000000000E+00 0. -1.
         -5    1    3    3    0  503  0.80146976108E+01 -0.31216455062E+02 -0.19388607001E+02  0.37903964513E+02  0.47000000000E+01 0.  1.
         11    1    4    4    0    0  0.27691660218E+02  0.75606176268E+02 -0.17047420569E+03  0.18853269409E+03  0.00000000000E+00 0. -1.
        -12    1    4    4    0    0 -0.49351293264E+02  0.53615180849E+02 -0.15832351418E+03  0.17428847611E+03  0.00000000000E+00 0.  1.
</event>
<event>
12    1  0.1040325E-001  0.2538798E+03  0.7818608E-02  0.1110999E+00
         21   -1    0    0  503  502  0.00000000000E+00  0.00000000000E+00  0.21326390166E+03  0.21326390166E+03  0.00000000000E+00 0. -1.
         21   -1    0    0  501  503 -0.00000000000E+00 -0.00000000000E+00 -0.35596708632E+03  0.35596708632E+03  0.00000000000E+00 0. -1.
          6    2    1    2  501    0  0.16517245684E+03 -0.85697379573E+02 -0.18298410446E+03  0.31295072090E+03  0.17271071149E+03 0.  0.
         24    2    3    3    0    0  0.28957733336E+02  0.11614399153E+02 -0.50754989463E+02  0.99571570018E+02  0.79780849913E+02 0.  0.
         -6    2    1    2    0  502 -0.16517245684E+03  0.85697379573E+02  0.40280919806E+02  0.25628026709E+03  0.17155477678E+03 0.  0.
        -24    2    5    5    0    0 -0.18910460268E+02  0.79904878657E+01  0.28449216338E+02  0.90168822972E+02  0.83063862913E+02 0.  0.
          5    1    3    3  501    0  0.13621472350E+03 -0.97311778725E+02 -0.13222911500E+03  0.21337915088E+03  0.47000000000E+01 0. -1.
        -11    1    4    4    0    0 -0.17202022251E+01 -0.20805411618E+02  0.10825860857E+02  0.23516451934E+02  0.00000000000E+00 0.  1.
         12    1    4    4    0    0  0.30677935561E+02  0.32419810771E+02 -0.61580850320E+02  0.76055118084E+02  0.00000000000E+00 0. -1.
         -5    1    5    5    0  502 -0.14626199657E+03  0.77706891707E+02  0.11831703468E+02  0.16611144411E+03  0.47000000000E+01 0.  1.
         11    1    6    6    0    0 -0.41474976233E+02 -0.42613221384E+01 -0.10981421533E+02  0.43115242534E+02  0.00000000000E+00 0. -1.
        -12    1    6    6    0    0  0.22564515964E+02  0.12251810004E+02  0.39430637872E+02  0.47053580438E+02  0.00000000000E+00 0.  1.
</event>
<event>
12    1  0.1040325E-001  0.1981583E+03  0.7818608E-02  0.1151627E+00
         21   -1    0    0  503  502  0.00000000000E+00  0.00000000000E+00  0.82348684430E+02  0.82348684430E+02  0.00000000000E+00 0.  1.
         21   -1    0    0  501  503 -0.00000000000E+00 -0.00000000000E+00 -0.48593637915E+03  0.48593637915E+03  0.00000000000E+00 0.  1.
          6    2    1    2  501    0  0.94920652069E+02  0.13125159062E+01 -0.24854995686E+03  0.31787387071E+03  0.17393982792E+03 0.  0.
         24    2    3    3    0    0  0.18946257217E+01  0.17458146284E+02 -0.19135903022E+03  0.20738669929E+03  0.77990948948E+02 0.  0.
         -6    2    1    2    0  502 -0.94920652069E+02 -0.13125159062E+01 -0.15503773786E+03  0.25041119287E+03  0.17221327611E+03 0.  0.
        -24    2    5    5    0    0 -0.28465619885E+01  0.45132965176E+02 -0.50071859538E+02  0.10318773554E+03  0.78073236050E+02 0.  0.
          5    1    3    3  501    0  0.93026026347E+02 -0.16145630377E+02 -0.57190926645E+02  0.11048717142E+03  0.47000000000E+01 0. -1.
        -11    1    4    4    0    0  0.29481677814E+02 -0.13894167326E+02 -0.47628622352E+02  0.57712242025E+02  0.00000000000E+00 0.  1.
         12    1    4    4    0    0 -0.27587052093E+02  0.31352313610E+02 -0.14373040787E+03  0.14967445726E+03  0.00000000000E+00 0. -1.
         -5    1    5    5    0  502 -0.92074090081E+02 -0.46445481082E+02 -0.10496587832E+03  0.14722345733E+03  0.47000000000E+01 0.  1.
         13    1    6    6    0    0  0.23160847705E+02 -0.12851150802E+02 -0.17808173206E+02  0.31917205020E+02  0.00000000000E+00 0. -1.
        -14    1    6    6    0    0 -0.26007409693E+02  0.57984115978E+02 -0.32263686332E+02  0.71270530519E+02  0.00000000000E+00 0.  1.
</event>
<event>
12    1  0.1040325E-001  0.1928431E+03  0.7818608E-02  0.1156503E+00
         21   -1    0    0  503  502  0.00000000000E+00  0.00000000000E+00  0.13295635848E+04  0.13295635848E+04  0.00000000000E+00 0.  1.
         21   -1    0    0  501  503 -0.00000000000E+00 -0.00000000000E+00 -0.47325979413E+02  0.47325979413E+02  0.00000000000E+00 0.  1.
          6    2    1    2  501    0 -0.57724431633E+02 -0.57237466478E+02  0.19912943987E+03  0.27720211654E+03  0.17487207328E+03 0.  0.
         24    2    3    3    0    0 -0.86950503204E+02 -0.83963189724E+02  0.11807878392E+03  0.18687091278E+03  0.79799320765E+02 0.  0.
         -6    2    1    2    0  502  0.57724431633E+02  0.57237466478E+02  0.10831081655E+04  0.10996874476E+04  0.17199112416E+03 0.  0.
        -24    2    5    5    0    0  0.87678641009E+02  0.80812250895E+02  0.96158068701E+03  0.97223532666E+03  0.79912131658E+02 0.  0.
          5    1    3    3  501    0  0.29226071572E+02  0.26725723245E+02  0.81050655953E+02  0.90331203761E+02  0.47000000000E+01 0. -1.
        -13    1    4    4    0    0 -0.20837956694E+02 -0.27918392359E+02 -0.61697582117E+01  0.35379697391E+02  0.00000000000E+00 0.  1.
         14    1    4    4    0    0 -0.66112546510E+02 -0.56044797364E+02  0.12424854213E+03  0.15149121539E+03  0.00000000000E+00 0. -1.
         -5    1    5    5    0  502 -0.29954209377E+02 -0.23574784417E+02  0.12152747848E+03  0.12745212099E+03  0.47000000000E+01 0.  1.
         11    1    6    6    0    0  0.15939936623E+02 -0.14214205653E+02  0.23446661860E+03  0.23543729623E+03  0.00000000000E+00 0. -1.
        -12    1    6    6    0    0  0.71738704387E+02  0.95026456548E+02  0.72711406841E+03  0.73679803042E+03  0.00000000000E+00 0.  1.
</event>
<event>
12    1  0.1040325E-001  0.2022941E+03  0.7818608E-02  0.1147969E+00
         21   -1    0    0  503  502  0.00000000000E+00  0.00000000000E+00  0.72578268580E+03  0.72578268580E+03  0.00000000000E+00 0.  1.
         21   -1    0    0  501  503 -0.00000000000E+00 -0.00000000000E+00 -0.56338146087E+02  0.56338146087E+02  0.00000000000E+00 0.  1.
          6    2    1    2  501    0 -0.60573961370E+02  0.89467245830E+02  0.35473055986E+03  0.40799815104E+03  0.17016206476E+03 0.  0.
         24    2    3    3    0    0 -0.50769780832E+02  0.14122443235E+02  0.81802137053E+02  0.12465211664E+03  0.77907294319E+02 0.  0.
         -6    2    1    2    0  502  0.60573961370E+02 -0.89467245830E+02  0.31471397985E+03  0.37412268085E+03  0.17102426242E+03 0.  0.
        -24    2    5    5    0    0  0.59457381857E+02 -0.67800936943E+02  0.95564966143E+02  0.15385226545E+03  0.80035676553E+02 0.  0.
          5    1    3    3  501    0 -0.98041805385E+01  0.75344802595E+02  0.27292842281E+03  0.28334603440E+03  0.47000000000E+01 0. -1.
        -11    1    4    4    0    0 -0.60859628146E+02  0.33425181542E+02  0.47890630324E+02  0.84348382155E+02  0.00000000000E+00 0.  1.
         12    1    4    4    0    0  0.10089847315E+02 -0.19302738307E+02  0.33911506729E+02  0.40303734487E+02  0.00000000000E+00 0. -1.
         -5    1    5    5    0  502  0.11165795127E+01 -0.21666308887E+02  0.21914901371E+03  0.22027041540E+03  0.47000000000E+01 0.  1.
         11    1    6    6    0    0 -0.18966356949E+02 -0.23876453481E+02  0.28073406012E+02  0.41447844960E+02  0.00000000000E+00 0. -1.
        -12    1    6    6    0    0  0.78423738807E+02 -0.43924483462E+02  0.67491560132E+02  0.11240442049E+03  0.00000000000E+00 0.  1.
</event>
<event>
12    1  0.1040325E-001  0.2514561E+03  0.7818608E-02  0.1112579E+00
         21   -1    0    0  503  502  0.00000000000E+00  0.00000000000E+00  0.47675268470E+03  0.47675268470E+03  0.00000000000E+00 0. -1.
         21   -1    0    0  501  503 -0.00000000000E+00 -0.00000000000E+00 -0.13335205798E+03  0.13335205798E+03  0.00000000000E+00 0. -1.
          6    2    1    2  501    0  0.17519707338E+03 -0.55228455866E+02  0.20296654344E+03  0.32314944733E+03  0.17171473640E+03 0.  0.
         24    2    3    3    0    0  0.15776708852E+03 -0.76738084815E+02  0.21833873954E+03  0.29113596701E+03  0.79430209742E+02 0.  0.
         -6    2    1    2    0  502 -0.17519707338E+03  0.55228455866E+02  0.14043408327E+03  0.28695529535E+03  0.16993355445E+03 0.  0.
        -24    2    5    5    0    0 -0.13752323930E+03  0.90082069005E+02  0.62841878122E+02  0.19380631563E+03  0.81144105324E+02 0.  0.
          5    1    3    3  501    0  0.17429984858E+02  0.21509628949E+02 -0.15372196096E+02  0.32013480325E+02  0.47000000000E+01 0. -1.
        -11    1    4    4    0    0 -0.75822406619E+01 -0.11472994884E+02  0.24734150539E+02  0.28300144663E+02  0.00000000000E+00 0.  1.
         12    1    4    4    0    0  0.16534932918E+03 -0.65265089931E+02  0.19360458900E+03  0.26283582234E+03  0.00000000000E+00 0. -1.
         -5    1    5    5    0  502 -0.37673834082E+02 -0.34853613140E+02  0.77592205151E+02  0.93148979723E+02  0.47000000000E+01 0.  1.
         13    1    6    6    0    0 -0.94314374665E+02  0.43100688852E+02 -0.75924695173E+00  0.10369882885E+03  0.00000000000E+00 0. -1.
        -14    1    6    6    0    0 -0.43208864633E+02  0.46981380153E+02  0.63601125073E+02  0.90107486784E+02  0.00000000000E+00 0.  1.
</event>
<event>
12    1  0.1040325E-001  0.1747980E+03  0.7818608E-02  0.1173281E+00
         21   -1    0    0  503  502  0.00000000000E+00  0.00000000000E+00  0.21278411059E+03  0.21278411059E+03  0.00000000000E+00 0. -1.
         21   -1    0    0  501  503 -0.00000000000E+00 -0.00000000000E+00 -0.31499837757E+03  0.31499837757E+03  0.00000000000E+00 0. -1.
          6    2    1    2  501    0  0.12890904465E+02 -0.28319495859E+02 -0.24631637167E+03  0.30124384675E+03  0.17061046564E+03 0.  0.
         24    2    3    3    0    0 -0.12499817709E+02  0.25091697553E+02 -0.22165911364E+03  0.23699810971E+03  0.79053795714E+02 0.  0.
         -6    2    1    2    0  502 -0.12890904465E+02  0.28319495859E+02  0.14410210470E+03  0.22653864142E+03  0.17200630864E+03 0.  0.
        -24    2    5    5    0    0 -0.57221939791E+02 -0.11336036356E+02  0.11255897001E+03  0.15904892906E+03  0.96042615495E+02 0.  0.
          5    1    3    3  501    0  0.25390722175E+02 -0.53411193411E+02 -0.24657258032E+02  0.64245737040E+02  0.47000000000E+01 0. -1.
        -13    1    4    4    0    0 -0.20175254489E+02  0.25016481189E+02 -0.26408190031E+02  0.41596366734E+02  0.00000000000E+00 0.  1.
         14    1    4    4    0    0  0.76754367800E+01  0.75216364160E-01 -0.19525092361E+03  0.19540174297E+03  0.00000000000E+00 0. -1.
         -5    1    5    5    0  502  0.44331035325E+02  0.39655532215E+02  0.31543134685E+02  0.67489712357E+02  0.47000000000E+01 0.  1.
         13    1    6    6    0    0 -0.45034979096E+02 -0.37632766422E+01 -0.38864764416E+00  0.45193612826E+02  0.00000000000E+00 0. -1.
        -14    1    6    6    0    0 -0.12186960695E+02 -0.75727597142E+01  0.11294761765E+03  0.11385531623E+03  0.00000000000E+00 0.  1.
</event>
<event>
12    1  0.1040325E-001  0.1942512E+03  0.7818608E-02  0.1154992E+00
         21   -1    0    0  501  502  0.00000000000E+00  0.00000000000E+00  0.20923416376E+03  0.20923416376E+03  0.00000000000E+00 0. -1.
         21   -1    0    0  502  503 -0.00000000000E+00 -0.00000000000E+00 -0.20428890873E+03  0.20428890873E+03  0.00000000000E+00 0. -1.
         -6    2    1    2    0  503  0.13225825653E+02  0.87691690337E+02 -0.70232075718E+02  0.20523205944E+03  0.17123930257E+03 0.  0.
        -24    2    3    3    0    0 -0.55817158889E+02  0.59107539095E+02 -0.22925649793E+02  0.11666583930E+03  0.80474071827E+02 0.  0.
          6    2    1    2  501    0 -0.13225825653E+02 -0.87691690337E+02  0.75177330758E+02  0.20829101305E+03  0.17282580837E+03 0.  0.
         24    2    5    5    0    0  0.20583855840E+02 -0.42157889321E+01 -0.20330904396E+02  0.76931834990E+02  0.71159634371E+02 0.  0.
          5    1    5    5  501    0 -0.33809681493E+02 -0.83475901405E+02  0.95508235154E+02  0.13135917806E+03  0.47000000000E+01 0. -1.
        -13    1    6    6    0    0  0.38637007401E+02  0.12686209010E+02  0.56564598726E+01  0.41057931977E+02  0.00000000000E+00 0.  1.
         14    1    6    6    0    0 -0.18053151561E+02 -0.16901997942E+02 -0.25987364269E+02  0.35873903013E+02  0.00000000000E+00 0. -1.
         -5    1    3    3    0  503  0.69042984542E+02  0.28584151243E+02 -0.47306425925E+02  0.88566220143E+02  0.47000000000E+01 0.  1.
         13    1    4    4    0    0 -0.41564199758E+02  0.68549316446E+02  0.87790190906E+01  0.80645289155E+02  0.00000000000E+00 0. -1.
        -14    1    4    4    0    0 -0.14252959130E+02 -0.94417773512E+01 -0.31704668884E+02  0.36020550142E+02  0.00000000000E+00 0.  1.
</event>
<event>
12    1  0.1040325E-001  0.2871935E+03  0.7818608E-02  0.1091898E+00
         21   -1    0    0  501  502  0.00000000000E+00  0.00000000000E+00  0.47235579326E+03  0.47235579326E+03  0.00000000000E+00 0.  1.
         21   -1    0    0  502  503 -0.00000000000E+00 -0.00000000000E+00 -0.17442163153E+03  0.17442163153E+03  0.00000000000E+00 0. -1.
         -6    2    1    2    0  503 -0.18249769175E+03 -0.13999571616E+03  0.13943585268E+03  0.31875022053E+03  0.17104133431E+03 0.  0.
        -24    2    3    3    0    0 -0.50878561187E+02 -0.95540223286E+02  0.11484049350E+03  0.17758751983E+03  0.81439707755E+02 0.  0.
          6    2    1    2  501    0  0.18249769175E+03  0.13999571616E+03  0.15849830905E+03  0.32802720426E+03  0.17197652377E+03 0.  0.
         24    2    5    5    0    0  0.84815029981E+02  0.41476577047E+01  0.77469442874E+02  0.14205848498E+03  0.83476381101E+02 0.  0.
          5    1    5    5  501    0  0.97682661767E+02  0.13584805845E+03  0.81028866179E+02  0.18596871928E+03  0.47000000000E+01 0. -1.
        -11    1    6    6    0    0 -0.10381212790E+02  0.16832667617E+02  0.19261983153E+01  0.19870040716E+02  0.00000000000E+00 0.  1.
         12    1    6    6    0    0  0.95196242771E+02 -0.12685009912E+02  0.75543244559E+02  0.12218844427E+03  0.00000000000E+00 0. -1.
         -5    1    3    3    0  503 -0.13161913056E+03 -0.44455492872E+02  0.24595359179E+02  0.14116270070E+03  0.47000000000E+01 0.  1.
         11    1    4    4    0    0  0.36392109466E+01 -0.57556145567E+02  0.89505144676E+02  0.10647593471E+03  0.00000000000E+00 0. -1.
        -12    1    4    4    0    0 -0.54517772134E+02 -0.37984077719E+02  0.25335348820E+02  0.71111585121E+02  0.00000000000E+00 0.  1.
</event>
<event>
12    1  0.1040325E-001  0.2065052E+03  0.7818608E-02  0.1144716E+00
         21   -1    0    0  503  502  0.00000000000E+00  0.00000000000E+00  0.91379902078E+02  0.91379902078E+02  0.00000000000E+00 0.  1.
         21   -1    0    0  501  503 -0.00000000000E+00 -0.00000000000E+00 -0.65610642074E+03  0.65610642074E+03  0.00000000000E+00 0.  1.
          6    2    1    2  501    0 -0.54928680577E+02  0.97792084361E+02 -0.48440925205E+03  0.52591184293E+03  0.17131985102E+03 0.  0.
         24    2    3    3    0    0 -0.45378824703E+02 -0.15845000529E+02 -0.20180554228E+03  0.22113071887E+03  0.76570334728E+02 0.  0.
         -6    2    1    2    0  502  0.54928680577E+02 -0.97792084361E+02 -0.80317266620E+02  0.22157447989E+03  0.17338954729E+03 0.  0.
        -24    2    5    5    0    0  0.61714681989E+02 -0.27495981351E+02 -0.10276944419E+03  0.14731963365E+03  0.81097378721E+02 0.  0.
          5    1    3    3  501    0 -0.95498558734E+01  0.11363708489E+03 -0.28260370976E+03  0.30478112406E+03  0.47000000000E+01 0. -1.
        -11    1    4    4    0    0 -0.44647454317E+02  0.23834982574E+02 -0.11845422916E+03  0.12881345418E+03  0.00000000000E+00 0.  1.
         12    1    4    4    0    0 -0.73137038631E+00 -0.39679983103E+02 -0.83351313124E+02  0.92317264697E+02  0.00000000000E+00 0. -1.
         -5    1    5    5    0  502 -0.67860014126E+01 -0.70296103010E+02  0.22452177566E+02  0.74254846246E+02  0.47000000000E+01 0.  1.
         11    1    6    6    0    0  0.85253708324E+01 -0.32281976732E+02 -0.84532242910E+02  0.90887337187E+02  0.00000000000E+00 0. -1.
        -12    1    6    6    0    0  0.53189311157E+02  0.47859953810E+01 -0.18237201276E+02  0.56432296458E+02  0.00000000000E+00 0.  1.
</event>
<event>
12    1  0.1040325E-001  0.1790089E+03  0.7818608E-02  0.1168954E+00
         21   -1    0    0  503  502  0.00000000000E+00  0.00000000000E+00  0.39055369670E+03  0.39055369670E+03  0.00000000000E+00 0. -1.
         21   -1    0    0  501  503 -0.00000000000E+00 -0.00000000000E+00 -0.20745518569E+03  0.20745518569E+03  0.00000000000E+00 0. -1.
          6    2    1    2  501    0 -0.30583254477E+01  0.45544027636E+02 -0.14117421250E+03  0.22797879690E+03  0.17309119490E+03 0.  0.
         24    2    3    3    0    0  0.33074862877E+02  0.92407831204E-01 -0.15148077037E+03  0.16881992456E+03  0.66781644514E+02 0.  0.
         -6    2    1    2    0  502  0.30583254477E+01 -0.45544027636E+02  0.32427272352E+03  0.37003008548E+03  0.17229583030E+03 0.  0.
        -24    2    5    5    0    0 -0.31906004387E+02  0.33337440771E+02  0.15337405364E+03  0.17852751165E+03  0.78861232644E+02 0.  0.
          5    1    3    3  501    0 -0.36133188325E+02  0.45451619805E+02  0.10306557865E+02  0.59158872340E+02  0.47000000000E+01 0. -1.
        -11    1    4    4    0    0  0.30427524223E+02  0.19716235174E+02 -0.14256596255E+03  0.14710410545E+03  0.00000000000E+00 0.  1.
         12    1    4    4    0    0  0.26473386547E+01 -0.19623827343E+02 -0.89148078144E+01  0.21715819117E+02  0.00000000000E+00 0. -1.
         -5    1    5    5    0  502  0.34964329834E+02 -0.78881468407E+02  0.17089866988E+03  0.19150257383E+03  0.47000000000E+01 0.  1.
         13    1    6    6    0    0  0.19205619777E+02  0.35335738162E+02  0.68021703024E+02  0.79021657188E+02  0.00000000000E+00 0. -1.
        -14    1    6    6    0    0 -0.51111624164E+02 -0.19982973913E+01  0.85352350614E+02  0.99505854464E+02  0.00000000000E+00 0.  1.
</event>
<event>
12    1  0.1040325E-001  0.1746012E+03  0.7818608E-02  0.1173697E+00
         21   -1    0    0  501  502  0.00000000000E+00  0.00000000000E+00  0.33218383823E+03  0.33218383823E+03  0.00000000000E+00 0. -1.
         21   -1    0    0  502  503 -0.00000000000E+00 -0.00000000000E+00 -0.18546436383E+03  0.18546436383E+03  0.00000000000E+00 0. -1.
         -6    2    1    2    0  503  0.24826390401E+02 -0.15191255222E+02 -0.11196880765E+03  0.20555010308E+03  0.16990205147E+03 0.  0.
        -24    2    3    3    0    0  0.64679313063E+02 -0.32817223438E+02 -0.25262593273E+02  0.10839564970E+03  0.76492055547E+02 0.  0.
          6    2    1    2  501    0 -0.24826390401E+02  0.15191255222E+02  0.25868828205E+03  0.31209809898E+03  0.17215827665E+03 0.  0.
         24    2    5    5    0    0 -0.66959001979E+02  0.21071794534E+02  0.91368445575E+02  0.13939096138E+03  0.78448191793E+02 0.  0.
          5    1    5    5  501    0  0.42132611578E+02 -0.58805393115E+01  0.16731983647E+03  0.17270713760E+03  0.47000000000E+01 0. -1.
        -13    1    6    6    0    0 -0.12661435502E+02  0.23116375798E+02 -0.67719103527E+01  0.27212819567E+02  0.00000000000E+00 0.  1.
         14    1    6    6    0    0 -0.54297566477E+02 -0.20445812638E+01  0.98140355928E+02  0.11217814181E+03  0.00000000000E+00 0. -1.
         -5    1    3    3    0  503 -0.39852922662E+02  0.17625968216E+02 -0.86706214381E+02  0.97154453385E+02  0.47000000000E+01 0.  1.
         11    1    4    4    0    0  0.44338461772E+02  0.42624493302E+01 -0.43571632274E+02  0.62310150101E+02  0.00000000000E+00 0. -1.
        -12    1    4    4    0    0  0.20340851291E+02 -0.37079672768E+02  0.18309039001E+02  0.46085499596E+02  0.00000000000E+00 0.  1.
</event>
<event>
12    1  0.1040325E-001  0.3281184E+03  0.7818608E-02  0.1072179E+00
         21   -1    0    0  501  502  0.00000000000E+00  0.00000000000E+00  0.16507534436E+03  0.16507534436E+03  0.00000000000E+00 0. -1.
         21   -1    0    0  502  503 -0.00000000000E+00 -0.00000000000E+00 -0.89475184257E+03  0.89475184257E+03  0.00000000000E+00 0.  1.
         -6    2    1    2    0  503  0.25201863757E+03  0.11609687389E+03 -0.64207568913E+03  0.72021620808E+03  0.17163425652E+03 0.  0.
        -24    2    3    3    0    0  0.10579557476E+03 -0.10013248193E+02 -0.23416822536E+03  0.26888978964E+03  0.78574756926E+02 0.  0.
          6    2    1    2  501    0 -0.25201863757E+03 -0.11609687389E+03 -0.87600809079E+02  0.33961097885E+03  0.17512805998E+03 0.  0.
         24    2    5    5    0    0 -0.22062238184E+03 -0.14381907110E+03 -0.10301394668E+03  0.29473448274E+03  0.83056495985E+02 0.  0.
          5    1    5    5  501    0 -0.31396255726E+02  0.27722197212E+02  0.15413137599E+02  0.44876496103E+02  0.47000000000E+01 0. -1.
        -13    1    6    6    0    0  0.18728706662E+01 -0.11877327114E+02 -0.19505674790E+02  0.22913967202E+02  0.00000000000E+00 0.  1.
         14    1    6    6    0    0 -0.22249525251E+03 -0.13194174399E+03 -0.83508271888E+02  0.27182051554E+03  0.00000000000E+00 0. -1.
         -5    1    3    3    0  503  0.14622306281E+03  0.12611012208E+03 -0.40790746377E+03  0.45132641845E+03  0.47000000000E+01 0.  1.
         13    1    4    4    0    0  0.53157619681E+00  0.25880847149E+01 -0.89478483505E+02  0.89517483019E+02  0.00000000000E+00 0. -1.
        -14    1    4    4    0    0  0.10526399856E+03 -0.12601332908E+02 -0.14468974186E+03  0.17937230662E+03  0.00000000000E+00 0.  1.
</event>
<event>
12    1  0.1040325E-001  0.2602812E+03  0.7818608E-02  0.1107122E+00
         21   -1    0    0  501  502  0.00000000000E+00  0.00000000000E+00  0.22802951438E+04  0.22802951438E+04  0.00000000000E+00 0.  1.
         21   -1    0    0  502  503 -0.00000000000E+00 -0.00000000000E+00 -0.50871122462E+02  0.50871122462E+02  0.00000000000E+00 0. -1.
         -6    2    1    2    0  503  0.18963414884E+03 -0.46440774697E+02  0.35973273323E+03  0.44344493341E+03  0.17063971885E+03 0.  0.
        -24    2    3    3    0    0  0.11149614583E+03 -0.40832181301E+02  0.10576622902E+03  0.17762905898E+03  0.79163942743E+02 0.  0.
          6    2    1    2  501    0 -0.18963414884E+03  0.46440774697E+02  0.18696912881E+04  0.18877213329E+04  0.17212920069E+03 0.  0.
         24    2    5    5    0    0 -0.87654671213E+02 -0.39493562695E+02  0.10115609190E+04  0.10192776993E+04  0.80177631877E+02 0.  0.
          5    1    5    5  501    0 -0.10197947762E+03  0.85934337392E+02  0.85813036914E+03  0.86844363355E+03  0.47000000000E+01 0. -1.
        -11    1    6    6    0    0 -0.20502718154E+02 -0.48543648484E+02  0.30944545684E+03  0.31390020391E+03  0.00000000000E+00 0.  1.
         12    1    6    6    0    0 -0.67151953059E+02  0.90500857893E+01  0.70211546215E+03  0.70537749541E+03  0.00000000000E+00 0. -1.
         -5    1    3    3    0  503  0.78138003010E+02 -0.56085933956E+01  0.25396650422E+03  0.26581587443E+03  0.47000000000E+01 0.  1.
         13    1    4    4    0    0  0.87857211703E+02 -0.57301670480E+02  0.10556702064E+03  0.14881789857E+03  0.00000000000E+00 0. -1.
        -14    1    4    4    0    0  0.23638934122E+02  0.16469489179E+02  0.19920837574E+00  0.28811160411E+02  0.00000000000E+00 0.  1.
</event>
<event>
12    1  0.1040325E-001  0.1931436E+03  0.7818608E-02  0.1155698E+00
         21   -1    0    0  501  502  0.00000000000E+00  0.00000000000E+00  0.27874081817E+03  0.27874081817E+03  0.00000000000E+00 0. -1.
         21   -1    0    0  502  503 -0.00000000000E+00 -0.00000000000E+00 -0.13374155418E+03  0.13374155418E+03  0.00000000000E+00 0.  1.
         -6    2    1    2    0  503  0.87283970889E+02  0.43429301232E+01  0.76109910382E+02  0.20742093275E+03  0.17202724281E+03 0.  0.
        -24    2    3    3    0    0  0.58486271006E+02  0.42816022054E+02 -0.11709019179E+02  0.10720246783E+03  0.78111537805E+02 0.  0.
          6    2    1    2  501    0 -0.87283970889E+02 -0.43429301232E+01  0.68889353600E+02  0.20506143960E+03  0.17224139559E+03 0.  0.
         24    2    5    5    0    0 -0.10459215134E+03  0.34107664855E+02  0.83712116439E+02  0.16011896901E+03  0.80793037280E+02 0.  0.
          5    1    5    5  501    0  0.17308180455E+02 -0.38450594978E+02 -0.14822762839E+02  0.44942470593E+02  0.47000000000E+01 0. -1.
        -13    1    6    6    0    0 -0.28643722531E+02  0.36121660505E+02 -0.12818547906E+01  0.46118113034E+02  0.00000000000E+00 0.  1.
         14    1    6    6    0    0 -0.75948428812E+02 -0.20139956497E+01  0.84993971230E+02  0.11400085597E+03  0.00000000000E+00 0. -1.
         -5    1    3    3    0  503  0.28797699883E+02 -0.38473091931E+02  0.87818929561E+02  0.10021846492E+03  0.47000000000E+01 0.  1.
         11    1    4    4    0    0  0.13940694552E+02 -0.16012577576E+02  0.17824186073E+02  0.27720880476E+02  0.00000000000E+00 0. -1.
        -12    1    4    4    0    0  0.44545576454E+02  0.58828599630E+02 -0.29533205252E+02  0.79481587355E+02  0.00000000000E+00 0.  1.
</event>
<event>
12    1  0.1040325E-001  0.2146916E+03  0.7818608E-02  0.1137925E+00
         21   -1    0    0  503  502  0.00000000000E+00  0.00000000000E+00  0.61685743063E+03  0.61685743063E+03  0.00000000000E+00 0. -1.
         21   -1    0    0  501  503 -0.00000000000E+00 -0.00000000000E+00 -0.83091887539E+02  0.83091887539E+02  0.00000000000E+00 0.  1.
          6    2    1    2  501    0  0.10204620749E+03  0.79210366642E+02  0.15548242962E+03  0.26498884115E+03  0.17133764727E+03 0.  0.
         24    2    3    3    0    0  0.10288325921E+03  0.11322428850E+03  0.99140443856E+02  0.19900280554E+03  0.79803411419E+02 0.  0.
         -6    2    1    2    0  502 -0.10204620749E+03 -0.79210366642E+02  0.37828311348E+03  0.43496047702E+03  0.17147825512E+03 0.  0.
        -24    2    5    5    0    0 -0.12987986642E+03 -0.42561166844E+02  0.22932210325E+03  0.27898179583E+03  0.81006066099E+02 0.  0.
          5    1    3    3  501    0 -0.83705172488E+00 -0.34013921861E+02  0.56341985762E+02  0.65986035610E+02  0.47000000000E+01 0. -1.
        -13    1    4    4    0    0  0.39164604507E+02  0.94991003896E+02  0.40275665510E+02  0.11035980382E+03  0.00000000000E+00 0.  1.
         14    1    4    4    0    0  0.63718654703E+02  0.18233284607E+02  0.58864778345E+02  0.88643001723E+02  0.00000000000E+00 0. -1.
         -5    1    5    5    0  502  0.27833658933E+02 -0.36649199799E+02  0.14896101023E+03  0.15597868118E+03  0.47000000000E+01 0.  1.
         13    1    6    6    0    0 -0.76406430932E+02 -0.64662268523E+02  0.13050263252E+03  0.16446911185E+03  0.00000000000E+00 0. -1.
        -14    1    6    6    0    0 -0.53473435486E+02  0.22101101679E+02  0.98819470727E+02  0.11451268398E+03  0.00000000000E+00 0.  1.
</event>
<event>
12    1  0.1040325E-001  0.1829419E+03  0.7818608E-02  0.1165124E+00
         21   -1    0    0  501  502  0.00000000000E+00  0.00000000000E+00  0.11419819563E+03  0.11419819563E+03  0.00000000000E+00 0.  1.
         21   -1    0    0  502  503 -0.00000000000E+00 -0.00000000000E+00 -0.31410329763E+03  0.31410329763E+03  0.00000000000E+00 0.  1.
         -6    2    1    2    0  503  0.39114744554E+02  0.43020563729E+02 -0.15673863900E+03  0.24090403013E+03  0.17345610002E+03 0.  0.
        -24    2    3    3    0    0 -0.18652678474E+02  0.17368715259E+02 -0.13849212718E+03  0.17494860816E+03  0.10381402373E+03 0.  0.
          6    2    1    2  501    0 -0.39114744554E+02 -0.43020563729E+02 -0.43166462999E+02  0.18739746312E+03  0.17284019646E+03 0.  0.
         24    2    5    5    0    0 -0.67301336796E+02 -0.28438810944E+02  0.26823610189E+02  0.11040517883E+03  0.78304288169E+02 0.  0.
          5    1    5    5  501    0  0.28186592242E+02 -0.14581752785E+02 -0.69990073189E+02  0.76992284298E+02  0.47000000000E+01 0. -1.
        -13    1    6    6    0    0 -0.36112616996E+02 -0.46720698609E+02 -0.87391238515E+01  0.59693526202E+02  0.00000000000E+00 0.  1.
         14    1    6    6    0    0 -0.31188719800E+02  0.18281887665E+02  0.35562734041E+02  0.50711652624E+02  0.00000000000E+00 0. -1.
         -5    1    3    3    0  503  0.57767423028E+02  0.25651848469E+02 -0.18246511821E+02  0.65955421967E+02  0.47000000000E+01 0.  1.
         11    1    4    4    0    0  0.29770547701E+02 -0.20168050080E+01 -0.32724432629E+01  0.30017693078E+02  0.00000000000E+00 0. -1.
        -12    1    4    4    0    0 -0.48423226174E+02  0.19385520267E+02 -0.13521968392E+03  0.14493091509E+03  0.00000000000E+00 0.  1.
</event>
<event>
12    1  0.1040325E-001  0.2479363E+03  0.7818608E-02  0.1114643E+00
         21   -1    0    0  501  502  0.00000000000E+00  0.00000000000E+00  0.15224073791E+03  0.15224073791E+03  0.00000000000E+00 0. -1.
         21   -1    0    0  502  503 -0.00000000000E+00 -0.00000000000E+00 -0.50192997528E+03  0.50192997528E+03  0.00000000000E+00 0. -1.
         -6    2    1    2    0  503  0.25829080133E+02  0.17680828571E+03 -0.31963655569E+03  0.40441968211E+03  0.17163752582E+03 0.  0.
        -24    2    3    3    0    0  0.66905863456E+02  0.10947762214E+03 -0.28016194709E+03  0.31609610027E+03  0.70457673060E+02 0.  0.
          6    2    1    2  501    0 -0.25829080133E+02 -0.17680828571E+03 -0.30052681684E+02  0.24975103107E+03  0.17188397996E+03 0.  0.
         24    2    5    5    0    0  0.35117705627E+02 -0.12133291429E+03 -0.59976008380E+02  0.16194714158E+03  0.81699606775E+02 0.  0.
          5    1    5    5  501    0 -0.60946785760E+02 -0.55475371423E+02  0.29923326696E+02  0.87803889490E+02  0.47000000000E+01 0. -1.
        -13    1    6    6    0    0  0.11483119166E+02 -0.12294961913E+03 -0.61991590816E+02  0.13817173445E+03  0.00000000000E+00 0.  1.
         14    1    6    6    0    0  0.23634586461E+02  0.16167048377E+01  0.20155824361E+01  0.23775407132E+02  0.00000000000E+00 0. -1.
         -5    1    3    3    0  503 -0.41076783323E+02  0.67330663574E+02 -0.39474608600E+02  0.88323581843E+02  0.47000000000E+01 0.  1.
         13    1    4    4    0    0  0.60270981661E+02  0.90867949376E+02 -0.15575087441E+03  0.19012603802E+03  0.00000000000E+00 0. -1.
        -14    1    4    4    0    0  0.66348817951E+01  0.18609672764E+02 -0.12441107268E+03  0.12597006225E+03  0.00000000000E+00 0.  1.
</event>
<event>
12    1  0.1040325E-001  0.2286087E+03  0.7818608E-02  0.1127706E+00
         21   -1    0    0  501  502  0.00000000000E+00  0.00000000000E+00  0.76948719925E+03  0.76948719925E+03  0.00000000000E+00 0.  1.
         21   -1    0    0  502  503 -0.00000000000E+00 -0.00000000000E+00 -0.14935566915E+03  0.14935566915E+03  0.00000000000E+00 0. -1.
         -6    2    1    2    0  503 -0.52951498402E+01 -0.15093574835E+03  0.64945598747E+03  0.68836101823E+03  0.17099173375E+03 0.  0.
        -24    2    3    3    0    0 -0.23171061837E+02 -0.21829797255E+02  0.15804186625E+03  0.17993420602E+03  0.79910254993E+02 0.  0.
          6    2    1    2  501    0  0.52951498402E+01  0.15093574835E+03 -0.29324457364E+02  0.23048185017E+03  0.17161678449E+03 0.  0.
         24    2    5    5    0    0  0.19657190526E+02  0.16807224891E+01 -0.42269197410E+02  0.79906330074E+02  0.64877627644E+02 0.  0.
          5    1    5    5  501    0 -0.14362040686E+02  0.14925502586E+03  0.12944740046E+02  0.15057552010E+03  0.47000000000E+01 0. -1.
        -11    1    6    6    0    0 -0.43697073651E+01 -0.27905051467E+02 -0.26263231464E+02  0.38568686349E+02  0.00000000000E+00 0.  1.
         12    1    6    6    0    0  0.24026897891E+02  0.29585773956E+02 -0.16005965947E+02  0.41337643725E+02  0.00000000000E+00 0. -1.
         -5    1    3    3    0  503  0.17875911997E+02 -0.12910595110E+03  0.49141412121E+03  0.50842681220E+03  0.47000000000E+01 0.  1.
         13    1    4    4    0    0  0.65280091459E+01 -0.28519452755E+02  0.13500540970E+02  0.32221711552E+02  0.00000000000E+00 0. -1.
        -14    1    4    4    0    0 -0.29699070983E+02  0.66896554997E+01  0.14454132528E+03  0.14771249447E+03  0.00000000000E+00 0.  1.
</event>
<event>
12    1  0.1040325E-001  0.1898346E+03  0.7818608E-02  0.1160849E+00
         21   -1    0    0  501  502  0.00000000000E+00  0.00000000000E+00  0.12342530444E+04  0.12342530444E+04  0.00000000000E+00 0. -1.
         21   -1    0    0  502  503 -0.00000000000E+00 -0.00000000000E+00 -0.31587407512E+02  0.31587407512E+02  0.00000000000E+00 0. -1.
         -6    2    1    2    0  503 -0.45548466098E+02 -0.38218276284E+02  0.39407439504E+03  0.43741489204E+03  0.18028272116E+03 0.  0.
        -24    2    3    3    0    0 -0.30010483635E+02  0.24899341473E+02  0.34457380883E+03  0.35557565570E+03  0.78627799528E+02 0.  0.
          6    2    1    2  501    0  0.45548466098E+02  0.38218276284E+02  0.80859124184E+03  0.82842555986E+03  0.17009941930E+03 0.  0.
         24    2    5    5    0    0  0.58751164559E+02  0.73607186667E+02  0.75129748148E+03  0.75964074176E+03  0.61126374022E+02 0.  0.
          5    1    5    5  501    0 -0.13202698460E+02 -0.35388910382E+02  0.57293760356E+02  0.68784818095E+02  0.47000000000E+01 0. -1.
        -13    1    6    6    0    0  0.27576290590E+02  0.22467137480E+02  0.11127237464E+03  0.11681937094E+03  0.00000000000E+00 0.  1.
         14    1    6    6    0    0  0.31174873968E+02  0.51140049187E+02  0.64002510684E+03  0.64282137082E+03  0.00000000000E+00 0. -1.
         -5    1    3    3    0  503 -0.15537982464E+02 -0.63117617757E+02  0.49500586208E+02  0.81839236343E+02  0.47000000000E+01 0.  1.
         13    1    4    4    0    0  0.84666846003E+01 -0.17390452201E+02  0.28961402648E+02  0.34826360982E+02  0.00000000000E+00 0. -1.
        -14    1    4    4    0    0 -0.38477168235E+02  0.42289793673E+02  0.31561240618E+03  0.32074929472E+03  0.00000000000E+00 0.  1.
</event>
<event>
12    1  0.1040325E-001  0.1888762E+03  0.7818608E-02  0.1159807E+00
         21   -1    0    0  501  502  0.00000000000E+00  0.00000000000E+00  0.20605756115E+03  0.20605756115E+03  0.00000000000E+00 0.  1.
         21   -1    0    0  502  503 -0.00000000000E+00 -0.00000000000E+00 -0.17511943199E+03  0.17511943199E+03  0.00000000000E+00 0.  1.
         -6    2    1    2    0  503 -0.41624895347E+02 -0.59542716000E+02 -0.10784187427E+02  0.18774754062E+03  0.17278562836E+03 0.  0.
        -24    2    3    3    0    0  0.13105474913E+02  0.79831735809E+01  0.30736477711E+02  0.91304734636E+02  0.84595147448E+02 0.  0.
          6    2    1    2  501    0  0.41624895347E+02  0.59542716000E+02  0.41722316580E+02  0.19342945252E+03  0.17434515898E+03 0.  0.
         24    2    5    5    0    0  0.91912906151E+02  0.64092699927E+02  0.25592601437E+02  0.14021437858E+03  0.80307124278E+02 0.  0.
          5    1    5    5  501    0 -0.50288010804E+02 -0.45499839268E+01  0.16129715143E+02  0.53215073945E+02  0.47000000000E+01 0. -1.
        -13    1    6    6    0    0 -0.89907968696E+01  0.30036350737E+02  0.65256266053E+01  0.32024999555E+02  0.00000000000E+00 0.  1.
         14    1    6    6    0    0  0.10090370302E+03  0.34056349190E+02  0.19066974831E+02  0.10818937902E+03  0.00000000000E+00 0. -1.
         -5    1    3    3    0  503 -0.54730370261E+02 -0.67525889581E+02 -0.41520665138E+02  0.96442805984E+02  0.47000000000E+01 0.  1.
         11    1    4    4    0    0 -0.79134596095E+01 -0.13119138667E+02  0.52323309213E+02  0.54520301992E+02  0.00000000000E+00 0. -1.
        -12    1    4    4    0    0  0.21018934523E+02  0.21102312247E+02 -0.21586831502E+02  0.36784432644E+02  0.00000000000E+00 0.  1.
</event>
<event>
12    1  0.1040325E-001  0.2450627E+03  0.7818608E-02  0.1116850E+00
         21   -1    0    0  501  502  0.00000000000E+00  0.00000000000E+00  0.42950937579E+03  0.42950937579E+03  0.00000000000E+00 0. -1.
         21   -1    0    0  502  503 -0.00000000000E+00 -0.00000000000E+00 -0.24307236041E+03  0.24307236041E+03  0.00000000000E+00 0.  1.
         -6    2    1    2    0  503 -0.16820137175E+03  0.34873873394E+02 -0.12763067592E+03  0.27421729042E+03  0.17145741287E+03 0.  0.
        -24    2    3    3    0    0 -0.91342686478E+02  0.48068113126E+02 -0.74248048048E+01  0.13085450964E+03  0.80085860766E+02 0.  0.
          6    2    1    2  501    0  0.16820137175E+03 -0.34873873394E+02  0.31406769130E+03  0.39836444577E+03  0.17477937074E+03 0.  0.
         24    2    5    5    0    0  0.16946967615E+03 -0.88588044728E+01  0.18671388071E+03  0.26828956165E+03  0.91207269955E+02 0.  0.
          5    1    5    5  501    0 -0.12683044010E+01 -0.26015068921E+02  0.12735381059E+03  0.13007488412E+03  0.47000000000E+01 0. -1.
        -13    1    6    6    0    0  0.15018932886E+03 -0.40167378239E+02  0.14376433145E+03  0.21175088140E+03  0.00000000000E+00 0.  1.
         14    1    6    6    0    0  0.19280347287E+02  0.31308573766E+02  0.42949549259E+02  0.56538680250E+02  0.00000000000E+00 0. -1.
         -5    1    3    3    0  503 -0.76858685270E+02 -0.13194239731E+02 -0.12020587111E+03  0.14336278078E+03  0.47000000000E+01 0.  1.
         11    1    4    4    0    0  0.28117495017E+01 -0.15729333464E+02  0.42213826189E+01  0.16526885300E+02  0.00000000000E+00 0. -1.
        -12    1    4    4    0    0 -0.94154435979E+02  0.63797446590E+02 -0.11646187424E+02  0.11432762434E+03  0.00000000000E+00 0.  1.
</event>
<event>
12    1  0.1040325E-001  0.2030329E+03  0.7818608E-02  0.1147388E+00
         21   -1    0    0  503  502  0.00000000000E+00  0.00000000000E+00  0.17867919996E+03  0.17867919996E+03  0.00000000000E+00 0.  1.
         21   -1    0    0  501  503 -0.00000000000E+00 -0.00000000000E+00 -0.27698807354E+03  0.27698807354E+03  0.00000000000E+00 0.  1.
          6    2    1    2  501    0  0.10488051461E+03  0.58835015864E+01 -0.14337400306E+03  0.24855274081E+03  0.17374643097E+03 0.  0.
         24    2    3    3    0    0  0.37092274857E+02  0.60704618343E+02 -0.41527210302E+02  0.11440558472E+03  0.79392953579E+02 0.  0.
         -6    2    1    2    0  502 -0.10488051461E+03 -0.58835015864E+01  0.45065129475E+02  0.20711453269E+03  0.17271660551E+03 0.  0.
        -24    2    5    5    0    0 -0.99608327944E+02  0.45683892446E+02  0.64272279873E+02  0.15163483634E+03  0.82785026474E+02 0.  0.
          5    1    3    3  501    0  0.67788239757E+02 -0.54821116757E+02 -0.10184679275E+03  0.13414715609E+03  0.47000000000E+01 0. -1.
        -13    1    4    4    0    0  0.19893035603E+02 -0.75251681102E+01  0.13402822186E+02  0.25139543814E+02  0.00000000000E+00 0.  1.
         14    1    4    4    0    0  0.17199239253E+02  0.68229786454E+02 -0.54930032488E+02  0.89266040909E+02  0.00000000000E+00 0. -1.
         -5    1    5    5    0  502 -0.52721866695E+01 -0.51567394033E+02 -0.19207150398E+02  0.55479696340E+02  0.47000000000E+01 0.  1.
         11    1    6    6    0    0 -0.21361987655E+02 -0.22245465937E+02  0.28560752751E+02  0.42034650814E+02  0.00000000000E+00 0. -1.
        -12    1    6    6    0    0 -0.78246340289E+02  0.67929358383E+02  0.35711527122E+02  0.10960018553E+03  0.00000000000E+00 0.  1.
</event>
<event>
12    1  0.1040325E-001  0.2057801E+03  0.7818608E-02  0.1147635E+00
         21   -1    0    0  503  502  0.00000000000E+00  0.00000000000E+00  0.20041813239E+03  0.20041813239E+03  0.00000000000E+00 0. -1.
         21   -1    0    0  501  503 -0.00000000000E+00 -0.00000000000E+00 -0.30599429786E+03  0.30599429786E+03  0.00000000000E+00 0. -1.
          6    2    1    2  501    0  0.48459169588E+02  0.92234842702E+02 -0.20179430039E+03  0.27924868382E+03  0.16249101644E+03 0.  0.
         24    2    3    3    0    0  0.65250392648E+02 -0.57283092528E+01 -0.10916421332E+03  0.14330330015E+03  0.65791968323E+02 0.  0.
         -6    2    1    2    0  502 -0.48459169588E+02 -0.92234842702E+02  0.96218134915E+02  0.22716374643E+03  0.17745388381E+03 0.  0.
        -24    2    5    5    0    0  0.11254317504E+02  0.98381462377E+01  0.65838714270E+02  0.10497702534E+03  0.80386508621E+02 0.  0.
          5    1    3    3  501    0 -0.16791223060E+02  0.97963151955E+02 -0.92630087071E+02  0.13594538368E+03  0.47000000000E+01 0. -1.
        -11    1    4    4    0    0 -0.87630579730E+01  0.57018546856E+01 -0.40058161890E+02  0.41399983888E+02  0.00000000000E+00 0.  1.
         12    1    4    4    0    0  0.74013450621E+02 -0.11430163938E+02 -0.69106051428E+02  0.10190331626E+03  0.00000000000E+00 0. -1.
         -5    1    5    5    0  502 -0.59713487092E+02 -0.10207298894E+03  0.30379420645E+02  0.12218672109E+03  0.47000000000E+01 0.  1.
         13    1    6    6    0    0 -0.32969925741E+02 -0.82339776710E+01  0.28075330168E+02  0.44079911022E+02  0.00000000000E+00 0. -1.
        -14    1    6    6    0    0  0.44224243245E+02  0.18072123909E+02  0.37763384102E+02  0.60897114316E+02  0.00000000000E+00 0.  1.
</event>
<event>
12    1  0.1040325E-001  0.1856330E+03  0.7818608E-02  0.1163079E+00
         21   -1    0    0  501  502  0.00000000000E+00  0.00000000000E+00  0.19368459410E+03  0.19368459410E+03  0.00000000000E+00 0. -1.
         21   -1    0    0  502  503 -0.00000000000E+00 -0.00000000000E+00 -0.19791776033E+03  0.19791776033E+03  0.00000000000E+00 0. -1.
         -6    2    1    2    0  503 -0.65488574202E+02 -0.25442318610E+02 -0.68185031120E+02  0.19775950177E+03  0.17182420418E+03 0.  0.
        -24    2    3    3    0    0 -0.54592519351E+02 -0.66838056239E+02 -0.97937127012E-01  0.11719726822E+03  0.79293891042E+02 0.  0.
          6    2    1    2  501    0  0.65488574202E+02  0.25442318610E+02  0.63951864898E+02  0.19384285266E+03  0.16896492410E+03 0.  0.
         24    2    5    5    0    0  0.86529450934E+02 -0.22640634626E+02  0.12039534219E+02  0.11987212222E+03  0.78895063765E+02 0.  0.
          5    1    5    5  501    0 -0.21040876732E+02  0.48082953235E+02  0.51912330680E+02  0.73970730442E+02  0.47000000000E+01 0. -1.
        -13    1    6    6    0    0 -0.11199506653E+02  0.93975670865E+01  0.86133794944E+01  0.16968604030E+02  0.00000000000E+00 0.  1.
         14    1    6    6    0    0  0.97728957587E+02 -0.32038201712E+02  0.34261547245E+01  0.10290351819E+03  0.00000000000E+00 0. -1.
         -5    1    3    3    0  503 -0.10896054850E+02  0.41395737629E+02 -0.68087093993E+02  0.80562233544E+02  0.47000000000E+01 0.  1.
         11    1    4    4    0    0 -0.49194854200E+02 -0.29763746848E+02 -0.33891280717E+02  0.66743038700E+02  0.00000000000E+00 0. -1.
        -12    1    4    4    0    0 -0.53976651509E+01 -0.37074309391E+02  0.33793343590E+02  0.50454229524E+02  0.00000000000E+00 0.  1.
</event>
<event>
12    1  0.1040325E-001  0.1765287E+03  0.7818608E-02  0.1171228E+00
         21   -1    0    0  501  502  0.00000000000E+00  0.00000000000E+00  0.26659192165E+03  0.26659192165E+03  0.00000000000E+00 0.  1.
         21   -1    0    0  502  503 -0.00000000000E+00 -0.00000000000E+00 -0.16063210700E+03  0.16063210700E+03  0.00000000000E+00 0.  1.
         -6    2    1    2    0  503  0.31589163034E+01 -0.38941799887E+02  0.16453606980E+03  0.24131826732E+03  0.17215093769E+03 0.  0.
        -24    2    3    3    0    0  0.18194284612E+02  0.20224089604E+02  0.24058535901E+02  0.88077632014E+02  0.80242197867E+02 0.  0.
          6    2    1    2  501    0 -0.31589163034E+01  0.38941799887E+02 -0.58576255143E+02  0.18590576133E+03  0.17205618820E+03 0.  0.
         24    2    5    5    0    0 -0.65626082321E+02  0.22725204288E+02 -0.11858713691E+02  0.10609508859E+03  0.79324152326E+02 0.  0.
          5    1    5    5  501    0  0.62467166018E+02  0.16216595598E+02 -0.46717541452E+02  0.79810672735E+02  0.47000000000E+01 0. -1.
        -11    1    6    6    0    0 -0.73635487736E+02  0.40711878635E+02 -0.16785741256E+02  0.85798620185E+02  0.00000000000E+00 0.  1.
         12    1    6    6    0    0  0.80094054151E+01 -0.17986674347E+02  0.49270275659E+01  0.20296468407E+02  0.00000000000E+00 0. -1.
         -5    1    3    3    0  503 -0.15035368308E+02 -0.59165889491E+02  0.14047753390E+03  0.15324063531E+03  0.47000000000E+01 0.  1.
         11    1    4    4    0    0 -0.19604739608E+02 -0.13157002560E+02 -0.11608930304E+02  0.26310070207E+02  0.00000000000E+00 0. -1.
        -12    1    4    4    0    0  0.37799024220E+02  0.33381092165E+02  0.35667466206E+02  0.61767561807E+02  0.00000000000E+00 0.  1.
</event>
<event>
12    1  0.1040325E-001  0.3201072E+03  0.7818608E-02  0.1076188E+00
         21   -1    0    0  501  502  0.00000000000E+00  0.00000000000E+00  0.75359381312E+03  0.75359381312E+03  0.00000000000E+00 0.  1.
         21   -1    0    0  502  503 -0.00000000000E+00 -0.00000000000E+00 -0.25385117715E+03  0.25385117715E+03  0.00000000000E+00 0. -1.
         -6    2    1    2    0  503 -0.24566641397E+03 -0.96821888166E+02 -0.95435941215E+02  0.33403092527E+03  0.18094799027E+03 0.  0.
        -24    2    3    3    0    0 -0.16640605095E+03 -0.11974861543E+02 -0.10667881927E+03  0.21728455325E+03  0.89430618354E+02 0.  0.
          6    2    1    2  501    0  0.24566641397E+03  0.96821888166E+02  0.59517857719E+03  0.67341406499E+03  0.17182112560E+03 0.  0.
         24    2    5    5    0    0  0.18544223004E+03  0.79969657383E+02  0.56480817729E+03  0.60373335602E+03  0.68569098364E+02 0.  0.
          5    1    5    5  501    0  0.60224183936E+02  0.16852230783E+02  0.30370399894E+02  0.69680708972E+02  0.47000000000E+01 0. -1.
        -11    1    6    6    0    0  0.22034745580E+02  0.54066316550E+01  0.15001716414E+03  0.15172314001E+03  0.00000000000E+00 0.  1.
         12    1    6    6    0    0  0.16340748446E+03  0.74563025728E+02  0.41479101316E+03  0.45201021601E+03  0.00000000000E+00 0. -1.
         -5    1    3    3    0  503 -0.79260363021E+02 -0.84847026623E+02  0.11242878056E+02  0.11674637202E+03  0.47000000000E+01 0.  1.
         13    1    4    4    0    0 -0.91102019459E+02 -0.84584576351E+01 -0.10843543708E+03  0.14187800207E+03  0.00000000000E+00 0. -1.
        -14    1    4    4    0    0 -0.75304031494E+02 -0.35164039081E+01  0.17566178134E+01  0.75406551187E+02  0.00000000000E+00 0.  1.
</event>
<event>
12    1  0.1040325E-001  0.2875815E+03  0.7818608E-02  0.1091910E+00
         21   -1    0    0  501  502  0.00000000000E+00  0.00000000000E+00  0.15524400103E+03  0.15524400103E+03  0.00000000000E+00 0. -1.
         21   -1    0    0  502  503 -0.00000000000E+00 -0.00000000000E+00 -0.61045069008E+03  0.61045069008E+03  0.00000000000E+00 0.  1.
         -6    2    1    2    0  503  0.18676263947E+03 -0.13071437758E+03 -0.36697985139E+03  0.46488397229E+03  0.17168682058E+03 0.  0.
        -24    2    3    3    0    0  0.15530079058E+03 -0.44412209005E+02 -0.16874465580E+03  0.24634977587E+03  0.78247513353E+02 0.  0.
          6    2    1    2  501    0 -0.18676263947E+03  0.13071437758E+03 -0.88226837665E+02  0.30081071881E+03  0.17531851487E+03 0.  0.
         24    2    5    5    0    0 -0.14079538033E+03  0.91065519877E+02 -0.12881120913E+03  0.22763830572E+03  0.84324389133E+02 0.  0.
          5    1    5    5  501    0 -0.45967259141E+02  0.39648857703E+02  0.40584371461E+02  0.73172413087E+02  0.47000000000E+01 0. -1.
        -13    1    6    6    0    0  0.95753354985E+01  0.18057820280E+02 -0.11864965722E+02  0.23633648359E+02  0.00000000000E+00 0.  1.
         14    1    6    6    0    0 -0.15037071583E+03  0.73007699597E+02 -0.11694624340E+03  0.20400465736E+03  0.00000000000E+00 0. -1.
         -5    1    3    3    0  503  0.31461848891E+02 -0.86302168576E+02 -0.19823519559E+03  0.21853419643E+03  0.47000000000E+01 0.  1.
         13    1    4    4    0    0  0.29357094942E+02  0.99709359430E+01 -0.29285840072E+01  0.31142177048E+02  0.00000000000E+00 0. -1.
        -14    1    4    4    0    0  0.12594369564E+03 -0.54383144948E+02 -0.16581607179E+03  0.21520759882E+03  0.00000000000E+00 0.  1.
</event>
<event>
12    1  0.1040325E-001  0.1826674E+03  0.7818608E-02  0.1168068E+00
         21   -1    0    0  503  502  0.00000000000E+00  0.00000000000E+00  0.47029789519E+03  0.47029789519E+03  0.00000000000E+00 0. -1.
         21   -1    0    0  501  503 -0.00000000000E+00 -0.00000000000E+00 -0.29912803852E+03  0.29912803852E+03  0.00000000000E+00 0. -1.
          6    2    1    2  501    0  0.28003959378E+02 -0.18807999881E+02 -0.25421492918E+03  0.30647929648E+03  0.16782838363E+03 0.  0.
         24    2    3    3    0    0 -0.43114410035E+02  0.11214722998E+02 -0.16657212974E+03  0.18959244242E+03  0.78831449644E+02 0.  0.
         -6    2    1    2    0  502 -0.28003959378E+02  0.18807999881E+02  0.42538478586E+03  0.46294663723E+03  0.17952551429E+03 0.  0.
        -24    2    5    5    0    0  0.33288690808E+02  0.10645084259E+02  0.36887412937E+03  0.37904808864E+03  0.79924185502E+02 0.  0.
          5    1    3    3  501    0  0.71118369412E+02 -0.30022722880E+02 -0.87642799442E+02  0.11688685406E+03  0.47000000000E+01 0. -1.
        -11    1    4    4    0    0 -0.27776089673E+02 -0.16785591145E+02 -0.16972828385E+02  0.36624365264E+02  0.00000000000E+00 0.  1.
         12    1    4    4    0    0 -0.15338320361E+02  0.28000314143E+02 -0.14959930136E+03  0.15296807716E+03  0.00000000000E+00 0. -1.
         -5    1    5    5    0  502 -0.61292650186E+02  0.81629156226E+01  0.56510656486E+02  0.83898548585E+02  0.47000000000E+01 0.  1.
         11    1    6    6    0    0  0.46225594475E+02 -0.21899673743E+02  0.18919180925E+03  0.19598454526E+03  0.00000000000E+00 0. -1.
        -12    1    6    6    0    0 -0.12936903667E+02  0.32544758002E+02  0.17968232012E+03  0.18306354338E+03  0.00000000000E+00 0.  1.
</event>
<event>
12    1  0.1040325E-001  0.2413715E+03  0.7818608E-02  0.1119198E+00
         21   -1    0    0  501  502  0.00000000000E+00  0.00000000000E+00  0.60717901413E+02  0.60717901413E+02  0.00000000000E+00 0.  1.
         21   -1    0    0  502  503 -0.00000000000E+00 -0.00000000000E+00 -0.98020237261E+03  0.98020237261E+03  0.00000000000E+00 0.  1.
         -6    2    1    2    0  503 -0.68416003232E+01  0.16737979924E+03 -0.36967767782E+03  0.44046400919E+03  0.17112613249E+03 0.  0.
        -24    2    3    3    0    0 -0.53117209607E+02  0.37330498412E+02 -0.17567668813E+03  0.20231966921E+03  0.76524151282E+02 0.  0.
          6    2    1    2  501    0  0.68416003232E+01 -0.16737979924E+03 -0.54980679338E+03  0.60045626484E+03  0.17377402352E+03 0.  0.
         24    2    5    5    0    0 -0.50646398790E+02 -0.55827474974E+02 -0.32651708280E+03  0.34427434522E+03  0.78928161907E+02 0.  0.
          5    1    5    5  501    0  0.57487999113E+02 -0.11155232427E+03 -0.22328971058E+03  0.25618191962E+03  0.47000000000E+01 0. -1.
        -11    1    6    6    0    0 -0.18974786033E+02 -0.36890965061E+02 -0.28785393118E+03  0.29082790703E+03  0.00000000000E+00 0.  1.
         12    1    6    6    0    0 -0.31671612757E+02 -0.18936509913E+02 -0.38663151619E+02  0.53446438192E+02  0.00000000000E+00 0. -1.
         -5    1    3    3    0  503  0.46275609283E+02  0.13004930083E+03 -0.19400098969E+03  0.23814433997E+03  0.47000000000E+01 0.  1.
         13    1    4    4    0    0 -0.58644427334E+02  0.31093211345E+02 -0.18075710856E+03  0.19255931279E+03  0.00000000000E+00 0. -1.
        -14    1    4    4    0    0  0.55272177272E+01  0.62372870665E+01  0.50804204255E+01  0.97603564204E+01  0.00000000000E+00 0.  1.
</event>
<event>
12    1  0.1040325E-001  0.1984651E+03  0.7818608E-02  0.1154809E+00
         21   -1    0    0  501  502  0.00000000000E+00  0.00000000000E+00  0.33139548551E+03  0.33139548551E+03  0.00000000000E+00 0. -1.
         21   -1    0    0  502  503 -0.00000000000E+00 -0.00000000000E+00 -0.13602140701E+03  0.13602140701E+03  0.00000000000E+00 0. -1.
         -6    2    1    2    0  503 -0.29255779449E+02  0.49534799069E+02 -0.99329735984E+01  0.18186591163E+03  0.17224096173E+03 0.  0.
        -24    2    3    3    0    0 -0.62712358357E+02  0.79500237465E+02 -0.29321223447E+02  0.13272057205E+03  0.80634288315E+02 0.  0.
          6    2    1    2  501    0  0.29255779449E+02 -0.49534799069E+02  0.20530705210E+03  0.28555098090E+03  0.18994414995E+03 0.  0.
         24    2    5    5    0    0  0.18574151231E+02  0.46374265119E+02  0.63183830492E+02  0.11369713050E+03  0.80245058974E+02 0.  0.
          5    1    5    5  501    0  0.10681628219E+02 -0.95909064189E+02  0.14212322161E+03  0.17185385039E+03  0.47000000000E+01 0. -1.
        -11    1    6    6    0    0  0.32544098979E+02  0.52502330415E+01 -0.45062314129E+01  0.33271450928E+02  0.00000000000E+00 0.  1.
         12    1    6    6    0    0 -0.13969947748E+02  0.41124032078E+02  0.67690061905E+02  0.80425679575E+02  0.00000000000E+00 0. -1.
         -5    1    3    3    0  503  0.33456578908E+02 -0.29965438396E+02  0.19388249848E+02  0.49145339582E+02  0.47000000000E+01 0.  1.
         13    1    4    4    0    0  0.13463966819E+02  0.25239978470E+02  0.11295980510E+02  0.30756041542E+02  0.00000000000E+00 0. -1.
        -14    1    4    4    0    0 -0.76176325176E+02  0.54260258995E+02 -0.40617203957E+02  0.10196453050E+03  0.00000000000E+00 0.  1.
</event>
<event>
12    1  0.1040325E-001  0.2540881E+03  0.7818608E-02  0.1110769E+00
         21   -1    0    0  501  502  0.00000000000E+00  0.00000000000E+00  0.23629274256E+04  0.23629274256E+04  0.00000000000E+00 0.  1.
         21   -1    0    0  502  503 -0.00000000000E+00 -0.00000000000E+00 -0.31515843579E+02  0.31515843579E+02  0.00000000000E+00 0. -1.
         -6    2    1    2    0  503  0.50224195335E+02  0.18060956459E+03  0.72797986701E+03  0.77100431772E+03  0.17132042071E+03 0.  0.
        -24    2    3    3    0    0  0.90761641353E+02  0.10621425782E+03  0.55887560373E+03  0.58180524780E+03  0.81463254403E+02 0.  0.
          6    2    1    2  501    0 -0.50224195335E+02 -0.18060956459E+03  0.16034317150E+04  0.16234389514E+04  0.17151816170E+03 0.  0.
         24    2    5    5    0    0 -0.67186787167E+02 -0.57305797884E+02  0.78003718187E+03  0.79067716343E+03  0.94415850466E+02 0.  0.
          5    1    5    5  501    0  0.16962591832E+02 -0.12330376670E+03  0.82339453313E+03  0.83276178802E+03  0.47000000000E+01 0. -1.
        -13    1    6    6    0    0 -0.99429539175E+00  0.22409567291E+02  0.21956014760E+03  0.22070304879E+03  0.00000000000E+00 0.  1.
         14    1    6    6    0    0 -0.66192491775E+02 -0.79715365175E+02  0.56047703427E+03  0.56997411464E+03  0.00000000000E+00 0. -1.
         -5    1    3    3    0  503 -0.40537446017E+02  0.74395306765E+02  0.16910426328E+03  0.18919906992E+03  0.47000000000E+01 0.  1.
         13    1    4    4    0    0 -0.21400198579E+01  0.43435367021E+02  0.93588251668E+02  0.10319869982E+03  0.00000000000E+00 0. -1.
        -14    1    4    4    0    0  0.92901661210E+02  0.62778890803E+02  0.46528735206E+03  0.47860654799E+03  0.00000000000E+00 0.  1.
</event>
<event>
12    1  0.1040325E-001  0.1849439E+03  0.7818608E-02  0.1163243E+00
         21   -1    0    0  503  502  0.00000000000E+00  0.00000000000E+00  0.21018354800E+03  0.21018354800E+03  0.00000000000E+00 0. -1.
         21   -1    0    0  501  503 -0.00000000000E+00 -0.00000000000E+00 -0.18685881338E+03  0.18685881338E+03  0.00000000000E+00 0.  1.
          6    2    1    2  501    0  0.66524676261E+02  0.86928893733E+01 -0.60429330607E+02  0.19456603853E+03  0.17234599059E+03 0.  0.
         24    2    3    3    0    0  0.33358121104E+01  0.63234278038E+02 -0.32575817947E+02  0.10644394256E+03  0.79116543349E+02 0.  0.
         -6    2    1    2    0  502 -0.66524676261E+02 -0.86928893733E+01  0.83754065229E+02  0.20247632286E+03  0.17169979324E+03 0.  0.
        -24    2    5    5    0    0 -0.20146113330E+02 -0.66785563523E+02  0.65149236843E+02  0.12570419557E+03  0.81798192797E+02 0.  0.
          5    1    3    3  501    0  0.63188864151E+02 -0.54541388665E+02 -0.27853512660E+02  0.88122095967E+02  0.47000000000E+01 0. -1.
        -13    1    4    4    0    0  0.19993214430E+02  0.23406784435E+02 -0.50948763076E+02  0.59526318884E+02  0.00000000000E+00 0.  1.
         14    1    4    4    0    0 -0.16657402320E+02  0.39827493603E+02  0.18372945130E+02  0.46917623677E+02  0.00000000000E+00 0. -1.
         -5    1    5    5    0  502 -0.46378562931E+02  0.58092674149E+02  0.18604828386E+02  0.76772127290E+02  0.47000000000E+01 0.  1.
         13    1    6    6    0    0 -0.95367384205E+00 -0.64538149717E+01  0.61971132014E+02  0.62313581381E+02  0.00000000000E+00 0. -1.
        -14    1    6    6    0    0 -0.19192439488E+02 -0.60331748551E+02  0.31781048294E+01  0.63390614187E+02  0.00000000000E+00 0.  1.
</event>
<event>
12    1  0.1040325E-001  0.1951488E+03  0.7818608E-02  0.1154021E+00
         21   -1    0    0  503  502  0.00000000000E+00  0.00000000000E+00  0.97813409065E+03  0.97813409065E+03  0.00000000000E+00 0. -1.
         21   -1    0    0  501  503 -0.00000000000E+00 -0.00000000000E+00 -0.49536102981E+02  0.49536102981E+02  0.00000000000E+00 0.  1.
          6    2    1    2  501    0  0.64457754526E+02 -0.61021287887E+02  0.70274451018E+03  0.72918597069E+03  0.17315869474E+03 0.  0.
         24    2    3    3    0    0 -0.19245452276E+01  0.14172809005E+02  0.40462595975E+03  0.41461082539E+03  0.89305077333E+02 0.  0.
         -6    2    1    2    0  502 -0.64457754526E+02  0.61021287887E+02  0.22585347749E+03  0.29848422295E+03  0.17379481684E+03 0.  0.
        -24    2    5    5    0    0  0.10488246303E+02 -0.19547222966E+02  0.11176109675E+03  0.13990506503E+03  0.81183663621E+02 0.  0.
          5    1    3    3  501    0  0.66382299753E+02 -0.75194096892E+02  0.29811855043E+03  0.31457514530E+03  0.47000000000E+01 0. -1.
        -13    1    4    4    0    0  0.91108146764E+01  0.27409385508E+01 -0.15764216468E+00  0.95154894388E+01  0.00000000000E+00 0.  1.
         14    1    4    4    0    0 -0.11035359904E+02  0.11431870454E+02  0.40478360192E+03  0.40509533595E+03  0.00000000000E+00 0. -1.
         -5    1    5    5    0  502 -0.74946000829E+02  0.80568510853E+02  0.11409238074E+03  0.15857915791E+03  0.47000000000E+01 0.  1.
         11    1    6    6    0    0 -0.26973316346E+02  0.30836064300E+01  0.83510361979E+02  0.87812578718E+02  0.00000000000E+00 0. -1.
        -12    1    6    6    0    0  0.37461562649E+02 -0.22630829396E+02  0.28250734770E+02  0.52092486313E+02  0.00000000000E+00 0.  1.
</event>
<event>
12    1  0.1040325E-001  0.1932081E+03  0.7818608E-02  0.1155629E+00
         21   -1    0    0  501  502  0.00000000000E+00  0.00000000000E+00  0.16251684756E+03  0.16251684756E+03  0.00000000000E+00 0. -1.
         21   -1    0    0  502  503 -0.00000000000E+00 -0.00000000000E+00 -0.33152452900E+03  0.33152452900E+03  0.00000000000E+00 0.  1.
         -6    2    1    2    0  503 -0.87365378360E+02 -0.17844791992E+02 -0.22149308385E+03  0.29383124810E+03  0.17124973060E+03 0.  0.
        -24    2    3    3    0    0  0.19572700700E+02  0.10579589109E+01 -0.71316404499E+02  0.10844464727E+03  0.79309533361E+02 0.  0.
          6    2    1    2  501    0  0.87365378360E+02  0.17844791992E+02  0.52485402416E+02  0.20021012846E+03  0.17140079385E+03 0.  0.
         24    2    5    5    0    0  0.37965126287E+02  0.20603378084E+02 -0.36859841524E+02  0.97971890423E+02  0.79837293250E+02 0.  0.
          5    1    5    5  501    0  0.49400252072E+02 -0.27585860913E+01  0.89345243939E+02  0.10223823804E+03  0.47000000000E+01 0. -1.
        -13    1    6    6    0    0 -0.19569574524E+02  0.13852593445E+02 -0.31794426611E+02  0.39821453461E+02  0.00000000000E+00 0.  1.
         14    1    6    6    0    0  0.57534700811E+02  0.67507846389E+01 -0.50654149132E+01  0.58150436963E+02  0.00000000000E+00 0. -1.
         -5    1    3    3    0  503 -0.10693807906E+03 -0.18902750903E+02 -0.15017667936E+03  0.18538660083E+03  0.47000000000E+01 0.  1.
         11    1    4    4    0    0  0.50169329331E+01 -0.38126586261E+02 -0.24096932766E+02  0.45381365831E+02  0.00000000000E+00 0. -1.
        -12    1    4    4    0    0  0.14555767767E+02  0.39184545172E+02 -0.47219471734E+02  0.63063281443E+02  0.00000000000E+00 0.  1.
</event>
<event>
12    1  0.1040325E-001  0.2426093E+03  0.7818608E-02  0.1118424E+00
         21   -1    0    0  503  502  0.00000000000E+00  0.00000000000E+00  0.68859605334E+03  0.68859605334E+03  0.00000000000E+00 0.  1.
         21   -1    0    0  501  503 -0.00000000000E+00 -0.00000000000E+00 -0.89103662111E+02  0.89103662111E+02  0.00000000000E+00 0.  1.
          6    2    1    2  501    0 -0.92626364827E+02 -0.14344196554E+03  0.21217387571E+03  0.32067138334E+03  0.16928420369E+03 0.  0.
         24    2    3    3    0    0  0.48426842270E+01 -0.85756138501E+02  0.62338335821E+02  0.13278671345E+03  0.79803986583E+02 0.  0.
         -6    2    1    2    0  502  0.92626364827E+02  0.14344196554E+03  0.38731851551E+03  0.45702833211E+03  0.17234855078E+03 0.  0.
        -24    2    5    5    0    0  0.10987318224E+03  0.15956315571E+03  0.29682663142E+03  0.36338957640E+03  0.80083820358E+02 0.  0.
          5    1    3    3  501    0 -0.97469049054E+02 -0.57685827038E+02  0.14983553989E+03  0.18788466989E+03  0.47000000000E+01 0. -1.
        -11    1    4    4    0    0 -0.37081377294E+02 -0.36668962089E+02  0.34219071790E+02  0.62374563701E+02  0.00000000000E+00 0.  1.
         12    1    4    4    0    0  0.41924061521E+02 -0.49087176412E+02  0.28119264031E+02  0.70412149748E+02  0.00000000000E+00 0. -1.
         -5    1    5    5    0  502 -0.17246817414E+02 -0.16121190173E+02  0.90491884097E+02  0.93638755710E+02  0.47000000000E+01 0.  1.
         13    1    6    6    0    0 -0.12225854371E+02  0.96366743253E+01  0.15051167422E+02  0.21653513523E+02  0.00000000000E+00 0. -1.
        -14    1    6    6    0    0  0.12209903661E+03  0.14992648139E+03  0.28177546400E+03  0.34173606288E+03  0.00000000000E+00 0.  1.
</event>
<event>
12    1  0.1040325E-001  0.2922991E+03  0.7818608E-02  0.1089217E+00
         21   -1    0    0  501  502  0.00000000000E+00  0.00000000000E+00  0.22516265330E+03  0.22516265330E+03  0.00000000000E+00 0. -1.
         21   -1    0    0  502  503 -0.00000000000E+00 -0.00000000000E+00 -0.53018339727E+03  0.53018339727E+03  0.00000000000E+00 0. -1.
         -6    2    1    2    0  503  0.72472583361E+02  0.22418776537E+03  0.49368707449E+02  0.29596533562E+03  0.17217950266E+03 0.  0.
        -24    2    3    3    0    0  0.70301442111E+02  0.12231336292E+03 -0.32293999439E+02  0.16529783613E+03  0.79860006989E+02 0.  0.
          6    2    1    2  501    0 -0.72472583361E+02 -0.22418776537E+03 -0.35438945143E+03  0.45938071495E+03  0.17299227874E+03 0.  0.
         24    2    5    5    0    0 -0.25015829738E+02 -0.49105301615E+02 -0.19567450979E+03  0.21830285350E+03  0.79564437302E+02 0.  0.
          5    1    5    5  501    0 -0.47456753623E+02 -0.17508246375E+03 -0.15871494164E+03  0.24107786144E+03  0.47000000000E+01 0. -1.
        -11    1    6    6    0    0 -0.62859922535E+01  0.21244483056E+02 -0.29602901392E+02  0.36975309732E+02  0.00000000000E+00 0.  1.
         12    1    6    6    0    0 -0.18729837485E+02 -0.70349784671E+02 -0.16607160840E+03  0.18132754377E+03  0.00000000000E+00 0. -1.
         -5    1    3    3    0  503  0.21711412507E+01  0.10187440245E+03  0.81662706888E+02  0.13066749950E+03  0.47000000000E+01 0.  1.
         13    1    4    4    0    0  0.12633229271E+02  0.98076788055E+02 -0.27072871635E+02  0.10252607091E+03  0.00000000000E+00 0. -1.
        -14    1    4    4    0    0  0.57668212839E+02  0.24236574868E+02 -0.52211278048E+01  0.62771765221E+02  0.00000000000E+00 0.  1.
</event>
<event>
12    1  0.1040325E-001  0.1942477E+03  0.7818608E-02  0.1154926E+00
         21   -1    0    0  501  502  0.00000000000E+00  0.00000000000E+00  0.13026991941E+03  0.13026991941E+03  0.00000000000E+00 0. -1.
         21   -1    0    0  502  503 -0.00000000000E+00 -0.00000000000E+00 -0.32327394567E+03  0.32327394567E+03  0.00000000000E+00 0.  1.
         -6    2    1    2    0  503 -0.84271400726E+02 -0.21284346720E+02 -0.17115474210E+03  0.25807122269E+03  0.17248802232E+03 0.  0.
        -24    2    3    3    0    0  0.21866520322E+01 -0.56295761197E+02 -0.69045892140E+02  0.11969094494E+03  0.79903647629E+02 0.  0.
          6    2    1    2  501    0  0.84271400726E+02  0.21284346720E+02 -0.21849284166E+02  0.19547264238E+03  0.17371663796E+03 0.  0.
         24    2    5    5    0    0  0.31572396804E+02  0.23896473620E+02  0.53774042249E+02  0.10314179315E+03  0.78604861067E+02 0.  0.
          5    1    5    5  501    0  0.52699003922E+02 -0.26121269007E+01 -0.75623326415E+02  0.92330849229E+02  0.47000000000E+01 0. -1.
        -13    1    6    6    0    0  0.45185276485E+02  0.55173066878E+01  0.89635974268E+00  0.45529697395E+02  0.00000000000E+00 0.  1.
         14    1    6    6    0    0 -0.13612879680E+02  0.18379166933E+02  0.52877682506E+02  0.57612095757E+02  0.00000000000E+00 0. -1.
         -5    1    3    3    0  503 -0.86458052759E+02  0.35011414477E+02 -0.10210884996E+03  0.13838027775E+03  0.47000000000E+01 0.  1.
         11    1    4    4    0    0  0.41020823390E+02 -0.31057133650E+02 -0.36001406973E+02  0.62796136874E+02  0.00000000000E+00 0. -1.
        -12    1    4    4    0    0 -0.38834171358E+02 -0.25238627546E+02 -0.33044485166E+02  0.56894808071E+02  0.00000000000E+00 0.  1.
</event>
<event>
12    1  0.1040325E-001  0.1899150E+03  0.7818608E-02  0.1159007E+00
         21   -1    0    0  503  502  0.00000000000E+00  0.00000000000E+00  0.96696324050E+03  0.96696324050E+03  0.00000000000E+00 0. -1.
         21   -1    0    0  501  503 -0.00000000000E+00 -0.00000000000E+00 -0.12818718986E+03  0.12818718986E+03  0.00000000000E+00 0. -1.
          6    2    1    2  501    0 -0.66199340693E+02 -0.49054260701E+02 -0.43372389939E+02  0.19279041817E+03  0.16881441860E+03 0.  0.
         24    2    3    3    0    0 -0.64538621882E+02 -0.25101731421E+02 -0.88432631808E+02  0.14151667203E+03  0.86088950850E+02 0.  0.
         -6    2    1    2    0  502  0.66199340693E+02  0.49054260701E+02  0.88214844058E+03  0.90236001220E+03  0.17111121292E+03 0.  0.
        -24    2    5    5    0    0  0.95426058580E+02  0.76723056415E+02  0.62049539603E+03  0.63758809334E+03  0.80693743405E+02 0.  0.
          5    1    3    3  501    0 -0.16607188103E+01 -0.23952529280E+02  0.45060241868E+02  0.51273746139E+02  0.47000000000E+01 0. -1.
        -11    1    4    4    0    0 -0.38690611737E+02  0.72122353853E+00  0.70032266991E+01  0.39325930175E+02  0.00000000000E+00 0.  1.
         12    1    4    4    0    0 -0.25848010146E+02 -0.25822954959E+02 -0.95435858507E+02  0.10219074185E+03  0.00000000000E+00 0. -1.
         -5    1    5    5    0  502 -0.29226717888E+02 -0.27668795714E+02  0.26165304455E+03  0.26477191886E+03  0.47000000000E+01 0.  1.
         13    1    6    6    0    0  0.72363333219E+02  0.74823257219E+02  0.59100891863E+03  0.60010541884E+03  0.00000000000E+00 0. -1.
        -14    1    6    6    0    0  0.23062725361E+02  0.18997991964E+01  0.29486477399E+02  0.37482674497E+02  0.00000000000E+00 0.  1.
</event>
<event>
12    1  0.1040325E-001  0.1853581E+03  0.7818608E-02  0.1163024E+00
         21   -1    0    0  501  502  0.00000000000E+00  0.00000000000E+00  0.82651821163E+02  0.82651821163E+02  0.00000000000E+00 0. -1.
         21   -1    0    0  502  503 -0.00000000000E+00 -0.00000000000E+00 -0.51355806360E+03  0.51355806360E+03  0.00000000000E+00 0. -1.
         -6    2    1    2    0  503 -0.35945507309E+02  0.55241687487E+02 -0.34691733371E+03  0.39271105868E+03  0.17183310406E+03 0.  0.
        -24    2    3    3    0    0  0.25926415923E+02  0.49530508278E+02 -0.11260476084E+03  0.15025441460E+03  0.82286734358E+02 0.  0.
          6    2    1    2  501    0  0.35945507309E+02 -0.55241687487E+02 -0.83988908719E+02  0.20349882607E+03  0.17324523628E+03 0.  0.
         24    2    5    5    0    0  0.46322540045E+02  0.77157844778E+01  0.68368997031E+01  0.92400925283E+02  0.79283521298E+02 0.  0.
          5    1    5    5  501    0 -0.10377032736E+02 -0.62957471965E+02 -0.90825808422E+02  0.11109790079E+03  0.47000000000E+01 0. -1.
        -13    1    6    6    0    0  0.30755705785E+02 -0.14797907572E+00 -0.35287072233E+02  0.46809323888E+02  0.00000000000E+00 0.  1.
         14    1    6    6    0    0  0.15566834260E+02  0.78637635535E+01  0.42123971936E+02  0.45591601395E+02  0.00000000000E+00 0. -1.
         -5    1    3    3    0  503 -0.61871923232E+02  0.57111792090E+01 -0.23431257287E+03  0.24245664408E+03  0.47000000000E+01 0.  1.
         11    1    4    4    0    0  0.22958918548E+02  0.67264443677E+02 -0.11151716215E+03  0.13224104800E+03  0.00000000000E+00 0. -1.
        -12    1    4    4    0    0  0.29674973745E+01 -0.17733935399E+02 -0.10875986957E+01  0.18013366601E+02  0.00000000000E+00 0.  1.
</event>
<event>
12    1  0.1040325E-001  0.1928510E+03  0.7818608E-02  0.1155942E+00
         21   -1    0    0  501  502  0.00000000000E+00  0.00000000000E+00  0.77238327594E+03  0.77238327594E+03  0.00000000000E+00 0. -1.
         21   -1    0    0  502  503 -0.00000000000E+00 -0.00000000000E+00 -0.55885993841E+02  0.55885993841E+02  0.00000000000E+00 0. -1.
         -6    2    1    2    0  503 -0.47106303758E+02  0.74192540808E+02  0.20397577924E+03  0.28070914592E+03  0.17166236957E+03 0.  0.
        -24    2    3    3    0    0 -0.62456683921E+02  0.31029581431E+02  0.44530495284E+02  0.11474660856E+03  0.79499351417E+02 0.  0.
          6    2    1    2  501    0  0.47106303758E+02 -0.74192540808E+02  0.51252150286E+03  0.54756012385E+03  0.17152335520E+03 0.  0.
         24    2    5    5    0    0  0.62931771670E+02 -0.44925922784E+02  0.22455459789E+03  0.25763943001E+03  0.99872729191E+02 0.  0.
          5    1    5    5  501    0 -0.15825467912E+02 -0.29266618024E+02  0.28796690496E+03  0.28992069385E+03  0.47000000000E+01 0. -1.
        -13    1    6    6    0    0 -0.13966653385E+02  0.91632776262E+01  0.10105427363E+03  0.10242557924E+03  0.00000000000E+00 0.  1.
         14    1    6    6    0    0  0.76898425055E+02 -0.54089200410E+02  0.12350032426E+03  0.15521385076E+03  0.00000000000E+00 0. -1.
         -5    1    3    3    0  503  0.15350380163E+02  0.43162959377E+02  0.15944528395E+03  0.16596253736E+03  0.47000000000E+01 0.  1.
         11    1    4    4    0    0 -0.16089394809E+02  0.30950374766E+02  0.56914736776E+02  0.66753888169E+02  0.00000000000E+00 0. -1.
        -12    1    4    4    0    0 -0.46367289112E+02  0.79206665547E-01 -0.12384241491E+02  0.47992720392E+02  0.00000000000E+00 0.  1.
</event>
<event>
12    1  0.1040325E-001  0.1818955E+03  0.7818608E-02  0.1166028E+00
         21   -1    0    0  501  502  0.00000000000E+00  0.00000000000E+00  0.14410771668E+03  0.14410771668E+03  0.00000000000E+00 0.  1.
         21   -1    0    0  502  503 -0.00000000000E+00 -0.00000000000E+00 -0.25037370279E+03  0.25037370279E+03  0.00000000000E+00 0.  1.
         -6    2    1    2    0  503 -0.30127696146E+02  0.50874380996E+02 -0.11027077334E+03  0.21254187151E+03  0.17180955438E+03 0.  0.
        -24    2    3    3    0    0 -0.44648584585E+02 -0.12268648903E+02 -0.11472789888E+03  0.14742770720E+03  0.80177442066E+02 0.  0.
          6    2    1    2  501    0  0.30127696146E+02 -0.50874380996E+02  0.40047872295E+01  0.18193954796E+03  0.17201767373E+03 0.  0.
         24    2    5    5    0    0  0.18749629280E+02  0.40464835799E+02  0.60002839357E+01  0.89752862714E+02  0.77657075813E+02 0.  0.
          5    1    5    5  501    0  0.11378066865E+02 -0.91339216795E+02 -0.19954967062E+01  0.92186685250E+02  0.47000000000E+01 0. -1.
        -11    1    6    6    0    0  0.12622582261E+01 -0.14233997612E+02  0.25395439389E+02  0.29139806547E+02  0.00000000000E+00 0.  1.
         12    1    6    6    0    0  0.17487371054E+02  0.54698833410E+02 -0.19395155454E+02  0.60613056167E+02  0.00000000000E+00 0. -1.
         -5    1    3    3    0  503  0.14520888439E+02  0.63143029899E+02  0.44571255436E+01  0.65114164312E+02  0.47000000000E+01 0.  1.
         11    1    4    4    0    0 -0.10681369902E+02  0.21801318308E+02 -0.14078429044E+01  0.24318124200E+02  0.00000000000E+00 0. -1.
        -12    1    4    4    0    0 -0.33967214682E+02 -0.34069967211E+02 -0.11332005598E+03  0.12310958300E+03  0.00000000000E+00 0.  1.
</event>
<event>
12    1  0.1040325E-001  0.2021388E+03  0.7818608E-02  0.1147967E+00
         21   -1    0    0  503  502  0.00000000000E+00  0.00000000000E+00  0.76776258698E+03  0.76776258698E+03  0.00000000000E+00 0.  1.
         21   -1    0    0  501  503 -0.00000000000E+00 -0.00000000000E+00 -0.12967689154E+03  0.12967689154E+03  0.00000000000E+00 0.  1.
          6    2    1    2  501    0 -0.10129369564E+03 -0.27642406015E+02 -0.25595698052E+02  0.20365775743E+03  0.17261757447E+03 0.  0.
         24    2    3    3    0    0 -0.13153590073E+03  0.95871175370E+01 -0.19170814619E+02  0.15503679982E+03  0.79216684866E+02 0.  0.
         -6    2    1    2    0  502  0.10129369564E+03  0.27642406015E+02  0.66368139350E+03  0.69378172109E+03  0.17272975731E+03 0.  0.
        -24    2    5    5    0    0  0.63558342388E+02  0.54078944714E+02  0.22050471106E+03  0.24819165240E+03  0.77540786508E+02 0.  0.
          5    1    3    3  501    0  0.30242205088E+02 -0.37229523552E+02 -0.64248834331E+01  0.48620957617E+02  0.47000000000E+01 0. -1.
        -13    1    4    4    0    0 -0.24553528849E+02 -0.60856244949E+01 -0.37635803545E+02  0.45347153306E+02  0.00000000000E+00 0.  1.
         14    1    4    4    0    0 -0.10698237188E+03  0.15672742032E+02  0.18464988926E+02  0.10968964651E+03  0.00000000000E+00 0. -1.
         -5    1    5    5    0  502  0.37735353253E+02 -0.26436538699E+02  0.44317668243E+03  0.44559006869E+03  0.47000000000E+01 0.  1.
         11    1    6    6    0    0  0.22210537392E+02 -0.18254764109E+02  0.38752383404E+02  0.48252374070E+02  0.00000000000E+00 0. -1.
        -12    1    6    6    0    0  0.41347804997E+02  0.72333708823E+02  0.18175232766E+03  0.19993927833E+03  0.00000000000E+00 0.  1.
</event>
<event>
12    1  0.1040325E-001  0.2633307E+03  0.7818608E-02  0.1105228E+00
         21   -1    0    0  501  502  0.00000000000E+00  0.00000000000E+00  0.17985760508E+03  0.17985760508E+03  0.00000000000E+00 0.  1.
         21   -1    0    0  502  503 -0.00000000000E+00 -0.00000000000E+00 -0.40265554565E+03  0.40265554565E+03  0.00000000000E+00 0. -1.
         -6    2    1    2    0  503 -0.15404947589E+03  0.12666009736E+03 -0.17273791985E+03  0.31493086931E+03  0.17195651255E+03 0.  0.
        -24    2    3    3    0    0 -0.54724063666E+02  0.56120507241E+02 -0.10955759155E+02  0.11235513334E+03  0.79745926864E+02 0.  0.
          6    2    1    2  501    0  0.15404947589E+03 -0.12666009736E+03 -0.50060020726E+02  0.26758228141E+03  0.17123156942E+03 0.  0.
         24    2    5    5    0    0  0.11643665221E+03 -0.40539758693E+02  0.22557410997E+02  0.14872598740E+03  0.80060080713E+02 0.  0.
          5    1    5    5  501    0  0.37612823681E+02 -0.86120338665E+02 -0.72617431723E+02  0.11885629402E+03  0.47000000000E+01 0. -1.
        -13    1    6    6    0    0  0.33860875008E+02 -0.23721113266E+02  0.45410172035E+02  0.61411186238E+02  0.00000000000E+00 0.  1.
         14    1    6    6    0    0  0.82575777202E+02 -0.16818645427E+02 -0.22852761038E+02  0.87314801160E+02  0.00000000000E+00 0. -1.
         -5    1    3    3    0  503 -0.99325412225E+02  0.70539590117E+02 -0.16178216070E+03  0.20257573598E+03  0.47000000000E+01 0.  1.
         13    1    4    4    0    0 -0.33194294899E+02  0.18470521556E+02 -0.43780139571E+02  0.57963108967E+02  0.00000000000E+00 0. -1.
        -14    1    4    4    0    0 -0.21529768768E+02  0.37649985686E+02  0.32824380416E+02  0.54392024369E+02  0.00000000000E+00 0.  1.
</event>
<event>
12    1  0.1040325E-001  0.2076952E+03  0.7818608E-02  0.1143693E+00
         21   -1    0    0  501  502  0.00000000000E+00  0.00000000000E+00  0.18976221463E+03  0.18976221463E+03  0.00000000000E+00 0.  1.
         21   -1    0    0  502  503 -0.00000000000E+00 -0.00000000000E+00 -0.28311545560E+03  0.28311545560E+03  0.00000000000E+00 0.  1.
         -6    2    1    2    0  503  0.24761816078E+02 -0.11288945461E+03  0.59614539805E+02  0.21608147685E+03  0.17256921737E+03 0.  0.
        -24    2    3    3    0    0 -0.94239467936E+01  0.77090250778E+01  0.43007622379E+01  0.78988939943E+02  0.77926351363E+02 0.  0.
          6    2    1    2  501    0 -0.24761816078E+02  0.11288945461E+03 -0.15296778078E+03  0.25679619338E+03  0.17084486085E+03 0.  0.
         24    2    5    5    0    0 -0.44970726185E+02  0.52576600015E+02 -0.15984766625E+03  0.19264431654E+03  0.82303652457E+02 0.  0.
          5    1    5    5  501    0  0.20208910106E+02  0.60312854599E+02  0.68798854712E+01  0.64151876836E+02  0.47000000000E+01 0. -1.
        -11    1    6    6    0    0 -0.29010782737E+01  0.63562490620E+02 -0.86578958176E+02  0.10744543949E+03  0.00000000000E+00 0.  1.
         12    1    6    6    0    0 -0.42069647911E+02 -0.10985890605E+02 -0.73268708071E+02  0.85198877047E+02  0.00000000000E+00 0. -1.
         -5    1    3    3    0  503  0.34185762872E+02 -0.12059847969E+03  0.55313777567E+02  0.13709253691E+03  0.47000000000E+01 0.  1.
         11    1    4    4    0    0 -0.20738382561E+02 -0.97621445103E+01 -0.30672164283E+02  0.38290490183E+02  0.00000000000E+00 0. -1.
        -12    1    4    4    0    0  0.11314435767E+02  0.17471169588E+02  0.34972926520E+02  0.40698449760E+02  0.00000000000E+00 0.  1.
</event>
<event>
12    1  0.1040325E-001  0.2009390E+03  0.7818608E-02  0.1149222E+00
         21   -1    0    0  503  502  0.00000000000E+00  0.00000000000E+00  0.31719148017E+02  0.31719148017E+02  0.00000000000E+00 0.  1.
         21   -1    0    0  501  503 -0.00000000000E+00 -0.00000000000E+00 -0.15702167129E+04  0.15702167129E+04  0.00000000000E+00 0. -1.
          6    2    1    2  501    0 -0.78197527100E+02 -0.66108285614E+02 -0.41797109439E+03  0.46376322260E+03  0.17289109930E+03 0.  0.
         24    2    3    3    0    0 -0.12217492407E+03 -0.53856153801E+02 -0.31850079127E+03  0.35421616704E+03  0.78734627566E+02 0.  0.
         -6    2    1    2    0  502  0.78197527100E+02  0.66108285614E+02 -0.11205264705E+04  0.11381726383E+04  0.17138326893E+03 0.  0.
        -24    2    5    5    0    0 -0.11789501705E+02  0.68089560095E+02 -0.72632084648E+03  0.73379440596E+03  0.78339502435E+02 0.  0.
          5    1    3    3  501    0  0.43977396974E+02 -0.12252131812E+02 -0.99470303114E+02  0.10954705555E+03  0.47000000000E+01 0. -1.
        -11    1    4    4    0    0 -0.39075563134E+02 -0.39301482588E+02 -0.57248312845E+02  0.79679831146E+02  0.00000000000E+00 0.  1.
         12    1    4    4    0    0 -0.83099360940E+02 -0.14554671214E+02 -0.26125247843E+03  0.27453633590E+03  0.00000000000E+00 0. -1.
         -5    1    5    5    0  502  0.89987028805E+02 -0.19812744816E+01 -0.39420562398E+03  0.40437823233E+03  0.47000000000E+01 0.  1.
         13    1    6    6    0    0 -0.41834269987E+02  0.46216988325E+02 -0.33810817687E+03  0.34380700316E+03  0.00000000000E+00 0. -1.
        -14    1    6    6    0    0  0.30044768282E+02  0.21872571770E+02 -0.38821266961E+03  0.38998740280E+03  0.00000000000E+00 0.  1.
</event>
<event>
12    1  0.1040325E-001  0.2067013E+03  0.7818608E-02  0.1144327E+00
         21   -1    0    0  503  502  0.00000000000E+00  0.00000000000E+00  0.25607190843E+02  0.25607190843E+02  0.00000000000E+00 0.  1.
         21   -1    0    0  501  503 -0.00000000000E+00 -0.00000000000E+00 -0.16739754372E+04  0.16739754372E+04  0.00000000000E+00 0.  1.
          6    2    1    2  501    0  0.11249149967E+03 -0.19384868977E+02 -0.75620392637E+03  0.78378647222E+03  0.17160053943E+03 0.  0.
         24    2    3    3    0    0  0.11802883888E+03 -0.25887827622E+02 -0.75954196308E+03  0.77348195449E+03  0.82276082845E+02 0.  0.
         -6    2    1    2    0  502 -0.11249149967E+03  0.19384868977E+02 -0.89216431998E+03  0.91579615582E+03  0.17232328491E+03 0.  0.
        -24    2    5    5    0    0 -0.12744265966E+03 -0.25035884465E+02 -0.56152091102E+03  0.58181427845E+03  0.79584509074E+02 0.  0.
          5    1    3    3  501    0 -0.55373392089E+01  0.65029586455E+01  0.33380367096E+01  0.10304517734E+02  0.47000000000E+01 0. -1.
        -13    1    4    4    0    0  0.99294214765E+02 -0.50684465823E+02 -0.51198073390E+03  0.52397760262E+03  0.00000000000E+00 0.  1.
         14    1    4    4    0    0  0.18734624111E+02  0.24796638201E+02 -0.24756122918E+03  0.24950435187E+03  0.00000000000E+00 0. -1.
         -5    1    5    5    0  502  0.14951159990E+02  0.44420753442E+02 -0.33064340896E+03  0.33398187736E+03  0.47000000000E+01 0.  1.
         13    1    6    6    0    0 -0.54135270828E+01 -0.19354026192E+02 -0.27873852086E+02  0.34363297796E+02  0.00000000000E+00 0. -1.
        -14    1    6    6    0    0 -0.12202913257E+03 -0.56818582735E+01 -0.53364705894E+03  0.54745098066E+03  0.00000000000E+00 0.  1.
</event>
<event>
12    1  0.1040325E-001  0.2343533E+03  0.7818608E-02  0.1123720E+00
         21   -1    0    0  503  502  0.00000000000E+00  0.00000000000E+00  0.15742863763E+03  0.15742863763E+03  0.00000000000E+00 0. -1.
         21   -1    0    0  501  503 -0.00000000000E+00 -0.00000000000E+00 -0.39890876060E+03  0.39890876060E+03  0.00000000000E+00 0. -1.
          6    2    1    2  501    0  0.13524903097E+03 -0.82738202069E+02 -0.22003110316E+03  0.32100459444E+03  0.17173337717E+03 0.  0.
         24    2    3    3    0    0  0.33161126091E+02 -0.10113369403E+03 -0.11867352630E+03  0.17589848556E+03  0.74358503385E+02 0.  0.
         -6    2    1    2    0  502 -0.13524903097E+03  0.82738202069E+02 -0.21449019809E+02  0.23533280379E+03  0.17257913440E+03 0.  0.
        -24    2    5    5    0    0 -0.60612091674E+02  0.31978026757E+02  0.53171165994E+02  0.11812559311E+03  0.80187673637E+02 0.  0.
          5    1    3    3  501    0  0.10208790488E+03  0.18395491964E+02 -0.10135757686E+03  0.14510610888E+03  0.47000000000E+01 0. -1.
        -11    1    4    4    0    0  0.60063400809E+01 -0.10274240148E+02 -0.66711788002E+02  0.67765026305E+02  0.00000000000E+00 0.  1.
         12    1    4    4    0    0  0.27154786011E+02 -0.90859453884E+02 -0.51961738296E+02  0.10813345925E+03  0.00000000000E+00 0. -1.
         -5    1    5    5    0  502 -0.74636939296E+02  0.50760175313E+02 -0.74620185803E+02  0.11720721068E+03  0.47000000000E+01 0.  1.
         11    1    6    6    0    0 -0.54099486241E+01  0.45000084515E+02  0.89330753313E+01  0.46196049456E+02  0.00000000000E+00 0. -1.
        -12    1    6    6    0    0 -0.55202143050E+02 -0.13022057758E+02  0.44238090663E+02  0.71929543659E+02  0.00000000000E+00 0.  1.
</event>
<event>
12    1  0.1040325E-001  0.2146135E+03  0.7818608E-02  0.1138064E+00
         21   -1    0    0  501  502  0.00000000000E+00  0.00000000000E+00  0.63567237620E+02  0.63567237620E+02  0.00000000000E+00 0. -1.
         21   -1    0    0  502  503 -0.00000000000E+00 -0.00000000000E+00 -0.13285421537E+04  0.13285421537E+04  0.00000000000E+00 0.  1.
         -6    2    1    2    0  503 -0.12648678736E+03 -0.20774804273E+02 -0.11029032683E+04  0.11235900419E+04  0.17212920507E+03 0.  0.
        -24    2    3    3    0    0 -0.63341467199E+02 -0.16238538440E+02 -0.97821087119E+03  0.98366794552E+03  0.80189069986E+02 0.  0.
          6    2    1    2  501    0  0.12648678736E+03  0.20774804273E+02 -0.16207164784E+03  0.26851934945E+03  0.17147863460E+03 0.  0.
         24    2    5    5    0    0  0.37021454968E+02 -0.26926994834E+02 -0.13499127965E+03  0.16347200927E+03  0.80030000966E+02 0.  0.
          5    1    5    5  501    0  0.89465332389E+02  0.47701799107E+02 -0.27080368197E+02  0.10504734018E+03  0.47000000000E+01 0. -1.
        -11    1    6    6    0    0  0.26768218514E+01  0.80738100449E+01  0.83837162816E+01  0.11943135374E+02  0.00000000000E+00 0.  1.
         12    1    6    6    0    0  0.34344633116E+02 -0.35000804879E+02 -0.14337499593E+03  0.15152887389E+03  0.00000000000E+00 0. -1.
         -5    1    3    3    0  503 -0.63145320157E+02 -0.45362658334E+01 -0.12469239710E+03  0.13992209640E+03  0.47000000000E+01 0.  1.
         13    1    4    4    0    0 -0.59608947131E+01  0.21087741023E+02 -0.83014569804E+02  0.85858277917E+02  0.00000000000E+00 0. -1.
        -14    1    4    4    0    0 -0.57380572486E+02 -0.37326279463E+02 -0.89519630138E+03  0.89780966761E+03  0.00000000000E+00 0.  1.
</event>
<event>
12    1  0.1040325E-001  0.2971088E+03  0.7818608E-02  0.1086731E+00
         21   -1    0    0  501  502  0.00000000000E+00  0.00000000000E+00  0.26009706115E+03  0.26009706115E+03  0.00000000000E+00 0. -1.
         21   -1    0    0  502  503 -0.00000000000E+00 -0.00000000000E+00 -0.36573634646E+03  0.36573634646E+03  0.00000000000E+00 0.  1.
         -6    2    1    2    0  503 -0.21978017715E+03  0.10136315736E+03 -0.13730060519E+03  0.32704234938E+03  0.17183546247E+03 0.  0.
        -24    2    3    3    0    0 -0.28099102541E+02  0.48752646477E+02 -0.55283678738E+02  0.11196476699E+03  0.79457182249E+02 0.  0.
          6    2    1    2  501    0  0.21978017715E+03 -0.10136315736E+03  0.31661319887E+02  0.29879105824E+03  0.17232481356E+03 0.  0.
         24    2    5    5    0    0  0.15323071644E+03 -0.12346498137E+03 -0.15029635782E+02  0.21441418530E+03  0.83811090082E+02 0.  0.
          5    1    5    5  501    0  0.66549460711E+02  0.22101824011E+02  0.46690955669E+02  0.84376872938E+02  0.47000000000E+01 0. -1.
        -11    1    6    6    0    0  0.39467256761E+01  0.15312814229E+00 -0.20140721293E+02  0.20524345203E+02  0.00000000000E+00 0.  1.
         12    1    6    6    0    0  0.14928399076E+03 -0.12361810951E+03  0.51110855112E+01  0.19388984010E+03  0.00000000000E+00 0. -1.
         -5    1    3    3    0  503 -0.19168107461E+03  0.52610510880E+02 -0.82016926454E+02  0.21507758238E+03  0.47000000000E+01 0.  1.
         11    1    4    4    0    0 -0.19781296714E+02  0.43335752849E+02  0.76549892949E+01  0.48248171321E+02  0.00000000000E+00 0. -1.
        -12    1    4    4    0    0 -0.83178058268E+01  0.54168936277E+01 -0.62938668033E+02  0.63716595673E+02  0.00000000000E+00 0.  1.
</event>
<event>
12    1  0.1040325E-001  0.1868593E+03  0.7818608E-02  0.1161525E+00
         21   -1    0    0  503  502  0.00000000000E+00  0.00000000000E+00  0.49754378449E+03  0.49754378449E+03  0.00000000000E+00 0. -1.
         21   -1    0    0  501  503 -0.00000000000E+00 -0.00000000000E+00 -0.22747292275E+03  0.22747292275E+03  0.00000000000E+00 0. -1.
          6    2    1    2  501    0 -0.66134597655E+02 -0.26490688449E+02 -0.16681933035E+03  0.24984366322E+03  0.17180694249E+03 0.  0.
         24    2    3    3    0    0 -0.26044132461E+02  0.51681474366E+02 -0.11094645897E+03  0.14562274307E+03  0.74482178501E+02 0.  0.
         -6    2    1    2    0  502  0.66134597655E+02  0.26490688449E+02  0.43689019210E+03  0.47517304403E+03  0.17274501508E+03 0.  0.
        -24    2    5    5    0    0  0.87336861844E+02  0.63018423039E+02  0.38781367924E+03  0.41025459121E+03  0.79437590147E+02 0.  0.
          5    1    3    3  501    0 -0.40090465194E+02 -0.78172162815E+02 -0.55872871384E+02  0.10422092014E+03  0.47000000000E+01 0. -1.
        -11    1    4    4    0    0  0.42110706444E+01  0.20095337823E+02 -0.97827832301E+02  0.99959194129E+02  0.00000000000E+00 0.  1.
         12    1    4    4    0    0 -0.30255203105E+02  0.31586136543E+02 -0.13118626670E+02  0.45663548946E+02  0.00000000000E+00 0. -1.
         -5    1    5    5    0  502 -0.21202264190E+02 -0.36527734590E+02  0.49076512858E+02  0.64918452811E+02  0.47000000000E+01 0.  1.
         13    1    6    6    0    0  0.45181626212E+02  0.23269684444E+02  0.30487684128E+03  0.30908371990E+03  0.00000000000E+00 0. -1.
        -14    1    6    6    0    0  0.42155235632E+02  0.39748738595E+02  0.82936837964E+02  0.10117087131E+03  0.00000000000E+00 0.  1.
</event>
<event>
12    1  0.1040325E-001  0.2389294E+03  0.7818608E-02  0.1121136E+00
         21   -1    0    0  503  502  0.00000000000E+00  0.00000000000E+00  0.73827509701E+03  0.73827509701E+03  0.00000000000E+00 0. -1.
         21   -1    0    0  501  503 -0.00000000000E+00 -0.00000000000E+00 -0.22579835967E+03  0.22579835967E+03  0.00000000000E+00 0.  1.
          6    2    1    2  501    0  0.12915933648E+02  0.16368475356E+03 -0.13553534288E+03  0.27469454593E+03  0.17357345565E+03 0.  0.
         24    2    3    3    0    0 -0.35566049974E+02  0.50586671938E+02 -0.33144633110E+02  0.11454578306E+03  0.90543991650E+02 0.  0.
         -6    2    1    2    0  502 -0.12915933648E+02 -0.16368475356E+03  0.64801208023E+03  0.68937891075E+03  0.16841646765E+03 0.  0.
        -24    2    5    5    0    0  0.89416825563E+01 -0.13424806713E+02  0.18342013102E+03  0.20058081718E+03  0.79558410198E+02 0.  0.
          5    1    3    3  501    0  0.48481983622E+02  0.11309808162E+03 -0.10239070977E+03  0.16014876287E+03  0.47000000000E+01 0. -1.
        -11    1    4    4    0    0 -0.54857273197E+02  0.55730839550E+02 -0.46070045465E+02  0.90761753997E+02  0.00000000000E+00 0.  1.
         12    1    4    4    0    0  0.19291223222E+02 -0.51441676118E+01  0.12925412355E+02  0.23784029061E+02  0.00000000000E+00 0. -1.
         -5    1    5    5    0  502 -0.21857616204E+02 -0.15025994684E+03  0.46459194920E+03  0.48879809357E+03  0.47000000000E+01 0.  1.
         13    1    6    6    0    0 -0.66679549178E+00  0.66265374118E+01  0.17742793197E+03  0.17755288412E+03  0.00000000000E+00 0. -1.
        -14    1    6    6    0    0  0.96084780481E+01 -0.20051344125E+02  0.59921990508E+01  0.23027933061E+02  0.00000000000E+00 0.  1.
</event>
<event>
12    1  0.1040325E-001  0.2252150E+03  0.7818608E-02  0.1130310E+00
         21   -1    0    0  501  502  0.00000000000E+00  0.00000000000E+00  0.19544248582E+03  0.19544248582E+03  0.00000000000E+00 0. -1.
         21   -1    0    0  502  503 -0.00000000000E+00 -0.00000000000E+00 -0.28034794709E+03  0.28034794709E+03  0.00000000000E+00 0.  1.
         -6    2    1    2    0  503  0.12256262303E+02  0.14292690753E+03 -0.10964647383E+03  0.24922051035E+03  0.17178532153E+03 0.  0.
        -24    2    3    3    0    0 -0.90177336611E+01  0.16985731274E+03 -0.79612339231E+02  0.20337327630E+03  0.78036778129E+02 0.  0.
          6    2    1    2  501    0 -0.12256262303E+02 -0.14292690753E+03  0.24741012556E+02  0.22656992256E+03  0.17361882168E+03 0.  0.
         24    2    5    5    0    0  0.40631724614E+02 -0.14648981576E+03  0.22591908138E+02  0.17331072499E+03  0.80099999493E+02 0.  0.
          5    1    5    5  501    0 -0.52887986917E+02  0.35629082268E+01  0.21491044178E+01  0.53259197562E+02  0.47000000000E+01 0. -1.
        -13    1    6    6    0    0  0.43871684085E+02 -0.34044696322E+02 -0.94829175509E+01  0.56335528199E+02  0.00000000000E+00 0.  1.
         14    1    6    6    0    0 -0.32399594716E+01 -0.11244511944E+03  0.32074825689E+02  0.11697519680E+03  0.00000000000E+00 0. -1.
         -5    1    3    3    0  503  0.21273995964E+02 -0.26930405214E+02 -0.30034134600E+02  0.45847234054E+02  0.47000000000E+01 0.  1.
         11    1    4    4    0    0 -0.13458950789E+02  0.38890227767E+02  0.12714318676E+02  0.43072579114E+02  0.00000000000E+00 0. -1.
        -12    1    4    4    0    0  0.44412171276E+01  0.13096708498E+03 -0.92326657907E+02  0.16030069718E+03  0.00000000000E+00 0.  1.
</event>
<event>
12    1  0.1040325E-001  0.2411271E+03  0.7818608E-02  0.1119484E+00
         21   -1    0    0  501  502  0.00000000000E+00  0.00000000000E+00  0.33842973895E+03  0.33842973895E+03  0.00000000000E+00 0.  1.
         21   -1    0    0  502  503 -0.00000000000E+00 -0.00000000000E+00 -0.16032515304E+04  0.16032515304E+04  0.00000000000E+00 0. -1.
         -6    2    1    2    0  503 -0.15634995813E+03 -0.54874708216E+02 -0.15499921944E+04  0.15682319182E+04  0.17151968800E+03 0.  0.
        -24    2    3    3    0    0 -0.14657643310E+03  0.12979617848E+02 -0.11939632918E+04  0.12056324134E+04  0.79674668770E+02 0.  0.
          6    2    1    2  501    0  0.15634995813E+03  0.54874708216E+02  0.28517040301E+03  0.37344935115E+03  0.17517338872E+03 0.  0.
         24    2    5    5    0    0  0.88653043137E+02  0.82596920773E+02  0.25280718314E+03  0.29331907368E+03  0.86272786873E+02 0.  0.
          5    1    5    5  501    0  0.67696914993E+02 -0.27722212557E+02  0.32363219864E+02  0.80130277478E+02  0.47000000000E+01 0. -1.
        -13    1    6    6    0    0  0.25136013839E+02 -0.30608664332E+01  0.12176583641E+03  0.12437084470E+03  0.00000000000E+00 0.  1.
         14    1    6    6    0    0  0.63517029297E+02  0.85657787207E+02  0.13104134673E+03  0.16894822897E+03  0.00000000000E+00 0. -1.
         -5    1    3    3    0  503 -0.97735250304E+01 -0.67854326064E+02 -0.35602890268E+03  0.36259950482E+03  0.47000000000E+01 0.  1.
         11    1    4    4    0    0 -0.60340234456E+02 -0.30229965741E+02 -0.61464230525E+03  0.61833644412E+03  0.00000000000E+00 0. -1.
        -12    1    4    4    0    0 -0.86236198644E+02  0.43209583589E+02 -0.57932098651E+03  0.58729596924E+03  0.00000000000E+00 0.  1.
</event>
<event>
12    1  0.1040325E-001  0.1762132E+03  0.7818608E-02  0.1171999E+00
         21   -1    0    0  501  502  0.00000000000E+00  0.00000000000E+00  0.82237245601E+02  0.82237245601E+02  0.00000000000E+00 0.  1.
         21   -1    0    0  502  503 -0.00000000000E+00 -0.00000000000E+00 -0.40633659616E+03  0.40633659616E+03  0.00000000000E+00 0.  1.
         -6    2    1    2    0  503  0.13570921768E+02 -0.38995501720E+02 -0.23232467657E+03  0.29159192865E+03  0.17130755512E+03 0.  0.
        -24    2    3    3    0    0 -0.55199260370E+02 -0.34285948515E+02 -0.95379215057E+02  0.13820461734E+03  0.76031815569E+02 0.  0.
          6    2    1    2  501    0 -0.13570921768E+02  0.38995501720E+02 -0.91774673994E+02  0.19698191311E+03  0.16933536026E+03 0.  0.
         24    2    5    5    0    0  0.58063957128E+02  0.20711242587E+02 -0.54114873477E+02  0.11387823942E+03  0.78990222146E+02 0.  0.
          5    1    5    5  501    0 -0.71634878896E+02  0.18284259134E+02 -0.37659800518E+02  0.83103673694E+02  0.47000000000E+01 0. -1.
        -13    1    6    6    0    0  0.60804328362E+02  0.45053106878E+02 -0.42005179536E+02  0.86552780977E+02  0.00000000000E+00 0.  1.
         14    1    6    6    0    0 -0.27403712340E+01 -0.24341864292E+02 -0.12109693940E+02  0.27325458441E+02  0.00000000000E+00 0. -1.
         -5    1    3    3    0  503  0.68770182138E+02 -0.47095532055E+01 -0.13694546151E+03  0.15338731131E+03  0.47000000000E+01 0.  1.
         11    1    4    4    0    0 -0.66714255516E+01  0.23067321214E+02 -0.15690129107E+02  0.28684305435E+02  0.00000000000E+00 0. -1.
        -12    1    4    4    0    0 -0.48527834818E+02 -0.57353269728E+02 -0.79689085950E+02  0.10952031191E+03  0.00000000000E+00 0.  1.
</event>
<event>
12    1  0.1040325E-001  0.2125654E+03  0.7818608E-02  0.1141429E+00
         21   -1    0    0  503  502  0.00000000000E+00  0.00000000000E+00  0.13360876380E+04  0.13360876380E+04  0.00000000000E+00 0. -1.
         21   -1    0    0  501  503 -0.00000000000E+00 -0.00000000000E+00 -0.40570877999E+02  0.40570877999E+02  0.00000000000E+00 0.  1.
          6    2    1    2  501    0  0.81767613517E+02 -0.71216660904E+02  0.32606758472E+03  0.38417892807E+03  0.17180111629E+03 0.  0.
         24    2    3    3    0    0  0.59438659058E+02  0.25619838430E+02  0.14631817220E+03  0.17873348248E+03  0.79670069252E+02 0.  0.
         -6    2    1    2    0  502 -0.81767613517E+02  0.71216660904E+02  0.96944917529E+03  0.99247958793E+03  0.18282853602E+03 0.  0.
        -24    2    5    5    0    0 -0.64133016285E+02  0.11918810469E+03  0.62509576492E+03  0.64432215275E+03  0.78022260473E+02 0.  0.
          5    1    3    3  501    0  0.22328954459E+02 -0.96836499334E+02  0.17974941252E+03  0.20544544559E+03  0.47000000000E+01 0. -1.
        -13    1    4    4    0    0  0.44243964206E+02 -0.23951142076E+02  0.80788155402E+02  0.95173061466E+02  0.00000000000E+00 0.  1.
         14    1    4    4    0    0  0.15194694852E+02  0.49570980506E+02  0.65530016794E+02  0.83560421019E+02  0.00000000000E+00 0. -1.
         -5    1    5    5    0  502 -0.17634597233E+02 -0.47971443785E+02  0.34435341037E+03  0.34815743518E+03  0.47000000000E+01 0.  1.
         13    1    6    6    0    0 -0.57573336784E+02  0.37643289093E+02  0.37284299120E+03  0.37913533521E+03  0.00000000000E+00 0. -1.
        -14    1    6    6    0    0 -0.65596795010E+01  0.81544815596E+02  0.25225277372E+03  0.26518681754E+03  0.00000000000E+00 0.  1.
</event>
<event>
12    1  0.1040325E-001  0.2175353E+03  0.7818608E-02  0.1135824E+00
         21   -1    0    0  501  502  0.00000000000E+00  0.00000000000E+00  0.25405799903E+03  0.25405799903E+03  0.00000000000E+00 0.  1.
         21   -1    0    0  502  503 -0.00000000000E+00 -0.00000000000E+00 -0.36048220526E+03  0.36048220526E+03  0.00000000000E+00 0.  1.
         -6    2    1    2    0  503 -0.39800896145E+02 -0.12426191973E+03 -0.26704348543E+03  0.34413279163E+03  0.17346474897E+03 0.  0.
        -24    2    3    3    0    0  0.31562505191E+02 -0.78193307120E+02 -0.21414790978E+03  0.24395752501E+03  0.80904645939E+02 0.  0.
          6    2    1    2  501    0  0.39800896145E+02  0.12426191973E+03  0.16061927920E+03  0.27040741266E+03  0.17405884046E+03 0.  0.
         24    2    5    5    0    0  0.61647724899E+02  0.10943881687E+03  0.18423527589E+03  0.23467488400E+03  0.73159877476E+02 0.  0.
          5    1    5    5  501    0 -0.21846828754E+02  0.14823102854E+02 -0.23615996691E+02  0.35732528662E+02  0.47000000000E+01 0. -1.
        -13    1    6    6    0    0  0.64305023556E+02  0.47202999309E+02  0.12761438104E+03  0.15049481535E+03  0.00000000000E+00 0.  1.
         14    1    6    6    0    0 -0.26572986578E+01  0.62235817563E+02  0.56620894853E+02  0.84180068649E+02  0.00000000000E+00 0. -1.
         -5    1    3    3    0  503 -0.71363401336E+02 -0.46068612606E+02 -0.52895575648E+02  0.10017526661E+03  0.47000000000E+01 0.  1.
         11    1    4    4    0    0  0.46658643923E+02 -0.73288423150E+02 -0.11814259140E+03  0.14664887972E+03  0.00000000000E+00 0. -1.
        -12    1    4    4    0    0 -0.15096138732E+02 -0.49048839706E+01 -0.96005318379E+02  0.97308645292E+02  0.00000000000E+00 0.  1.
</event>
<event>
12    1  0.1040325E-001  0.1981490E+03  0.7818608E-02  0.1151576E+00
         21   -1    0    0  503  502  0.00000000000E+00  0.00000000000E+00  0.26546559133E+02  0.26546559133E+02  0.00000000000E+00 0. -1.
         21   -1    0    0  501  503 -0.00000000000E+00 -0.00000000000E+00 -0.18304258408E+04  0.18304258408E+04  0.00000000000E+00 0. -1.
          6    2    1    2  501    0 -0.89004309705E+02  0.37061242694E+02 -0.13118010379E+04  0.13264971335E+04  0.17168977677E+03 0.  0.
         24    2    3    3    0    0 -0.16702146621E+02  0.15348214597E+02 -0.28089255917E+03  0.29281757011E+03  0.79542254020E+02 0.  0.
         -6    2    1    2    0  502  0.89004309705E+02 -0.37061242694E+02 -0.49207824383E+03  0.53047526644E+03  0.17311183494E+03 0.  0.
        -24    2    5    5    0    0  0.53815033833E+01 -0.56435746846E+02 -0.16092882186E+03  0.18834930306E+03  0.79771048357E+02 0.  0.
          5    1    3    3  501    0 -0.72302163084E+02  0.21713028097E+02 -0.10309084787E+04  0.10336795634E+04  0.47000000000E+01 0. -1.
        -11    1    4    4    0    0  0.28315683875E+02  0.21013169679E+02 -0.91328768900E+02  0.97899311960E+02  0.00000000000E+00 0.  1.
         12    1    4    4    0    0 -0.45017830497E+02 -0.56649550821E+01 -0.18956379027E+03  0.19491825815E+03  0.00000000000E+00 0. -1.
         -5    1    5    5    0  502  0.83622806322E+02  0.19374504152E+02 -0.33114942197E+03  0.34212596338E+03  0.47000000000E+01 0.  1.
         11    1    6    6    0    0  0.40557075905E+02 -0.29628695124E+02 -0.10982755569E+03  0.12076766111E+03  0.00000000000E+00 0. -1.
        -12    1    6    6    0    0 -0.35175572522E+02 -0.26807051722E+02 -0.51101266172E+02  0.67581641950E+02  0.00000000000E+00 0.  1.
</event>
<event>
12    1  0.1040325E-001  0.1940125E+03  0.7818608E-02  0.1155425E+00
         21   -1    0    0  501  502  0.00000000000E+00  0.00000000000E+00  0.15001387034E+03  0.15001387034E+03  0.00000000000E+00 0.  1.
         21   -1    0    0  502  503 -0.00000000000E+00 -0.00000000000E+00 -0.24893796006E+03  0.24893796006E+03  0.00000000000E+00 0.  1.
         -6    2    1    2    0  503  0.51128689255E+02  0.66174569421E+02 -0.62622380495E+02  0.20157229839E+03  0.17238507022E+03 0.  0.
        -24    2    3    3    0    0  0.78451576075E+02  0.82858047619E+02 -0.84331282237E+02  0.16260763486E+03  0.79431554855E+02 0.  0.
          6    2    1    2  501    0 -0.51128689255E+02 -0.66174569421E+02 -0.36301709230E+02  0.19737953201E+03  0.17506469965E+03 0.  0.
         24    2    5    5    0    0 -0.84082202186E+02 -0.24412975123E+02 -0.66548523489E+02  0.13600425568E+03  0.80016507700E+02 0.  0.
          5    1    5    5  501    0  0.32953512930E+02 -0.41761594299E+02  0.30246814260E+02  0.61375276339E+02  0.47000000000E+01 0. -1.
        -13    1    6    6    0    0 -0.46908113849E+02 -0.11786638213E+02  0.10533550349E+02  0.49500016851E+02  0.00000000000E+00 0.  1.
         14    1    6    6    0    0 -0.37174088336E+02 -0.12626336910E+02 -0.77082073838E+02  0.86504238824E+02  0.00000000000E+00 0. -1.
         -5    1    3    3    0  503 -0.27322886820E+02 -0.16683478197E+02  0.21708901742E+02  0.38964663527E+02  0.47000000000E+01 0.  1.
         11    1    4    4    0    0  0.12156620977E+00 -0.13271419864E+02 -0.12165482132E+01  0.13327616182E+02  0.00000000000E+00 0. -1.
        -12    1    4    4    0    0  0.78330009865E+02  0.96129467483E+02 -0.83114734024E+02  0.14928001868E+03  0.00000000000E+00 0.  1.
</event>
<event>
12    1  0.1040325E-001  0.2181258E+03  0.7818608E-02  0.1135518E+00
         21   -1    0    0  503  502  0.00000000000E+00  0.00000000000E+00  0.77068154040E+02  0.77068154040E+02  0.00000000000E+00 0.  1.
         21   -1    0    0  501  503 -0.00000000000E+00 -0.00000000000E+00 -0.96179329597E+03  0.96179329597E+03  0.00000000000E+00 0.  1.
          6    2    1    2  501    0  0.11568584536E+03  0.63779676366E+02 -0.75396227836E+03  0.78454316436E+03  0.17204010471E+03 0.  0.
         24    2    3    3    0    0  0.21185006008E+02  0.25034671300E+02 -0.54643824286E+03  0.55319948201E+03  0.79745685706E+02 0.  0.
         -6    2    1    2    0  502 -0.11568584536E+03 -0.63779676366E+02 -0.13076286358E+03  0.25431828565E+03  0.17357362124E+03 0.  0.
        -24    2    5    5    0    0 -0.66098545117E+02 -0.10983807667E+03 -0.83143440458E+02  0.17143296703E+03  0.77736797853E+02 0.  0.
          5    1    3    3  501    0  0.94500839353E+02  0.38745005066E+02 -0.20752403550E+03  0.23134368236E+03  0.47000000000E+01 0. -1.
        -11    1    4    4    0    0  0.51006917390E+02  0.76532369086E+01 -0.31228264184E+03  0.31651339000E+03  0.00000000000E+00 0.  1.
         12    1    4    4    0    0 -0.29821911382E+02  0.17381434392E+02 -0.23415560102E+03  0.23668609200E+03  0.00000000000E+00 0. -1.
         -5    1    5    5    0  502 -0.49587300244E+02  0.46058400307E+02 -0.47619423119E+02  0.82885318619E+02  0.47000000000E+01 0.  1.
         13    1    6    6    0    0  0.39904560024E+01  0.99742640849E+01 -0.30143458571E+01  0.11157775947E+02  0.00000000000E+00 0. -1.
        -14    1    6    6    0    0 -0.70089001120E+02 -0.11981234076E+03 -0.80129094601E+02  0.16027519109E+03  0.00000000000E+00 0.  1.
</event>
<event>
12    1  0.1040325E-001  0.1791131E+03  0.7818608E-02  0.1168835E+00
         21   -1    0    0  501  502  0.00000000000E+00  0.00000000000E+00  0.35968351894E+03  0.35968351894E+03  0.00000000000E+00 0. -1.
         21   -1    0    0  502  503 -0.00000000000E+00 -0.00000000000E+00 -0.10914585431E+04  0.10914585431E+04  0.00000000000E+00 0. -1.
         -6    2    1    2    0  503 -0.83717246177E+01 -0.49628130206E+02 -0.10613588018E+04  0.10763661173E+04  0.17189669934E+03 0.  0.
        -24    2    3    3    0    0 -0.54217854256E+02 -0.24906925913E+02 -0.38388445354E+03  0.39687617029E+03  0.81138709605E+02 0.  0.
          6    2    1    2  501    0  0.83717246177E+01  0.49628130206E+02  0.32958377761E+03  0.37477594477E+03  0.17116806137E+03 0.  0.
         24    2    5    5    0    0  0.37158925460E+02  0.55469237217E+02  0.32910971209E+03  0.34502470611E+03  0.79191055164E+02 0.  0.
          5    1    5    5  501    0 -0.28787200842E+02 -0.58411070118E+01  0.47406552205E+00  0.29751238656E+02  0.47000000000E+01 0. -1.
        -13    1    6    6    0    0  0.61302340573E+02  0.37898873575E+02  0.20255259203E+03  0.21499268386E+03  0.00000000000E+00 0.  1.
         14    1    6    6    0    0 -0.24143415113E+02  0.17570363643E+02  0.12655712006E+03  0.13003202225E+03  0.00000000000E+00 0. -1.
         -5    1    3    3    0  503  0.45846129638E+02 -0.24721204293E+02 -0.67747434826E+03  0.67948994702E+03  0.47000000000E+01 0.  1.
         11    1    4    4    0    0 -0.74155315639E+02 -0.29268006209E+02 -0.32156543401E+03  0.33130040050E+03  0.00000000000E+00 0. -1.
        -12    1    4    4    0    0  0.19937461383E+02  0.43610802960E+01 -0.62319019534E+02  0.65575769789E+02  0.00000000000E+00 0.  1.
</event>
<event>
12    1  0.1040325E-001  0.2399633E+03  0.7818608E-02  0.1120350E+00
         21   -1    0    0  501  502  0.00000000000E+00  0.00000000000E+00  0.88202425124E+03  0.88202425124E+03  0.00000000000E+00 0.  1.
         21   -1    0    0  502  503 -0.00000000000E+00 -0.00000000000E+00 -0.39647869787E+03  0.39647869787E+03  0.00000000000E+00 0.  1.
         -6    2    1    2    0  503 -0.92246111187E+02 -0.13554449607E+03 -0.34197777616E+03  0.41776927307E+03  0.17521618274E+03 0.  0.
        -24    2    3    3    0    0 -0.57519247971E+02 -0.87101130295E+02 -0.89968856209E+02  0.15876483209E+03  0.78846724943E+02 0.  0.
          6    2    1    2  501    0  0.92246111187E+02  0.13554449607E+03  0.82752332953E+03  0.86073367603E+03  0.17083894372E+03 0.  0.
         24    2    5    5    0    0  0.11595376691E+03  0.15156401759E+03  0.70264427155E+03  0.73253247818E+03  0.80485599660E+02 0.  0.
          5    1    5    5  501    0 -0.23707655721E+02 -0.16019521518E+02  0.12487905798E+03  0.12820119785E+03  0.47000000000E+01 0. -1.
        -13    1    6    6    0    0  0.65850908360E+02  0.27160111178E+02  0.29101872514E+03  0.29960959957E+03  0.00000000000E+00 0.  1.
         14    1    6    6    0    0  0.50102858548E+02  0.12440390641E+03  0.41162554641E+03  0.43292287861E+03  0.00000000000E+00 0. -1.
         -5    1    3    3    0  503 -0.34726863216E+02 -0.48443365777E+02 -0.25200891995E+03  0.25900444099E+03  0.47000000000E+01 0.  1.
         11    1    4    4    0    0 -0.15210941146E+01  0.93407658013E+01  0.63589485350E+01  0.11401748091E+02  0.00000000000E+00 0. -1.
        -12    1    4    4    0    0 -0.55998153857E+02 -0.96441896096E+02 -0.96327804744E+02  0.14736308400E+03  0.00000000000E+00 0.  1.
</event>
<event>
12    1  0.1040325E-001  0.2193267E+03  0.7818608E-02  0.1134424E+00
         21   -1    0    0  501  502  0.00000000000E+00  0.00000000000E+00  0.22043458755E+03  0.22043458755E+03  0.00000000000E+00 0.  1.
         21   -1    0    0  502  503 -0.00000000000E+00 -0.00000000000E+00 -0.20329220293E+04  0.20329220293E+04  0.00000000000E+00 0.  1.
         -6    2    1    2    0  503  0.13069475971E+03 -0.35952804051E+02 -0.19707482604E+04  0.19828927691E+04  0.17216650028E+03 0.  0.
        -24    2    3    3    0    0  0.14067949931E+03  0.17922258050E+02 -0.15130070614E+04  0.15218598934E+04  0.82190256268E+02 0.  0.
          6    2    1    2  501    0 -0.13069475971E+03  0.35952804051E+02  0.15826081861E+03  0.27046384772E+03  0.17242529362E+03 0.  0.
         24    2    5    5    0    0 -0.15292957491E+03  0.19325937646E+02  0.89644679537E+02  0.19629441847E+03  0.82063289034E+02 0.  0.
          5    1    5    5  501    0  0.22234815195E+02  0.16626866405E+02  0.68616139077E+02  0.74169429248E+02  0.47000000000E+01 0. -1.
        -13    1    6    6    0    0 -0.69598498205E+02  0.50120913725E+02  0.45608861252E+02  0.97140234556E+02  0.00000000000E+00 0.  1.
         14    1    6    6    0    0 -0.83331076703E+02 -0.30794976079E+02  0.44035818285E+02  0.99154183917E+02  0.00000000000E+00 0. -1.
         -5    1    3    3    0  503 -0.99847396004E+01 -0.53875062101E+02 -0.45774119895E+03  0.46103287578E+03  0.47000000000E+01 0.  1.
         13    1    4    4    0    0  0.35816971676E+02  0.34881857321E+02 -0.29279328972E+03  0.29703115987E+03  0.00000000000E+00 0. -1.
        -14    1    4    4    0    0  0.10486252764E+03 -0.16959599271E+02 -0.12202137717E+04  0.12248287335E+04  0.00000000000E+00 0.  1.
</event>
<event>
12    1  0.1040325E-001  0.2048418E+03  0.7818608E-02  0.1147178E+00
         21   -1    0    0  503  502  0.00000000000E+00  0.00000000000E+00  0.96037533774E+03  0.96037533774E+03  0.00000000000E+00 0.  1.
         21   -1    0    0  501  503 -0.00000000000E+00 -0.00000000000E+00 -0.70802987665E+02  0.70802987665E+02  0.00000000000E+00 0.  1.
          6    2    1    2  501    0  0.10904866475E+03 -0.68577360643E+01  0.12177652964E+03  0.23830584863E+03  0.17326717661E+03 0.  0.
         24    2    3    3    0    0  0.60482936600E+02 -0.98035818902E+01 -0.56472391491E+01  0.10182795734E+03  0.81134121970E+02 0.  0.
         -6    2    1    2    0  502 -0.10904866475E+03  0.68577360643E+01  0.76779582044E+03  0.79287247678E+03  0.16491726024E+03 0.  0.
        -24    2    5    5    0    0 -0.10245022341E+03 -0.43657031832E+02  0.65783371112E+03  0.67159165930E+03  0.76734481467E+02 0.  0.
          5    1    3    3  501    0  0.48565728151E+02  0.29458458258E+01  0.12742376879E+03  0.13647789129E+03  0.47000000000E+01 0. -1.
        -11    1    4    4    0    0  0.58595558874E+02  0.25675098625E+02 -0.13638569889E+02  0.65411472983E+02  0.00000000000E+00 0.  1.
         12    1    4    4    0    0  0.18873777259E+01 -0.35478680515E+02  0.79913307398E+01  0.36416484355E+02  0.00000000000E+00 0. -1.
         -5    1    5    5    0  502 -0.65984413391E+01  0.50514767896E+02  0.10996210932E+03  0.12128081748E+03  0.47000000000E+01 0.  1.
         11    1    6    6    0    0 -0.33537260279E+02  0.21894777362E+02  0.18461159618E+03  0.18890624803E+03  0.00000000000E+00 0. -1.
        -12    1    6    6    0    0 -0.68912963133E+02 -0.65551809194E+02  0.47322211494E+03  0.48268541126E+03  0.00000000000E+00 0.  1.
</event>
<event>
12    1  0.1040325E-001  0.3824646E+03  0.7818608E-02  0.1050033E+00
         21   -1    0    0  503  502  0.00000000000E+00  0.00000000000E+00  0.34185747112E+03  0.34185747112E+03  0.00000000000E+00 0. -1.
         21   -1    0    0  501  503 -0.00000000000E+00 -0.00000000000E+00 -0.20980684845E+04  0.20980684845E+04  0.00000000000E+00 0.  1.
          6    2    1    2  501    0  0.30813659618E+03 -0.14686851042E+03 -0.19666176288E+04  0.20034630211E+04  0.17251277458E+03 0.  0.
         24    2    3    3    0    0  0.28842369953E+03 -0.13067906911E+03 -0.19323578676E+04  0.19604918965E+04  0.96209657773E+02 0.  0.
         -6    2    1    2    0  502 -0.30813659618E+03  0.14686851042E+03  0.21040661551E+03  0.43646293452E+03  0.17236713172E+03 0.  0.
        -24    2    5    5    0    0 -0.85889014016E+02  0.64977413988E+02  0.13002681759E+03  0.18629670705E+03  0.78743270868E+02 0.  0.
          5    1    3    3  501    0  0.19712896653E+02 -0.16189441314E+02 -0.34259761263E+02  0.42971124564E+02  0.47000000000E+01 0. -1.
        -13    1    4    4    0    0  0.19962243777E+03 -0.13050246046E+03 -0.12690265281E+04  0.12912429434E+04  0.00000000000E+00 0.  1.
         14    1    4    4    0    0  0.88801261752E+02 -0.17660864730E+00 -0.66333133945E+03  0.66924895307E+03  0.00000000000E+00 0. -1.
         -5    1    5    5    0  502 -0.22224758216E+03  0.81891096436E+02  0.80379797920E+02  0.25016622747E+03  0.47000000000E+01 0.  1.
         13    1    6    6    0    0 -0.98055352203E+01  0.55911011119E+02  0.57246883951E+02  0.80618827872E+02  0.00000000000E+00 0. -1.
        -14    1    6    6    0    0 -0.76083478795E+02  0.90664028686E+01  0.72779933641E+02  0.10567787918E+03  0.00000000000E+00 0.  1.
</event>
<event>
12    1  0.1040325E-001  0.2112574E+03  0.7818608E-02  0.1140743E+00
         21   -1    0    0  503  502  0.00000000000E+00  0.00000000000E+00  0.13013696589E+03  0.13013696589E+03  0.00000000000E+00 0.  1.
         21   -1    0    0  501  503 -0.00000000000E+00 -0.00000000000E+00 -0.34401110486E+03  0.34401110486E+03  0.00000000000E+00 0.  1.
          6    2    1    2  501    0 -0.92572609740E+02 -0.80814825348E+02 -0.87124918341E+02  0.22851796633E+03  0.17183999963E+03 0.  0.
         24    2    3    3    0    0 -0.13111986552E+03 -0.72169353800E+02 -0.73200716246E+02  0.18636813228E+03  0.83509886290E+02 0.  0.
         -6    2    1    2    0  502  0.92572609740E+02  0.80814825348E+02 -0.12674922064E+03  0.24563010442E+03  0.17078658962E+03 0.  0.
        -24    2    5    5    0    0  0.19221532306E+02  0.99053799984E+02 -0.96686790931E+02  0.16415077921E+03  0.86116317728E+02 0.  0.
          5    1    3    3  501    0  0.38547255783E+02 -0.86454715474E+01 -0.13924202095E+02  0.42149834053E+02  0.47000000000E+01 0. -1.
        -11    1    4    4    0    0 -0.29722727901E+02 -0.51034921172E+02 -0.55972038686E+02  0.81368746135E+02  0.00000000000E+00 0.  1.
         12    1    4    4    0    0 -0.10139713762E+03 -0.21134432628E+02 -0.17228677560E+02  0.10499938615E+03  0.00000000000E+00 0. -1.
         -5    1    5    5    0  502  0.73351077434E+02 -0.18238974636E+02 -0.30062429707E+02  0.81479325208E+02  0.47000000000E+01 0.  1.
         13    1    6    6    0    0 -0.29431973657E+01  0.18157493132E+01  0.14431306615E+02  0.14839877591E+02  0.00000000000E+00 0. -1.
        -14    1    6    6    0    0  0.22164729672E+02  0.97238050670E+02 -0.11111809755E+03  0.14931090162E+03  0.00000000000E+00 0.  1.
</event>
<event>
12    1  0.1040325E-001  0.1870142E+03  0.7818608E-02  0.1161500E+00
         21   -1    0    0  501  502  0.00000000000E+00  0.00000000000E+00  0.82876302936E+03  0.82876302936E+03  0.00000000000E+00 0. -1.
         21   -1    0    0  502  503 -0.00000000000E+00 -0.00000000000E+00 -0.53997544578E+02  0.53997544578E+02  0.00000000000E+00 0. -1.
         -6    2    1    2    0  503 -0.17457591250E+02 -0.67067613999E+02  0.17949890178E+03  0.25921841144E+03  0.17369944372E+03 0.  0.
        -24    2    3    3    0    0 -0.32701087620E+02  0.37225956969E+01  0.16274355885E+03  0.18474392260E+03  0.81003902018E+02 0.  0.
          6    2    1    2  501    0  0.17457591250E+02  0.67067613999E+02  0.59526658300E+03  0.62354216250E+03  0.17221989211E+03 0.  0.
         24    2    5    5    0    0  0.55383617012E+02  0.35179709637E+02  0.20546065161E+03  0.23057145618E+03  0.81511717218E+02 0.  0.
          5    1    5    5  501    0 -0.37926025762E+02  0.31887904362E+02  0.38980593139E+03  0.39297070631E+03  0.47000000000E+01 0. -1.
        -11    1    6    6    0    0  0.26867430011E+02  0.35343848424E+02  0.31862567168E+02  0.54646771207E+02  0.00000000000E+00 0.  1.
         12    1    6    6    0    0  0.28516187000E+02 -0.16413878706E+00  0.17359808444E+03  0.17592468498E+03  0.00000000000E+00 0. -1.
         -5    1    3    3    0  503  0.15243496370E+02 -0.70790209696E+02  0.16755342936E+02  0.74474488835E+02  0.47000000000E+01 0.  1.
         13    1    4    4    0    0 -0.30857465068E+02  0.37821232513E+02  0.65563039203E+02  0.81738246181E+02  0.00000000000E+00 0. -1.
        -14    1    4    4    0    0 -0.18436225519E+01 -0.34098636816E+02  0.97180519642E+02  0.10300567642E+03  0.00000000000E+00 0.  1.
</event>
<event>
12    1  0.1040325E-001  0.1880081E+03  0.7818608E-02  0.1160826E+00
         21   -1    0    0  501  502  0.00000000000E+00  0.00000000000E+00  0.13399880531E+04  0.13399880531E+04  0.00000000000E+00 0.  1.
         21   -1    0    0  502  503 -0.00000000000E+00 -0.00000000000E+00 -0.26042548309E+02  0.26042548309E+02  0.00000000000E+00 0.  1.
         -6    2    1    2    0  503 -0.74025121056E+02  0.15765070092E+02  0.66658636013E+03  0.69259254355E+03  0.17210113272E+03 0.  0.
        -24    2    3    3    0    0 -0.70515248206E+02 -0.28699149003E+02  0.61192623427E+03  0.62188748471E+03  0.80587133333E+02 0.  0.
          6    2    1    2  501    0  0.74025121056E+02 -0.15765070092E+02  0.64735914465E+03  0.67343805785E+03  0.16946002366E+03 0.  0.
         24    2    5    5    0    0  0.77965887089E+02  0.28812790654E+02  0.58679385659E+03  0.59798635526E+03  0.79698146108E+02 0.  0.
          5    1    5    5  501    0 -0.39407660330E+01 -0.44577860746E+02  0.60565288057E+02  0.75451702586E+02  0.47000000000E+01 0. -1.
        -11    1    6    6    0    0  0.15089028503E+02 -0.26624733313E+02  0.18836510059E+03  0.19083491904E+03  0.00000000000E+00 0.  1.
         12    1    6    6    0    0  0.62876858586E+02  0.55437523966E+02  0.39842875601E+03  0.40715143623E+03  0.00000000000E+00 0. -1.
         -5    1    3    3    0  503 -0.35098728501E+01  0.44464219095E+02  0.54660125855E+02  0.70705058840E+02  0.47000000000E+01 0.  1.
         13    1    4    4    0    0 -0.30042432686E+02  0.16944792409E+02  0.39629614867E+03  0.39779430766E+03  0.00000000000E+00 0. -1.
        -14    1    4    4    0    0 -0.40472815520E+02 -0.45643941412E+02  0.21563008560E+03  0.22409317705E+03  0.00000000000E+00 0.  1.
</event>
<event>
12    1  0.1040325E-001  0.2330475E+03  0.7818608E-02  0.1125055E+00
         21   -1    0    0  501  502  0.00000000000E+00  0.00000000000E+00  0.20549419870E+03  0.20549419870E+03  0.00000000000E+00 0.  1.
         21   -1    0    0  502  503 -0.00000000000E+00 -0.00000000000E+00 -0.26078252334E+03  0.26078252334E+03  0.00000000000E+00 0. -1.
         -6    2    1    2    0  503 -0.98574423841E+02 -0.11891799214E+03 -0.28670745389E+02  0.23480444573E+03  0.17450704915E+03 0.  0.
        -24    2    3    3    0    0 -0.92985582609E+02 -0.74637491928E+02 -0.81270694220E+02  0.16566080927E+03  0.81372625714E+02 0.  0.
          6    2    1    2  501    0  0.98574423841E+02  0.11891799214E+03 -0.26617579246E+02  0.23147227632E+03  0.17033059998E+03 0.  0.
         24    2    5    5    0    0  0.30370122826E+02  0.86179038295E+02 -0.74140980535E+02  0.14200591702E+03  0.79496065763E+02 0.  0.
          5    1    5    5  501    0  0.68204301015E+02  0.32738953843E+02  0.47523401288E+02  0.89466359296E+02  0.47000000000E+01 0. -1.
        -11    1    6    6    0    0  0.30349238247E+02  0.15299354527E+02  0.65416218216E+01  0.34611260121E+02  0.00000000000E+00 0.  1.
         12    1    6    6    0    0  0.20884578801E-01  0.70879683768E+02 -0.80682602356E+02  0.10739465690E+03  0.00000000000E+00 0. -1.
         -5    1    3    3    0  503 -0.55888412323E+01 -0.44280500210E+02  0.52599948832E+02  0.69143636455E+02  0.47000000000E+01 0.  1.
         13    1    4    4    0    0 -0.77352854058E+01  0.16747865965E+02 -0.17184486771E+02  0.25211748060E+02  0.00000000000E+00 0. -1.
        -14    1    4    4    0    0 -0.85250297203E+02 -0.91385357892E+02 -0.64086207450E+02  0.14044906121E+03  0.00000000000E+00 0.  1.
</event>
<event>
12    1  0.1040325E-001  0.2916023E+03  0.7818608E-02  0.1090620E+00
         21   -1    0    0  503  502  0.00000000000E+00  0.00000000000E+00  0.74002876519E+02  0.74002876519E+02  0.00000000000E+00 0.  1.
         21   -1    0    0  501  503 -0.00000000000E+00 -0.00000000000E+00 -0.24440226382E+04  0.24440226382E+04  0.00000000000E+00 0. -1.
          6    2    1    2  501    0  0.11377266339E+03 -0.20801406814E+03 -0.21050587604E+04  0.21240252324E+04  0.15490878497E+03 0.  0.
         24    2    3    3    0    0  0.10529126446E+03 -0.11080819054E+03 -0.10285089182E+04  0.10430522589E+04  0.82235724912E+02 0.  0.
         -6    2    1    2    0  502 -0.11377266339E+03  0.20801406814E+03 -0.26496100128E+03  0.39400028232E+03  0.16975811847E+03 0.  0.
        -24    2    5    5    0    0 -0.22901498894E+01  0.55021159780E+02 -0.48782090512E+02  0.10661449233E+03  0.77164660371E+02 0.  0.
          5    1    3    3  501    0  0.84813989320E+01 -0.97205877605E+02 -0.10765498422E+04  0.10809729735E+04  0.47000000000E+01 0. -1.
        -13    1    4    4    0    0  0.19134233231E+02 -0.92093135263E+01 -0.37210643677E+02  0.42843463209E+02  0.00000000000E+00 0.  1.
         14    1    4    4    0    0  0.86157031227E+02 -0.10159887701E+03 -0.99129827455E+03  0.10002087957E+04  0.00000000000E+00 0. -1.
         -5    1    5    5    0  502 -0.11148251350E+03  0.15299290836E+03 -0.21617891077E+03  0.28738578999E+03  0.47000000000E+01 0.  1.
         11    1    6    6    0    0 -0.93042402747E+01 -0.11226499854E+02  0.10073034283E+02  0.17721997791E+02  0.00000000000E+00 0. -1.
        -12    1    6    6    0    0  0.70140903853E+01  0.66247659633E+02 -0.58855124795E+02  0.88892494540E+02  0.00000000000E+00 0.  1.
</event>
<event>
12    1  0.1040325E-001  0.2001756E+03  0.7818608E-02  0.1149897E+00
         21   -1    0    0  501  502  0.00000000000E+00  0.00000000000E+00  0.89406570969E+02  0.89406570969E+02  0.00000000000E+00 0. -1.
         21   -1    0    0  502  503 -0.00000000000E+00 -0.00000000000E+00 -0.46314012513E+03  0.46314012513E+03  0.00000000000E+00 0. -1.
         -6    2    1    2    0  503  0.14273972695E+02  0.98296719511E+02 -0.24096586730E+03  0.31234359416E+03  0.17212780207E+03 0.  0.
        -24    2    3    3    0    0  0.28031897584E+02  0.66057166165E+02 -0.25285712516E+03  0.27503191622E+03  0.80972172457E+02 0.  0.
          6    2    1    2  501    0 -0.14273972695E+02 -0.98296719511E+02 -0.13276768687E+03  0.24020310194E+03  0.17379378626E+03 0.  0.
         24    2    5    5    0    0  0.93816414685E+01 -0.67446888735E+02 -0.16058625079E+03  0.19216912814E+03  0.80646958235E+02 0.  0.
          5    1    5    5  501    0 -0.23655614163E+02 -0.30849830776E+02  0.27818563921E+02  0.48033973799E+02  0.47000000000E+01 0. -1.
        -13    1    6    6    0    0  0.30566131133E+02  0.33705316287E+01 -0.59038841545E+02  0.66567512097E+02  0.00000000000E+00 0.  1.
         14    1    6    6    0    0 -0.21184489664E+02 -0.70817420364E+02 -0.10154740924E+03  0.12560161605E+03  0.00000000000E+00 0. -1.
         -5    1    3    3    0  503 -0.13757924890E+02  0.32239553346E+02  0.11891257860E+02  0.37311677941E+02  0.47000000000E+01 0.  1.
         11    1    4    4    0    0 -0.13868708632E+02  0.36588947536E+02 -0.18979312726E+03  0.19378473447E+03  0.00000000000E+00 0. -1.
        -12    1    4    4    0    0  0.41900606216E+02  0.29468218628E+02 -0.63063997898E+02  0.81247181744E+02  0.00000000000E+00 0.  1.
</event>
<event>
12    1  0.1040325E-001  0.1889764E+03  0.7818608E-02  0.1159867E+00
         21   -1    0    0  503  502  0.00000000000E+00  0.00000000000E+00  0.38506061714E+02  0.38506061714E+02  0.00000000000E+00 0. -1.
         21   -1    0    0  501  503 -0.00000000000E+00 -0.00000000000E+00 -0.94423716330E+03  0.94423716330E+03  0.00000000000E+00 0. -1.
          6    2    1    2  501    0  0.73269754914E+02  0.10961871191E+02 -0.53359973136E+03  0.56537787363E+03  0.17156586803E+03 0.  0.
         24    2    3    3    0    0 -0.93809421093E+01 -0.39556909656E+02 -0.20752625782E+03  0.22518780163E+03  0.77392810662E+02 0.  0.
         -6    2    1    2    0  502 -0.73269754914E+02 -0.10961871191E+02 -0.37213137023E+03  0.41736535139E+03  0.17384895809E+03 0.  0.
        -24    2    5    5    0    0 -0.46720724115E+02 -0.75202498863E+02 -0.25707950456E+03  0.28286356303E+03  0.77997959750E+02 0.  0.
          5    1    3    3  501    0  0.82650697024E+02  0.50518780847E+02 -0.32607347354E+03  0.34019007200E+03  0.47000000000E+01 0. -1.
        -11    1    4    4    0    0  0.10289745052E+02  0.19734120799E+02 -0.82142484863E+02  0.85104066862E+02  0.00000000000E+00 0.  1.
         12    1    4    4    0    0 -0.19670687161E+02 -0.59291030455E+02 -0.12538377295E+03  0.14008373476E+03  0.00000000000E+00 0. -1.
         -5    1    5    5    0  502 -0.26549030800E+02  0.64240627671E+02 -0.11505186567E+03  0.13450178837E+03  0.47000000000E+01 0.  1.
         13    1    6    6    0    0 -0.97647111312E+01  0.13644771761E+02 -0.75720986696E+02  0.77557702429E+02  0.00000000000E+00 0. -1.
        -14    1    6    6    0    0 -0.36956012983E+02 -0.88847270624E+02 -0.18135851787E+03  0.20530586060E+03  0.00000000000E+00 0.  1.
</event>
<event>
12    1  0.1040325E-001  0.2081385E+03  0.7818608E-02  0.1143129E+00
         21   -1    0    0  503  502  0.00000000000E+00  0.00000000000E+00  0.47642505592E+02  0.47642505592E+02  0.00000000000E+00 0. -1.
         21   -1    0    0  501  503 -0.00000000000E+00 -0.00000000000E+00 -0.10319660562E+04  0.10319660562E+04  0.00000000000E+00 0. -1.
          6    2    1    2  501    0 -0.11568342786E+03  0.15135668450E+02 -0.30514721315E+03  0.36937306613E+03  0.17236558922E+03 0.  0.
         24    2    3    3    0    0 -0.78865370175E+02  0.73244040715E+02 -0.15938522446E+03  0.20812543158E+03  0.79549414728E+02 0.  0.
         -6    2    1    2    0  502  0.11568342786E+03 -0.15135668450E+02 -0.67917633743E+03  0.71023549564E+03  0.17187849777E+03 0.  0.
        -24    2    5    5    0    0  0.13768219366E+03 -0.16653450400E+02 -0.42236251745E+03  0.45243387134E+03  0.84098679674E+02 0.  0.
          5    1    3    3  501    0 -0.36818057682E+02 -0.58108372265E+02 -0.14576198870E+03  0.16124763455E+03  0.47000000000E+01 0. -1.
        -11    1    4    4    0    0  0.76866190271E+01  0.33407447361E+01 -0.54777398895E+02  0.55414872707E+02  0.00000000000E+00 0.  1.
         12    1    4    4    0    0 -0.86551989203E+02  0.69903295979E+02 -0.10460782556E+03  0.15271055888E+03  0.00000000000E+00 0. -1.
         -5    1    5    5    0  502 -0.21998765803E+02  0.15177819500E+01 -0.25681381998E+03  0.25780162430E+03  0.47000000000E+01 0.  1.
         13    1    6    6    0    0  0.36008620801E+02  0.12797905100E+01 -0.30525383810E+02  0.47223486662E+02  0.00000000000E+00 0. -1.
        -14    1    6    6    0    0  0.10167357286E+03 -0.17933240910E+02 -0.39183713364E+03  0.40521038468E+03  0.00000000000E+00 0.  1.
</event>
<event>
12    1  0.1040325E-001  0.2153826E+03  0.7818608E-02  0.1137436E+00
         21   -1    0    0  501  502  0.00000000000E+00  0.00000000000E+00  0.34091796666E+03  0.34091796666E+03  0.00000000000E+00 0.  1.
         21   -1    0    0  502  503 -0.00000000000E+00 -0.00000000000E+00 -0.27977819895E+03  0.27977819895E+03  0.00000000000E+00 0.  1.
         -6    2    1    2    0  503  0.10975443960E+03  0.69121141388E+02 -0.19202544624E+03  0.28830743245E+03  0.17153318747E+03 0.  0.
        -24    2    3    3    0    0  0.23512718569E+02  0.55098073299E+02 -0.31031617047E+02  0.10507156281E+03  0.80550769327E+02 0.  0.
          6    2    1    2  501    0 -0.10975443960E+03 -0.69121141388E+02  0.25316521394E+03  0.33238873316E+03  0.17194730351E+03 0.  0.
         24    2    5    5    0    0 -0.81544197155E+02  0.27299894049E+02  0.15097304698E+03  0.18900755294E+03  0.74406006806E+02 0.  0.
          5    1    5    5  501    0 -0.28210242445E+02 -0.96421035436E+02  0.10219216697E+03  0.14338118022E+03  0.47000000000E+01 0. -1.
        -11    1    6    6    0    0 -0.74303140030E+02 -0.10548776517E+02  0.95398631120E+02  0.12138011420E+03  0.00000000000E+00 0.  1.
         12    1    6    6    0    0 -0.72410571254E+01  0.37848670566E+02  0.55574415858E+02  0.67627438735E+02  0.00000000000E+00 0. -1.
         -5    1    3    3    0  503  0.86241721031E+02  0.14023068088E+02 -0.16099382919E+03  0.18323586964E+03  0.47000000000E+01 0.  1.
         13    1    4    4    0    0  0.48952308207E+02  0.29970155498E+02 -0.37735315753E+02  0.68691285870E+02  0.00000000000E+00 0. -1.
        -14    1    4    4    0    0 -0.25439589638E+02  0.25127917801E+02  0.67036987067E+01  0.36380276942E+02  0.00000000000E+00 0.  1.
</event>
<event>
12    1  0.1040325E-001  0.2097707E+03  0.7818608E-02  0.1143514E+00
         21   -1    0    0  503  502  0.00000000000E+00  0.00000000000E+00  0.79820640243E+03  0.79820640243E+03  0.00000000000E+00 0. -1.
         21   -1    0    0  501  503 -0.00000000000E+00 -0.00000000000E+00 -0.79624871405E+02  0.79624871405E+02  0.00000000000E+00 0.  1.
          6    2    1    2  501    0  0.10753264791E+03 -0.53619291687E+02  0.10993015788E+03  0.23682982384E+03  0.17194600035E+03 0.  0.
         24    2    3    3    0    0  0.87527299019E+02 -0.71790501942E+02  0.13881137886E+03  0.19699740247E+03  0.82002886772E+02 0.  0.
         -6    2    1    2    0  502 -0.10753264791E+03  0.53619291687E+02  0.60865137314E+03  0.64100145000E+03  0.16120814516E+03 0.  0.
        -24    2    5    5    0    0 -0.37979873706E+02  0.39538237022E+02  0.51419172343E+03  0.52276194762E+03  0.76688867757E+02 0.  0.
          5    1    3    3  501    0  0.20005348894E+02  0.18171210254E+02 -0.28881220974E+02  0.39832421360E+02  0.47000000000E+01 0. -1.
        -13    1    4    4    0    0  0.13697394819E+02 -0.28881777942E+02 -0.23127949319E+01  0.32048786909E+02  0.00000000000E+00 0.  1.
         14    1    4    4    0    0  0.73829904200E+02 -0.42908723999E+02  0.14112417379E+03  0.16494861557E+03  0.00000000000E+00 0. -1.
         -5    1    5    5    0  502 -0.69552774207E+02  0.14081054665E+02  0.94459649710E+02  0.11823950238E+03  0.47000000000E+01 0.  1.
         11    1    6    6    0    0  0.21740123126E+02 -0.14285732880E+01  0.12714416355E+03  0.12899733370E+03  0.00000000000E+00 0. -1.
        -12    1    6    6    0    0 -0.59719996832E+02  0.40966810310E+02  0.38704755988E+03  0.39376461392E+03  0.00000000000E+00 0.  1.
</event>
<event>
12    1  0.1040325E-001  0.1807820E+03  0.7818608E-02  0.1167055E+00
         21   -1    0    0  503  502  0.00000000000E+00  0.00000000000E+00  0.20278735201E+04  0.20278735201E+04  0.00000000000E+00 0. -1.
         21   -1    0    0  501  503 -0.00000000000E+00 -0.00000000000E+00 -0.21372302771E+02  0.21372302771E+02  0.00000000000E+00 0. -1.
          6    2    1    2  501    0 -0.22456712981E+02  0.50760998256E+02  0.49507279126E+03  0.52704762175E+03  0.17204983012E+03 0.  0.
         24    2    3    3    0    0 -0.33010644801E+02 -0.33595526056E+02  0.30503251072E+03  0.31880543847E+03  0.79835536940E+02 0.  0.
         -6    2    1    2    0  502  0.22456712981E+02 -0.50760998256E+02  0.15114284261E+04  0.15221982011E+04  0.17201887531E+03 0.  0.
        -24    2    5    5    0    0  0.50002250500E+02 -0.45670662650E+01  0.13203381941E+04  0.13236278037E+04  0.78590919934E+02 0.  0.
          5    1    3    3  501    0  0.10553931821E+02  0.84356524311E+02  0.19004028053E+03  0.20824218327E+03  0.47000000000E+01 0. -1.
        -13    1    4    4    0    0  0.22394018952E+02 -0.16278671152E+02  0.49051374309E+02  0.56325167917E+02  0.00000000000E+00 0.  1.
         14    1    4    4    0    0 -0.55404663753E+02 -0.17316854903E+02  0.25598113642E+03  0.26248027055E+03  0.00000000000E+00 0. -1.
         -5    1    5    5    0  502 -0.27545537519E+02 -0.46193931991E+02  0.19109023195E+03  0.19857039743E+03  0.47000000000E+01 0.  1.
         11    1    6    6    0    0  0.14485290072E+02  0.36041557442E+02  0.61914340326E+03  0.62036067839E+03  0.00000000000E+00 0. -1.
        -12    1    6    6    0    0  0.35516960428E+02 -0.40608623707E+02  0.70119479087E+03  0.70326712531E+03  0.00000000000E+00 0.  1.
</event>
<event>
12    1  0.1040325E-001  0.2419869E+03  0.7818608E-02  0.1118479E+00
         21   -1    0    0  503  502  0.00000000000E+00  0.00000000000E+00  0.61682870535E+03  0.61682870535E+03  0.00000000000E+00 0.  1.
         21   -1    0    0  501  503 -0.00000000000E+00 -0.00000000000E+00 -0.17923159652E+03  0.17923159652E+03  0.00000000000E+00 0. -1.
          6    2    1    2  501    0  0.41226910535E+02 -0.16524862333E+03 -0.54187579457E+02  0.24796373499E+03  0.17188064010E+03 0.  0.
         24    2    3    3    0    0  0.19845327745E+02 -0.16728660704E+02 -0.11416553520E+02  0.91865041724E+02  0.87379420199E+02 0.  0.
         -6    2    1    2    0  502 -0.41226910535E+02  0.16524862333E+03  0.49178468828E+03  0.54809656688E+03  0.17190375600E+03 0.  0.
        -24    2    5    5    0    0  0.33173381662E+02  0.13812934510E+03  0.31785117033E+03  0.35692696313E+03  0.78659400567E+02 0.  0.
          5    1    3    3  501    0  0.21381582791E+02 -0.14851996262E+03 -0.42771025937E+02  0.15609869327E+03  0.47000000000E+01 0. -1.
        -13    1    4    4    0    0  0.48987938844E+02  0.10897358733E+02 -0.25168246059E+00  0.50185993301E+02  0.00000000000E+00 0.  1.
         14    1    4    4    0    0 -0.29142611100E+02 -0.27626019436E+02 -0.11164871060E+02  0.41679048422E+02  0.00000000000E+00 0. -1.
         -5    1    5    5    0  502 -0.74400292198E+02  0.27119278228E+02  0.17393351795E+03  0.19116960375E+03  0.47000000000E+01 0.  1.
         11    1    6    6    0    0  0.58402935478E+02  0.80789588999E+02  0.19098956878E+03  0.21544111944E+03  0.00000000000E+00 0. -1.
        -12    1    6    6    0    0 -0.25229553816E+02  0.57339756100E+02  0.12686160156E+03  0.14148584369E+03  0.00000000000E+00 0.  1.
</event>
<event>
12    1  0.1040325E-001  0.2358937E+03  0.7818608E-02  0.1122591E+00
         21   -1    0    0  501  502  0.00000000000E+00  0.00000000000E+00  0.66664699972E+02  0.66664699972E+02  0.00000000000E+00 0. -1.
         21   -1    0    0  502  503 -0.00000000000E+00 -0.00000000000E+00 -0.83472736887E+03  0.83472736887E+03  0.00000000000E+00 0. -1.
         -6    2    1    2    0  503  0.90396613511E+02  0.13408435751E+03 -0.39673166712E+03  0.46146874243E+03  0.17148534013E+03 0.  0.
        -24    2    3    3    0    0 -0.17258459071E+02  0.59789449770E+02 -0.12835011368E+03  0.16287186335E+03  0.78618442341E+02 0.  0.
          6    2    1    2  501    0 -0.90396613511E+02 -0.13408435751E+03 -0.37133100178E+03  0.43992332642E+03  0.17174299864E+03 0.  0.
         24    2    5    5    0    0 -0.11119240109E+03 -0.44017586537E+02 -0.22442174935E+03  0.26628892181E+03  0.79015000558E+02 0.  0.
          5    1    5    5  501    0  0.20795787577E+02 -0.90066770969E+02 -0.14690925243E+03  0.17363440461E+03  0.47000000000E+01 0. -1.
        -11    1    6    6    0    0 -0.94686033752E+02 -0.58897573392E+02 -0.21490709917E+03  0.24211449856E+03  0.00000000000E+00 0.  1.
         12    1    6    6    0    0 -0.16506367336E+02  0.14879986856E+02 -0.95146501811E+01  0.24174423251E+02  0.00000000000E+00 0. -1.
         -5    1    3    3    0  503  0.10765507258E+03  0.74294907736E+02 -0.26838155344E+03  0.29859687908E+03  0.47000000000E+01 0.  1.
         13    1    4    4    0    0 -0.39111634188E+02  0.43362210423E+02 -0.12132193982E+03  0.13464402810E+03  0.00000000000E+00 0. -1.
        -14    1    4    4    0    0  0.21853175116E+02  0.16427239347E+02 -0.70281738657E+01  0.28227835254E+02  0.00000000000E+00 0.  1.
</event>
<event>
12    1  0.1040325E-001  0.2375511E+03  0.7818608E-02  0.1121511E+00
         21   -1    0    0  503  502  0.00000000000E+00  0.00000000000E+00  0.49341276755E+03  0.49341276755E+03  0.00000000000E+00 0. -1.
         21   -1    0    0  501  503 -0.00000000000E+00 -0.00000000000E+00 -0.11568235582E+03  0.11568235582E+03  0.00000000000E+00 0. -1.
          6    2    1    2  501    0  0.14979531230E+03 -0.65924653294E+02  0.22371985997E+03  0.32598778370E+03  0.17155979679E+03 0.  0.
         24    2    3    3    0    0  0.12805039847E+03 -0.46616915687E+02  0.24343665646E+03  0.29054103387E+03  0.81133502810E+02 0.  0.
         -6    2    1    2    0  502 -0.14979531230E+03  0.65924653294E+02  0.15401055175E+03  0.28310733968E+03  0.17217961618E+03 0.  0.
        -24    2    5    5    0    0 -0.27587718374E+02 -0.18540862643E+02  0.39391380385E+02  0.95414069044E+02  0.80295192448E+02 0.  0.
          5    1    3    3  501    0  0.21744913828E+02 -0.19307737607E+02 -0.19716796493E+02  0.35446749821E+02  0.47000000000E+01 0. -1.
        -11    1    4    4    0    0  0.11931232036E+02 -0.38840941826E+02  0.82161965879E+02  0.91660033258E+02  0.00000000000E+00 0.  1.
         12    1    4    4    0    0  0.11611916643E+03 -0.77759738605E+01  0.16127469058E+03  0.19888100062E+03  0.00000000000E+00 0. -1.
         -5    1    5    5    0  502 -0.12220759392E+03  0.84465515936E+02  0.11461917137E+03  0.18769327063E+03  0.47000000000E+01 0.  1.
         11    1    6    6    0    0 -0.36416791136E+02  0.23895197983E+02  0.19424190158E+02  0.47691323389E+02  0.00000000000E+00 0. -1.
        -12    1    6    6    0    0  0.88290727620E+01 -0.42436060626E+02  0.19967190227E+02  0.47722745655E+02  0.00000000000E+00 0.  1.
</event>
<event>
12    1  0.1040325E-001  0.2106879E+03  0.7818608E-02  0.1141259E+00
         21   -1    0    0  501  502  0.00000000000E+00  0.00000000000E+00  0.15540323542E+03  0.15540323542E+03  0.00000000000E+00 0. -1.
         21   -1    0    0  502  503 -0.00000000000E+00 -0.00000000000E+00 -0.33146854090E+03  0.33146854090E+03  0.00000000000E+00 0.  1.
         -6    2    1    2    0  503  0.66227916382E+02  0.10137094215E+03 -0.18035350853E+03  0.27733873231E+03  0.17241571732E+03 0.  0.
        -24    2    3    3    0    0  0.89082827999E+02  0.99802884801E+02 -0.82333293984E+02  0.17656741571E+03  0.80628251470E+02 0.  0.
          6    2    1    2  501    0 -0.66227916382E+02 -0.10137094215E+03  0.42882030469E+01  0.20953304401E+03  0.17094883160E+03 0.  0.
         24    2    5    5    0    0  0.23326726411E+02 -0.28468034514E+02 -0.22577818685E+02  0.90879172975E+02  0.79966874579E+02 0.  0.
          5    1    5    5  501    0 -0.89554642793E+02 -0.72902907636E+02  0.26866021732E+02  0.11865387103E+03  0.47000000000E+01 0. -1.
        -13    1    6    6    0    0  0.21757147020E+02 -0.50483416199E+02 -0.35370666252E+02  0.65368438782E+02  0.00000000000E+00 0.  1.
         14    1    6    6    0    0  0.15695793912E+01  0.22015381685E+02  0.12792847567E+02  0.25510734193E+02  0.00000000000E+00 0. -1.
         -5    1    3    3    0  503 -0.22854911618E+02  0.15680573492E+01 -0.98020214548E+02  0.10077131660E+03  0.47000000000E+01 0.  1.
         13    1    4    4    0    0  0.60091678735E+02  0.10032171101E+02 -0.22981228256E+02  0.65113678765E+02  0.00000000000E+00 0. -1.
        -14    1    4    4    0    0  0.28991149264E+02  0.89770713700E+02 -0.59352065728E+02  0.11145373695E+03  0.00000000000E+00 0.  1.
</event>
<event>
12    1  0.1040325E-001  0.2111406E+03  0.7818608E-02  0.1140725E+00
         21   -1    0    0  503  502  0.00000000000E+00  0.00000000000E+00  0.19807222191E+03  0.19807222191E+03  0.00000000000E+00 0.  1.
         21   -1    0    0  501  503 -0.00000000000E+00 -0.00000000000E+00 -0.28676060117E+03  0.28676060117E+03  0.00000000000E+00 0. -1.
          6    2    1    2  501    0  0.91780868698E+02  0.79912172220E+02 -0.15709733275E+03  0.26317278058E+03  0.17254175540E+03 0.  0.
         24    2    3    3    0    0  0.89700606109E+02 -0.77633134783E+01 -0.10886195450E+03  0.16297268079E+03  0.81257010607E+02 0.  0.
         -6    2    1    2    0  502 -0.91780868698E+02 -0.79912172220E+02  0.68408953491E+02  0.22166004250E+03  0.17217347762E+03 0.  0.
        -24    2    5    5    0    0 -0.40225041860E+02 -0.11661356090E+03  0.44218484789E+02  0.15374639153E+03  0.80410832183E+02 0.  0.
          5    1    3    3  501    0  0.20802625890E+01  0.87675485698E+02 -0.48235378251E+02  0.10020009980E+03  0.47000000000E+01 0. -1.
        -13    1    4    4    0    0  0.33695710454E+01  0.27885903137E+01  0.12739353322E+02  0.13469274963E+02  0.00000000000E+00 0.  1.
         14    1    4    4    0    0  0.86331035063E+02 -0.10551903792E+02 -0.12160130782E+03  0.14950340582E+03  0.00000000000E+00 0. -1.
         -5    1    5    5    0  502 -0.51555826837E+02  0.36701388682E+02  0.24190468703E+02  0.67913650971E+02  0.47000000000E+01 0.  1.
         11    1    6    6    0    0  0.11824911981E+02  0.30569600733E+01 -0.63811219799E+01  0.13780140274E+02  0.00000000000E+00 0. -1.
        -12    1    6    6    0    0 -0.52049953841E+02 -0.11967052098E+03  0.50599606768E+02  0.13996625126E+03  0.00000000000E+00 0.  1.
</event>
<event>
12    1  0.1040325E-001  0.2000087E+03  0.7818608E-02  0.1150047E+00
         21   -1    0    0  503  502  0.00000000000E+00  0.00000000000E+00  0.31315049758E+03  0.31315049758E+03  0.00000000000E+00 0.  1.
         21   -1    0    0  501  503 -0.00000000000E+00 -0.00000000000E+00 -0.13193838696E+03  0.13193838696E+03  0.00000000000E+00 0.  1.
          6    2    1    2  501    0  0.53066239735E+02 -0.89136487061E+02  0.13486883416E+03  0.24123238442E+03  0.17100327991E+03 0.  0.
         24    2    3    3    0    0  0.47915632898E+02  0.84800804825E+01  0.10200661484E+03  0.13799702968E+03  0.79183401592E+02 0.  0.
         -6    2    1    2    0  502 -0.53066239735E+02  0.89136487061E+02  0.46343276457E+02  0.20385650011E+03  0.16925848351E+03 0.  0.
        -24    2    5    5    0    0 -0.14141127644E+02  0.12235201439E+03  0.40576141559E+02  0.15214784076E+03  0.79577353989E+02 0.  0.
          5    1    3    3  501    0  0.51506068372E+01 -0.97616567543E+02  0.32862219320E+02  0.10323535474E+03  0.47000000000E+01 0. -1.
        -11    1    4    4    0    0  0.86355996793E+01 -0.29653197841E+02  0.64861588761E+02  0.71839483716E+02  0.00000000000E+00 0.  1.
         12    1    4    4    0    0  0.39280033218E+02  0.38133278323E+02  0.37145026081E+02  0.66157545963E+02  0.00000000000E+00 0. -1.
         -5    1    5    5    0  502 -0.38925112090E+02 -0.33215527330E+02  0.57671348977E+01  0.51708659352E+02  0.47000000000E+01 0.  1.
         11    1    6    6    0    0  0.16378842294E+02  0.61879653192E+02  0.53214375831E+02  0.83241382432E+02  0.00000000000E+00 0. -1.
        -12    1    6    6    0    0 -0.30519969939E+02  0.60472361199E+02 -0.12638234272E+02  0.68906458330E+02  0.00000000000E+00 0.  1.
</event>
<event>
12    1  0.1040325E-001  0.2312416E+03  0.7818608E-02  0.1125785E+00
         21   -1    0    0  503  502  0.00000000000E+00  0.00000000000E+00  0.17538637026E+04  0.17538637026E+04  0.00000000000E+00 0.  1.
         21   -1    0    0  501  503 -0.00000000000E+00 -0.00000000000E+00 -0.43537231370E+02  0.43537231370E+02  0.00000000000E+00 0. -1.
          6    2    1    2  501    0  0.15487679486E+03  0.13813122178E+02  0.36305059115E+03  0.43043979016E+03  0.17115798927E+03 0.  0.
         24    2    3    3    0    0  0.14833724594E+03  0.36980674553E+02  0.19340882449E+03  0.25903407212E+03  0.79499486185E+02 0.  0.
         -6    2    1    2    0  502 -0.15487679486E+03 -0.13813122178E+02  0.13472758801E+04  0.13669611438E+04  0.17103463888E+03 0.  0.
        -24    2    5    5    0    0 -0.14698427999E+03 -0.24334447279E+01  0.13403979773E+04  0.13507999435E+04  0.79896492357E+02 0.  0.
          5    1    3    3  501    0  0.65395489182E+01 -0.23167552376E+02  0.16964176665E+03  0.17140571804E+03  0.47000000000E+01 0. -1.
        -11    1    4    4    0    0  0.28049845950E+02  0.42409301263E+02  0.44801460063E+02  0.67768086259E+02  0.00000000000E+00 0.  1.
         12    1    4    4    0    0  0.12028739999E+03 -0.54286267100E+01  0.14860736443E+03  0.19126598586E+03  0.00000000000E+00 0. -1.
         -5    1    5    5    0  502 -0.78925148699E+01 -0.11379677450E+02  0.68779027785E+01  0.16161200341E+02  0.47000000000E+01 0.  1.
         11    1    6    6    0    0 -0.10848242967E+03 -0.10132245283E+02  0.63263616550E+03  0.64194985617E+03  0.00000000000E+00 0. -1.
        -12    1    6    6    0    0 -0.38501850321E+02  0.76988005556E+01  0.70776181182E+03  0.70885008731E+03  0.00000000000E+00 0.  1.
</event>
<event>
12    1  0.1040325E-001  0.2584636E+03  0.7818608E-02  0.1108081E+00
         21   -1    0    0  501  502  0.00000000000E+00  0.00000000000E+00  0.23613653620E+03  0.23613653620E+03  0.00000000000E+00 0.  1.
         21   -1    0    0  502  503 -0.00000000000E+00 -0.00000000000E+00 -0.44632996020E+03  0.44632996020E+03  0.00000000000E+00 0. -1.
         -6    2    1    2    0  503 -0.46613579208E+02  0.18744789528E+03 -0.31163943033E+03  0.40487353738E+03  0.17173790357E+03 0.  0.
        -24    2    3    3    0    0 -0.31975157846E+02  0.20076164056E+03 -0.31628217161E+03  0.38401246742E+03  0.78125002536E+02 0.  0.
          6    2    1    2  501    0  0.46613579208E+02 -0.18744789528E+03  0.10144600633E+03  0.27759295903E+03  0.17163047366E+03 0.  0.
         24    2    5    5    0    0 -0.68101871427E+01 -0.15416856894E+03  0.12384612817E+03  0.21061932369E+03  0.72168620251E+02 0.  0.
          5    1    5    5  501    0  0.53423766351E+02 -0.33279326338E+02 -0.22400121839E+02  0.66973635343E+02  0.47000000000E+01 0. -1.
        -13    1    6    6    0    0 -0.26840097446E+02 -0.13001174145E+03  0.74751227744E+02  0.15235218999E+03  0.00000000000E+00 0.  1.
         14    1    6    6    0    0  0.20029910303E+02 -0.24156827490E+02  0.49094900423E+02  0.58267133692E+02  0.00000000000E+00 0. -1.
         -5    1    3    3    0  503 -0.14638421362E+02 -0.13313745275E+02  0.46427412767E+01  0.20861069958E+02  0.47000000000E+01 0.  1.
         13    1    4    4    0    0 -0.58090892068E+02  0.14496753688E+03 -0.22516175768E+03  0.27402181594E+03  0.00000000000E+00 0. -1.
        -14    1    4    4    0    0  0.26115734221E+02  0.55794103674E+02 -0.91120413928E+02  0.10999065148E+03  0.00000000000E+00 0.  1.
</event>
<event>
12    1  0.1040325E-001  0.2300058E+03  0.7818608E-02  0.1126642E+00
         21   -1    0    0  501  502  0.00000000000E+00  0.00000000000E+00  0.73120190265E+02  0.73120190265E+02  0.00000000000E+00 0.  1.
         21   -1    0    0  502  503 -0.00000000000E+00 -0.00000000000E+00 -0.11312300292E+04  0.11312300292E+04  0.00000000000E+00 0. -1.
         -6    2    1    2    0  503 -0.15075922722E+03 -0.25401097667E+02 -0.89059758865E+03  0.91981017914E+03  0.17179388927E+03 0.  0.
        -24    2    3    3    0    0 -0.25770444480E+02 -0.56299770756E+02 -0.37545440867E+03  0.38880028310E+03  0.79786384535E+02 0.  0.
          6    2    1    2  501    0  0.15075922722E+03  0.25401097667E+02 -0.16751225025E+03  0.28454004029E+03  0.17184039161E+03 0.  0.
         24    2    5    5    0    0  0.16441543707E+03  0.60109157973E+02 -0.14384428794E+03  0.24011702871E+03  0.79495040618E+02 0.  0.
          5    1    5    5  501    0 -0.13656209856E+02 -0.34708060306E+02 -0.23667962310E+02  0.44423011579E+02  0.47000000000E+01 0. -1.
        -13    1    6    6    0    0  0.55393271081E+02 -0.94240854319E+01 -0.16336279601E+02  0.58515826051E+02  0.00000000000E+00 0.  1.
         14    1    6    6    0    0  0.10902216599E+03  0.69533243405E+02 -0.12750800834E+03  0.18160120266E+03  0.00000000000E+00 0. -1.
         -5    1    3    3    0  503 -0.12498878274E+03  0.30898673089E+02 -0.51514317998E+03  0.53100989604E+03  0.47000000000E+01 0.  1.
         11    1    4    4    0    0 -0.48721768951E+02 -0.30359859115E+02 -0.30425379127E+03  0.30962219125E+03  0.00000000000E+00 0. -1.
        -12    1    4    4    0    0  0.22951324471E+02 -0.25939911641E+02 -0.71200617398E+02  0.79178091849E+02  0.00000000000E+00 0.  1.
</event>
<event>
12    1  0.1040325E-001  0.1777493E+03  0.7818608E-02  0.1170269E+00
         21   -1    0    0  503  502  0.00000000000E+00  0.00000000000E+00  0.12790500191E+03  0.12790500191E+03  0.00000000000E+00 0.  1.
         21   -1    0    0  501  503 -0.00000000000E+00 -0.00000000000E+00 -0.44259076455E+03  0.44259076455E+03  0.00000000000E+00 0.  1.
          6    2    1    2  501    0  0.16751998758E+02 -0.34819278105E+02 -0.34796255684E+03  0.39073362124E+03  0.17349873261E+03 0.  0.
         24    2    3    3    0    0  0.66366284169E+02  0.11074235607E+02 -0.25848460770E+03  0.27850089295E+03  0.78875424489E+02 0.  0.
         -6    2    1    2    0  502 -0.16751998758E+02  0.34819278105E+02  0.33276794199E+02  0.17976214523E+03  0.17237770225E+03 0.  0.
        -24    2    5    5    0    0 -0.40923690740E+02 -0.73814406996E+01 -0.37743033492E+02  0.93558448749E+02  0.74829223066E+02 0.  0.
          5    1    3    3  501    0 -0.49614285410E+02 -0.45893513711E+02 -0.89477949142E+02  0.11223272829E+03  0.47000000000E+01 0. -1.
        -13    1    4    4    0    0  0.43047589951E+02  0.37076103442E+02 -0.21678939087E+03  0.22411017925E+03  0.00000000000E+00 0.  1.
         14    1    4    4    0    0  0.23318694218E+02 -0.26001867836E+02 -0.41695216824E+02  0.54390713702E+02  0.00000000000E+00 0. -1.
         -5    1    5    5    0  502  0.24171691981E+02  0.42200718804E+02  0.71019827691E+02  0.86203696476E+02  0.47000000000E+01 0.  1.
         13    1    6    6    0    0  0.16125776784E+02  0.13589890062E+02 -0.22615670618E+02  0.30922392311E+02  0.00000000000E+00 0. -1.
        -14    1    6    6    0    0 -0.57049467523E+02 -0.20971330761E+02 -0.15127362875E+02  0.62636056438E+02  0.00000000000E+00 0.  1.
</event>
<event>
12    1  0.1040325E-001  0.1928620E+03  0.7818608E-02  0.1156278E+00
         21   -1    0    0  503  502  0.00000000000E+00  0.00000000000E+00  0.18205504534E+03  0.18205504534E+03  0.00000000000E+00 0. -1.
         21   -1    0    0  501  503 -0.00000000000E+00 -0.00000000000E+00 -0.20766203508E+03  0.20766203508E+03  0.00000000000E+00 0. -1.
          6    2    1    2  501    0  0.66652085372E+02  0.53272476474E+02 -0.43479097349E+02  0.19770221726E+03  0.17296033525E+03 0.  0.
         24    2    3    3    0    0  0.54908720542E+02 -0.18531215640E+02  0.20514489699E+02  0.10069218684E+03  0.79747718832E+02 0.  0.
         -6    2    1    2    0  502 -0.66652085372E+02 -0.53272476474E+02  0.17872107615E+02  0.19201486316E+03  0.17108430147E+03 0.  0.
        -24    2    5    5    0    0 -0.27646105739E+02 -0.93475872188E+02  0.26465630099E+02  0.13514907289E+03  0.89793075916E+02 0.  0.
          5    1    3    3  501    0  0.11743364831E+02  0.71803692114E+02 -0.63993587048E+02  0.97010030420E+02  0.47000000000E+01 0. -1.
        -11    1    4    4    0    0 -0.13164222217E+02 -0.11560080901E+02  0.26753497392E+02  0.31979397113E+02  0.00000000000E+00 0.  1.
         12    1    4    4    0    0  0.68072942759E+02 -0.69711347387E+01 -0.62390076933E+01  0.68712789729E+02  0.00000000000E+00 0. -1.
         -5    1    5    5    0  502 -0.39005979633E+02  0.40203395714E+02 -0.85935224840E+01  0.56865790268E+02  0.47000000000E+01 0.  1.
         13    1    6    6    0    0  0.11135704775E+02 -0.61878832043E+02  0.49554236261E+02  0.80053832558E+02  0.00000000000E+00 0. -1.
        -14    1    6    6    0    0 -0.38781810514E+02 -0.31597040145E+02 -0.23088606162E+02  0.55095240332E+02  0.00000000000E+00 0.  1.
</event>
<event>
12    1  0.1040325E-001  0.1728899E+03  0.7818608E-02  0.1175321E+00
         21   -1    0    0  503  502  0.00000000000E+00  0.00000000000E+00  0.40077482963E+03  0.40077482963E+03  0.00000000000E+00 0.  1.
         21   -1    0    0  501  503 -0.00000000000E+00 -0.00000000000E+00 -0.87372491578E+02  0.87372491578E+02  0.00000000000E+00 0.  1.
          6    2    1    2  501    0 -0.22397536811E+02  0.12517906557E+01  0.61261183463E+02  0.18342260244E+03  0.17142841612E+03 0.  0.
         24    2    3    3    0    0 -0.72911578901E+02 -0.30151588037E+02  0.51847628884E+02  0.12301941005E+03  0.78869398562E+02 0.  0.
         -6    2    1    2    0  502  0.22397536811E+02 -0.12517906557E+01  0.25214115459E+03  0.30472471877E+03  0.16964308342E+03 0.  0.
        -24    2    5    5    0    0  0.55800238709E+02  0.62181170071E+01  0.70092001512E+02  0.11942624562E+03  0.78723616832E+02 0.  0.
          5    1    3    3  501    0  0.50514042089E+02  0.31403378693E+02  0.94135545795E+01  0.60403192394E+02  0.47000000000E+01 0. -1.
        -11    1    4    4    0    0 -0.78490112242E+02 -0.17505764100E+02  0.12587995326E+02  0.81397832421E+02  0.00000000000E+00 0.  1.
         12    1    4    4    0    0  0.55785333419E+01 -0.12645823938E+02  0.39259633558E+02  0.41621577630E+02  0.00000000000E+00 0. -1.
         -5    1    5    5    0  502 -0.33402701898E+02 -0.74699076628E+01  0.18204915308E+03  0.18529847315E+03  0.47000000000E+01 0.  1.
         13    1    6    6    0    0  0.67550719322E+01  0.29015916684E+02 -0.13481282099E+01  0.29822338397E+02  0.00000000000E+00 0. -1.
        -14    1    6    6    0    0  0.49045166777E+02 -0.22797799677E+02  0.71440129722E+02  0.89603907220E+02  0.00000000000E+00 0.  1.
</event>
<event>
12    1  0.1040325E-001  0.2031606E+03  0.7818608E-02  0.1147372E+00
         21   -1    0    0  503  502  0.00000000000E+00  0.00000000000E+00  0.60083801387E+02  0.60083801387E+02  0.00000000000E+00 0. -1.
         21   -1    0    0  501  503 -0.00000000000E+00 -0.00000000000E+00 -0.73505400411E+03  0.73505400411E+03  0.00000000000E+00 0.  1.
          6    2    1    2  501    0  0.10238674365E+03  0.26584434869E+02 -0.23016888646E+03  0.30613633081E+03  0.17190683319E+03 0.  0.
         24    2    3    3    0    0  0.10012623355E+03  0.54445112358E+02 -0.98084583448E+02  0.17104495300E+03  0.81524582383E+02 0.  0.
         -6    2    1    2    0  502 -0.10238674365E+03 -0.26584434869E+02 -0.44480131627E+03  0.48900147469E+03  0.17344870666E+03 0.  0.
        -24    2    5    5    0    0 -0.58153004749E+02 -0.72441542606E+02 -0.18876590088E+03  0.22511566241E+03  0.80093364726E+02 0.  0.
          5    1    3    3  501    0  0.22605100960E+01 -0.27860677489E+02 -0.13208430301E+03  0.13509137781E+03  0.47000000000E+01 0. -1.
        -13    1    4    4    0    0 -0.14288439624E+02  0.78944550171E+01 -0.15089821508E+02  0.22230264057E+02  0.00000000000E+00 0.  1.
         14    1    4    4    0    0  0.11441467318E+03  0.46550657341E+02 -0.82994761941E+02  0.14881468895E+03  0.00000000000E+00 0. -1.
         -5    1    5    5    0  502 -0.44233738899E+02  0.45857107737E+02 -0.25603541539E+03  0.26388581227E+03  0.47000000000E+01 0.  1.
         13    1    6    6    0    0  0.12072120784E+01  0.48976019876E+01  0.56805805997E+01  0.75968981947E+01  0.00000000000E+00 0. -1.
        -14    1    6    6    0    0 -0.59360216827E+02 -0.77339144594E+02 -0.19444648148E+03  0.21751876422E+03  0.00000000000E+00 0.  1.
</event>
<event>
12    1  0.1040325E-001  0.3880143E+03  0.7818608E-02  0.1048074E+00
         21   -1    0    0  503  502  0.00000000000E+00  0.00000000000E+00  0.15926537873E+04  0.15926537873E+04  0.00000000000E+00 0. -1.
         21   -1    0    0  501  503 -0.00000000000E+00 -0.00000000000E+00 -0.10842998764E+03  0.10842998764E+03  0.00000000000E+00 0.  1.
          6    2    1    2  501    0 -0.30364681899E+03 -0.16888889118E+03  0.10490829552E+04  0.11185392798E+04  0.17271428827E+03 0.  0.
         24    2    3    3    0    0 -0.22141413350E+03 -0.18740625603E+03  0.75469953721E+03  0.81228971794E+03  0.78088866691E+02 0.  0.
         -6    2    1    2    0  502  0.30364681899E+03  0.16888889118E+03  0.43514084443E+03  0.58254449509E+03  0.17113061100E+03 0.  0.
        -24    2    5    5    0    0  0.23547555144E+03  0.61509206219E+02  0.25082983801E+03  0.35855709467E+03  0.80096596190E+02 0.  0.
          5    1    3    3  501    0 -0.82232685493E+02  0.18517364852E+02  0.29438341799E+03  0.30624956188E+03  0.47000000000E+01 0. -1.
        -11    1    4    4    0    0 -0.13808182706E+02 -0.32097860753E+02  0.46804630139E+02  0.58409005958E+02  0.00000000000E+00 0.  1.
         12    1    4    4    0    0 -0.20760595080E+03 -0.15530839528E+03  0.70789490707E+03  0.75388071199E+03  0.00000000000E+00 0. -1.
         -5    1    5    5    0  502  0.68171267550E+02  0.10737968496E+03  0.18431100642E+03  0.22398740043E+03  0.47000000000E+01 0.  1.
         13    1    6    6    0    0  0.38466564700E+02 -0.84822846619E-01  0.70147094654E+01  0.39101022284E+02  0.00000000000E+00 0. -1.
        -14    1    6    6    0    0  0.19700898674E+03  0.61594029065E+02  0.24381512854E+03  0.31945607238E+03  0.00000000000E+00 0.  1.
</event>
<event>
12    1  0.1040325E-001  0.2517063E+03  0.7818608E-02  0.1112898E+00
         21   -1    0    0  501  502  0.00000000000E+00  0.00000000000E+00  0.15804044287E+03  0.15804044287E+03  0.00000000000E+00 0.  1.
         21   -1    0    0  502  503 -0.00000000000E+00 -0.00000000000E+00 -0.46472092111E+03  0.46472092111E+03  0.00000000000E+00 0.  1.
         -6    2    1    2    0  503 -0.98927609067E+02  0.15134675400E+03 -0.27354438250E+03  0.36888329698E+03  0.16898475022E+03 0.  0.
        -24    2    3    3    0    0 -0.34934388132E+02  0.35643951510E+02 -0.16985291003E+03  0.20078724618E+03  0.94734388842E+02 0.  0.
          6    2    1    2  501    0  0.98927609067E+02 -0.15134675400E+03 -0.33136095739E+02  0.25387806700E+03  0.17511013757E+03 0.  0.
         24    2    5    5    0    0  0.85828613602E+02 -0.41700458584E+02 -0.62511518428E+02  0.13951505183E+03  0.80319864242E+02 0.  0.
          5    1    5    5  501    0  0.13098995464E+02 -0.10964629542E+03  0.29375422689E+02  0.11436301517E+03  0.47000000000E+01 0. -1.
        -13    1    6    6    0    0  0.79343934943E+02 -0.61072296497E+02 -0.64321755285E+02  0.11900661164E+03  0.00000000000E+00 0.  1.
         14    1    6    6    0    0  0.64846786594E+01  0.19371837913E+02  0.18102368567E+01  0.20508440187E+02  0.00000000000E+00 0. -1.
         -5    1    3    3    0  503 -0.63993220935E+02  0.11570280249E+03 -0.10369147247E+03  0.16809605080E+03  0.47000000000E+01 0.  1.
         13    1    4    4    0    0 -0.35679111744E+02 -0.26075005428E+02 -0.56621441057E+02  0.71825430805E+02  0.00000000000E+00 0. -1.
        -14    1    4    4    0    0  0.74472361276E+00  0.61718956938E+02 -0.11323146898E+03  0.12896181538E+03  0.00000000000E+00 0.  1.
</event>
<event>
12    1  0.1040325E-001  0.1794327E+03  0.7818608E-02  0.1168655E+00
         21   -1    0    0  503  502  0.00000000000E+00  0.00000000000E+00  0.10754544383E+03  0.10754544383E+03  0.00000000000E+00 0.  1.
         21   -1    0    0  501  503 -0.00000000000E+00 -0.00000000000E+00 -0.58254311080E+03  0.58254311080E+03  0.00000000000E+00 0.  1.
          6    2    1    2  501    0  0.55592324352E+01  0.49017130154E+02 -0.47851858710E+03  0.51062129842E+03  0.17123226356E+03 0.  0.
         24    2    3    3    0    0 -0.23543380278E+01  0.80907894245E+02 -0.45778674565E+03  0.47148634369E+03  0.78606854234E+02 0.  0.
         -6    2    1    2    0  502 -0.55592324352E+01 -0.49017130154E+02  0.35209201306E+01  0.17946725621E+03  0.17251815864E+03 0.  0.
        -24    2    5    5    0    0  0.65461324596E+01 -0.42180645368E+02  0.68105866225E+02  0.11323597474E+03  0.79761634058E+02 0.  0.
          5    1    3    3  501    0  0.79135704630E+01 -0.31890764091E+02 -0.20731841452E+02  0.39134954731E+02  0.47000000000E+01 0. -1.
        -13    1    4    4    0    0 -0.42916348114E+01  0.43248289171E+02 -0.40082026878E+03  0.40316959274E+03  0.00000000000E+00 0.  1.
         14    1    4    4    0    0  0.19372967836E+01  0.37659605074E+02 -0.56966476875E+02  0.68316750952E+02  0.00000000000E+00 0. -1.
         -5    1    5    5    0  502 -0.12105364895E+02 -0.68364847863E+01 -0.64584946095E+02  0.66231281473E+02  0.47000000000E+01 0.  1.
         13    1    6    6    0    0  0.32658695077E+01  0.82419155951E+01 -0.14151190979E+02  0.16698840752E+02  0.00000000000E+00 0. -1.
        -14    1    6    6    0    0  0.32802629519E+01 -0.50422560963E+02  0.82257057204E+02  0.96537133990E+02  0.00000000000E+00 0.  1.
</event>
<event>
12    1  0.1040325E-001  0.2302154E+03  0.7818608E-02  0.1126952E+00
         21   -1    0    0  503  502  0.00000000000E+00  0.00000000000E+00  0.82827415844E+03  0.82827415844E+03  0.00000000000E+00 0.  1.
         21   -1    0    0  501  503 -0.00000000000E+00 -0.00000000000E+00 -0.98261956036E+02  0.98261956036E+02  0.00000000000E+00 0.  1.
          6    2    1    2  501    0  0.56880791827E+02 -0.13989170709E+03  0.87170474377E+02  0.24371504566E+03  0.17027394893E+03 0.  0.
         24    2    3    3    0    0  0.10000900317E+03 -0.88803200295E+02  0.36828804899E+02  0.15989111217E+03  0.79504702901E+02 0.  0.
         -6    2    1    2    0  502 -0.56880791827E+02  0.13989170709E+03  0.64284172803E+03  0.68282106882E+03  0.17376423836E+03 0.  0.
        -24    2    5    5    0    0  0.22393087299E+02  0.58747913578E+02  0.42684151342E+03  0.43879884473E+03  0.79987379310E+02 0.  0.
          5    1    3    3  501    0 -0.43128211338E+02 -0.51088506798E+02  0.50341669478E+02  0.83823933491E+02  0.47000000000E+01 0. -1.
        -13    1    4    4    0    0  0.74985452426E+02 -0.73569483211E+02  0.61381124264E+02  0.12166728957E+03  0.00000000000E+00 0.  1.
         14    1    4    4    0    0  0.25023550740E+02 -0.15233717084E+02 -0.24552319365E+02  0.38223822599E+02  0.00000000000E+00 0. -1.
         -5    1    5    5    0  502 -0.79273879127E+02  0.81143793514E+02  0.21600021460E+03  0.24402222408E+03  0.47000000000E+01 0.  1.
         13    1    6    6    0    0  0.25919923951E+01  0.66720692798E+00  0.27518840844E+03  0.27520142393E+03  0.00000000000E+00 0. -1.
        -14    1    6    6    0    0  0.19801094904E+02  0.58080706650E+02  0.15165310498E+03  0.16359742081E+03  0.00000000000E+00 0.  1.
</event>
<event>
12    1  0.1040325E-001  0.2326801E+03  0.7818608E-02  0.1124873E+00
         21   -1    0    0  503  502  0.00000000000E+00  0.00000000000E+00  0.32811006295E+03  0.32811006295E+03  0.00000000000E+00 0.  1.
         21   -1    0    0  501  503 -0.00000000000E+00 -0.00000000000E+00 -0.37972873545E+03  0.37972873545E+03  0.00000000000E+00 0.  1.
          6    2    1    2  501    0  0.13204280646E+03  0.83597413049E+02 -0.29219913646E+03  0.37314642092E+03  0.17156364969E+03 0.  0.
         24    2    3    3    0    0  0.51457375317E+02  0.42240687847E+02 -0.25527704654E+03  0.27521929927E+03  0.78403794638E+02 0.  0.
         -6    2    1    2    0  502 -0.13204280646E+03 -0.83597413049E+02  0.24058046396E+03  0.33469237748E+03  0.17238386728E+03 0.  0.
        -24    2    5    5    0    0 -0.85718992109E+02 -0.22211849285E+02  0.49036495379E+02  0.12823350721E+03  0.78728283579E+02 0.  0.
          5    1    3    3  501    0  0.80585431145E+02  0.41356725202E+02 -0.36922089915E+02  0.97927121657E+02  0.47000000000E+01 0. -1.
        -11    1    4    4    0    0  0.66058222880E+02  0.24763677913E+02 -0.23267036759E+03  0.24313047631E+03  0.00000000000E+00 0.  1.
         12    1    4    4    0    0 -0.14600847563E+02  0.17477009934E+02 -0.22606678948E+02  0.32088822958E+02  0.00000000000E+00 0. -1.
         -5    1    5    5    0  502 -0.46323814353E+02 -0.61385563764E+02  0.19154396858E+03  0.20645887027E+03  0.47000000000E+01 0.  1.
         11    1    6    6    0    0 -0.43942657231E+01 -0.13071232688E+02 -0.17838687986E+02  0.22547405268E+02  0.00000000000E+00 0. -1.
        -12    1    6    6    0    0 -0.81324726385E+02 -0.91406165970E+01  0.66875183366E+02  0.10568610194E+03  0.00000000000E+00 0.  1.
</event>
<event>
12    1  0.1040325E-001  0.1750360E+03  0.7818608E-02  0.1172730E+00
         21   -1    0    0  501  502  0.00000000000E+00  0.00000000000E+00  0.21549532616E+03  0.21549532616E+03  0.00000000000E+00 0.  1.
         21   -1    0    0  502  503 -0.00000000000E+00 -0.00000000000E+00 -0.19185117663E+03  0.19185117663E+03  0.00000000000E+00 0.  1.
         -6    2    1    2    0  503  0.32018488707E+02  0.10282404194E+01 -0.91933734909E+02  0.19771038495E+03  0.17207946944E+03 0.  0.
        -24    2    3    3    0    0 -0.19989287761E+02  0.17586229497E+02  0.64073789030E+01  0.85140226906E+02  0.80616106580E+02 0.  0.
          6    2    1    2  501    0 -0.32018488707E+02 -0.10282404194E+01  0.11557788443E+03  0.20963611784E+03  0.17193840071E+03 0.  0.
         24    2    5    5    0    0  0.21907630779E+02 -0.17626541044E+02  0.12746832727E+03  0.15178283291E+03  0.77454597500E+02 0.  0.
          5    1    5    5  501    0 -0.53926119486E+02  0.16598300624E+02 -0.11890442840E+02  0.57853284931E+02  0.47000000000E+01 0. -1.
        -11    1    6    6    0    0 -0.21178435593E+02 -0.26972276649E+02  0.79774696471E+02  0.86833357870E+02  0.00000000000E+00 0.  1.
         12    1    6    6    0    0  0.43086066372E+02  0.93457356050E+01  0.47693630799E+02  0.64949475042E+02  0.00000000000E+00 0. -1.
         -5    1    3    3    0  503  0.52007776468E+02 -0.16557989077E+02 -0.98341113812E+02  0.11257015804E+03  0.47000000000E+01 0.  1.
         11    1    4    4    0    0 -0.23374441209E+02  0.45497551738E+02 -0.10659843927E+02  0.52249631468E+02  0.00000000000E+00 0. -1.
        -12    1    4    4    0    0  0.33851534483E+01 -0.27911322242E+02  0.17067222830E+02  0.32890595438E+02  0.00000000000E+00 0.  1.
</event>
<event>
12    1  0.1040325E-001  0.1906014E+03  0.7818608E-02  0.1158011E+00
         21   -1    0    0  501  502  0.00000000000E+00  0.00000000000E+00  0.52628947982E+03  0.52628947982E+03  0.00000000000E+00 0.  1.
         21   -1    0    0  502  503 -0.00000000000E+00 -0.00000000000E+00 -0.70879923595E+02  0.70879923595E+02  0.00000000000E+00 0.  1.
         -6    2    1    2    0  503  0.70771862650E+02  0.44363084397E+02  0.27806815976E+03  0.33712133847E+03  0.17132470804E+03 0.  0.
        -24    2    3    3    0    0  0.12644659631E+02 -0.30223452655E+02  0.75716704917E+02  0.11371559881E+03  0.78261571036E+02 0.  0.
          6    2    1    2  501    0 -0.70771862650E+02 -0.44363084397E+02  0.17734139647E+03  0.26004806494E+03  0.17087505780E+03 0.  0.
         24    2    5    5    0    0  0.66087958192E+01 -0.59568207979E+02  0.14266162823E+03  0.17377096245E+03  0.79069334378E+02 0.  0.
          5    1    5    5  501    0 -0.77380658469E+02  0.15205123582E+02  0.34679768235E+02  0.86277102484E+02  0.47000000000E+01 0. -1.
        -13    1    6    6    0    0 -0.77055110612E+01 -0.60928863323E+02  0.14653102872E+03  0.15888059562E+03  0.00000000000E+00 0.  1.
         14    1    6    6    0    0  0.14314306880E+02  0.13606553441E+01 -0.38694004868E+01  0.14890366838E+02  0.00000000000E+00 0. -1.
         -5    1    3    3    0  503  0.58127203019E+02  0.74586537052E+02  0.20235145484E+03  0.22340573967E+03  0.47000000000E+01 0.  1.
         11    1    4    4    0    0  0.34594696198E+02 -0.37650689391E+02  0.22871687644E+02  0.56013226227E+02  0.00000000000E+00 0. -1.
        -12    1    4    4    0    0 -0.21950036567E+02  0.74272367359E+01  0.52845017273E+02  0.57702372580E+02  0.00000000000E+00 0.  1.
</event>
<event>
12    1  0.1040325E-001  0.2016255E+03  0.7818608E-02  0.1148671E+00
         21   -1    0    0  503  502  0.00000000000E+00  0.00000000000E+00  0.13726556458E+04  0.13726556458E+04  0.00000000000E+00 0.  1.
         21   -1    0    0  501  503 -0.00000000000E+00 -0.00000000000E+00 -0.29652388160E+02  0.29652388160E+02  0.00000000000E+00 0.  1.
          6    2    1    2  501    0  0.10448070896E+03 -0.15590492107E+02  0.73735873358E+03  0.76442837412E+03  0.17173687775E+03 0.  0.
         24    2    3    3    0    0  0.90743542834E+02 -0.68305697440E+02  0.41346250470E+03  0.43594936460E+03  0.78743551093E+02 0.  0.
         -6    2    1    2    0  502 -0.10448070896E+03  0.15590492107E+02  0.60564452406E+03  0.63787965984E+03  0.17007612686E+03 0.  0.
        -24    2    5    5    0    0  0.13589956533E+02 -0.34580228754E+01  0.26247075766E+03  0.27443248085E+03  0.78902744426E+02 0.  0.
          5    1    3    3  501    0  0.13737166124E+02  0.52715205333E+02  0.32389622888E+03  0.32847900952E+03  0.47000000000E+01 0. -1.
        -13    1    4    4    0    0  0.97293951320E+02 -0.51064415317E+02  0.39441834668E+03  0.40943805353E+03  0.00000000000E+00 0.  1.
         14    1    4    4    0    0 -0.65504084852E+01 -0.17241282123E+02  0.19044158013E+02  0.26511311076E+02  0.00000000000E+00 0. -1.
         -5    1    5    5    0  502 -0.11807066549E+03  0.19048514983E+02  0.34317376640E+03  0.36344717899E+03  0.47000000000E+01 0.  1.
         11    1    6    6    0    0 -0.27306205450E+01 -0.60318735620E+01 -0.38103491687E+01  0.76392766684E+01  0.00000000000E+00 0. -1.
        -12    1    6    6    0    0  0.16320577078E+02  0.25738506865E+01  0.26628110683E+03  0.26679320418E+03  0.00000000000E+00 0.  1.
</event>
<event>
12    1  0.1040325E-001  0.2836504E+03  0.7818608E-02  0.1093725E+00
         21   -1    0    0  503  502  0.00000000000E+00  0.00000000000E+00  0.13481081731E+04  0.13481081731E+04  0.00000000000E+00 0.  1.
         21   -1    0    0  501  503 -0.00000000000E+00 -0.00000000000E+00 -0.14391863052E+03  0.14391863052E+03  0.00000000000E+00 0. -1.
          6    2    1    2  501    0  0.20232037235E+03  0.10052308805E+03  0.31238915832E+02  0.28526638373E+03  0.17135523196E+03 0.  0.
         24    2    3    3    0    0  0.48477845277E+02  0.89600697421E+02  0.13397593291E+02  0.12993697716E+03  0.79534496077E+02 0.  0.
         -6    2    1    2    0  502 -0.20232037235E+03 -0.10052308805E+03  0.11729506267E+04  0.12067604199E+04  0.17152001033E+03 0.  0.
        -24    2    5    5    0    0 -0.11604943685E+03 -0.10134885809E+03  0.98318823555E+03  0.99825331853E+03  0.78176202244E+02 0.  0.
          5    1    3    3  501    0  0.15384252708E+03  0.10922390630E+02  0.17841322541E+02  0.15532940657E+03  0.47000000000E+01 0. -1.
        -11    1    4    4    0    0 -0.12857361070E+02  0.24274993687E+02  0.27911765305E+02  0.39161890846E+02  0.00000000000E+00 0.  1.
         12    1    4    4    0    0  0.61335206347E+02  0.65325703734E+02 -0.14514172014E+02  0.90775086313E+02  0.00000000000E+00 0. -1.
         -5    1    5    5    0  502 -0.86270935500E+02  0.82577003327E+00  0.18976239117E+03  0.20850710134E+03  0.47000000000E+01 0.  1.
         13    1    6    6    0    0 -0.48938319042E+02  0.16264253358E+01  0.23644486883E+03  0.24146175748E+03  0.00000000000E+00 0. -1.
        -14    1    6    6    0    0 -0.67111117812E+02 -0.10297528342E+03  0.74674336672E+03  0.75679156104E+03  0.00000000000E+00 0.  1.
</event>
<event>
12    1  0.1040325E-001  0.2161906E+03  0.7818608E-02  0.1136818E+00
         21   -1    0    0  501  502  0.00000000000E+00  0.00000000000E+00  0.12165077630E+03  0.12165077630E+03  0.00000000000E+00 0.  1.
         21   -1    0    0  502  503 -0.00000000000E+00 -0.00000000000E+00 -0.56553546722E+03  0.56553546722E+03  0.00000000000E+00 0.  1.
         -6    2    1    2    0  503 -0.13625521390E+03 -0.13749185204E+02 -0.41692713657E+03  0.46964518115E+03  0.16728369785E+03 0.  0.
        -24    2    3    3    0    0 -0.23969539309E+02 -0.31395067127E+02 -0.12985561113E+03  0.16085463631E+03  0.86322333298E+02 0.  0.
          6    2    1    2  501    0  0.13625521390E+03  0.13749185204E+02 -0.26957554357E+02  0.21754106237E+03  0.16686186105E+03 0.  0.
         24    2    5    5    0    0  0.65060998391E+02  0.60663673657E+02 -0.42746168540E+02  0.13070238501E+03  0.85690511196E+02 0.  0.
          5    1    5    5  501    0  0.71194215509E+02 -0.46914488453E+02  0.15788614183E+02  0.86838677365E+02  0.47000000000E+01 0. -1.
        -11    1    6    6    0    0  0.54622809737E+02  0.64464096859E+02  0.20805032536E+01  0.84519817920E+02  0.00000000000E+00 0.  1.
         12    1    6    6    0    0  0.10438188654E+02 -0.38004232018E+01 -0.44826671794E+02  0.46182567089E+02  0.00000000000E+00 0. -1.
         -5    1    3    3    0  503 -0.11228567459E+03  0.17645881923E+02 -0.28707152544E+03  0.30879054484E+03  0.47000000000E+01 0.  1.
         13    1    4    4    0    0 -0.20745483502E+02  0.16065494713E+02 -0.10286972462E+03  0.10616334325E+03  0.00000000000E+00 0. -1.
        -14    1    4    4    0    0 -0.32240558064E+01 -0.47460561841E+02 -0.26985886508E+02  0.54691293061E+02  0.00000000000E+00 0.  1.
</event>
<event>
12    1  0.1040325E-001  0.2608283E+03  0.7818608E-02  0.1106664E+00
         21   -1    0    0  501  502  0.00000000000E+00  0.00000000000E+00  0.22723602665E+03  0.22723602665E+03  0.00000000000E+00 0.  1.
         21   -1    0    0  502  503 -0.00000000000E+00 -0.00000000000E+00 -0.76687062647E+03  0.76687062647E+03  0.00000000000E+00 0.  1.
         -6    2    1    2    0  503 -0.18028641959E+03  0.73352253958E+02 -0.65793295875E+03  0.70770498137E+03  0.17345551647E+03 0.  0.
        -24    2    3    3    0    0 -0.57317021186E+02  0.94484861286E+02 -0.31411015720E+03  0.34191232302E+03  0.77628705035E+02 0.  0.
          6    2    1    2  501    0  0.18028641959E+03 -0.73352253958E+02  0.11829835893E+03  0.28640167175E+03  0.17363084290E+03 0.  0.
         24    2    5    5    0    0  0.11168506962E+03 -0.95228461247E+02  0.36907595836E+02  0.17763007628E+03  0.92996014763E+02 0.  0.
          5    1    5    5  501    0  0.68601349970E+02  0.21876207289E+02  0.81390763097E+02  0.10877159547E+03  0.47000000000E+01 0. -1.
        -11    1    6    6    0    0 -0.23299322943E+01 -0.51632301970E+02  0.11447822327E+02  0.52937470919E+02  0.00000000000E+00 0.  1.
         12    1    6    6    0    0  0.11401500191E+03 -0.43596159277E+02  0.25459773509E+02  0.12469260536E+03  0.00000000000E+00 0. -1.
         -5    1    3    3    0  503 -0.12296939840E+03 -0.21132607328E+02 -0.34382280155E+03  0.36579265835E+03  0.47000000000E+01 0.  1.
         11    1    4    4    0    0 -0.27377769981E+02 -0.43542788970E+01 -0.10629567815E+03  0.10985114122E+03  0.00000000000E+00 0. -1.
        -12    1    4    4    0    0 -0.29939251205E+02  0.98839140183E+02 -0.20781447905E+03  0.23206118180E+03  0.00000000000E+00 0.  1.
</event>
<event>
12    1  0.1040325E-001  0.2526222E+03  0.7818608E-02  0.1112650E+00
         21   -1    0    0  503  502  0.00000000000E+00  0.00000000000E+00  0.16889947205E+03  0.16889947205E+03  0.00000000000E+00 0. -1.
         21   -1    0    0  501  503 -0.00000000000E+00 -0.00000000000E+00 -0.21460940871E+04  0.21460940871E+04  0.00000000000E+00 0. -1.
          6    2    1    2  501    0 -0.42782361140E+02 -0.17101790262E+03 -0.20441574168E+04  0.20597081105E+04  0.18094336872E+03 0.  0.
         24    2    3    3    0    0  0.39576581777E+02 -0.13874188209E+03 -0.13626636469E+04  0.13724813755E+04  0.77700037762E+02 0.  0.
         -6    2    1    2    0  502  0.42782361140E+02  0.17101790262E+03  0.66962801680E+02  0.25528544864E+03  0.17207321127E+03 0.  0.
        -24    2    5    5    0    0  0.56415918271E+02  0.68642364195E+02  0.90209744960E+02  0.14931783510E+03  0.79142199844E+02 0.  0.
          5    1    3    3  501    0 -0.82358942917E+02 -0.32276020521E+02 -0.68149376982E+03  0.68722673499E+03  0.47000000000E+01 0. -1.
        -11    1    4    4    0    0  0.13798247170E+02 -0.76129698740E+02 -0.39839277044E+03  0.40583607799E+03  0.00000000000E+00 0.  1.
         12    1    4    4    0    0  0.25778334607E+02 -0.62612183355E+02 -0.96427087649E+03  0.96664529756E+03  0.00000000000E+00 0. -1.
         -5    1    5    5    0  502 -0.13633557131E+02  0.10237553842E+03 -0.23246943280E+02  0.10596761354E+03  0.47000000000E+01 0.  1.
         11    1    6    6    0    0  0.63905085399E+02  0.79144647932E+02  0.64209640008E+02  0.12029386147E+03  0.00000000000E+00 0. -1.
        -12    1    6    6    0    0 -0.74891671280E+01 -0.10502283737E+02  0.26000104952E+02  0.29023973634E+02  0.00000000000E+00 0.  1.
</event>
<event>
12    1  0.1040325E-001  0.1837611E+03  0.7818608E-02  0.1165765E+00
         21   -1    0    0  501  502  0.00000000000E+00  0.00000000000E+00  0.92659739731E+02  0.92659739731E+02  0.00000000000E+00 0.  1.
         21   -1    0    0  502  503 -0.00000000000E+00 -0.00000000000E+00 -0.36870202083E+03  0.36870202083E+03  0.00000000000E+00 0. -1.
         -6    2    1    2    0  503  0.41556392147E+02  0.53841774440E+02 -0.18516726327E+03  0.25635833018E+03  0.16372784633E+03 0.  0.
        -24    2    3    3    0    0  0.63788673403E+02  0.86413649322E+02 -0.15335590710E+03  0.20547361986E+03  0.84646680812E+02 0.  0.
          6    2    1    2  501    0 -0.41556392147E+02 -0.53841774440E+02 -0.90875017828E+02  0.20500343038E+03  0.17071106349E+03 0.  0.
         24    2    5    5    0    0 -0.28014703080E+02 -0.94153802846E+02 -0.99685806636E+02  0.16132097421E+03  0.80233624480E+02 0.  0.
          5    1    5    5  501    0 -0.13541689067E+02  0.40312028406E+02  0.88107888084E+01  0.43682456163E+02  0.47000000000E+01 0. -1.
        -13    1    6    6    0    0  0.14476238272E+02 -0.23527061495E+02 -0.67326128503E+02  0.72772877340E+02  0.00000000000E+00 0.  1.
         14    1    6    6    0    0 -0.42490941353E+02 -0.70626741351E+02 -0.32359678133E+02  0.88548096873E+02  0.00000000000E+00 0. -1.
         -5    1    3    3    0  503 -0.22232281256E+02 -0.32571874882E+02 -0.31811356164E+02  0.50884710318E+02  0.47000000000E+01 0.  1.
         13    1    4    4    0    0  0.40108638118E+02  0.67544257708E+02 -0.40018325103E+02  0.88161192966E+02  0.00000000000E+00 0. -1.
        -14    1    4    4    0    0  0.23680035285E+02  0.18869391614E+02 -0.11333758200E+03  0.11731242690E+03  0.00000000000E+00 0.  1.
</event>
<event>
12    1  0.1040325E-001  0.1896500E+03  0.7818608E-02  0.1159113E+00
         21   -1    0    0  501  502  0.00000000000E+00  0.00000000000E+00  0.36294993114E+03  0.36294993114E+03  0.00000000000E+00 0.  1.
         21   -1    0    0  502  503 -0.00000000000E+00 -0.00000000000E+00 -0.12350759890E+03  0.12350759890E+03  0.00000000000E+00 0.  1.
         -6    2    1    2    0  503  0.68935363494E+02 -0.39798103402E+02  0.10268139004E+02  0.18992781749E+03  0.17213706110E+03 0.  0.
        -24    2    3    3    0    0 -0.18010945484E+02 -0.36596961986E+02 -0.24816561921E+02  0.95997342187E+02  0.83282027939E+02 0.  0.
          6    2    1    2  501    0 -0.68935363494E+02  0.39798103402E+02  0.22917419324E+03  0.29652971254E+03  0.17050831710E+03 0.  0.
         24    2    5    5    0    0 -0.71976642344E+02  0.86570260797E+02  0.13397344997E+03  0.19031222057E+03  0.74798455207E+02 0.  0.
          5    1    5    5  501    0  0.30412788504E+01 -0.46772157394E+02  0.95200743263E+02  0.10621749198E+03  0.47000000000E+01 0. -1.
        -11    1    6    6    0    0 -0.21583108698E+02  0.18501621446E+02  0.91007657018E+02  0.95344293029E+02  0.00000000000E+00 0.  1.
         12    1    6    6    0    0 -0.50393533646E+02  0.68068639350E+02  0.42965792955E+02  0.94967927537E+02  0.00000000000E+00 0. -1.
         -5    1    3    3    0  503  0.86946308977E+02 -0.32011414160E+01  0.35084700925E+02  0.93930475300E+02  0.47000000000E+01 0.  1.
         13    1    4    4    0    0 -0.17625337384E+02  0.24606604013E+02 -0.88653550069E+00  0.30280743454E+02  0.00000000000E+00 0. -1.
        -14    1    4    4    0    0 -0.38560810013E+00 -0.61203565999E+02 -0.23930026420E+02  0.65716598733E+02  0.00000000000E+00 0.  1.
</event>
<event>
12    1  0.1040325E-001  0.1864837E+03  0.7818608E-02  0.1162046E+00
         21   -1    0    0  501  502  0.00000000000E+00  0.00000000000E+00  0.12863602180E+02  0.12863602180E+02  0.00000000000E+00 0. -1.
         21   -1    0    0  502  503 -0.00000000000E+00 -0.00000000000E+00 -0.27753040390E+04  0.27753040390E+04  0.00000000000E+00 0. -1.
         -6    2    1    2    0  503 -0.12231733493E+02  0.67267023527E+02 -0.11172704373E+04  0.11324622051E+04  0.17176422253E+03 0.  0.
        -24    2    3    3    0    0 -0.26587362522E+02  0.10907631339E+03 -0.91761185461E+03  0.92791455674E+03  0.80058596707E+02 0.  0.
          6    2    1    2  501    0  0.12231733493E+02 -0.67267023527E+02 -0.16451699995E+04  0.16557054361E+04  0.17349840346E+03 0.  0.
         24    2    5    5    0    0  0.36630742354E+02  0.33615343732E+01 -0.86173699362E+03  0.86870285060E+03  0.10344508336E+03 0.  0.
          5    1    5    5  501    0 -0.24399008860E+02 -0.70628557900E+02 -0.78343300592E+03  0.78700258550E+03  0.47000000000E+01 0. -1.
        -11    1    6    6    0    0  0.17146973425E+01  0.16223329369E+01 -0.77744830606E+03  0.77745188967E+03  0.00000000000E+00 0.  1.
         12    1    6    6    0    0  0.34916045011E+02  0.17392014364E+01 -0.84288687558E+02  0.91250960933E+02  0.00000000000E+00 0. -1.
         -5    1    3    3    0  503  0.14355629028E+02 -0.41809289865E+02 -0.19965858267E+03  0.20454764833E+03  0.47000000000E+01 0.  1.
         13    1    4    4    0    0  0.10677806468E+02  0.36998498099E+02 -0.55503662865E+03  0.55637088669E+03  0.00000000000E+00 0. -1.
        -14    1    4    4    0    0 -0.37265168990E+02  0.72077815292E+02 -0.36257522596E+03  0.37154367005E+03  0.00000000000E+00 0.  1.
</event>
<event>
12    1  0.1040325E-001  0.2182392E+03  0.7818608E-02  0.1135386E+00
         21   -1    0    0  503  502  0.00000000000E+00  0.00000000000E+00  0.76454315297E+03  0.76454315297E+03  0.00000000000E+00 0. -1.
         21   -1    0    0  501  503 -0.00000000000E+00 -0.00000000000E+00 -0.28226090403E+03  0.28226090403E+03  0.00000000000E+00 0.  1.
          6    2    1    2  501    0  0.13142629745E+03  0.23903749171E+02 -0.22107857253E+03  0.31065103403E+03  0.17258061544E+03 0.  0.
         24    2    3    3    0    0  0.35025056019E+02 -0.32969181501E+02 -0.15514835816E+03  0.18066406253E+03  0.79087097384E+02 0.  0.
         -6    2    1    2    0  502 -0.13142629745E+03 -0.23903749171E+02  0.70336082147E+03  0.73615302296E+03  0.17134925489E+03 0.  0.
        -24    2    5    5    0    0 -0.12916836637E+03 -0.56073257580E+02  0.40330300461E+03  0.43433062653E+03  0.78492690958E+02 0.  0.
          5    1    3    3  501    0  0.96401241430E+02  0.56872930672E+02 -0.65930214366E+02  0.12998697150E+03  0.47000000000E+01 0. -1.
        -13    1    4    4    0    0 -0.14021597597E+02 -0.17998878971E+02 -0.69601600680E+01  0.23853902648E+02  0.00000000000E+00 0.  1.
         14    1    4    4    0    0  0.49046653616E+02 -0.14970302530E+02 -0.14818819810E+03  0.15681015989E+03  0.00000000000E+00 0. -1.
         -5    1    5    5    0  502 -0.22579310756E+01  0.32169508409E+02  0.30005781686E+03  0.30182239643E+03  0.47000000000E+01 0.  1.
         13    1    6    6    0    0 -0.10650152795E+03 -0.69709099250E+02  0.37292669011E+03  0.39405107558E+03  0.00000000000E+00 0. -1.
        -14    1    6    6    0    0 -0.22666838428E+02  0.13635841670E+02  0.30376314500E+02  0.40279550953E+02  0.00000000000E+00 0.  1.
</event>
<event>
12    1  0.1040325E-001  0.1758877E+03  0.7818608E-02  0.1172139E+00
         21   -1    0    0  501  502  0.00000000000E+00  0.00000000000E+00  0.55830295835E+02  0.55830295835E+02  0.00000000000E+00 0. -1.
         21   -1    0    0  502  503 -0.00000000000E+00 -0.00000000000E+00 -0.60954396577E+03  0.60954396577E+03  0.00000000000E+00 0. -1.
         -6    2    1    2    0  503 -0.31109270706E+02  0.17162408414E+02 -0.38132963550E+03  0.41993899546E+03  0.17226181820E+03 0.  0.
        -24    2    3    3    0    0 -0.52619234502E+02 -0.48841324632E+02 -0.23329293161E+03  0.25636599336E+03  0.78381578050E+02 0.  0.
          6    2    1    2  501    0  0.31109270706E+02 -0.17162408414E+02 -0.17238403444E+03  0.24543526615E+03  0.17105519447E+03 0.  0.
         24    2    5    5    0    0  0.54931595844E+02 -0.35006808387E+02 -0.42392721109E+02  0.11199705076E+03  0.80642666876E+02 0.  0.
          5    1    5    5  501    0 -0.23822325138E+02  0.17844399973E+02 -0.12999131333E+03  0.13343821539E+03  0.47000000000E+01 0. -1.
        -11    1    6    6    0    0  0.35138450111E+02 -0.48589007941E+02 -0.57951687294E+02  0.83390649530E+02  0.00000000000E+00 0.  1.
         12    1    6    6    0    0  0.19793145733E+02  0.13582199553E+02  0.15558966184E+02  0.28606401232E+02  0.00000000000E+00 0. -1.
         -5    1    3    3    0  503  0.21509963797E+02  0.66003733046E+02 -0.14803670389E+03  0.16357300210E+03  0.47000000000E+01 0.  1.
         13    1    4    4    0    0 -0.42136475378E+02 -0.17088105754E+02 -0.21177649339E+03  0.21660279100E+03  0.00000000000E+00 0. -1.
        -14    1    4    4    0    0 -0.10482759124E+02 -0.31753218878E+02 -0.21516438223E+02  0.39763202359E+02  0.00000000000E+00 0.  1.
</event>
<event>
12    1  0.1040325E-001  0.1946314E+03  0.7818608E-02  0.1156766E+00
         21   -1    0    0  503  502  0.00000000000E+00  0.00000000000E+00  0.30015727265E+03  0.30015727265E+03  0.00000000000E+00 0. -1.
         21   -1    0    0  501  503 -0.00000000000E+00 -0.00000000000E+00 -0.17159203603E+03  0.17159203603E+03  0.00000000000E+00 0. -1.
          6    2    1    2  501    0 -0.46269532338E+02 -0.46362130070E+02 -0.64569640140E+02  0.20506245652E+03  0.18327862919E+03 0.  0.
         24    2    3    3    0    0  0.17205812533E+02 -0.44230388621E+02  0.23023555706E+02  0.96765080342E+02  0.81123544016E+02 0.  0.
         -6    2    1    2    0  502  0.46269532338E+02  0.46362130070E+02  0.19313487676E+03  0.26668685216E+03  0.17184434750E+03 0.  0.
        -24    2    5    5    0    0  0.37126139465E+02 -0.19602412822E+02  0.17566041938E+03  0.19767693104E+03  0.80355344005E+02 0.  0.
          5    1    3    3  501    0 -0.63475344871E+02 -0.21317414495E+01 -0.87593195847E+02  0.10829737618E+03  0.47000000000E+01 0. -1.
        -13    1    4    4    0    0  0.32613366395E+01 -0.51018388319E+01  0.47943551021E+02  0.48324415782E+02  0.00000000000E+00 0.  1.
         14    1    4    4    0    0  0.13944475893E+02 -0.39128549789E+02 -0.24919995315E+02  0.48440664560E+02  0.00000000000E+00 0. -1.
         -5    1    5    5    0  502  0.91433928729E+01  0.65964542893E+02  0.17474457382E+02  0.69009921121E+02  0.47000000000E+01 0.  1.
         13    1    6    6    0    0  0.30910367520E+02  0.31057544967E+01  0.17084436717E+03  0.17364588773E+03  0.00000000000E+00 0. -1.
        -14    1    6    6    0    0  0.62157719451E+01 -0.22708167319E+02  0.48160522069E+01  0.24031043313E+02  0.00000000000E+00 0.  1.
</event>
<event>
12    1  0.1040325E-001  0.2179133E+03  0.7818608E-02  0.1135456E+00
         21   -1    0    0  501  502  0.00000000000E+00  0.00000000000E+00  0.29944448347E+03  0.29944448347E+03  0.00000000000E+00 0.  1.
         21   -1    0    0  502  503 -0.00000000000E+00 -0.00000000000E+00 -0.21539684240E+03  0.21539684240E+03  0.00000000000E+00 0. -1.
         -6    2    1    2    0  503 -0.13202760498E+03  0.19130083144E+02 -0.90214638090E+02  0.23584929663E+03  0.17230484972E+03 0.  0.
        -24    2    3    3    0    0 -0.13157181494E+03  0.45213594331E+02 -0.21341668776E+02  0.16205137523E+03  0.80310458783E+02 0.  0.
          6    2    1    2  501    0  0.13202760498E+03 -0.19130083144E+02  0.17426227916E+03  0.27899202924E+03  0.17225551337E+03 0.  0.
         24    2    5    5    0    0  0.14872242064E+03 -0.11332052196E+02  0.87973452771E+02  0.19063266236E+03  0.79716433417E+02 0.  0.
          5    1    5    5  501    0 -0.16694815665E+02 -0.77980309483E+01  0.86288826390E+02  0.88359366886E+02  0.47000000000E+01 0. -1.
        -11    1    6    6    0    0  0.54220635530E+02  0.31492417623E+02  0.17128925506E+02  0.65000382876E+02  0.00000000000E+00 0.  1.
         12    1    6    6    0    0  0.94501785112E+02 -0.42824469818E+02  0.70844527265E+02  0.12563227948E+03  0.00000000000E+00 0. -1.
         -5    1    3    3    0  503 -0.45579003759E+00 -0.26083511187E+02 -0.68872969314E+02  0.73797921397E+02  0.47000000000E+01 0.  1.
         13    1    4    4    0    0 -0.18158351652E+02 -0.13905827822E+02 -0.25283555990E+02  0.34093342248E+02  0.00000000000E+00 0. -1.
        -14    1    4    4    0    0 -0.11341346329E+03  0.59119422153E+02  0.39418872141E+01  0.12795803299E+03  0.00000000000E+00 0.  1.
</event>
<event>
12    1  0.1040325E-001  0.1788052E+03  0.7818608E-02  0.1169331E+00
         21   -1    0    0  501  502  0.00000000000E+00  0.00000000000E+00  0.87221090518E+02  0.87221090518E+02  0.00000000000E+00 0. -1.
         21   -1    0    0  502  503 -0.00000000000E+00 -0.00000000000E+00 -0.52291896359E+03  0.52291896359E+03  0.00000000000E+00 0. -1.
         -6    2    1    2    0  503  0.10108603639E+02 -0.49395307715E+02 -0.38565650350E+03  0.42446440646E+03  0.16999121555E+03 0.  0.
        -24    2    3    3    0    0  0.36502002776E+01 -0.94974038320E+02 -0.21987181699E+03  0.25234298438E+03  0.79372375176E+02 0.  0.
          6    2    1    2  501    0 -0.10108603639E+02  0.49395307715E+02 -0.50041369570E+02  0.18567564765E+03  0.17154948898E+03 0.  0.
         24    2    5    5    0    0 -0.31388662166E+01  0.75848431763E+02 -0.86692016787E+02  0.13970060058E+03  0.78980471925E+02 0.  0.
          5    1    5    5  501    0 -0.69697374226E+01 -0.26453124047E+02  0.36650647217E+02  0.45975047070E+02  0.47000000000E+01 0. -1.
        -13    1    6    6    0    0  0.19715007286E+02 -0.63240841533E+00  0.26405183719E+01  0.19901100220E+02  0.00000000000E+00 0.  1.
         14    1    6    6    0    0 -0.22853873502E+02  0.76480840178E+02 -0.89332535159E+02  0.11979950036E+03  0.00000000000E+00 0. -1.
         -5    1    3    3    0  503  0.64584033617E+01  0.45578730605E+02 -0.16578468651E+03  0.17212142208E+03  0.47000000000E+01 0.  1.
         11    1    4    4    0    0 -0.15885782861E+02 -0.56576771766E+02 -0.19257559014E+03  0.20134211462E+03  0.00000000000E+00 0. -1.
        -12    1    4    4    0    0  0.19535983139E+02 -0.38397266555E+02 -0.27296226848E+02  0.51000869759E+02  0.00000000000E+00 0.  1.
</event>
<event>
12    1  0.1040325E-001  0.2498086E+03  0.7818608E-02  0.1114539E+00
         21   -1    0    0  503  502  0.00000000000E+00  0.00000000000E+00  0.25997583354E+04  0.25997583354E+04  0.00000000000E+00 0.  1.
         21   -1    0    0  501  503 -0.00000000000E+00 -0.00000000000E+00 -0.29736170401E+02  0.29736170401E+02  0.00000000000E+00 0.  1.
          6    2    1    2  501    0  0.16547072234E+03 -0.45298209240E+02  0.68960629665E+03  0.73345837547E+03  0.18158154214E+03 0.  0.
         24    2    3    3    0    0  0.11469123704E+03 -0.41176154363E+02  0.65727966720E+03  0.67293855693E+03  0.77331655587E+02 0.  0.
         -6    2    1    2    0  502 -0.16547072234E+03  0.45298209240E+02  0.18804158683E+04  0.18960361303E+04  0.17192056856E+03 0.  0.
        -24    2    5    5    0    0 -0.13691552286E+02 -0.95264090923E+01  0.60766564883E+03  0.61308723559E+03  0.79625414323E+02 0.  0.
          5    1    3    3  501    0  0.50779485295E+02 -0.41220548769E+01  0.32326629459E+02  0.60519818534E+02  0.47000000000E+01 0. -1.
        -11    1    4    4    0    0  0.35138569204E+02  0.47726257340E+01  0.69513336674E+02  0.78035895444E+02  0.00000000000E+00 0.  1.
         12    1    4    4    0    0  0.79552667840E+02 -0.45948780097E+02  0.58776633052E+03  0.59490266149E+03  0.00000000000E+00 0. -1.
         -5    1    5    5    0  502 -0.15177917005E+03  0.54824618333E+02  0.12727502195E+04  0.12829488947E+04  0.47000000000E+01 0.  1.
         13    1    6    6    0    0  0.32181871198E+02  0.51832150235E+01  0.28202600244E+03  0.28390351284E+03  0.00000000000E+00 0. -1.
        -14    1    6    6    0    0 -0.45873423484E+02 -0.14709624116E+02  0.32563964639E+03  0.32918372275E+03  0.00000000000E+00 0.  1.
</event>
<event>
12    1  0.1040325E-001  0.2460041E+03  0.7818608E-02  0.1115909E+00
         21   -1    0    0  503  502  0.00000000000E+00  0.00000000000E+00  0.70044363967E+03  0.70044363967E+03  0.00000000000E+00 0.  1.
         21   -1    0    0  501  503 -0.00000000000E+00 -0.00000000000E+00 -0.90054530834E+02  0.90054530834E+02  0.00000000000E+00 0. -1.
          6    2    1    2  501    0  0.14000824743E+03  0.10541272462E+03  0.22415086503E+03  0.33257023831E+03  0.17217781871E+03 0.  0.
         24    2    3    3    0    0  0.11413965159E+03  0.13558320970E+03  0.21781203642E+03  0.29205217853E+03  0.80260357319E+02 0.  0.
         -6    2    1    2    0  502 -0.14000824743E+03 -0.10541272462E+03  0.38623824381E+03  0.45792793220E+03  0.17263793977E+03 0.  0.
        -24    2    5    5    0    0 -0.59856312147E+02 -0.12729611994E+03  0.22955712463E+03  0.28051801470E+03  0.78783265008E+02 0.  0.
          5    1    3    3  501    0  0.25868595833E+02 -0.30170485075E+02  0.63388286106E+01  0.40518059779E+02  0.47000000000E+01 0. -1.
        -13    1    4    4    0    0  0.26895656086E+02  0.75267662888E+02  0.13738160891E+03  0.15894119623E+03  0.00000000000E+00 0.  1.
         14    1    4    4    0    0  0.87243995509E+02  0.60315546809E+02  0.80430427511E+02  0.13311098230E+03  0.00000000000E+00 0. -1.
         -5    1    5    5    0  502 -0.80151935281E+02  0.21883395323E+02  0.15668111917E+03  0.17740991750E+03  0.47000000000E+01 0.  1.
         11    1    6    6    0    0 -0.24595901049E+02  0.42622544017E+01  0.38432330680E+02  0.45827603062E+02  0.00000000000E+00 0. -1.
        -12    1    6    6    0    0 -0.35260411098E+02 -0.13155837435E+03  0.19112479395E+03  0.23469041164E+03  0.00000000000E+00 0.  1.
</event>
<event>
12    1  0.1040325E-001  0.2276803E+03  0.7818608E-02  0.1129095E+00
         21   -1    0    0  501  502  0.00000000000E+00  0.00000000000E+00  0.45823001831E+02  0.45823001831E+02  0.00000000000E+00 0.  1.
         21   -1    0    0  502  503 -0.00000000000E+00 -0.00000000000E+00 -0.20711095087E+04  0.20711095087E+04  0.00000000000E+00 0. -1.
         -6    2    1    2    0  503  0.46459155833E+02  0.13284651423E+03 -0.17394533882E+04  0.17542908524E+04  0.17897389632E+03 0.  0.
        -24    2    3    3    0    0  0.18416872831E+01  0.33681053622E+02 -0.37641248891E+03  0.38691120861E+03  0.82922351389E+02 0.  0.
          6    2    1    2  501    0 -0.46459155833E+02 -0.13284651423E+03 -0.28583311858E+03  0.36264165805E+03  0.17321013530E+03 0.  0.
         24    2    5    5    0    0 -0.96231819333E+02 -0.10481313350E+03 -0.18144986412E+03  0.24355705670E+03  0.78419580923E+02 0.  0.
          5    1    5    5  501    0  0.49772663500E+02 -0.28033380729E+02 -0.10438325447E+03  0.11908460136E+03  0.47000000000E+01 0. -1.
        -13    1    6    6    0    0 -0.53536439360E+02 -0.18730531655E+02 -0.29912872794E+02  0.64123031075E+02  0.00000000000E+00 0.  1.
         14    1    6    6    0    0 -0.42695379973E+02 -0.86082601848E+02 -0.15153699132E+03  0.17943402562E+03  0.00000000000E+00 0. -1.
         -5    1    3    3    0  503  0.44617468550E+02  0.99165460610E+02 -0.13630408993E+04  0.13673796438E+04  0.47000000000E+01 0.  1.
         13    1    4    4    0    0  0.23226132187E+01  0.19628426908E+02 -0.37148725343E+03  0.37201270024E+03  0.00000000000E+00 0. -1.
        -14    1    4    4    0    0 -0.48092593564E+00  0.14052626714E+02 -0.49252354741E+01  0.14898508375E+02  0.00000000000E+00 0.  1.
</event>
<event>
12    1  0.1040325E-001  0.1840774E+03  0.7818608E-02  0.1164130E+00
         21   -1    0    0  503  502  0.00000000000E+00  0.00000000000E+00  0.70530415755E+02  0.70530415755E+02  0.00000000000E+00 0.  1.
         21   -1    0    0  501  503 -0.00000000000E+00 -0.00000000000E+00 -0.52655576743E+03  0.52655576743E+03  0.00000000000E+00 0.  1.
          6    2    1    2  501    0  0.65046858710E+02 -0.72279681528E+01 -0.31915005890E+03  0.36843080577E+03  0.17204987995E+03 0.  0.
         24    2    3    3    0    0  0.78722253463E+02 -0.59654800636E+02 -0.25656872911E+03  0.28552060119E+03  0.77062393648E+02 0.  0.
         -6    2    1    2    0  502 -0.65046858710E+02  0.72279681528E+01 -0.13687529277E+03  0.22865537741E+03  0.17107044893E+03 0.  0.
        -24    2    5    5    0    0 -0.41564485271E+02  0.71613313026E+02 -0.81024853946E+02  0.14012145163E+03  0.78822085817E+02 0.  0.
          5    1    3    3  501    0 -0.13675394753E+02  0.52426832483E+02 -0.62581329789E+02  0.82910204583E+02  0.47000000000E+01 0. -1.
        -13    1    4    4    0    0  0.32567400408E+02 -0.39599454715E+02 -0.21259813317E+03  0.21869320659E+03  0.00000000000E+00 0.  1.
         14    1    4    4    0    0  0.46154853055E+02 -0.20055345921E+02 -0.43970595942E+02  0.66827394593E+02  0.00000000000E+00 0. -1.
         -5    1    5    5    0  502 -0.23482373439E+02 -0.64385344873E+02 -0.55850438827E+02  0.88533925779E+02  0.47000000000E+01 0.  1.
         11    1    6    6    0    0  0.18630108469E+02  0.23190373449E+01 -0.29196158950E+02  0.34711303249E+02  0.00000000000E+00 0. -1.
        -12    1    6    6    0    0 -0.60194593740E+02  0.69294275681E+02 -0.51828694996E+02  0.10541014839E+03  0.00000000000E+00 0.  1.
</event>
<event>
12    1  0.1040325E-001  0.1983578E+03  0.7818608E-02  0.1151599E+00
         21   -1    0    0  501  502  0.00000000000E+00  0.00000000000E+00  0.58582115630E+03  0.58582115630E+03  0.00000000000E+00 0.  1.
         21   -1    0    0  502  503 -0.00000000000E+00 -0.00000000000E+00 -0.98725091961E+02  0.98725091961E+02  0.00000000000E+00 0.  1.
         -6    2    1    2    0  503 -0.47188888094E+02  0.84112656360E+02  0.48688274941E+02  0.20424586431E+03  0.17333232489E+03 0.  0.
        -24    2    3    3    0    0  0.97634778614E+01  0.58203975991E+02 -0.34094822061E+02  0.10037111832E+03  0.73680907836E+02 0.  0.
          6    2    1    2  501    0  0.47188888094E+02 -0.84112656360E+02  0.43840778939E+03  0.48030038394E+03  0.17083717071E+03 0.  0.
         24    2    5    5    0    0  0.30700892451E+02 -0.50683274536E+01  0.35094798519E+03  0.36117369809E+03  0.79458914780E+02 0.  0.
          5    1    5    5  501    0  0.16487995643E+02 -0.79044328907E+02  0.87459804201E+02  0.11912668586E+03  0.47000000000E+01 0. -1.
        -11    1    6    6    0    0 -0.23912409578E+02 -0.50895945068E-01  0.18157527092E+03  0.18314307230E+03  0.00000000000E+00 0.  1.
         12    1    6    6    0    0  0.54613302028E+02 -0.50174315085E+01  0.16937271428E+03  0.17803062579E+03  0.00000000000E+00 0. -1.
         -5    1    3    3    0  503 -0.56952365955E+02  0.25908680370E+02  0.82783097002E+02  0.10387474600E+03  0.47000000000E+01 0.  1.
         13    1    4    4    0    0  0.38788825033E+02  0.47340246852E+02 -0.12149224953E+02  0.62396118360E+02  0.00000000000E+00 0. -1.
        -14    1    4    4    0    0 -0.29025347171E+02  0.10863729138E+02 -0.21945597108E+02  0.37974999956E+02  0.00000000000E+00 0.  1.
</event>
<event>
12    1  0.1040325E-001  0.2341905E+03  0.7818608E-02  0.1123951E+00
         21   -1    0    0  503  502  0.00000000000E+00  0.00000000000E+00  0.86029802605E+02  0.86029802605E+02  0.00000000000E+00 0.  1.
         21   -1    0    0  501  503 -0.00000000000E+00 -0.00000000000E+00 -0.11596049186E+04  0.11596049186E+04  0.00000000000E+00 0.  1.
          6    2    1    2  501    0  0.11057471406E+03  0.11433296591E+03 -0.95529489454E+03  0.98326969976E+03  0.17009459853E+03 0.  0.
         24    2    3    3    0    0  0.13470613965E+03  0.13024001577E+03 -0.85660476960E+03  0.88032704244E+03  0.78075377559E+02 0.  0.
         -6    2    1    2    0  502 -0.11057471406E+03 -0.11433296591E+03 -0.11828022143E+03  0.26236502142E+03  0.17189066059E+03 0.  0.
        -24    2    5    5    0    0 -0.77974757620E+02  0.56564265023E+01 -0.48295787816E+02  0.11960605533E+03  0.76557608133E+02 0.  0.
          5    1    3    3  501    0 -0.24131425581E+02 -0.15907049860E+02 -0.98690124939E+02  0.10294265732E+03  0.47000000000E+01 0. -1.
        -13    1    4    4    0    0  0.84074050731E+02  0.12658604430E+03 -0.62218316723E+03  0.64047198706E+03  0.00000000000E+00 0.  1.
         14    1    4    4    0    0  0.50632088915E+02  0.36539714708E+01 -0.23442160237E+03  0.23985505538E+03  0.00000000000E+00 0. -1.
         -5    1    5    5    0  502 -0.32599956444E+02 -0.11998939241E+03 -0.69984433610E+02  0.14275896609E+03  0.47000000000E+01 0.  1.
         11    1    6    6    0    0 -0.24389163542E+02  0.11472711263E+02 -0.58807902523E+02  0.64690214107E+02  0.00000000000E+00 0. -1.
        -12    1    6    6    0    0 -0.53585594078E+02 -0.58162847609E+01  0.10512114708E+02  0.54915841218E+02  0.00000000000E+00 0.  1.
</event>
<event>
12    1  0.1040325E-001  0.2051616E+03  0.7818608E-02  0.1145740E+00
         21   -1    0    0  503  502  0.00000000000E+00  0.00000000000E+00  0.42100265306E+03  0.42100265306E+03  0.00000000000E+00 0.  1.
         21   -1    0    0  501  503 -0.00000000000E+00 -0.00000000000E+00 -0.12523823997E+03  0.12523823997E+03  0.00000000000E+00 0.  1.
          6    2    1    2  501    0  0.67077673494E+02  0.87606059640E+02  0.27256754498E+03  0.34115150663E+03  0.17296545301E+03 0.  0.
         24    2    3    3    0    0  0.66775258418E+02  0.20352716209E+01  0.84754237864E+02  0.13470931243E+03  0.80624069310E+02 0.  0.
         -6    2    1    2    0  502 -0.67077673494E+02 -0.87606059640E+02  0.23196868107E+02  0.20508938640E+03  0.17131644917E+03 0.  0.
        -24    2    5    5    0    0 -0.80550322013E+02  0.84948049297E-01 -0.11840137043E+02  0.10958594763E+03  0.73352092539E+02 0.  0.
          5    1    3    3  501    0  0.30241507667E+00  0.85570788019E+02  0.18781330711E+03  0.20644219420E+03  0.47000000000E+01 0. -1.
        -13    1    4    4    0    0  0.56171819973E+02  0.74412754778E+01  0.10025905379E+03  0.11516303142E+03  0.00000000000E+00 0.  1.
         14    1    4    4    0    0  0.10603438444E+02 -0.54060038569E+01 -0.15504815922E+02  0.19546281010E+02  0.00000000000E+00 0. -1.
         -5    1    5    5    0  502  0.13472648518E+02 -0.87691007689E+02  0.35037005149E+02  0.95503438773E+02  0.47000000000E+01 0.  1.
         13    1    6    6    0    0 -0.38851041636E+02 -0.44599566546E+01  0.30795106864E+02  0.49775830041E+02  0.00000000000E+00 0. -1.
        -14    1    6    6    0    0 -0.41699280377E+02  0.45449047039E+01 -0.42635243907E+02  0.59810117587E+02  0.00000000000E+00 0.  1.
</event>
<event>
12    1  0.1040325E-001  0.1833846E+03  0.7818608E-02  0.1165452E+00
         21   -1    0    0  501  502  0.00000000000E+00  0.00000000000E+00  0.49543067673E+03  0.49543067673E+03  0.00000000000E+00 0. -1.
         21   -1    0    0  502  503 -0.00000000000E+00 -0.00000000000E+00 -0.77395315967E+02  0.77395315967E+02  0.00000000000E+00 0. -1.
         -6    2    1    2    0  503 -0.59002551845E+02 -0.67906836504E+01  0.99803511289E+02  0.20553672297E+03  0.16957944779E+03 0.  0.
        -24    2    3    3    0    0 -0.78605391748E+02  0.44037598252E+02  0.90219044475E+02  0.15002332298E+03  0.79053170598E+02 0.  0.
          6    2    1    2  501    0  0.59002551845E+02  0.67906836504E+01  0.31823184947E+03  0.36728926973E+03  0.17350067185E+03 0.  0.
         24    2    5    5    0    0 -0.12835245454E+02  0.54104045837E+02  0.19929596361E+03  0.22043199784E+03  0.76022320781E+02 0.  0.
          5    1    5    5  501    0  0.71837797300E+02 -0.47313362186E+02  0.11893588586E+03  0.14685727189E+03  0.47000000000E+01 0. -1.
        -11    1    6    6    0    0  0.74441481611E+01  0.59866682370E+02  0.85147012289E+02  0.10435252130E+03  0.00000000000E+00 0.  1.
         12    1    6    6    0    0 -0.20279393616E+02 -0.57626365337E+01  0.11414895132E+03  0.11607947654E+03  0.00000000000E+00 0. -1.
         -5    1    3    3    0  503  0.19602839903E+02 -0.50828281903E+02  0.95844668140E+01  0.55513399982E+02  0.47000000000E+01 0.  1.
         13    1    4    4    0    0 -0.18383023019E+02 -0.22573525416E+02  0.30598710629E+02  0.42234827774E+02  0.00000000000E+00 0. -1.
        -14    1    4    4    0    0 -0.60222368730E+02  0.66611123668E+02  0.59620333846E+02  0.10778849521E+03  0.00000000000E+00 0.  1.
</event>
<event>
12    1  0.1040325E-001  0.2540676E+03  0.7818608E-02  0.1110806E+00
         21   -1    0    0  501  502  0.00000000000E+00  0.00000000000E+00  0.19710447455E+03  0.19710447455E+03  0.00000000000E+00 0.  1.
         21   -1    0    0  502  503 -0.00000000000E+00 -0.00000000000E+00 -0.33036011640E+03  0.33036011640E+03  0.00000000000E+00 0. -1.
         -6    2    1    2    0  503  0.17144374726E+03  0.76103898762E+02 -0.92788257976E+02  0.27048104945E+03  0.17136386846E+03 0.  0.
        -24    2    3    3    0    0  0.13704303435E+02  0.61550369920E+01 -0.51902790596E+02  0.93088020154E+02  0.75800972365E+02 0.  0.
          6    2    1    2  501    0 -0.17144374726E+03 -0.76103898762E+02 -0.40467383873E+02  0.25698354150E+03  0.17093323130E+03 0.  0.
         24    2    5    5    0    0 -0.14918694996E+03  0.54423907155E+01 -0.22632843280E+02  0.17046577921E+03  0.79119976186E+02 0.  0.
          5    1    5    5  501    0 -0.22256797297E+02 -0.81546289477E+02 -0.17834540593E+02  0.86517762290E+02  0.47000000000E+01 0. -1.
        -13    1    6    6    0    0 -0.76826015537E+02 -0.17238753686E+02 -0.45907289658E+02  0.91142144673E+02  0.00000000000E+00 0.  1.
         14    1    6    6    0    0 -0.72360934426E+02  0.22681144401E+02  0.23274446378E+02  0.79323634539E+02  0.00000000000E+00 0. -1.
         -5    1    3    3    0  503  0.15773944383E+03  0.69948861770E+02 -0.40885467380E+02  0.17739302930E+03  0.47000000000E+01 0.  1.
         11    1    4    4    0    0  0.14488405611E+02  0.35377075882E+02 -0.60429791521E+01  0.38703604382E+02  0.00000000000E+00 0. -1.
        -12    1    4    4    0    0 -0.78410217616E+00 -0.29222038890E+02 -0.45859811444E+02  0.54384415771E+02  0.00000000000E+00 0.  1.
</event>
<event>
12    1  0.1040325E-001  0.2124288E+03  0.7818608E-02  0.1139992E+00
         21   -1    0    0  501  502  0.00000000000E+00  0.00000000000E+00  0.11419364203E+04  0.11419364203E+04  0.00000000000E+00 0. -1.
         21   -1    0    0  502  503 -0.00000000000E+00 -0.00000000000E+00 -0.39995651451E+02  0.39995651451E+02  0.00000000000E+00 0. -1.
         -6    2    1    2    0  503  0.11678693782E+03 -0.58731544597E+01  0.46977465317E+03  0.51557172974E+03  0.17734796574E+03 0.  0.
        -24    2    3    3    0    0  0.12609226683E+03 -0.37021916388E+01  0.47880581882E+03  0.50160913040E+03  0.80272919381E+02 0.  0.
          6    2    1    2  501    0 -0.11678693782E+03  0.58731544597E+01  0.63216611571E+03  0.66636034205E+03  0.17529525039E+03 0.  0.
         24    2    5    5    0    0 -0.12911161837E+03 -0.44063423082E+02  0.45299636704E+03  0.47989466594E+03  0.80509543506E+02 0.  0.
          5    1    5    5  501    0  0.12324680546E+02  0.49936577542E+02  0.17916974867E+03  0.18646567610E+03  0.47000000000E+01 0. -1.
        -13    1    6    6    0    0 -0.42933658308E+02 -0.48148710599E+02  0.26971811446E+03  0.27732554627E+03  0.00000000000E+00 0.  1.
         14    1    6    6    0    0 -0.86177960058E+02  0.40852875174E+01  0.18327825259E+03  0.20256911968E+03  0.00000000000E+00 0. -1.
         -5    1    3    3    0  503 -0.93053290081E+01 -0.21709628208E+01 -0.90311656446E+01  0.13962599343E+02  0.47000000000E+01 0.  1.
         11    1    4    4    0    0  0.96718434042E+02 -0.31073749701E+02  0.25983677582E+03  0.27898957593E+03  0.00000000000E+00 0. -1.
        -12    1    4    4    0    0  0.29373832786E+02  0.27371558062E+02  0.21896904299E+03  0.22261955447E+03  0.00000000000E+00 0.  1.
</event>
<event>
12    1  0.1040325E-001  0.2034760E+03  0.7818608E-02  0.1147043E+00
         21   -1    0    0  501  502  0.00000000000E+00  0.00000000000E+00  0.32310052890E+03  0.32310052890E+03  0.00000000000E+00 0.  1.
         21   -1    0    0  502  503 -0.00000000000E+00 -0.00000000000E+00 -0.12752404083E+03  0.12752404083E+03  0.00000000000E+00 0. -1.
         -6    2    1    2    0  503  0.10431400909E+03  0.33433744176E+02  0.96782199842E+02  0.22532035149E+03  0.17147372641E+03 0.  0.
        -24    2    3    3    0    0  0.12525199168E+02  0.64967306842E+02  0.33140138961E+02  0.10916548455E+03  0.80257103325E+02 0.  0.
          6    2    1    2  501    0 -0.10431400909E+03 -0.33433744176E+02  0.98794288225E+02  0.22530421824E+03  0.17030106174E+03 0.  0.
         24    2    5    5    0    0 -0.29634034853E+02 -0.74487521948E+02  0.33761074699E+02  0.11800128220E+03  0.79736600688E+02 0.  0.
          5    1    5    5  501    0 -0.74679974237E+02  0.41053777771E+02  0.65033213526E+02  0.10730293604E+03  0.47000000000E+01 0. -1.
        -11    1    6    6    0    0 -0.81849212967E+01 -0.18448065790E+02  0.51595994248E+02  0.55402803994E+02  0.00000000000E+00 0.  1.
         12    1    6    6    0    0 -0.21449113556E+02 -0.56039456158E+02 -0.17834919549E+02  0.62598478209E+02  0.00000000000E+00 0. -1.
         -5    1    3    3    0  503  0.91788809922E+02 -0.31533562665E+02  0.63642060880E+02  0.11615486694E+03  0.47000000000E+01 0.  1.
         13    1    4    4    0    0  0.21853450185E+02 -0.12948078105E+02  0.10566354979E+02  0.27511340737E+02  0.00000000000E+00 0. -1.
        -14    1    4    4    0    0 -0.93282510166E+01  0.77915384947E+02  0.22573783982E+02  0.81654143812E+02  0.00000000000E+00 0.  1.
</event>
<event>
12    1  0.1040325E-001  0.1820796E+03  0.7818608E-02  0.1165990E+00
         21   -1    0    0  501  502  0.00000000000E+00  0.00000000000E+00  0.16898302211E+04  0.16898302211E+04  0.00000000000E+00 0.  1.
         21   -1    0    0  502  503 -0.00000000000E+00 -0.00000000000E+00 -0.39260244102E+02  0.39260244102E+02  0.00000000000E+00 0.  1.
         -6    2    1    2    0  503  0.28820689092E+02  0.47695941348E+02  0.21162330054E+03  0.27866965767E+03  0.17253064028E+03 0.  0.
        -24    2    3    3    0    0 -0.13254865677E+02 -0.17653723722E+01  0.19722639089E+03  0.21199031401E+03  0.76569158054E+02 0.  0.
          6    2    1    2  501    0 -0.28820689092E+02 -0.47695941348E+02  0.14389466764E+04  0.14504208075E+04  0.17334199227E+03 0.  0.
         24    2    5    5    0    0 -0.48312070340E+02  0.32625381868E+02  0.79889712715E+03  0.80503956789E+03  0.80334391268E+02 0.  0.
          5    1    5    5  501    0  0.19491381248E+02 -0.80321323216E+02  0.64004954929E+03  0.64538123962E+03  0.47000000000E+01 0. -1.
        -11    1    6    6    0    0  0.17012579123E+02  0.21884726999E+02  0.37292977165E+03  0.37395853207E+03  0.00000000000E+00 0.  1.
         12    1    6    6    0    0 -0.65324649463E+02  0.10740654869E+02  0.42596735550E+03  0.43108103582E+03  0.00000000000E+00 0. -1.
         -5    1    3    3    0  503  0.42075554769E+02  0.49461313720E+02  0.14396909645E+02  0.66679343663E+02  0.47000000000E+01 0.  1.
         11    1    4    4    0    0  0.26868597126E+02 -0.10836451005E+02  0.12989977340E+03  0.13309132695E+03  0.00000000000E+00 0. -1.
        -12    1    4    4    0    0 -0.40123462802E+02  0.90710786327E+01  0.67326617498E+02  0.78898987057E+02  0.00000000000E+00 0.  1.
</event>
<event>
12    1  0.1040325E-001  0.1960368E+03  0.7818608E-02  0.1153277E+00
         21   -1    0    0  503  502  0.00000000000E+00  0.00000000000E+00  0.12249509396E+04  0.12249509396E+04  0.00000000000E+00 0.  1.
         21   -1    0    0  501  503 -0.00000000000E+00 -0.00000000000E+00 -0.70526998438E+02  0.70526998438E+02  0.00000000000E+00 0.  1.
          6    2    1    2  501    0  0.70350962767E+02 -0.59875769075E+02  0.93451443439E+02  0.21654648303E+03  0.17211868390E+03 0.  0.
         24    2    3    3    0    0  0.46721923054E+02 -0.92096332757E+02  0.11206551824E+03  0.17221737270E+03  0.80221384184E+02 0.  0.
         -6    2    1    2    0  502 -0.70350962767E+02  0.59875769075E+02  0.10609724977E+04  0.10789314550E+04  0.17290482350E+03 0.  0.
        -24    2    5    5    0    0  0.29334216056E+02 -0.53038100039E+01  0.45921120278E+03  0.46547871966E+03  0.70049147522E+02 0.  0.
          5    1    3    3  501    0  0.23629039713E+02  0.32220563682E+02 -0.18614074805E+02  0.44329110329E+02  0.47000000000E+01 0. -1.
        -11    1    4    4    0    0  0.64310545598E+01 -0.41371186872E+02 -0.10328073797E+01  0.41880786251E+02  0.00000000000E+00 0.  1.
         12    1    4    4    0    0  0.40290868494E+02 -0.50725145885E+02  0.11309832562E+03  0.13033658645E+03  0.00000000000E+00 0. -1.
         -5    1    5    5    0  502 -0.99685178823E+02  0.65179579079E+02  0.60176129493E+03  0.61345273533E+03  0.47000000000E+01 0.  1.
         11    1    6    6    0    0  0.42788440857E+02 -0.14308433469E+02  0.17223678923E+03  0.17804800899E+03  0.00000000000E+00 0. -1.
        -12    1    6    6    0    0 -0.13454224801E+02  0.90046234652E+01  0.28697441354E+03  0.28743071067E+03  0.00000000000E+00 0.  1.
</event>
<event>
12    1  0.1040325E-001  0.2088143E+03  0.7818608E-02  0.1144576E+00
         21   -1    0    0  501  502  0.00000000000E+00  0.00000000000E+00  0.83941326460E+03  0.83941326460E+03  0.00000000000E+00 0. -1.
         21   -1    0    0  502  503 -0.00000000000E+00 -0.00000000000E+00 -0.54279665570E+02  0.54279665570E+02  0.00000000000E+00 0. -1.
         -6    2    1    2    0  503  0.10291085969E+03 -0.49047800264E+01  0.51676973216E+03  0.55365971917E+03  0.16992182508E+03 0.  0.
        -24    2    3    3    0    0  0.11837953213E+03 -0.24892855397E+02  0.29622505030E+03  0.33162177267E+03  0.87122625126E+02 0.  0.
          6    2    1    2  501    0 -0.10291085969E+03  0.49047800264E+01  0.26836386687E+03  0.34003321100E+03  0.18162796491E+03 0.  0.
         24    2    5    5    0    0 -0.10632924052E+03 -0.57314873690E+02  0.16906766286E+03  0.22270974035E+03  0.80155172542E+02 0.  0.
          5    1    5    5  501    0  0.34183808312E+01  0.62219653716E+02  0.99296204007E+02  0.11732347065E+03  0.47000000000E+01 0. -1.
        -13    1    6    6    0    0 -0.81466402659E+01 -0.30861999566E+02  0.84929035484E+02  0.90729112379E+02  0.00000000000E+00 0.  1.
         14    1    6    6    0    0 -0.98182600258E+02 -0.26452874124E+02  0.84138627375E+02  0.13198062797E+03  0.00000000000E+00 0. -1.
         -5    1    3    3    0  503 -0.15468672442E+02  0.19988075371E+02  0.22054468186E+03  0.22203794649E+03  0.47000000000E+01 0.  1.
         11    1    4    4    0    0  0.28820235577E+02 -0.56820165362E+00  0.18284623802E+03  0.18510449911E+03  0.00000000000E+00 0. -1.
        -12    1    4    4    0    0  0.89559296557E+02 -0.24324653743E+02  0.11337881228E+03  0.14651727357E+03  0.00000000000E+00 0.  1.
</event>
<event>
12    1  0.1040325E-001  0.2413864E+03  0.7818608E-02  0.1119021E+00
         21   -1    0    0  501  502  0.00000000000E+00  0.00000000000E+00  0.20327291378E+03  0.20327291378E+03  0.00000000000E+00 0.  1.
         21   -1    0    0  502  503 -0.00000000000E+00 -0.00000000000E+00 -0.58867423261E+03  0.58867423261E+03  0.00000000000E+00 0.  1.
         -6    2    1    2    0  503  0.68724851164E+02 -0.15424829750E+03 -0.47700350215E+03  0.53460242114E+03  0.17248700001E+03 0.  0.
        -24    2    3    3    0    0  0.62848563622E+01 -0.15282303453E+03 -0.39591978903E+03  0.43214539181E+03  0.81257498207E+02 0.  0.
          6    2    1    2  501    0 -0.68724851164E+02  0.15424829750E+03  0.91602183321E+02  0.25734472525E+03  0.17122997745E+03 0.  0.
         24    2    5    5    0    0 -0.32646067964E+02  0.11237572852E+03  0.12788381661E+03  0.19106171428E+03  0.80350718715E+02 0.  0.
          5    1    5    5  501    0 -0.36078783199E+02  0.41872568979E+02 -0.36281633287E+02  0.66283010976E+02  0.47000000000E+01 0. -1.
        -11    1    6    6    0    0 -0.18215037141E+02  0.12169102296E+03  0.10114904454E+03  0.15928471947E+03  0.00000000000E+00 0.  1.
         12    1    6    6    0    0 -0.14431030824E+02 -0.93152944380E+01  0.26734772068E+02  0.31776994802E+02  0.00000000000E+00 0. -1.
         -5    1    3    3    0  503  0.62439994802E+02 -0.14252629701E+01 -0.81083713121E+02  0.10245702933E+03  0.47000000000E+01 0.  1.
         13    1    4    4    0    0  0.14931883515E+02 -0.65427177469E+02 -0.27266942873E+03  0.28080650644E+03  0.00000000000E+00 0. -1.
        -14    1    4    4    0    0 -0.86470271525E+01 -0.87395857062E+02 -0.12325036030E+03  0.15133888537E+03  0.00000000000E+00 0.  1.
</event>
<event>
12    1  0.1040325E-001  0.1721805E+03  0.7818608E-02  0.1176236E+00
         21   -1    0    0  501  502  0.00000000000E+00  0.00000000000E+00  0.85395399040E+02  0.85395399040E+02  0.00000000000E+00 0.  1.
         21   -1    0    0  502  503 -0.00000000000E+00 -0.00000000000E+00 -0.18576472061E+04  0.18576472061E+04  0.00000000000E+00 0.  1.
         -6    2    1    2    0  503  0.13895676468E+02  0.74428459547E+01 -0.17624320773E+04  0.17705822970E+04  0.16895667304E+03 0.  0.
        -24    2    3    3    0    0  0.68253436428E+01  0.11482088742E+02 -0.39545995233E+03  0.40357783991E+03  0.79423392612E+02 0.  0.
          6    2    1    2  501    0 -0.13895676468E+02 -0.74428459547E+01 -0.98197297281E+01  0.17246030817E+03  0.17145741460E+03 0.  0.
         24    2    5    5    0    0 -0.51227204384E+02  0.26109474595E+02  0.39379352246E+02  0.10201855309E+03  0.74505843122E+02 0.  0.
          5    1    5    5  501    0  0.37331527917E+02 -0.33552320549E+02 -0.49199081974E+02  0.70441755074E+02  0.47000000000E+01 0. -1.
        -11    1    6    6    0    0  0.19552932096E+02  0.64343629742E+01  0.70824250911E+01  0.21768760314E+02  0.00000000000E+00 0.  1.
         12    1    6    6    0    0 -0.70780136481E+02  0.19675111620E+02  0.32296927155E+02  0.80249792779E+02  0.00000000000E+00 0. -1.
         -5    1    3    3    0  503  0.70703328251E+01 -0.40392427875E+01 -0.13669721250E+04  0.13670044571E+04  0.47000000000E+01 0.  1.
         13    1    4    4    0    0 -0.52900167505E+01  0.38138744018E+02 -0.32504519328E+03  0.32731777487E+03  0.00000000000E+00 0. -1.
        -14    1    4    4    0    0  0.12115360393E+02 -0.26656655276E+02 -0.70414759048E+02  0.76260065039E+02  0.00000000000E+00 0.  1.
</event>
<event>
12    1  0.1040325E-001  0.2385013E+03  0.7818608E-02  0.1121029E+00
         21   -1    0    0  503  502  0.00000000000E+00  0.00000000000E+00  0.29628411263E+03  0.29628411263E+03  0.00000000000E+00 0. -1.
         21   -1    0    0  501  503 -0.00000000000E+00 -0.00000000000E+00 -0.23358773410E+03  0.23358773410E+03  0.00000000000E+00 0. -1.
          6    2    1    2  501    0 -0.47862384933E+02 -0.15778598953E+03 -0.82020193425E+02  0.25089917741E+03  0.17039911594E+03 0.  0.
         24    2    3    3    0    0  0.26259924122E+02 -0.43557169332E+02 -0.63811935868E+02  0.11343656174E+03  0.78797714211E+02 0.  0.
         -6    2    1    2    0  502  0.47862384933E+02  0.15778598953E+03  0.14471657195E+03  0.27897266932E+03  0.17232422246E+03 0.  0.
        -24    2    5    5    0    0  0.60561275872E+02  0.37384053757E+02  0.10886635243E+03  0.15261913273E+03  0.79846611528E+02 0.  0.
          5    1    3    3  501    0 -0.74122309056E+02 -0.11422882020E+03 -0.18208257556E+02  0.13746261567E+03  0.47000000000E+01 0. -1.
        -11    1    4    4    0    0  0.52350601338E+02 -0.13664624083E+02 -0.37363895257E+02  0.65752323765E+02  0.00000000000E+00 0.  1.
         12    1    4    4    0    0 -0.26090677215E+02 -0.29892545249E+02 -0.26448040611E+02  0.47684237974E+02  0.00000000000E+00 0. -1.
         -5    1    5    5    0  502 -0.12698890939E+02  0.12040193578E+03  0.35850219517E+02  0.12635353659E+03  0.47000000000E+01 0.  1.
         13    1    6    6    0    0  0.78165746288E+02  0.36198057987E+02  0.74078700501E+02  0.11361266286E+03  0.00000000000E+00 0. -1.
        -14    1    6    6    0    0 -0.17604470416E+02  0.11859957702E+01  0.34787651931E+02  0.39006469867E+02  0.00000000000E+00 0.  1.
</event>
<event>
12    1  0.1040325E-001  0.3347487E+03  0.7818608E-02  0.1069057E+00
         21   -1    0    0  503  502  0.00000000000E+00  0.00000000000E+00  0.99923551930E+03  0.99923551930E+03  0.00000000000E+00 0. -1.
         21   -1    0    0  501  503 -0.00000000000E+00 -0.00000000000E+00 -0.12053066251E+03  0.12053066251E+03  0.00000000000E+00 0.  1.
          6    2    1    2  501    0  0.21061334551E+03  0.19509324259E+03  0.29159236678E+03  0.44392759364E+03  0.17212276264E+03 0.  0.
         24    2    3    3    0    0  0.10489821763E+03  0.85458374526E+02  0.23267103699E+03  0.28055897468E+03  0.79188111346E+02 0.  0.
         -6    2    1    2    0  502 -0.21061334551E+03 -0.19509324259E+03  0.58711249001E+03  0.67583858818E+03  0.17215506597E+03 0.  0.
        -24    2    5    5    0    0 -0.10030967680E+03 -0.18281283959E+03  0.38204693275E+03  0.44261834806E+03  0.80427468152E+02 0.  0.
          5    1    3    3  501    0  0.10571512787E+03  0.10963486806E+03  0.58921329788E+02  0.16336861896E+03  0.47000000000E+01 0. -1.
        -13    1    4    4    0    0 -0.96460490628E+01 -0.31189594982E+01  0.28543466194E+02  0.30290322435E+02  0.00000000000E+00 0.  1.
         14    1    4    4    0    0  0.11454426670E+03  0.88577334024E+02  0.20412757080E+03  0.25026865224E+03  0.00000000000E+00 0. -1.
         -5    1    5    5    0  502 -0.11030366871E+03 -0.12280402995E+02  0.20506555725E+03  0.23322024012E+03  0.47000000000E+01 0.  1.
         11    1    6    6    0    0 -0.74986939561E+02 -0.99085000794E+02  0.29069540359E+03  0.31614031087E+03  0.00000000000E+00 0. -1.
        -12    1    6    6    0    0 -0.25322737236E+02 -0.83727838800E+02  0.91351529158E+02  0.12647803719E+03  0.00000000000E+00 0.  1.
</event>
<event>
12    1  0.1040325E-001  0.1845354E+03  0.7818608E-02  0.1163589E+00
         21   -1    0    0  501  502  0.00000000000E+00  0.00000000000E+00  0.25116654861E+03  0.25116654861E+03  0.00000000000E+00 0.  1.
         21   -1    0    0  502  503 -0.00000000000E+00 -0.00000000000E+00 -0.28625534688E+03  0.28625534688E+03  0.00000000000E+00 0.  1.
         -6    2    1    2    0  503 -0.30849825919E+02 -0.62547704124E+02 -0.21271743202E+03  0.28160612821E+03  0.17084899330E+03 0.  0.
        -24    2    3    3    0    0 -0.75888449183E+02 -0.44809875158E+02 -0.19706701151E+03  0.23051665940E+03  0.80842696654E+02 0.  0.
          6    2    1    2  501    0  0.30849825919E+02  0.62547704124E+02  0.17762863375E+03  0.25581576728E+03  0.17036973971E+03 0.  0.
         24    2    5    5    0    0  0.62600564835E+02 -0.11991954930E+02  0.10128707034E+03  0.14439586557E+03  0.80798871738E+02 0.  0.
          5    1    5    5  501    0 -0.31750738916E+02  0.74539659054E+02  0.76341563410E+02  0.11141990171E+03  0.47000000000E+01 0. -1.
        -11    1    6    6    0    0 -0.69382631980E+01  0.18807969296E+02  0.46576200824E+02  0.50707215349E+02  0.00000000000E+00 0.  1.
         12    1    6    6    0    0  0.69538828033E+02 -0.30799924226E+02  0.54710869519E+02  0.93688650220E+02  0.00000000000E+00 0. -1.
         -5    1    3    3    0  503  0.45038623264E+02 -0.17737828966E+02 -0.15650420513E+02  0.51089468819E+02  0.47000000000E+01 0.  1.
         11    1    4    4    0    0  0.75422962277E+01  0.10449961146E+02 -0.47751231589E+01  0.13743715710E+02  0.00000000000E+00 0. -1.
        -12    1    4    4    0    0 -0.83430745411E+02 -0.55259836305E+02 -0.19229188835E+03  0.21677294368E+03  0.00000000000E+00 0.  1.
</event>
<event>
12    1  0.1040325E-001  0.2271246E+03  0.7818608E-02  0.1128776E+00
         21   -1    0    0  501  502  0.00000000000E+00  0.00000000000E+00  0.56558588810E+03  0.56558588810E+03  0.00000000000E+00 0. -1.
         21   -1    0    0  502  503 -0.00000000000E+00 -0.00000000000E+00 -0.10180343365E+03  0.10180343365E+03  0.00000000000E+00 0.  1.
         -6    2    1    2    0  503  0.40327394183E+02 -0.14165319620E+03  0.12290632898E+03  0.25777715487E+03  0.17219514846E+03 0.  0.
        -24    2    3    3    0    0  0.63766980972E+02 -0.23067441399E+02  0.55460470214E+02  0.11927434141E+03  0.80945475772E+02 0.  0.
          6    2    1    2  501    0 -0.40327394183E+02  0.14165319620E+03  0.34087612548E+03  0.40961216689E+03  0.17289785316E+03 0.  0.
         24    2    5    5    0    0 -0.68666411621E+02  0.80594142848E+02  0.11696644558E+03  0.17575549570E+03  0.77449034416E+02 0.  0.
          5    1    5    5  501    0  0.28339017438E+02  0.61059053354E+02  0.22390967989E+03  0.23385667118E+03  0.47000000000E+01 0. -1.
        -13    1    6    6    0    0  0.59786643672E+01  0.39704202839E+02  0.14824318338E+02  0.42801034624E+02  0.00000000000E+00 0.  1.
         14    1    6    6    0    0 -0.74645075988E+02  0.40889940008E+02  0.10214212724E+03  0.13295446108E+03  0.00000000000E+00 0. -1.
         -5    1    3    3    0  503 -0.23439586789E+02 -0.11858575480E+03  0.67445858764E+02  0.13850281346E+03  0.47000000000E+01 0.  1.
         13    1    4    4    0    0  0.59780236362E+02 -0.84841668711E+01  0.73899656084E+02  0.95429643803E+02  0.00000000000E+00 0. -1.
        -14    1    4    4    0    0  0.39867446104E+01 -0.14583274527E+02 -0.18439185870E+02  0.23844697609E+02  0.00000000000E+00 0.  1.
</event>
<event>
12    1  0.1040325E-001  0.1792451E+03  0.7818608E-02  0.1169263E+00
         21   -1    0    0  503  502  0.00000000000E+00  0.00000000000E+00  0.28151796871E+03  0.28151796871E+03  0.00000000000E+00 0. -1.
         21   -1    0    0  501  503 -0.00000000000E+00 -0.00000000000E+00 -0.11759650368E+03  0.11759650368E+03  0.00000000000E+00 0. -1.
          6    2    1    2  501    0  0.21341912401E+01  0.52107050938E+02  0.40053605944E+02  0.18366576235E+03  0.17149087841E+03 0.  0.
         24    2    3    3    0    0 -0.11733832333E+02  0.91031356133E+02  0.62264454382E+02  0.13651880697E+03  0.79599822593E+02 0.  0.
         -6    2    1    2    0  502 -0.21341912401E+01 -0.52107050938E+02  0.12386785909E+03  0.21544871004E+03  0.16839002528E+03 0.  0.
        -24    2    5    5    0    0 -0.49091989588E+02 -0.60079163723E+02  0.36897542368E+02  0.11617879819E+03  0.78208408504E+02 0.  0.
          5    1    3    3  501    0  0.13868023573E+02 -0.38924305195E+02 -0.22210848438E+02  0.47146955374E+02  0.47000000000E+01 0. -1.
        -11    1    4    4    0    0 -0.12174631341E+02  0.18813797809E+02  0.60238219020E+02  0.64271484089E+02  0.00000000000E+00 0.  1.
         12    1    4    4    0    0  0.44079900754E+00  0.72217558323E+02  0.20262353619E+01  0.72247322883E+02  0.00000000000E+00 0. -1.
         -5    1    5    5    0  502  0.46957798348E+02  0.79721127859E+01  0.86970316724E+02  0.99269911852E+02  0.47000000000E+01 0.  1.
         11    1    6    6    0    0 -0.49659978183E+02 -0.66927022280E+02  0.52936433850E+02  0.98729963908E+02  0.00000000000E+00 0. -1.
        -12    1    6    6    0    0  0.56798859529E+00  0.68478585569E+01 -0.16038891482E+02  0.17448834282E+02  0.00000000000E+00 0.  1.
</event>
<event>
12    1  0.1040325E-001  0.3164395E+03  0.7818608E-02  0.1077587E+00
         21   -1    0    0  503  502  0.00000000000E+00  0.00000000000E+00  0.64141394191E+03  0.64141394191E+03  0.00000000000E+00 0. -1.
         21   -1    0    0  501  503 -0.00000000000E+00 -0.00000000000E+00 -0.15500931055E+03  0.15500931055E+03  0.00000000000E+00 0. -1.
          6    2    1    2  501    0  0.17991338550E+03  0.19500440917E+03  0.25253269298E+03  0.40293873340E+03  0.16790269791E+03 0.  0.
         24    2    3    3    0    0  0.14557088048E+03  0.94236350638E+02  0.21930238086E+03  0.29131457420E+03  0.81849104262E+02 0.  0.
         -6    2    1    2    0  502 -0.17991338550E+03 -0.19500440917E+03  0.23387193838E+03  0.39348451907E+03  0.17244836127E+03 0.  0.
        -24    2    5    5    0    0 -0.17898884327E+03 -0.21501791145E+03  0.23286294013E+03  0.37288104535E+03  0.80903750430E+02 0.  0.
          5    1    3    3  501    0  0.34342505025E+02  0.10076805853E+03  0.33230312125E+02  0.11162415919E+03  0.47000000000E+01 0. -1.
        -11    1    4    4    0    0  0.48624136731E+02  0.23949735098E+02  0.13326242968E+03  0.14386372597E+03  0.00000000000E+00 0.  1.
         12    1    4    4    0    0  0.96946743748E+02  0.70286615540E+02  0.86039951175E+02  0.14745084824E+03  0.00000000000E+00 0. -1.
         -5    1    5    5    0  502 -0.92454223160E+00  0.20013502280E+02  0.10089982518E+01  0.20603473720E+02  0.47000000000E+01 0.  1.
         13    1    6    6    0    0 -0.82253794952E+02 -0.15616763423E+03  0.16001700403E+03  0.23824243607E+03  0.00000000000E+00 0. -1.
        -14    1    6    6    0    0 -0.96735048320E+02 -0.58850277217E+02  0.72845936098E+02  0.13463860928E+03  0.00000000000E+00 0.  1.
</event>
<event>
12    1  0.1040325E-001  0.2114368E+03  0.7818608E-02  0.1140720E+00
         21   -1    0    0  501  502  0.00000000000E+00  0.00000000000E+00  0.70274225278E+03  0.70274225278E+03  0.00000000000E+00 0. -1.
         21   -1    0    0  502  503 -0.00000000000E+00 -0.00000000000E+00 -0.72217848389E+02  0.72217848389E+02  0.00000000000E+00 0.  1.
         -6    2    1    2    0  503 -0.35712749412E+02  0.11712636064E+03  0.17721611967E+03  0.27476621978E+03  0.17057824490E+03 0.  0.
        -24    2    3    3    0    0  0.25361258135E+02  0.22733490660E+02  0.11640775849E+03  0.14686080515E+03  0.82808965947E+02 0.  0.
          6    2    1    2  501    0  0.35712749412E+02 -0.11712636064E+03  0.45330828472E+03  0.50019388139E+03  0.17237033723E+03 0.  0.
         24    2    5    5    0    0 -0.10312447048E+02 -0.11934618520E+02  0.10370378748E+03  0.13218706649E+03  0.80437325463E+02 0.  0.
          5    1    5    5  501    0  0.46025196460E+02 -0.10519174212E+03  0.34960449724E+03  0.36800681490E+03  0.47000000000E+01 0. -1.
        -11    1    6    6    0    0 -0.26979783662E+02 -0.38822361895E+02  0.78933057207E+02  0.92008217185E+02  0.00000000000E+00 0.  1.
         12    1    6    6    0    0  0.16667336614E+02  0.26887743375E+02  0.24770730271E+02  0.40178849308E+02  0.00000000000E+00 0. -1.
         -5    1    3    3    0  503 -0.61074007548E+02  0.94392869981E+02  0.60808361184E+02  0.12790541463E+03  0.47000000000E+01 0.  1.
         13    1    4    4    0    0 -0.18556709926E+02 -0.20478542365E+02  0.41670010869E+02  0.50001119853E+02  0.00000000000E+00 0. -1.
        -14    1    4    4    0    0  0.43917968061E+02  0.43212033024E+02  0.74737747621E+02  0.96859685299E+02  0.00000000000E+00 0.  1.
</event>
<event>
12    1  0.1040325E-001  0.1760995E+03  0.7818608E-02  0.1173371E+00
         21   -1    0    0  501  502  0.00000000000E+00  0.00000000000E+00  0.14850251023E+04  0.14850251023E+04  0.00000000000E+00 0. -1.
         21   -1    0    0  502  503 -0.00000000000E+00 -0.00000000000E+00 -0.29868914109E+02  0.29868914109E+02  0.00000000000E+00 0. -1.
         -6    2    1    2    0  503 -0.28051471678E+02  0.57899864766E+01  0.30368858485E+03  0.35105240518E+03  0.17375449810E+03 0.  0.
        -24    2    3    3    0    0  0.42125138859E+02 -0.30537875304E+02  0.14920076246E+03  0.17746367434E+03  0.80779942069E+02 0.  0.
          6    2    1    2  501    0  0.28051471678E+02 -0.57899864766E+01  0.11514676033E+04  0.11638416112E+04  0.16682099829E+03 0.  0.
         24    2    5    5    0    0  0.45121408315E+01  0.35711601577E+02  0.10242402335E+04  0.10278806773E+04  0.78580869321E+02 0.  0.
          5    1    5    5  501    0  0.23539330846E+02 -0.41501588054E+02  0.12722736989E+03  0.13596093394E+03  0.47000000000E+01 0. -1.
        -13    1    6    6    0    0  0.28855640493E+02  0.37828228119E+01  0.15467771949E+03  0.15739172356E+03  0.00000000000E+00 0.  1.
         14    1    6    6    0    0 -0.24343499662E+02  0.31928778765E+02  0.86956251396E+03  0.87048895373E+03  0.00000000000E+00 0. -1.
         -5    1    3    3    0  503 -0.70176610536E+02  0.36327861780E+02  0.15448782239E+03  0.17358873084E+03  0.47000000000E+01 0.  1.
         11    1    4    4    0    0  0.10601499812E+01 -0.34809504551E+02  0.12466234406E+03  0.12943541073E+03  0.00000000000E+00 0. -1.
        -12    1    4    4    0    0  0.41064988877E+02  0.42716292474E+01  0.24538418403E+02  0.48028263613E+02  0.00000000000E+00 0.  1.
</event>
<event>
12    1  0.1040325E-001  0.2576220E+03  0.7818608E-02  0.1108633E+00
         21   -1    0    0  503  502  0.00000000000E+00  0.00000000000E+00  0.16858190483E+03  0.16858190483E+03  0.00000000000E+00 0.  1.
         21   -1    0    0  501  503 -0.00000000000E+00 -0.00000000000E+00 -0.49899331455E+03  0.49899331455E+03  0.00000000000E+00 0.  1.
          6    2    1    2  501    0 -0.19080066924E+03  0.22477279124E+02 -0.31883756576E+03  0.40969332211E+03  0.17111721532E+03 0.  0.
         24    2    3    3    0    0 -0.11984257725E+03 -0.54419674066E+02 -0.21426045749E+03  0.26168435683E+03  0.72439041389E+02 0.  0.
         -6    2    1    2    0  502  0.19080066924E+03 -0.22477279124E+02 -0.11573843960E+02  0.25788189726E+03  0.17163623048E+03 0.  0.
        -24    2    5    5    0    0  0.11180780014E+03 -0.42082392622E+02 -0.67674878190E+02  0.15891902601E+03  0.80021595523E+02 0.  0.
          5    1    3    3  501    0 -0.70958091988E+02  0.76896953190E+02 -0.10457710827E+03  0.14800896528E+03  0.47000000000E+01 0. -1.
        -11    1    4    4    0    0 -0.71500181704E+02  0.72401730372E+01 -0.10463397459E+03  0.12693685331E+03  0.00000000000E+00 0.  1.
         12    1    4    4    0    0 -0.48342395550E+02 -0.61659847103E+02 -0.10962648289E+03  0.13474750352E+03  0.00000000000E+00 0. -1.
         -5    1    5    5    0  502  0.78992869101E+02  0.19605113498E+02  0.56101034230E+02  0.98962871248E+02  0.47000000000E+01 0.  1.
         13    1    6    6    0    0  0.35808058142E+02 -0.54774103400E+02 -0.20516110205E+02  0.68580829749E+02  0.00000000000E+00 0. -1.
        -14    1    6    6    0    0  0.75999742000E+02  0.12691710778E+02 -0.47158767986E+02  0.90338196265E+02  0.00000000000E+00 0.  1.
</event>
<event>
12    1  0.1040325E-001  0.1729592E+03  0.7818608E-02  0.1175315E+00
         21   -1    0    0  501  502  0.00000000000E+00  0.00000000000E+00  0.59083691418E+03  0.59083691418E+03  0.00000000000E+00 0.  1.
         21   -1    0    0  502  503 -0.00000000000E+00 -0.00000000000E+00 -0.68291207414E+02  0.68291207414E+02  0.00000000000E+00 0.  1.
         -6    2    1    2    0  503  0.17694509759E+02 -0.18782956454E+02  0.89782962826E+02  0.19308256039E+03  0.16897928744E+03 0.  0.
        -24    2    3    3    0    0  0.30982738842E+02 -0.28848841727E+02  0.12394902410E+03  0.15477709313E+03  0.82464551218E+02 0.  0.
          6    2    1    2  501    0 -0.17694509759E+02  0.18782956454E+02  0.43276274394E+03  0.46604556121E+03  0.17102332429E+03 0.  0.
         24    2    5    5    0    0  0.81153162808E+01  0.38263033752E+02  0.42230179067E+03  0.43173605706E+03  0.80791722692E+02 0.  0.
          5    1    5    5  501    0 -0.25809826040E+02 -0.19480077298E+02  0.10460953278E+02  0.34309504152E+02  0.47000000000E+01 0. -1.
        -13    1    6    6    0    0  0.47510405136E+01  0.39344632604E+02  0.78690246599E+02  0.88106341488E+02  0.00000000000E+00 0.  1.
         14    1    6    6    0    0  0.33642757672E+01 -0.10815988520E+01  0.34361154407E+03  0.34362971557E+03  0.00000000000E+00 0. -1.
         -5    1    3    3    0  503 -0.13288229084E+02  0.10065885273E+02 -0.34166061275E+02  0.38305467254E+02  0.47000000000E+01 0.  1.
         13    1    4    4    0    0 -0.22023846728E+02 -0.28236136795E+02  0.72716698916E+02  0.81055829815E+02  0.00000000000E+00 0. -1.
        -14    1    4    4    0    0  0.53006585570E+02 -0.61270493216E+00  0.51232325185E+02  0.73721263316E+02  0.00000000000E+00 0.  1.
</event>
<event>
12    1  0.1040325E-001  0.3075245E+03  0.7818608E-02  0.1081769E+00
         21   -1    0    0  501  502  0.00000000000E+00  0.00000000000E+00  0.21272893987E+03  0.21272893987E+03  0.00000000000E+00 0.  1.
         21   -1    0    0  502  503 -0.00000000000E+00 -0.00000000000E+00 -0.59191939946E+03  0.59191939946E+03  0.00000000000E+00 0.  1.
         -6    2    1    2    0  503 -0.25279478910E+03 -0.13071013007E+01 -0.39262462905E+03  0.49872377922E+03  0.17511252015E+03 0.  0.
        -24    2    3    3    0    0 -0.95678024252E+02 -0.31624350336E+02 -0.26265069155E+03  0.29251968660E+03  0.80174792898E+02 0.  0.
          6    2    1    2  501    0  0.25279478910E+03  0.13071013007E+01  0.13434169462E+02  0.30592456011E+03  0.17176275981E+03 0.  0.
         24    2    5    5    0    0  0.19330348047E+03  0.45663827777E+02  0.50218214544E+02  0.22296739671E+03  0.87983920095E+02 0.  0.
          5    1    5    5  501    0  0.59491308625E+02 -0.44356726476E+02 -0.36784045082E+02  0.82957163393E+02  0.47000000000E+01 0. -1.
        -13    1    6    6    0    0  0.70855413250E+02  0.26872578670E+02 -0.22840372461E+02  0.79147379523E+02  0.00000000000E+00 0.  1.
         14    1    6    6    0    0  0.12244806722E+03  0.18791249108E+02  0.73058587005E+02  0.14382001719E+03  0.00000000000E+00 0. -1.
         -5    1    3    3    0  503 -0.15711676484E+03  0.30317249036E+02 -0.12997393750E+03  0.20620409262E+03  0.47000000000E+01 0.  1.
         11    1    4    4    0    0 -0.34146414561E+02  0.25925985362E+02 -0.67577538876E+02  0.80030357396E+02  0.00000000000E+00 0. -1.
        -12    1    4    4    0    0 -0.61531609691E+02 -0.57550335699E+02 -0.19507315267E+03  0.21248932920E+03  0.00000000000E+00 0.  1.
</event>
<event>
12    1  0.1040325E-001  0.2367113E+03  0.7818608E-02  0.1122093E+00
         21   -1    0    0  501  502  0.00000000000E+00  0.00000000000E+00  0.53325928887E+02  0.53325928887E+02  0.00000000000E+00 0.  1.
         21   -1    0    0  502  503 -0.00000000000E+00 -0.00000000000E+00 -0.12838484291E+04  0.12838484291E+04  0.00000000000E+00 0. -1.
         -6    2    1    2    0  503  0.10124084450E+03 -0.12711422606E+03 -0.90101739682E+03  0.93145790470E+03  0.17138770026E+03 0.  0.
        -24    2    3    3    0    0  0.87725946303E+02 -0.64948112586E+02 -0.80577684061E+03  0.81682749126E+03  0.77567613351E+02 0.  0.
          6    2    1    2  501    0 -0.10124084450E+03  0.12711422606E+03 -0.32950510342E+03  0.40571645331E+03  0.17211766976E+03 0.  0.
         24    2    5    5    0    0 -0.27673732545E+02  0.41043654573E+02 -0.57407456750E+02  0.11096319623E+03  0.81035780819E+02 0.  0.
          5    1    5    5  501    0 -0.73567111953E+02  0.86070571486E+02 -0.27209764667E+03  0.29475325708E+03  0.47000000000E+01 0. -1.
        -13    1    6    6    0    0  0.28259514019E+02  0.21924416382E+02 -0.19428614709E+02  0.40703209159E+02  0.00000000000E+00 0.  1.
         14    1    6    6    0    0 -0.55933246565E+02  0.19119238191E+02 -0.37978842041E+02  0.70259987070E+02  0.00000000000E+00 0. -1.
         -5    1    3    3    0  503  0.13514898195E+02 -0.62166113474E+02 -0.95240556215E+02  0.11463041344E+03  0.47000000000E+01 0.  1.
         11    1    4    4    0    0  0.18129250700E+02 -0.60953945138E+02 -0.34592036619E+03  0.35171714900E+03  0.00000000000E+00 0. -1.
        -12    1    4    4    0    0  0.69596695603E+02 -0.39941674476E+01 -0.45985647442E+03  0.46511034226E+03  0.00000000000E+00 0.  1.
</event>
<event>
12    1  0.1040325E-001  0.3070736E+03  0.7818608E-02  0.1081892E+00
         21   -1    0    0  503  502  0.00000000000E+00  0.00000000000E+00  0.13428456641E+04  0.13428456641E+04  0.00000000000E+00 0. -1.
         21   -1    0    0  501  503 -0.00000000000E+00 -0.00000000000E+00 -0.83304556272E+02  0.83304556272E+02  0.00000000000E+00 0. -1.
          6    2    1    2  501    0  0.15519818108E+03  0.20177136024E+03  0.34539096233E+03  0.46215704259E+03  0.17174416419E+03 0.  0.
         24    2    3    3    0    0  0.82075703754E+02  0.11598424694E+03  0.98087187985E+02  0.19033435718E+03  0.80108079434E+02 0.  0.
         -6    2    1    2    0  502 -0.15519818108E+03 -0.20177136024E+03  0.91415014553E+03  0.96399317781E+03  0.16974746266E+03 0.  0.
        -24    2    5    5    0    0 -0.15015641713E+03 -0.11235485723E+03  0.49178714846E+03  0.53221392671E+03  0.78908179816E+02 0.  0.
          5    1    3    3  501    0  0.73122477328E+02  0.85787113293E+02  0.24730377434E+03  0.27182268541E+03  0.47000000000E+01 0. -1.
        -11    1    4    4    0    0  0.41973957187E+01 -0.25024434576E+01 -0.10605782268E+02  0.11677455698E+02  0.00000000000E+00 0.  1.
         12    1    4    4    0    0  0.77878308036E+02  0.11848669040E+03  0.10869297025E+03  0.17865690148E+03  0.00000000000E+00 0. -1.
         -5    1    5    5    0  502 -0.50417639517E+01 -0.89416503006E+02  0.42236299706E+03  0.43177925110E+03  0.47000000000E+01 0.  1.
         13    1    6    6    0    0 -0.16424007203E+02  0.86612195951E+01  0.88603972109E+02  0.90528606589E+02  0.00000000000E+00 0. -1.
        -14    1    6    6    0    0 -0.13373240993E+03 -0.12101607683E+03  0.40318317635E+03  0.44168532012E+03  0.00000000000E+00 0.  1.
</event>
<event>
12    1  0.1040325E-001  0.2937681E+03  0.7818608E-02  0.1089540E+00
         21   -1    0    0  503  502  0.00000000000E+00  0.00000000000E+00  0.20891683149E+03  0.20891683149E+03  0.00000000000E+00 0.  1.
         21   -1    0    0  501  503 -0.00000000000E+00 -0.00000000000E+00 -0.40443686460E+03  0.40443686460E+03  0.00000000000E+00 0. -1.
          6    2    1    2  501    0  0.18595376914E+03 -0.14864022070E+03 -0.67461685224E+02  0.29288745138E+03  0.15671394556E+03 0.  0.
         24    2    3    3    0    0  0.79368855288E+02 -0.13098308650E+03 -0.64669150267E+02  0.18471163846E+03  0.80500349356E+02 0.  0.
         -6    2    1    2    0  502 -0.18595376914E+03  0.14864022070E+03 -0.12805834789E+03  0.32046624471E+03  0.17212482118E+03 0.  0.
        -24    2    5    5    0    0 -0.16825603870E+03  0.14985174089E+03 -0.15724117128E+03  0.28599299965E+03  0.79382435694E+02 0.  0.
          5    1    3    3  501    0  0.10658491385E+03 -0.17657134202E+02 -0.27925349570E+01  0.10817581292E+03  0.47000000000E+01 0. -1.
        -11    1    4    4    0    0  0.60157334125E+02 -0.60794759173E+02  0.26645885109E+01  0.85568730410E+02  0.00000000000E+00 0.  1.
         12    1    4    4    0    0  0.19211521163E+02 -0.70188327326E+02 -0.67333738778E+02  0.99142908047E+02  0.00000000000E+00 0. -1.
         -5    1    5    5    0  502 -0.17697730444E+02 -0.12115201921E+01  0.29182823389E+02  0.34473245060E+02  0.47000000000E+01 0.  1.
         11    1    6    6    0    0 -0.20068709614E+02  0.63477449117E+02 -0.54637058149E+02  0.86124025539E+02  0.00000000000E+00 0. -1.
        -12    1    6    6    0    0 -0.14818732908E+03  0.86374291775E+02 -0.10260411313E+03  0.19986897411E+03  0.00000000000E+00 0.  1.
</event>
<event>
12    1  0.1040325E-001  0.2018428E+03  0.7818608E-02  0.1148277E+00
         21   -1    0    0  501  502  0.00000000000E+00  0.00000000000E+00  0.13517870706E+04  0.13517870706E+04  0.00000000000E+00 0. -1.
         21   -1    0    0  502  503 -0.00000000000E+00 -0.00000000000E+00 -0.36835095651E+02  0.36835095651E+02  0.00000000000E+00 0.  1.
         -6    2    1    2    0  503 -0.94527724898E+02 -0.47202063388E+02  0.95430244412E+03  0.97533221819E+03  0.17151167724E+03 0.  0.
        -24    2    3    3    0    0 -0.87166600149E+02  0.17625774884E+02  0.40867280372E+03  0.42579547760E+03  0.79872674469E+02 0.  0.
          6    2    1    2  501    0  0.94527724898E+02  0.47202063388E+02  0.36064953079E+03  0.41328994802E+03  0.17197956713E+03 0.  0.
         24    2    5    5    0    0  0.17420274242E+02  0.36208469499E+02  0.93614566441E+02  0.13508825816E+03  0.88716578078E+02 0.  0.
          5    1    5    5  501    0  0.77107450656E+02  0.10993593889E+02  0.26703496435E+03  0.27820168985E+03  0.47000000000E+01 0. -1.
        -11    1    6    6    0    0 -0.33952593197E+02  0.21501833198E+02  0.22255985932E+02  0.45939485473E+02  0.00000000000E+00 0.  1.
         12    1    6    6    0    0  0.51372867439E+02  0.14706636301E+02  0.71358580509E+02  0.89148772692E+02  0.00000000000E+00 0. -1.
         -5    1    3    3    0  503 -0.73611247495E+01 -0.64827838271E+02  0.54562964040E+03  0.54953674059E+03  0.47000000000E+01 0.  1.
         11    1    4    4    0    0 -0.72081264571E+02  0.17634419207E+02  0.40284635256E+03  0.40962405351E+03  0.00000000000E+00 0. -1.
        -12    1    4    4    0    0 -0.15085335577E+02 -0.86443230123E-02  0.58264511630E+01  0.16171424098E+02  0.00000000000E+00 0.  1.
</event>
<event>
12    1  0.1040325E-001  0.1731453E+03  0.7818608E-02  0.1174835E+00
         21   -1    0    0  501  502  0.00000000000E+00  0.00000000000E+00  0.45995340687E+02  0.45995340687E+02  0.00000000000E+00 0.  1.
         21   -1    0    0  502  503 -0.00000000000E+00 -0.00000000000E+00 -0.65970180430E+03  0.65970180430E+03  0.00000000000E+00 0.  1.
         -6    2    1    2    0  503 -0.72696795618E+01  0.50799822461E+01 -0.35373859257E+03  0.39384043428E+03  0.17291801913E+03 0.  0.
        -24    2    3    3    0    0  0.46181543221E+01 -0.22190829940E+02 -0.35404071123E+03  0.36372068881E+03  0.80213178321E+02 0.  0.
          6    2    1    2  501    0  0.72696795618E+01 -0.50799822461E+01 -0.25996787103E+03  0.31185671070E+03  0.17202517135E+03 0.  0.
         24    2    5    5    0    0 -0.61082416498E+02 -0.46536512796E+01 -0.13435408589E+03  0.16877245645E+03  0.81733735920E+02 0.  0.
          5    1    5    5  501    0  0.68352096060E+02 -0.42633096653E+00 -0.12561378515E+03  0.14308425424E+03  0.47000000000E+01 0. -1.
        -13    1    6    6    0    0 -0.30184048797E+02  0.15138034477E+02 -0.47812660319E+01  0.34104213735E+02  0.00000000000E+00 0.  1.
         14    1    6    6    0    0 -0.30898367701E+02 -0.19791685757E+02 -0.12957281986E+03  0.13466824272E+03  0.00000000000E+00 0. -1.
         -5    1    3    3    0  503 -0.11887833884E+02  0.27270812186E+02  0.30211865675E+00  0.30119745474E+02  0.47000000000E+01 0.  1.
         11    1    4    4    0    0 -0.36426035081E+02 -0.10457410586E+02 -0.21358652272E+03  0.21692260407E+03  0.00000000000E+00 0. -1.
        -12    1    4    4    0    0  0.41044189403E+02 -0.11733419354E+02 -0.14045418851E+03  0.14679808474E+03  0.00000000000E+00 0.  1.
</event>
<event>
12    1  0.1040325E-001  0.2081699E+03  0.7818608E-02  0.1143695E+00
         21   -1    0    0  503  502  0.00000000000E+00  0.00000000000E+00  0.94554426145E+02  0.94554426145E+02  0.00000000000E+00 0.  1.
         21   -1    0    0  501  503 -0.00000000000E+00 -0.00000000000E+00 -0.58683829692E+03  0.58683829692E+03  0.00000000000E+00 0. -1.
          6    2    1    2  501    0  0.10947621949E+03 -0.52001502616E+01 -0.40852178666E+03  0.45700285334E+03  0.17305916210E+03 0.  0.
         24    2    3    3    0    0  0.11836543785E+03 -0.54943550495E+02 -0.32626256236E+03  0.36034834464E+03  0.79840461335E+02 0.  0.
         -6    2    1    2    0  502 -0.10947621949E+03  0.52001502616E+01 -0.83762084113E+02  0.22438986972E+03  0.17698204063E+03 0.  0.
        -24    2    5    5    0    0 -0.11050362610E+03 -0.12760035471E+02 -0.12100452335E+03  0.18276399897E+03  0.79916924129E+02 0.  0.
          5    1    3    3  501    0 -0.88892183670E+01  0.49743400233E+02 -0.82259224306E+02  0.96654508707E+02  0.47000000000E+01 0. -1.
        -13    1    4    4    0    0  0.92042588217E+01  0.25308006996E-01 -0.12175564859E+03  0.12210305886E+03  0.00000000000E+00 0.  1.
         14    1    4    4    0    0  0.10916117903E+03 -0.54968858502E+02 -0.20450691377E+03  0.23824528577E+03  0.00000000000E+00 0. -1.
         -5    1    5    5    0  502  0.10274066158E+01  0.17960185733E+02  0.37242439234E+02  0.41625870754E+02  0.47000000000E+01 0.  1.
         11    1    6    6    0    0 -0.66484855789E+02  0.25074189803E+02 -0.96310462119E+02  0.11968565560E+03  0.00000000000E+00 0. -1.
        -12    1    6    6    0    0 -0.44018770313E+02 -0.37834225274E+02 -0.24694061227E+02  0.63078343367E+02  0.00000000000E+00 0.  1.
</event>
<event>
12    1  0.1040325E-001  0.2038536E+03  0.7818608E-02  0.1147161E+00
         21   -1    0    0  503  502  0.00000000000E+00  0.00000000000E+00  0.91842894436E+03  0.91842894436E+03  0.00000000000E+00 0.  1.
         21   -1    0    0  501  503 -0.00000000000E+00 -0.00000000000E+00 -0.16905384768E+03  0.16905384768E+03  0.00000000000E+00 0. -1.
          6    2    1    2  501    0 -0.14821808248E+02 -0.10693593120E+03 -0.92641952627E+02  0.22114048679E+03  0.16930919683E+03 0.  0.
         24    2    3    3    0    0 -0.59558167162E+02 -0.71107529011E+02 -0.11196672587E+03  0.16047292484E+03  0.67908437975E+02 0.  0.
         -6    2    1    2    0  502  0.14821808248E+02  0.10693593120E+03  0.84201704931E+03  0.86634230524E+03  0.17291992118E+03 0.  0.
        -24    2    5    5    0    0  0.54453108792E+02  0.12589435441E+03  0.70146635622E+03  0.71901053975E+03  0.78144595728E+02 0.  0.
          5    1    3    3  501    0  0.44736358914E+02 -0.35828402189E+02  0.19324773242E+02  0.60667561952E+02  0.47000000000E+01 0. -1.
        -13    1    4    4    0    0 -0.47021475923E+02 -0.54394123396E+01 -0.37419769495E+02  0.60339419566E+02  0.00000000000E+00 0.  1.
         14    1    4    4    0    0 -0.12536691240E+02 -0.65668116672E+02 -0.74546956374E+02  0.10013350528E+03  0.00000000000E+00 0. -1.
         -5    1    5    5    0  502 -0.39631300544E+02 -0.18958423207E+02  0.14055069309E+03  0.14733176549E+03  0.47000000000E+01 0.  1.
         13    1    6    6    0    0  0.38177403230E+02  0.77605877460E+02  0.24716266551E+03  0.26185791864E+03  0.00000000000E+00 0. -1.
        -14    1    6    6    0    0  0.16275705562E+02  0.48288476947E+02  0.45430369071E+03  0.45715262111E+03  0.00000000000E+00 0.  1.
</event>
<event>
12    1  0.1040325E-001  0.1784210E+03  0.7818608E-02  0.1169369E+00
         21   -1    0    0  503  502  0.00000000000E+00  0.00000000000E+00  0.17289755557E+04  0.17289755557E+04  0.00000000000E+00 0.  1.
         21   -1    0    0  501  503 -0.00000000000E+00 -0.00000000000E+00 -0.18657688922E+02  0.18657688922E+02  0.00000000000E+00 0.  1.
          6    2    1    2  501    0  0.23905948513E+02 -0.39428621947E+02  0.95812295960E+03  0.97459410109E+03  0.17235993025E+03 0.  0.
         24    2    3    3    0    0  0.53931307371E+02  0.17139878855E+02  0.36244016076E+03  0.37546005574E+03  0.80031381116E+02 0.  0.
         -6    2    1    2    0  502 -0.23905948513E+02  0.39428621947E+02  0.75219490720E+03  0.77303914356E+03  0.17223887033E+03 0.  0.
        -24    2    5    5    0    0 -0.37576613396E+02  0.80381756811E+02  0.37774725380E+03  0.39608134556E+03  0.79462040289E+02 0.  0.
          5    1    3    3  501    0 -0.30025358858E+02 -0.56568500802E+02  0.59568279884E+03  0.59913404535E+03  0.47000000000E+01 0. -1.
        -13    1    4    4    0    0  0.77084086024E+01 -0.28564213698E+02  0.16391740396E+03  0.16656605053E+03  0.00000000000E+00 0.  1.
         14    1    4    4    0    0  0.46222898769E+02  0.45704092553E+02  0.19852275680E+03  0.20889400521E+03  0.00000000000E+00 0. -1.
         -5    1    5    5    0  502  0.13670664883E+02 -0.40953134863E+02  0.37444765341E+03  0.37695779800E+03  0.47000000000E+01 0.  1.
         11    1    6    6    0    0  0.12824195892E+01 -0.14556280781E+02  0.27774475094E+02  0.31383935014E+02  0.00000000000E+00 0. -1.
        -12    1    6    6    0    0 -0.38859032985E+02  0.94938037591E+02  0.34997277870E+03  0.36469741054E+03  0.00000000000E+00 0.  1.
</event>
<event>
12    1  0.1040325E-001  0.2349699E+03  0.7818608E-02  0.1123244E+00
         21   -1    0    0  503  502  0.00000000000E+00  0.00000000000E+00  0.11772717303E+03  0.11772717303E+03  0.00000000000E+00 0.  1.
         21   -1    0    0  501  503 -0.00000000000E+00 -0.00000000000E+00 -0.47863949491E+03  0.47863949491E+03  0.00000000000E+00 0.  1.
          6    2    1    2  501    0  0.11464396673E+03  0.11150944573E+03 -0.13684876936E+03  0.27191625646E+03  0.17214316501E+03 0.  0.
         24    2    3    3    0    0  0.15000108688E+03  0.83762318373E+02 -0.10761673061E+03  0.21809589682E+03  0.80423923429E+02 0.  0.
         -6    2    1    2    0  502 -0.11464396673E+03 -0.11150944573E+03 -0.22406355252E+03  0.32445041148E+03  0.17171487514E+03 0.  0.
        -24    2    5    5    0    0 -0.37804013500E+02 -0.12526453370E+03 -0.16966930137E+03  0.22919073788E+03  0.81365690923E+02 0.  0.
          5    1    3    3  501    0 -0.35357120152E+02  0.27747127362E+02 -0.29232038752E+02  0.53820359641E+02  0.47000000000E+01 0. -1.
        -11    1    4    4    0    0  0.40757033322E+02  0.37582889189E+02  0.35299446770E+01  0.55552406198E+02  0.00000000000E+00 0.  1.
         12    1    4    4    0    0  0.10924405356E+03  0.46179429184E+02 -0.11114667528E+03  0.16254349062E+03  0.00000000000E+00 0. -1.
         -5    1    5    5    0  502 -0.76839953226E+02  0.13755087966E+02 -0.54394251149E+02  0.95259673602E+02  0.47000000000E+01 0.  1.
         11    1    6    6    0    0 -0.81755427444E+01 -0.92566816641E+01  0.81657895876E+01  0.14805599420E+02  0.00000000000E+00 0. -1.
        -12    1    6    6    0    0 -0.29628470756E+02 -0.11600785204E+03 -0.17783509096E+03  0.21438513846E+03  0.00000000000E+00 0.  1.
</event>
<event>
12    1  0.1040325E-001  0.3026127E+03  0.7818608E-02  0.1083958E+00
         21   -1    0    0  501  502  0.00000000000E+00  0.00000000000E+00  0.11595253557E+04  0.11595253557E+04  0.00000000000E+00 0. -1.
         21   -1    0    0  502  503 -0.00000000000E+00 -0.00000000000E+00 -0.80941494277E+02  0.80941494277E+02  0.00000000000E+00 0.  1.
         -6    2    1    2    0  503  0.19581852937E+03  0.15385373540E+03  0.63668666244E+03  0.70488531330E+03  0.17169021645E+03 0.  0.
        -24    2    3    3    0    0  0.20365973715E+03  0.91197433443E+02  0.53095521806E+03  0.58164357911E+03  0.81249917738E+02 0.  0.
          6    2    1    2  501    0 -0.19581852937E+03 -0.15385373540E+03  0.44189719897E+03  0.53558153667E+03  0.17192608769E+03 0.  0.
         24    2    5    5    0    0 -0.14087384667E+03 -0.86435072694E+02  0.39647886982E+03  0.43735165904E+03  0.82246683708E+02 0.  0.
          5    1    5    5  501    0 -0.54944682702E+02 -0.67418662702E+02  0.45418329151E+02  0.98229877637E+02  0.47000000000E+01 0. -1.
        -11    1    6    6    0    0 -0.70957421955E+02 -0.24065842483E+02  0.91271725015E+02  0.11808746035E+03  0.00000000000E+00 0.  1.
         12    1    6    6    0    0 -0.69916424714E+02 -0.62369230211E+02  0.30520714481E+03  0.31926419869E+03  0.00000000000E+00 0. -1.
         -5    1    3    3    0  503 -0.78412077763E+01  0.62656301953E+02  0.10573144438E+03  0.12324173419E+03  0.47000000000E+01 0.  1.
         13    1    4    4    0    0  0.14779797706E+03  0.82849696063E+02  0.46444703566E+03  0.49438786705E+03  0.00000000000E+00 0. -1.
        -14    1    4    4    0    0  0.55861760090E+02  0.83477373799E+01  0.66508182404E+02  0.87255712056E+02  0.00000000000E+00 0.  1.
</event>
<event>
12    1  0.1040325E-001  0.1900903E+03  0.7818608E-02  0.1158571E+00
         21   -1    0    0  503  502  0.00000000000E+00  0.00000000000E+00  0.87994691195E+02  0.87994691195E+02  0.00000000000E+00 0.  1.
         21   -1    0    0  501  503 -0.00000000000E+00 -0.00000000000E+00 -0.43541938464E+03  0.43541938464E+03  0.00000000000E+00 0.  1.
          6    2    1    2  501    0  0.21165201133E+02 -0.77392862931E+02 -0.23876976684E+03  0.30519719381E+03  0.17232731814E+03 0.  0.
         24    2    3    3    0    0  0.15281061597E+02 -0.11292004299E+03 -0.12198742324E+03  0.18289834100E+03  0.74742389300E+02 0.  0.
         -6    2    1    2    0  502 -0.21165201133E+02  0.77392862931E+02 -0.10865492660E+03  0.21821688203E+03  0.17139163794E+03 0.  0.
        -24    2    5    5    0    0 -0.45581575012E+02  0.74845372222E+02 -0.13644518808E+03  0.18083991512E+03  0.80039214319E+02 0.  0.
          5    1    3    3  501    0  0.58841395357E+01  0.35527180062E+02 -0.11678234360E+03  0.12229885281E+03  0.47000000000E+01 0. -1.
        -11    1    4    4    0    0 -0.51262091439E+01 -0.75400071724E+02 -0.11783314980E+03  0.13998607083E+03  0.00000000000E+00 0.  1.
         12    1    4    4    0    0  0.20407270741E+02 -0.37519971269E+02 -0.41542734464E+01  0.42912270168E+02  0.00000000000E+00 0. -1.
         -5    1    5    5    0  502  0.24416373879E+02  0.25474907088E+01  0.27790261472E+02  0.37376966905E+02  0.47000000000E+01 0.  1.
         11    1    6    6    0    0 -0.11717141874E+02 -0.16525017323E+02 -0.33037891957E+02  0.38753966457E+02  0.00000000000E+00 0. -1.
        -12    1    6    6    0    0 -0.33864433139E+02  0.91370389545E+02 -0.10340729612E+03  0.14208594866E+03  0.00000000000E+00 0.  1.
</event>
<event>
12    1  0.1040325E-001  0.4831493E+03  0.7818608E-02  0.1018573E+00
         21   -1    0    0  503  502  0.00000000000E+00  0.00000000000E+00  0.24952487786E+04  0.24952487786E+04  0.00000000000E+00 0.  1.
         21   -1    0    0  501  503 -0.00000000000E+00 -0.00000000000E+00 -0.13255727807E+03  0.13255727807E+03  0.00000000000E+00 0.  1.
          6    2    1    2  501    0  0.41659496657E+03  0.16207606047E+03  0.45718463836E+03  0.66200097698E+03  0.17148610561E+03 0.  0.
         24    2    3    3    0    0  0.15337591231E+03  0.52792957895E+02  0.10535379636E+03  0.20919406624E+03  0.79696098153E+02 0.  0.
         -6    2    1    2    0  502 -0.41659496657E+03 -0.16207606047E+03  0.19055068622E+04  0.19658050797E+04  0.18333901391E+03 0.  0.
        -24    2    5    5    0    0 -0.29084272502E+03 -0.46224056127E+02  0.13731985449E+04  0.14066901114E+04  0.79854064738E+02 0.  0.
          5    1    3    3  501    0  0.26321905426E+03  0.10928310257E+03  0.35183084200E+03  0.45280691074E+03  0.47000000000E+01 0. -1.
        -13    1    4    4    0    0  0.13910585849E+03  0.70655270588E+02  0.81014188709E+02  0.17580075625E+03  0.00000000000E+00 0.  1.
         14    1    4    4    0    0  0.14270053820E+02 -0.17862312693E+02  0.24339607656E+02  0.33393309983E+02  0.00000000000E+00 0. -1.
         -5    1    5    5    0  502 -0.12575224155E+03 -0.11585200434E+03  0.53230831725E+03  0.55911496830E+03  0.47000000000E+01 0.  1.
         11    1    6    6    0    0 -0.66749667290E+02 -0.30683965968E+01  0.18317313844E+03  0.19498033692E+03  0.00000000000E+00 0. -1.
        -12    1    6    6    0    0 -0.22409305773E+03 -0.43155659530E+02  0.11900254065E+04  0.12117097745E+04  0.00000000000E+00 0.  1.
</event>
<event>
12    1  0.1040325E-001  0.1874592E+03  0.7818608E-02  0.1160829E+00
         21   -1    0    0  501  502  0.00000000000E+00  0.00000000000E+00  0.18687510537E+03  0.18687510537E+03  0.00000000000E+00 0.  1.
         21   -1    0    0  502  503 -0.00000000000E+00 -0.00000000000E+00 -0.20905679257E+03  0.20905679257E+03  0.00000000000E+00 0.  1.
         -6    2    1    2    0  503 -0.15415637254E+02  0.77653244918E+02 -0.74220081564E+02  0.20161737255E+03  0.16992138208E+03 0.  0.
        -24    2    3    3    0    0  0.10394830985E+02 -0.21847925611E+02 -0.22795864914E+02  0.86581711709E+02  0.79945962878E+02 0.  0.
          6    2    1    2  501    0  0.15415637254E+02 -0.77653244918E+02  0.52038394368E+02  0.19431452539E+03  0.16965397718E+03 0.  0.
         24    2    5    5    0    0  0.74874075624E+02 -0.41172107094E+02  0.34421600689E+02  0.12221306404E+03  0.80311374187E+02 0.  0.
          5    1    5    5  501    0 -0.59458438370E+02 -0.36481137824E+02  0.17616793678E+02  0.72101461357E+02  0.47000000000E+01 0. -1.
        -11    1    6    6    0    0  0.17702344569E+02 -0.41603880875E+02  0.45312608086E+02  0.64011626747E+02  0.00000000000E+00 0.  1.
         12    1    6    6    0    0  0.57171731054E+02  0.43177378124E+00 -0.10891007397E+02  0.58201437289E+02  0.00000000000E+00 0. -1.
         -5    1    3    3    0  503 -0.25810468240E+02  0.99501170529E+02 -0.51424216651E+02  0.11503566084E+03  0.47000000000E+01 0.  1.
         11    1    4    4    0    0  0.55600710129E+01  0.15028111214E+02  0.22720702699E+02  0.27802676984E+02  0.00000000000E+00 0. -1.
        -12    1    4    4    0    0  0.48347599724E+01 -0.36876036825E+02 -0.45516567613E+02  0.58779034725E+02  0.00000000000E+00 0.  1.
</event>
<event>
12    1  0.1040325E-001  0.2188464E+03  0.7818608E-02  0.1134974E+00
         21   -1    0    0  503  502  0.00000000000E+00  0.00000000000E+00  0.24383082961E+03  0.24383082961E+03  0.00000000000E+00 0. -1.
         21   -1    0    0  501  503 -0.00000000000E+00 -0.00000000000E+00 -0.25000315817E+03  0.25000315817E+03  0.00000000000E+00 0. -1.
          6    2    1    2  501    0  0.61041317164E+02  0.11841797729E+03 -0.11854116049E+03  0.24782485357E+03  0.17209384523E+03 0.  0.
         24    2    3    3    0    0  0.62440649123E+02  0.64664928152E+01 -0.33894398476E+02  0.10738889903E+03  0.80267647249E+02 0.  0.
         -6    2    1    2    0  502 -0.61041317164E+02 -0.11841797729E+03  0.11236883192E+03  0.24600913422E+03  0.17362280952E+03 0.  0.
        -24    2    5    5    0    0  0.18839120278E+02 -0.60884445969E+01  0.82148775419E+02  0.10482078478E+03  0.62024140533E+02 0.  0.
          5    1    3    3  501    0 -0.13993319593E+01  0.11195148448E+03 -0.84646762013E+02  0.14043595453E+03  0.47000000000E+01 0. -1.
        -13    1    4    4    0    0  0.15344844287E+02  0.37444118975E+02  0.20761090579E+01  0.40519581943E+02  0.00000000000E+00 0.  1.
         14    1    4    4    0    0  0.47095804836E+02 -0.30977626160E+02 -0.35970507533E+02  0.66869317088E+02  0.00000000000E+00 0. -1.
         -5    1    5    5    0  502 -0.79880437442E+02 -0.11232953270E+03  0.30220056504E+02  0.14118834944E+03  0.47000000000E+01 0.  1.
         11    1    6    6    0    0  0.34547482194E+02 -0.18968371969E+02  0.72073644926E+02  0.82145833455E+02  0.00000000000E+00 0. -1.
        -12    1    6    6    0    0 -0.15708361916E+02  0.12879927372E+02  0.10075130493E+02  0.22674951326E+02  0.00000000000E+00 0.  1.
</event>
<event>
12    1  0.1040325E-001  0.1812536E+03  0.7818608E-02  0.1167207E+00
         21   -1    0    0  503  502  0.00000000000E+00  0.00000000000E+00  0.28688322191E+02  0.28688322191E+02  0.00000000000E+00 0.  1.
         21   -1    0    0  501  503 -0.00000000000E+00 -0.00000000000E+00 -0.16217205554E+04  0.16217205554E+04  0.00000000000E+00 0.  1.
          6    2    1    2  501    0 -0.46085162786E+02  0.20773681673E+02 -0.12473590180E+04  0.12600976690E+04  0.17142411569E+03 0.  0.
         24    2    3    3    0    0  0.10332792591E+02  0.56680347306E+02 -0.95559424705E+03  0.96072992538E+03  0.80760114861E+02 0.  0.
         -6    2    1    2    0  502  0.46085162786E+02 -0.20773681673E+02 -0.34567321518E+03  0.39031120860E+03  0.17406171259E+03 0.  0.
        -24    2    5    5    0    0 -0.35236470462E+02 -0.42470658983E+02 -0.17314662974E+03  0.19829173161E+03  0.79337820193E+02 0.  0.
          5    1    3    3  501    0 -0.56417955377E+02 -0.35906665633E+02 -0.29176477095E+03  0.29936774358E+03  0.47000000000E+01 0. -1.
        -11    1    4    4    0    0 -0.34056944797E+01  0.66055049524E+02 -0.44732232315E+03  0.45218594528E+03  0.00000000000E+00 0.  1.
         12    1    4    4    0    0  0.13738487071E+02 -0.93747022184E+01 -0.50827192390E+03  0.50854398010E+03  0.00000000000E+00 0. -1.
         -5    1    5    5    0  502  0.81321633249E+02  0.21696977310E+02 -0.17252658544E+03  0.19201947699E+03  0.47000000000E+01 0.  1.
         13    1    6    6    0    0 -0.19912691584E+02 -0.64907116411E+02 -0.10626493418E+03  0.12610188453E+03  0.00000000000E+00 0. -1.
        -14    1    6    6    0    0 -0.15323778879E+02  0.22436457428E+02 -0.66881695558E+02  0.72189847082E+02  0.00000000000E+00 0.  1.
</event>
<event>
12    1  0.1040325E-001  0.2837915E+03  0.7818608E-02  0.1094014E+00
         21   -1    0    0  503  502  0.00000000000E+00  0.00000000000E+00  0.12538211509E+03  0.12538211509E+03  0.00000000000E+00 0.  1.
         21   -1    0    0  501  503 -0.00000000000E+00 -0.00000000000E+00 -0.64149521286E+03  0.64149521286E+03  0.00000000000E+00 0. -1.
          6    2    1    2  501    0  0.62701424051E+02 -0.21729436962E+03 -0.29226041652E+03  0.40542522176E+03  0.16674875632E+03 0.  0.
         24    2    3    3    0    0  0.10581849823E+03 -0.17054673834E+03 -0.21447740631E+03  0.30484336558E+03  0.81517944009E+02 0.  0.
         -6    2    1    2    0  502 -0.62701424051E+02  0.21729436962E+03 -0.22385268125E+03  0.36145210619E+03  0.17143304966E+03 0.  0.
        -24    2    5    5    0    0  0.10460392097E+02  0.16904039736E+03 -0.10419543024E+03  0.21305721106E+03  0.76502364387E+02 0.  0.
          5    1    3    3  501    0 -0.43117074181E+02 -0.46747631282E+02 -0.77783010205E+02  0.10058185618E+03  0.47000000000E+01 0. -1.
        -13    1    4    4    0    0  0.93017504372E+01 -0.72556604883E+02 -0.42392878837E+02  0.84546671427E+02  0.00000000000E+00 0.  1.
         14    1    4    4    0    0  0.96516747795E+02 -0.97990133454E+02 -0.17208452747E+03  0.22029669415E+03  0.00000000000E+00 0. -1.
         -5    1    5    5    0  502 -0.73161816149E+02  0.48253972257E+02 -0.11965725101E+03  0.14839489513E+03  0.47000000000E+01 0.  1.
         13    1    6    6    0    0  0.17190132308E+02  0.47434985605E+02 -0.70493804885E+02  0.86688840316E+02  0.00000000000E+00 0. -1.
        -14    1    6    6    0    0 -0.67297402102E+01  0.12160541176E+03 -0.33701625354E+02  0.12636837074E+03  0.00000000000E+00 0.  1.
</event>
<event>
12    1  0.1040325E-001  0.2298231E+03  0.7818608E-02  0.1126863E+00
         21   -1    0    0  503  502  0.00000000000E+00  0.00000000000E+00  0.36520403562E+03  0.36520403562E+03  0.00000000000E+00 0. -1.
         21   -1    0    0  501  503 -0.00000000000E+00 -0.00000000000E+00 -0.17401215919E+03  0.17401215919E+03  0.00000000000E+00 0. -1.
          6    2    1    2  501    0  0.14758721289E+03 -0.35991766641E+02 -0.15761331816E+02  0.23036293802E+03  0.17245657702E+03 0.  0.
         24    2    3    3    0    0  0.63767148586E+02 -0.40749589205E+02 -0.69983199352E+02  0.13031024703E+03  0.79726620585E+02 0.  0.
         -6    2    1    2    0  502 -0.14758721289E+03  0.35991766641E+02  0.20695320824E+03  0.30885325679E+03  0.17170705038E+03 0.  0.
        -24    2    5    5    0    0 -0.76499272926E+02 -0.74931463896E+01  0.32906051377E+02  0.11582751839E+03  0.80155597424E+02 0.  0.
          5    1    3    3  501    0  0.83820064305E+02  0.47578225643E+01  0.54221867536E+02  0.10005269099E+03  0.47000000000E+01 0. -1.
        -11    1    4    4    0    0  0.25751437174E+02 -0.28588405990E+02  0.11006322825E+02  0.40019652868E+02  0.00000000000E+00 0.  1.
         12    1    4    4    0    0  0.38015711412E+02 -0.12161183216E+02 -0.80989522177E+02  0.90290594161E+02  0.00000000000E+00 0. -1.
         -5    1    5    5    0  502 -0.71087939965E+02  0.43484913031E+02  0.17404715687E+03  0.19302573839E+03  0.47000000000E+01 0.  1.
         11    1    6    6    0    0  0.13783543624E+02 -0.15090750021E+02  0.67951209600E+01  0.21538116906E+02  0.00000000000E+00 0. -1.
        -12    1    6    6    0    0 -0.90282816550E+02  0.75976036311E+01  0.26110930417E+02  0.94289401485E+02  0.00000000000E+00 0.  1.
</event>
<event>
12    1  0.1040325E-001  0.1966486E+03  0.7818608E-02  0.1152599E+00
         21   -1    0    0  501  502  0.00000000000E+00  0.00000000000E+00  0.35289758627E+03  0.35289758627E+03  0.00000000000E+00 0.  1.
         21   -1    0    0  502  503 -0.00000000000E+00 -0.00000000000E+00 -0.12514278230E+03  0.12514278230E+03  0.00000000000E+00 0.  1.
         -6    2    1    2    0  503 -0.33871545430E+00 -0.96780522607E+02  0.19817887165E+03  0.27918726364E+03  0.17118434136E+03 0.  0.
        -24    2    3    3    0    0  0.16460893022E+01  0.22801956931E+01  0.34310424787E+02  0.87635904374E+02  0.80591175596E+02 0.  0.
          6    2    1    2  501    0  0.33871545430E+00  0.96780522607E+02  0.29575932317E+02  0.19885310493E+03  0.17117604180E+03 0.  0.
         24    2    5    5    0    0  0.47494113450E+02  0.10413265848E+03 -0.50640377860E+01  0.13969481734E+03  0.79935574928E+02 0.  0.
          5    1    5    5  501    0 -0.47155397996E+02 -0.73521358737E+01  0.34639970103E+02  0.59158287592E+02  0.47000000000E+01 0. -1.
        -11    1    6    6    0    0 -0.25710888307E+01  0.19175841790E+02 -0.32068518781E+02  0.37452814353E+02  0.00000000000E+00 0.  1.
         12    1    6    6    0    0  0.50065202281E+02  0.84956816691E+02  0.27004480995E+02  0.10224200299E+03  0.00000000000E+00 0. -1.
         -5    1    3    3    0  503 -0.19848047565E+01 -0.99060718300E+02  0.16386844686E+03  0.19155135927E+03  0.47000000000E+01 0.  1.
         11    1    4    4    0    0 -0.26061370595E+02  0.30862049223E+02  0.21845370740E+02  0.45922558098E+02  0.00000000000E+00 0. -1.
        -12    1    4    4    0    0  0.27707459897E+02 -0.28581853530E+02  0.12465054047E+02  0.41713346276E+02  0.00000000000E+00 0.  1.
</event>
<event>
12    1  0.1040325E-001  0.2436119E+03  0.7818608E-02  0.1117477E+00
         21   -1    0    0  503  502  0.00000000000E+00  0.00000000000E+00  0.58049106132E+02  0.58049106132E+02  0.00000000000E+00 0. -1.
         21   -1    0    0  501  503 -0.00000000000E+00 -0.00000000000E+00 -0.11029516665E+04  0.11029516665E+04  0.00000000000E+00 0. -1.
          6    2    1    2  501    0  0.17034962439E+03 -0.29202554910E+02 -0.68064216277E+03  0.72278575714E+03  0.17109562603E+03 0.  0.
         24    2    3    3    0    0  0.29105772699E+02 -0.13985471040E+02 -0.39207309042E+03  0.40110954602E+03  0.78261230997E+02 0.  0.
         -6    2    1    2    0  502 -0.17034962439E+03  0.29202554910E+02 -0.36426039763E+03  0.43821501552E+03  0.17168278539E+03 0.  0.
        -24    2    5    5    0    0 -0.15031852975E+03 -0.35561950308E+01 -0.36120655943E+03  0.39941042330E+03  0.80313141817E+02 0.  0.
          5    1    3    3  501    0  0.14124385169E+03 -0.15217083871E+02 -0.28856907235E+03  0.32167621112E+03  0.47000000000E+01 0. -1.
        -11    1    4    4    0    0  0.40883944366E+02 -0.16967153580E+02 -0.38395293808E+03  0.38649610589E+03  0.00000000000E+00 0.  1.
         12    1    4    4    0    0 -0.11778171668E+02  0.29816825396E+01 -0.81201523399E+01  0.14613440136E+02  0.00000000000E+00 0. -1.
         -5    1    5    5    0  502 -0.20031094639E+02  0.32758749941E+02 -0.30538382001E+01  0.38804592227E+02  0.47000000000E+01 0.  1.
         11    1    6    6    0    0 -0.40920424234E+02 -0.30515600506E+02 -0.66025134152E+02  0.83456583524E+02  0.00000000000E+00 0. -1.
        -12    1    6    6    0    0 -0.10939810552E+03  0.26959405475E+02 -0.29518142528E+03  0.31595383977E+03  0.00000000000E+00 0.  1.
</event>
<event>
12    1  0.1040325E-001  0.2300474E+03  0.7818608E-02  0.1128787E+00
         21   -1    0    0  503  502  0.00000000000E+00  0.00000000000E+00  0.32627554938E+02  0.32627554938E+02  0.00000000000E+00 0.  1.
         21   -1    0    0  501  503 -0.00000000000E+00 -0.00000000000E+00 -0.15911237339E+04  0.15911237339E+04  0.00000000000E+00 0.  1.
          6    2    1    2  501    0  0.52557625309E+02  0.12361828598E+03 -0.61093218107E+03  0.64866189603E+03  0.17169840093E+03 0.  0.
         24    2    3    3    0    0 -0.30980826742E+02  0.95079332877E+02 -0.31696320365E+03  0.34168796473E+03  0.79278632695E+02 0.  0.
         -6    2    1    2    0  502 -0.52557625309E+02 -0.12361828598E+03 -0.94756399785E+03  0.97508939277E+03  0.18675655079E+03 0.  0.
        -24    2    5    5    0    0  0.17864340173E+02 -0.23183964371E+02 -0.50444899502E+03  0.51528584568E+03  0.10096575326E+03 0.  0.
          5    1    3    3  501    0  0.83538452050E+02  0.28538953104E+02 -0.29396897742E+03  0.30697393130E+03  0.47000000000E+01 0. -1.
        -11    1    4    4    0    0  0.11706242588E+02  0.69501442233E+02 -0.23917899714E+03  0.24934730650E+03  0.00000000000E+00 0.  1.
         12    1    4    4    0    0 -0.42687069330E+02  0.25577890645E+02 -0.77784206513E+02  0.92340658221E+02  0.00000000000E+00 0. -1.
         -5    1    5    5    0  502 -0.70421965482E+02 -0.10043432161E+03 -0.44311500284E+03  0.45980354709E+03  0.47000000000E+01 0.  1.
         11    1    6    6    0    0  0.16951466922E+02 -0.93893058572E+01 -0.50054554999E+03  0.50092051157E+03  0.00000000000E+00 0. -1.
        -12    1    6    6    0    0  0.91287325070E+00 -0.13794658514E+02 -0.39034450282E+01  0.14365334113E+02  0.00000000000E+00 0.  1.
</event>
<event>
12    1  0.1040325E-001  0.2184386E+03  0.7818608E-02  0.1135320E+00
         21   -1    0    0  501  502  0.00000000000E+00  0.00000000000E+00  0.39175402720E+02  0.39175402720E+02  0.00000000000E+00 0. -1.
         21   -1    0    0  502  503 -0.00000000000E+00 -0.00000000000E+00 -0.14074342825E+04  0.14074342825E+04  0.00000000000E+00 0. -1.
         -6    2    1    2    0  503 -0.12911133879E+03  0.31507910703E+02 -0.95687399804E+03  0.98149034210E+03  0.17335788783E+03 0.  0.
        -24    2    3    3    0    0 -0.54261925507E+02  0.67353102072E+02 -0.74177295656E+03  0.75088708875E+03  0.78252821297E+02 0.  0.
          6    2    1    2  501    0  0.12911133879E+03 -0.31507910703E+02 -0.41138488173E+03  0.46511934311E+03  0.17156921687E+03 0.  0.
         24    2    5    5    0    0 -0.82078422698E+00 -0.39717324023E+02 -0.18685710699E+03  0.20553397625E+03  0.75832034426E+02 0.  0.
          5    1    5    5  501    0  0.12993212302E+03  0.82094133196E+01 -0.22452777474E+03  0.25958536686E+03  0.47000000000E+01 0. -1.
        -11    1    6    6    0    0 -0.12670590919E+02  0.19298454164E+01 -0.14414163390E+03  0.14471032721E+03  0.00000000000E+00 0.  1.
         12    1    6    6    0    0  0.11849806692E+02 -0.41647169439E+02 -0.42715473088E+02  0.60823649036E+02  0.00000000000E+00 0. -1.
         -5    1    3    3    0  503 -0.74849413282E+02 -0.35845191369E+02 -0.21510104148E+03  0.23060325336E+03  0.47000000000E+01 0.  1.
         11    1    4    4    0    0 -0.16503973797E+02 -0.14157195023E+02 -0.74945883444E+02  0.78036483565E+02  0.00000000000E+00 0. -1.
        -12    1    4    4    0    0 -0.37757951710E+02  0.81510297095E+02 -0.66682707312E+03  0.67285060518E+03  0.00000000000E+00 0.  1.
</event>
<event>
12    1  0.1040325E-001  0.2010956E+03  0.7818608E-02  0.1149130E+00
         21   -1    0    0  501  502  0.00000000000E+00  0.00000000000E+00  0.14178384752E+03  0.14178384752E+03  0.00000000000E+00 0.  1.
         21   -1    0    0  502  503 -0.00000000000E+00 -0.00000000000E+00 -0.35232900603E+03  0.35232900603E+03  0.00000000000E+00 0.  1.
         -6    2    1    2    0  503  0.91302160553E+02  0.49793749244E+02 -0.21508187752E+03  0.29444806704E+03  0.17211608919E+03 0.  0.
        -24    2    3    3    0    0  0.68473926905E+02 -0.31496308091E+02 -0.14591141798E+03  0.18519677805E+03  0.85597947482E+02 0.  0.
          6    2    1    2  501    0 -0.91302160553E+02 -0.49793749244E+02  0.45367190075E+01  0.19966478651E+03  0.17038175715E+03 0.  0.
         24    2    5    5    0    0 -0.77166236690E+02 -0.65345707301E+02  0.58107776899E+02  0.14192713860E+03  0.80883307227E+02 0.  0.
          5    1    5    5  501    0 -0.14135923863E+02  0.15551958057E+02 -0.53571057891E+02  0.57737647912E+02  0.47000000000E+01 0. -1.
        -11    1    6    6    0    0  0.17230536108E+02 -0.12629797303E+02  0.10006842271E+02  0.23591101006E+02  0.00000000000E+00 0.  1.
         12    1    6    6    0    0 -0.94396772798E+02 -0.52715909998E+02  0.48100934628E+02  0.11833603759E+03  0.00000000000E+00 0. -1.
         -5    1    3    3    0  503  0.22828233648E+02  0.81290057335E+02 -0.69170459544E+02  0.10925128899E+03  0.47000000000E+01 0.  1.
         13    1    4    4    0    0  0.37458355516E+01 -0.22348787346E+02  0.27214313348E+01  0.22823360145E+02  0.00000000000E+00 0. -1.
        -14    1    4    4    0    0  0.64728091353E+02 -0.91475207454E+01 -0.14863284931E+03  0.16237341790E+03  0.00000000000E+00 0.  1.
</event>
<event>
12    1  0.1040325E-001  0.2808082E+03  0.7818608E-02  0.1095331E+00
         21   -1    0    0  503  502  0.00000000000E+00  0.00000000000E+00  0.68904396058E+03  0.68904396058E+03  0.00000000000E+00 0. -1.
         21   -1    0    0  501  503 -0.00000000000E+00 -0.00000000000E+00 -0.13212023294E+03  0.13212023294E+03  0.00000000000E+00 0. -1.
          6    2    1    2  501    0 -0.30163386911E+02  0.21905662134E+03  0.42944965797E+03  0.51277662317E+03  0.17209655221E+03 0.  0.
         24    2    3    3    0    0 -0.59603100790E+02  0.85724255057E+02  0.28801697951E+03  0.31613097947E+03  0.77998962598E+02 0.  0.
         -6    2    1    2    0  502  0.30163386911E+02 -0.21905662134E+03  0.12747406967E+03  0.30838757035E+03  0.17308270234E+03 0.  0.
        -24    2    5    5    0    0  0.41997182882E+02 -0.97642407762E+02  0.33007970157E+01  0.13425388141E+03  0.81947582319E+02 0.  0.
          5    1    3    3  501    0  0.29439713878E+02  0.13333236628E+03  0.14143267846E+03  0.19664564370E+03  0.47000000000E+01 0. -1.
        -11    1    4    4    0    0 -0.96995259955E+01  0.75802822060E+02  0.20477924981E+03  0.21857422032E+03  0.00000000000E+00 0.  1.
         12    1    4    4    0    0 -0.49903574794E+02  0.99214329971E+01  0.83237729700E+02  0.97556759148E+02  0.00000000000E+00 0. -1.
         -5    1    5    5    0  502 -0.11833795971E+02 -0.12141421357E+03  0.12417327265E+03  0.17413368895E+03  0.47000000000E+01 0.  1.
         11    1    6    6    0    0 -0.33472640277E+01 -0.73601992049E+02  0.26005564271E+02  0.78132879015E+02  0.00000000000E+00 0. -1.
        -12    1    6    6    0    0  0.45344446910E+02 -0.24040415713E+02 -0.22704767256E+02  0.56121002390E+02  0.00000000000E+00 0.  1.
</event>
<event>
12    1  0.1040325E-001  0.1874118E+03  0.7818608E-02  0.1161133E+00
         21   -1    0    0  503  502  0.00000000000E+00  0.00000000000E+00  0.53924045820E+03  0.53924045820E+03  0.00000000000E+00 0.  1.
         21   -1    0    0  501  503 -0.00000000000E+00 -0.00000000000E+00 -0.11056363757E+03  0.11056363757E+03  0.00000000000E+00 0.  1.
          6    2    1    2  501    0 -0.30112129214E+02  0.70375691617E+02  0.54468615634E+01  0.18749097658E+03  0.17106641898E+03 0.  0.
         24    2    3    3    0    0 -0.83738047189E+02  0.27707631015E+02  0.75657492687E+01  0.11876774791E+03  0.79175526638E+02 0.  0.
         -6    2    1    2    0  502  0.30112129214E+02 -0.70375691617E+02  0.42322995906E+03  0.46231311919E+03  0.16955926289E+03 0.  0.
        -24    2    5    5    0    0  0.37828717740E+02 -0.32296841896E+02  0.10082075098E+03  0.13753730114E+03  0.79231228025E+02 0.  0.
          5    1    3    3  501    0  0.53625917974E+02  0.42668060602E+02 -0.21188877054E+01  0.68723228673E+02  0.47000000000E+01 0. -1.
        -11    1    4    4    0    0 -0.51164004229E+02  0.47616066052E+02 -0.18793484605E+02  0.72375687483E+02  0.00000000000E+00 0.  1.
         12    1    4    4    0    0 -0.32574042960E+02 -0.19908435037E+02  0.26359233873E+02  0.46392060428E+02  0.00000000000E+00 0. -1.
         -5    1    5    5    0  502 -0.77165885263E+01 -0.38078849720E+02  0.32240920808E+03  0.32477581805E+03  0.47000000000E+01 0.  1.
         11    1    6    6    0    0 -0.19508888469E+02 -0.86043323631E+01  0.58956725540E+02  0.62693913190E+02  0.00000000000E+00 0. -1.
        -12    1    6    6    0    0  0.57337606209E+02 -0.23692509533E+02  0.41864025440E+02  0.74843387950E+02  0.00000000000E+00 0.  1.
</event>
<event>
12    1  0.1040325E-001  0.1726540E+03  0.7818608E-02  0.1175464E+00
         21   -1    0    0  501  502  0.00000000000E+00  0.00000000000E+00  0.67461959464E+02  0.67461959464E+02  0.00000000000E+00 0. -1.
         21   -1    0    0  502  503 -0.00000000000E+00 -0.00000000000E+00 -0.14217849084E+04  0.14217849084E+04  0.00000000000E+00 0. -1.
         -6    2    1    2    0  503  0.68805634585E+01 -0.22339825542E+02 -0.12956132058E+04  0.13068839640E+04  0.16966350952E+03 0.  0.
        -24    2    3    3    0    0 -0.54422635655E+02 -0.88056203469E+01 -0.54999771082E+03  0.55861542048E+03  0.80711485342E+02 0.  0.
          6    2    1    2  501    0 -0.68805634585E+01  0.22339825542E+02 -0.58709743083E+02  0.18236290377E+03  0.17106427091E+03 0.  0.
         24    2    5    5    0    0 -0.61405496719E+02  0.27267960232E+02 -0.36943566949E+01  0.10460663330E+03  0.80091964491E+02 0.  0.
          5    1    5    5  501    0  0.54524933260E+02 -0.49281346905E+01 -0.55015386388E+02  0.77756270474E+02  0.47000000000E+01 0. -1.
        -11    1    6    6    0    0 -0.65842564239E+02 -0.59786677096E+01 -0.17413056326E+02  0.68368137782E+02  0.00000000000E+00 0.  1.
         12    1    6    6    0    0  0.44370675200E+01  0.33246627942E+02  0.13718699631E+02  0.36238495516E+02  0.00000000000E+00 0. -1.
         -5    1    3    3    0  503  0.61303199113E+02 -0.13534205195E+02 -0.74561549498E+03  0.74826854356E+03  0.47000000000E+01 0.  1.
         11    1    4    4    0    0 -0.53273921432E+02 -0.28362019783E+02 -0.51486315304E+03  0.51838844627E+03  0.00000000000E+00 0. -1.
        -12    1    4    4    0    0 -0.11487142223E+01  0.19556399436E+02 -0.35134557784E+02  0.40226974208E+02  0.00000000000E+00 0.  1.
</event>
<event>
12    1  0.1040325E-001  0.1819591E+03  0.7818608E-02  0.1166150E+00
         21   -1    0    0  501  502  0.00000000000E+00  0.00000000000E+00  0.93395043948E+02  0.93395043948E+02  0.00000000000E+00 0. -1.
         21   -1    0    0  502  503 -0.00000000000E+00 -0.00000000000E+00 -0.36561329925E+03  0.36561329925E+03  0.00000000000E+00 0. -1.
         -6    2    1    2    0  503 -0.36990086458E+02  0.47055147417E+02 -0.17899892651E+03  0.25456041636E+03  0.17081550425E+03 0.  0.
        -24    2    3    3    0    0  0.42426134084E+02  0.43864327433E+02 -0.10505151883E+03  0.14589843350E+03  0.80786602933E+02 0.  0.
          6    2    1    2  501    0  0.36990086458E+02 -0.47055147417E+02 -0.93219328787E+02  0.20444792684E+03  0.17183322768E+03 0.  0.
         24    2    5    5    0    0  0.25591889207E+01 -0.93576293269E+02 -0.49389483977E+02  0.13169595770E+03  0.78367289337E+02 0.  0.
          5    1    5    5  501    0  0.34430897537E+02  0.46521145852E+02 -0.43829844811E+02  0.72751969133E+02  0.47000000000E+01 0. -1.
        -13    1    6    6    0    0 -0.12939877459E+02  0.35970249196E+01  0.10015017990E+02  0.16753495226E+02  0.00000000000E+00 0.  1.
         14    1    6    6    0    0  0.15499066380E+02 -0.97173318189E+02 -0.59404501967E+02  0.11494246248E+03  0.00000000000E+00 0. -1.
         -5    1    3    3    0  503 -0.79416220542E+02  0.31908199847E+01 -0.73947407680E+02  0.10866198286E+03  0.47000000000E+01 0.  1.
         13    1    4    4    0    0  0.29103119391E+02  0.64502976281E+02 -0.96955608077E+02  0.12003339304E+03  0.00000000000E+00 0. -1.
        -14    1    4    4    0    0  0.13323014693E+02 -0.20638648849E+02 -0.80959107555E+01  0.25865040455E+02  0.00000000000E+00 0.  1.
</event>
<event>
12    1  0.1040325E-001  0.1812980E+03  0.7818608E-02  0.1166772E+00
         21   -1    0    0  503  502  0.00000000000E+00  0.00000000000E+00  0.48121271312E+02  0.48121271312E+02  0.00000000000E+00 0. -1.
         21   -1    0    0  501  503 -0.00000000000E+00 -0.00000000000E+00 -0.77864741663E+03  0.77864741663E+03  0.00000000000E+00 0. -1.
          6    2    1    2  501    0  0.51725920317E+02  0.19687599136E+02 -0.21702792910E+03  0.28220522384E+03  0.17168428571E+03 0.  0.
         24    2    3    3    0    0 -0.25101881784E+02  0.19267522999E+02 -0.40561385597E+02  0.89681930146E+02  0.73459381167E+02 0.  0.
         -6    2    1    2    0  502 -0.51725920317E+02 -0.19687599136E+02 -0.51349821622E+03  0.54456346410E+03  0.17264349389E+03 0.  0.
        -24    2    5    5    0    0  0.32480126632E+02  0.16332960610E+02 -0.29509506529E+03  0.30768762024E+03  0.79176068764E+02 0.  0.
          5    1    3    3  501    0  0.76827802101E+02  0.42007613720E+00 -0.17646654350E+03  0.19252329369E+03  0.47000000000E+01 0. -1.
        -11    1    4    4    0    0  0.16954715181E+02  0.99413032317E+01  0.10976227405E+02  0.22511540260E+02  0.00000000000E+00 0.  1.
         12    1    4    4    0    0 -0.42056596965E+02  0.93262197674E+01 -0.51537613003E+02  0.67170389886E+02  0.00000000000E+00 0. -1.
         -5    1    5    5    0  502 -0.84206046949E+02 -0.36020559746E+02 -0.21840315093E+03  0.23687584386E+03  0.47000000000E+01 0.  1.
         11    1    6    6    0    0 -0.84069590246E+01  0.21518752647E+02 -0.23395351414E+02  0.32879722373E+02  0.00000000000E+00 0. -1.
        -12    1    6    6    0    0  0.40887085657E+02 -0.51857920374E+01 -0.27169971387E+03  0.27480789787E+03  0.00000000000E+00 0.  1.
</event>
<event>
12    1  0.1040325E-001  0.1840016E+03  0.7818608E-02  0.1164328E+00
         21   -1    0    0  501  502  0.00000000000E+00  0.00000000000E+00  0.17075794966E+04  0.17075794966E+04  0.00000000000E+00 0. -1.
         21   -1    0    0  502  503 -0.00000000000E+00 -0.00000000000E+00 -0.54212751318E+02  0.54212751318E+02  0.00000000000E+00 0. -1.
         -6    2    1    2    0  503  0.60420382396E+02 -0.19445580025E+02  0.12235238269E+03  0.21976061035E+03  0.17116035499E+03 0.  0.
        -24    2    3    3    0    0  0.31846756178E+02 -0.65963758024E+02  0.12408504754E+03  0.16493830533E+03  0.80262770263E+02 0.  0.
          6    2    1    2  501    0 -0.60420382396E+02  0.19445580025E+02  0.15310143626E+04  0.15420316376E+04  0.17270738146E+03 0.  0.
         24    2    5    5    0    0  0.24499519583E+02 -0.22170734844E+02  0.61716648266E+03  0.62329155187E+03  0.80660544072E+02 0.  0.
          5    1    5    5  501    0 -0.84919901979E+02  0.41616314869E+02  0.91384787995E+03  0.91874008572E+03  0.47000000000E+01 0. -1.
        -11    1    6    6    0    0 -0.86159451130E+01  0.18501285913E+02  0.54672574675E+02  0.58357711678E+02  0.00000000000E+00 0.  1.
         12    1    6    6    0    0  0.33115464696E+02 -0.40672020757E+02  0.56249390798E+03  0.56493384019E+03  0.00000000000E+00 0. -1.
         -5    1    3    3    0  503  0.28573626218E+02  0.46518178000E+02 -0.17326648556E+01  0.54822305015E+02  0.47000000000E+01 0.  1.
         11    1    4    4    0    0  0.58485609711E+02 -0.37871432012E+02  0.85262406493E+02  0.11011126131E+03  0.00000000000E+00 0. -1.
        -12    1    4    4    0    0 -0.26638853532E+02 -0.28092326012E+02  0.38822641050E+02  0.54827044024E+02  0.00000000000E+00 0.  1.
</event>
<event>
12    1  0.1040325E-001  0.2110511E+03  0.7818608E-02  0.1140887E+00
         21   -1    0    0  503  502  0.00000000000E+00  0.00000000000E+00  0.93330849984E+02  0.93330849984E+02  0.00000000000E+00 0. -1.
         21   -1    0    0  501  503 -0.00000000000E+00 -0.00000000000E+00 -0.56588382395E+03  0.56588382395E+03  0.00000000000E+00 0.  1.
          6    2    1    2  501    0  0.11960565207E+03  0.18385341509E+02 -0.36762389015E+03  0.42351854160E+03  0.17197993395E+03 0.  0.
         24    2    3    3    0    0  0.69946525802E+02  0.23726061544E+02 -0.35545517757E+03  0.37189761873E+03  0.80647461742E+02 0.  0.
         -6    2    1    2    0  502 -0.11960565207E+03 -0.18385341509E+02 -0.10492908381E+03  0.23569613233E+03  0.17291333487E+03 0.  0.
        -24    2    5    5    0    0 -0.57531201880E+02 -0.44135434496E+01  0.13062944799E+02  0.10155942101E+03  0.82549118185E+02 0.  0.
          5    1    3    3  501    0  0.49659126270E+02 -0.53407200349E+01 -0.12168712576E+02  0.51620922872E+02  0.47000000000E+01 0. -1.
        -13    1    4    4    0    0  0.83265349452E+02  0.88139976583E+01 -0.32385038290E+03  0.33449944018E+03  0.00000000000E+00 0.  1.
         14    1    4    4    0    0 -0.13318823649E+02  0.14912063886E+02 -0.31604794668E+02  0.37398178549E+02  0.00000000000E+00 0. -1.
         -5    1    5    5    0  502 -0.62074450193E+02 -0.13971798060E+02 -0.11799202861E+03  0.13413671132E+03  0.47000000000E+01 0.  1.
         13    1    6    6    0    0 -0.41959567913E+02  0.36749079165E+02  0.14121822582E+02  0.57537170872E+02  0.00000000000E+00 0. -1.
        -14    1    6    6    0    0 -0.15571633967E+02 -0.41162622614E+02 -0.10588777827E+01  0.44022250136E+02  0.00000000000E+00 0.  1.
</event>
<event>
12    1  0.1040325E-001  0.2176340E+03  0.7818608E-02  0.1135824E+00
         21   -1    0    0  503  502  0.00000000000E+00  0.00000000000E+00  0.11607434994E+04  0.11607434994E+04  0.00000000000E+00 0.  1.
         21   -1    0    0  501  503 -0.00000000000E+00 -0.00000000000E+00 -0.40651557534E+02  0.40651557534E+02  0.00000000000E+00 0. -1.
          6    2    1    2  501    0 -0.12945917373E+03 -0.28260063180E+02  0.56790931745E+03  0.60787150247E+03  0.17154725831E+03 0.  0.
         24    2    3    3    0    0 -0.73043927187E+02 -0.17700612983E+02  0.52647148882E+03  0.53692528572E+03  0.73944620483E+02 0.  0.
         -6    2    1    2    0  502  0.12945917373E+03  0.28260063180E+02  0.55218262443E+03  0.59352355448E+03  0.17264486719E+03 0.  0.
        -24    2    5    5    0    0  0.67541265226E+02 -0.16341321188E+02  0.46913225096E+03  0.48064058228E+03  0.78111709432E+02 0.  0.
          5    1    3    3  501    0 -0.56415246538E+02 -0.10559450197E+02  0.41437828629E+02  0.70946216756E+02  0.47000000000E+01 0. -1.
        -11    1    4    4    0    0 -0.26066641484E+02 -0.38374470053E+02  0.15109550666E+03  0.15805670464E+03  0.00000000000E+00 0.  1.
         12    1    4    4    0    0 -0.46977285703E+02  0.20673857070E+02  0.37537598217E+03  0.37886858108E+03  0.00000000000E+00 0. -1.
         -5    1    5    5    0  502  0.61917908499E+02  0.44601384368E+02  0.83050373467E+02  0.11288297220E+03  0.47000000000E+01 0.  1.
         11    1    6    6    0    0  0.26396878788E+02 -0.33379277787E+02  0.97930624323E+02  0.10677723810E+03  0.00000000000E+00 0. -1.
        -12    1    6    6    0    0  0.41144386438E+02  0.17037956599E+02  0.37120162664E+03  0.37386334418E+03  0.00000000000E+00 0.  1.
</event>
<event>
12    1  0.1040325E-001  0.2379245E+03  0.7818608E-02  0.1121314E+00
         21   -1    0    0  503  502  0.00000000000E+00  0.00000000000E+00  0.64686418029E+03  0.64686418029E+03  0.00000000000E+00 0. -1.
         21   -1    0    0  501  503 -0.00000000000E+00 -0.00000000000E+00 -0.18972480333E+03  0.18972480333E+03  0.00000000000E+00 0. -1.
          6    2    1    2  501    0  0.81417011406E+02 -0.14378283923E+03 -0.78711138398E+02  0.25060633195E+03  0.17118953152E+03 0.  0.
         24    2    3    3    0    0  0.99321178901E+02 -0.15222639015E+03 -0.33471352393E+02  0.20100208814E+03  0.79018590023E+02 0.  0.
         -6    2    1    2    0  502 -0.81417011406E+02  0.14378283923E+03  0.53585051535E+03  0.58598265167E+03  0.17011072468E+03 0.  0.
        -24    2    5    5    0    0 -0.72581014513E+02  0.14888062629E+02  0.24064522030E+03  0.26370917385E+03  0.78375686568E+02 0.  0.
          5    1    3    3  501    0 -0.17904167495E+02  0.84435509221E+01 -0.45239786004E+02  0.49604243806E+02  0.47000000000E+01 0. -1.
        -13    1    4    4    0    0  0.65737325059E+02 -0.10629415778E+03  0.15490973071E+02  0.12593575398E+03  0.00000000000E+00 0.  1.
         14    1    4    4    0    0  0.33583853841E+02 -0.45932232376E+02 -0.48962325464E+02  0.75066334163E+02  0.00000000000E+00 0. -1.
         -5    1    5    5    0  502 -0.88359968926E+01  0.12889477660E+03  0.29520529506E+03  0.32227347782E+03  0.47000000000E+01 0.  1.
         13    1    6    6    0    0 -0.80722771814E+02  0.78428775684E+01  0.23952633707E+03  0.25288444549E+03  0.00000000000E+00 0. -1.
        -14    1    6    6    0    0  0.81417573007E+01  0.70451850602E+01  0.11188832233E+01  0.10824728363E+02  0.00000000000E+00 0.  1.
</event>
<event>
12    1  0.1040325E-001  0.2194201E+03  0.7818608E-02  0.1134364E+00
         21   -1    0    0  501  502  0.00000000000E+00  0.00000000000E+00  0.19051847311E+04  0.19051847311E+04  0.00000000000E+00 0.  1.
         21   -1    0    0  502  503 -0.00000000000E+00 -0.00000000000E+00 -0.25682223168E+02  0.25682223168E+02  0.00000000000E+00 0.  1.
         -6    2    1    2    0  503 -0.10984939632E+03 -0.79834874392E+02  0.10657352407E+04  0.10880370003E+04  0.17202445657E+03 0.  0.
        -24    2    3    3    0    0 -0.13779301808E+03 -0.85419715753E+02  0.77348481928E+03  0.79436297135E+03  0.80313889904E+02 0.  0.
          6    2    1    2  501    0  0.10984939632E+03  0.79834874392E+02  0.81376726721E+03  0.84282995397E+03  0.17235042525E+03 0.  0.
         24    2    5    5    0    0  0.14323886873E+03  0.83902138657E+02  0.63012523248E+03  0.65607373205E+03  0.76275755588E+02 0.  0.
          5    1    5    5  501    0 -0.33389472407E+02 -0.40672642653E+01  0.18364203473E+03  0.18675622192E+03  0.47000000000E+01 0. -1.
        -13    1    6    6    0    0  0.12874060745E+03  0.42904499971E+02  0.52622084938E+03  0.54343658549E+03  0.00000000000E+00 0.  1.
         14    1    6    6    0    0  0.14498261275E+02  0.40997638686E+02  0.10390438310E+03  0.11263714656E+03  0.00000000000E+00 0. -1.
         -5    1    3    3    0  503  0.27943621761E+02  0.55848413611E+01  0.29225042140E+03  0.29367402892E+03  0.47000000000E+01 0.  1.
         13    1    4    4    0    0 -0.99056569520E+01  0.65808952305E+01  0.12545365373E+02  0.17286307125E+02  0.00000000000E+00 0. -1.
        -14    1    4    4    0    0 -0.12788736113E+03 -0.92000610983E+02  0.76093945391E+03  0.77707666422E+03  0.00000000000E+00 0.  1.
</event>
<event>
12    1  0.1040325E-001  0.1845845E+03  0.7818608E-02  0.1165572E+00
         21   -1    0    0  501  502  0.00000000000E+00  0.00000000000E+00  0.15246260691E+03  0.15246260691E+03  0.00000000000E+00 0.  1.
         21   -1    0    0  502  503 -0.00000000000E+00 -0.00000000000E+00 -0.45834627881E+03  0.45834627881E+03  0.00000000000E+00 0.  1.
         -6    2    1    2    0  503 -0.62509349102E+02 -0.20315521716E+02 -0.37816682953E+03  0.42081063488E+03  0.17248565251E+03 0.  0.
        -24    2    3    3    0    0 -0.64266043052E+01 -0.28184237123E+02 -0.74941707410E+02  0.11230657391E+03  0.78491111405E+02 0.  0.
          6    2    1    2  501    0  0.62509349102E+02  0.20315521716E+02  0.72283157632E+02  0.18999825085E+03  0.16295502846E+03 0.  0.
         24    2    5    5    0    0 -0.16587785942E+02  0.29693132716E+02  0.65062555178E+01  0.86591349668E+02  0.79365570014E+02 0.  0.
          5    1    5    5  501    0  0.79097135044E+02 -0.93776109991E+01  0.65776902114E+02  0.10340690118E+03  0.47000000000E+01 0. -1.
        -11    1    6    6    0    0  0.31067036175E+02  0.12125334454E+02  0.12139237160E+02  0.35490076798E+02  0.00000000000E+00 0.  1.
         12    1    6    6    0    0 -0.47654822117E+02  0.17567798262E+02 -0.56329816425E+01  0.51101272870E+02  0.00000000000E+00 0. -1.
         -5    1    3    3    0  503 -0.56082744797E+02  0.78687154062E+01 -0.30322512212E+03  0.30850406096E+03  0.47000000000E+01 0.  1.
         13    1    4    4    0    0  0.12816815159E+01 -0.51469292079E+02 -0.70629158951E+02  0.87402567632E+02  0.00000000000E+00 0. -1.
        -14    1    4    4    0    0 -0.77082858211E+01  0.23285054957E+02 -0.43125484595E+01  0.24904006281E+02  0.00000000000E+00 0.  1.
</event>
<event>
12    1  0.1040325E-001  0.2035323E+03  0.7818608E-02  0.1146918E+00
         21   -1    0    0  503  502  0.00000000000E+00  0.00000000000E+00  0.53002400761E+02  0.53002400761E+02  0.00000000000E+00 0. -1.
         21   -1    0    0  501  503 -0.00000000000E+00 -0.00000000000E+00 -0.79040468770E+03  0.79040468770E+03  0.00000000000E+00 0. -1.
          6    2    1    2  501    0 -0.15156075452E+02  0.10921026807E+03 -0.41933847545E+03  0.46612248049E+03  0.17108132728E+03 0.  0.
         24    2    3    3    0    0  0.45620231525E+01  0.32560380485E+02 -0.35218471131E+03  0.36221999390E+03  0.78027320012E+02 0.  0.
         -6    2    1    2    0  502  0.15156075452E+02 -0.10921026807E+03 -0.31806381148E+03  0.37728460797E+03  0.17035990715E+03 0.  0.
        -24    2    5    5    0    0 -0.15911099514E+02 -0.13527397209E+03 -0.21617014995E+03  0.26751715246E+03  0.79269682224E+02 0.  0.
          5    1    3    3  501    0 -0.19718098604E+02  0.76649887586E+02 -0.67153764141E+02  0.10390248658E+03  0.47000000000E+01 0. -1.
        -13    1    4    4    0    0  0.33429037444E+02  0.42311247157E+02 -0.21060513946E+03  0.21739886602E+03  0.00000000000E+00 0.  1.
         14    1    4    4    0    0 -0.28867014291E+02 -0.97508666721E+01 -0.14157957186E+03  0.14482112789E+03  0.00000000000E+00 0. -1.
         -5    1    5    5    0  502  0.31067174965E+02  0.26063704023E+02 -0.10189366154E+03  0.10976745551E+03  0.47000000000E+01 0.  1.
         11    1    6    6    0    0  0.29259807418E+02 -0.31653407744E+02 -0.44337755049E+02  0.61837780319E+02  0.00000000000E+00 0. -1.
        -12    1    6    6    0    0 -0.45170906932E+02 -0.10362056435E+03 -0.17183239490E+03  0.20567937214E+03  0.00000000000E+00 0.  1.
</event>
<event>
12    1  0.1040325E-001  0.3043523E+03  0.7818608E-02  0.1083598E+00
         21   -1    0    0  501  502  0.00000000000E+00  0.00000000000E+00  0.95415256800E+03  0.95415256800E+03  0.00000000000E+00 0.  1.
         21   -1    0    0  502  503 -0.00000000000E+00 -0.00000000000E+00 -0.12375645461E+03  0.12375645461E+03  0.00000000000E+00 0. -1.
         -6    2    1    2    0  503  0.17141297810E+03 -0.17616286793E+03  0.15665724625E+03  0.33861584834E+03  0.17234684461E+03 0.  0.
        -24    2    3    3    0    0  0.62647422725E+02 -0.14494020243E+03  0.13629930133E+03  0.22354484070E+03  0.80389267995E+02 0.  0.
          6    2    1    2  501    0 -0.17141297810E+03  0.17616286793E+03  0.67373886715E+03  0.73929317428E+03  0.17948418131E+03 0.  0.
         24    2    5    5    0    0 -0.83086269813E+01  0.57207415581E+02  0.17489369857E+03  0.20112775250E+03  0.80764134022E+02 0.  0.
          5    1    5    5  501    0 -0.16310435111E+03  0.11895545235E+03  0.49884516857E+03  0.53816542178E+03  0.47000000000E+01 0. -1.
        -11    1    6    6    0    0  0.22816622917E+02 -0.77977384564E+01  0.68506485378E+02  0.72626039030E+02  0.00000000000E+00 0.  1.
         12    1    6    6    0    0 -0.31125249898E+02  0.65005154037E+02  0.10638721319E+03  0.12850171347E+03  0.00000000000E+00 0. -1.
         -5    1    3    3    0  503  0.10876555537E+03 -0.31222665506E+02  0.20357944915E+02  0.11507100763E+03  0.47000000000E+01 0.  1.
         13    1    4    4    0    0  0.39194373750E+02 -0.10379395783E+03  0.43143479404E+02  0.11904093595E+03  0.00000000000E+00 0. -1.
        -14    1    4    4    0    0  0.23453048975E+02 -0.41146244591E+02  0.93155821926E+02  0.10450390475E+03  0.00000000000E+00 0.  1.
</event>
<event>
12    1  0.1040325E-001  0.2144801E+03  0.7818608E-02  0.1138477E+00
         21   -1    0    0  503  502  0.00000000000E+00  0.00000000000E+00  0.29867540897E+03  0.29867540897E+03  0.00000000000E+00 0. -1.
         21   -1    0    0  501  503 -0.00000000000E+00 -0.00000000000E+00 -0.19606768383E+03  0.19606768383E+03  0.00000000000E+00 0.  1.
          6    2    1    2  501    0 -0.47408093534E+02 -0.11845545572E+03 -0.65105478286E+02  0.22414376445E+03  0.17240209255E+03 0.  0.
         24    2    3    3    0    0 -0.36361685462E+01 -0.32353200429E+02 -0.81654191576E+02  0.12603398056E+03  0.90317251695E+02 0.  0.
         -6    2    1    2    0  502  0.47408093534E+02  0.11845545572E+03  0.16771320342E+03  0.27059932836E+03  0.16975587054E+03 0.  0.
        -24    2    5    5    0    0  0.63985613350E+01  0.83386490406E+02  0.24669031468E+02  0.11764397805E+03  0.78976554036E+02 0.  0.
          5    1    3    3  501    0 -0.43771924988E+02 -0.86102255291E+02  0.16548713290E+02  0.98109783889E+02  0.47000000000E+01 0. -1.
        -11    1    4    4    0    0 -0.16511997352E+02 -0.50724189328E+02 -0.14569970024E+02  0.55298042154E+02  0.00000000000E+00 0.  1.
         12    1    4    4    0    0  0.12875828806E+02  0.18370988900E+02 -0.67084221553E+02  0.70735938404E+02  0.00000000000E+00 0. -1.
         -5    1    5    5    0  502  0.41009532199E+02  0.35068965314E+02  0.14304417196E+03  0.15295535032E+03  0.47000000000E+01 0.  1.
         13    1    6    6    0    0 -0.28315127779E+02  0.21283647547E+02  0.29831663551E+02  0.46310563204E+02  0.00000000000E+00 0. -1.
        -14    1    6    6    0    0  0.34713689114E+02  0.62102842858E+02 -0.51626320826E+01  0.71333414842E+02  0.00000000000E+00 0.  1.
</event>
<event>
12    1  0.1040325E-001  0.2234861E+03  0.7818608E-02  0.1131552E+00
         21   -1    0    0  501  502  0.00000000000E+00  0.00000000000E+00  0.26892864202E+03  0.26892864202E+03  0.00000000000E+00 0. -1.
         21   -1    0    0  502  503 -0.00000000000E+00 -0.00000000000E+00 -0.18575293050E+03  0.18575293050E+03  0.00000000000E+00 0. -1.
         -6    2    1    2    0  503 -0.12526599607E+03 -0.64469030163E+02  0.59404039688E+02  0.23124638989E+03  0.17348840677E+03 0.  0.
        -24    2    3    3    0    0 -0.13288402435E+03 -0.80595656785E+02  0.59302867535E+01  0.17468107637E+03  0.79526639054E+02 0.  0.
          6    2    1    2  501    0  0.12526599607E+03  0.64469030163E+02  0.23771671833E+02  0.22343518263E+03  0.17178580510E+03 0.  0.
         24    2    5    5    0    0  0.31984789568E+02  0.90494381077E+02  0.20331907007E+02  0.12641650217E+03  0.79721300837E+02 0.  0.
          5    1    5    5  501    0  0.93281206501E+02 -0.26025350914E+02  0.34397648259E+01  0.97018680461E+02  0.47000000000E+01 0. -1.
        -13    1    6    6    0    0  0.18540946121E+02 -0.11105579706E+01 -0.18317653106E+02  0.26087093310E+02  0.00000000000E+00 0.  1.
         14    1    6    6    0    0  0.13443843447E+02  0.91604939047E+02  0.38649560113E+02  0.10032940886E+03  0.00000000000E+00 0. -1.
         -5    1    3    3    0  503  0.76180282819E+01  0.16126626622E+02  0.53473752934E+02  0.56565313523E+02  0.47000000000E+01 0.  1.
         13    1    4    4    0    0 -0.81811026687E+02 -0.82447501373E+02  0.27254780513E+02  0.11930405538E+03  0.00000000000E+00 0. -1.
        -14    1    4    4    0    0 -0.51072997664E+02  0.18518445884E+01 -0.21324493760E+02  0.55377020982E+02  0.00000000000E+00 0.  1.
</event>
<event>
12    1  0.1040325E-001  0.2613158E+03  0.7818608E-02  0.1106357E+00
         21   -1    0    0  503  502  0.00000000000E+00  0.00000000000E+00  0.91349810303E+02  0.91349810303E+02  0.00000000000E+00 0.  1.
         21   -1    0    0  501  503 -0.00000000000E+00 -0.00000000000E+00 -0.84769752746E+03  0.84769752746E+03  0.00000000000E+00 0. -1.
          6    2    1    2  501    0 -0.41982755445E+01  0.19693414009E+03 -0.53959917467E+03  0.59953901696E+03  0.17169473639E+03 0.  0.
         24    2    3    3    0    0 -0.34942343841E+02  0.30959014294E+02 -0.14312545466E+03  0.16860231537E+03  0.75910585679E+02 0.  0.
         -6    2    1    2    0  502  0.41982755445E+01 -0.19693414009E+03 -0.21674854250E+03  0.33950832081E+03  0.17171280725E+03 0.  0.
        -24    2    5    5    0    0  0.11835183796E+02 -0.39043038132E+02 -0.27129944874E+02  0.92596950053E+02  0.78573092393E+02 0.  0.
          5    1    3    3  501    0  0.30744068296E+02  0.16597512580E+03 -0.39647372001E+03  0.43093670159E+03  0.47000000000E+01 0. -1.
        -11    1    4    4    0    0 -0.95404109515E+01 -0.19269856820E+02 -0.93108665429E+01  0.23431582506E+02  0.00000000000E+00 0.  1.
         12    1    4    4    0    0 -0.25401932889E+02  0.50228871114E+02 -0.13381458811E+03  0.14517073286E+03  0.00000000000E+00 0. -1.
         -5    1    5    5    0  502 -0.76369082512E+01 -0.15789110196E+03 -0.18961859762E+03  0.24691137076E+03  0.47000000000E+01 0.  1.
         11    1    6    6    0    0  0.41614291815E+02 -0.24881696067E+02 -0.33604556791E+02  0.58992493756E+02  0.00000000000E+00 0. -1.
        -12    1    6    6    0    0 -0.29779108020E+02 -0.14161342065E+02  0.64746119164E+01  0.33604456297E+02  0.00000000000E+00 0.  1.
</event>
<event>
12    1  0.1040325E-001  0.1888988E+03  0.7818608E-02  0.1160226E+00
         21   -1    0    0  501  502  0.00000000000E+00  0.00000000000E+00  0.10552354581E+03  0.10552354581E+03  0.00000000000E+00 0.  1.
         21   -1    0    0  502  503 -0.00000000000E+00 -0.00000000000E+00 -0.33262352949E+03  0.33262352949E+03  0.00000000000E+00 0.  1.
         -6    2    1    2    0  503  0.99687920341E+00  0.69849640474E+02 -0.10664003682E+03  0.21692129137E+03  0.17550721682E+03 0.  0.
        -24    2    3    3    0    0  0.11066891760E+02  0.65636142363E+00 -0.12064803141E+03  0.14545501309E+03  0.80487927333E+02 0.  0.
          6    2    1    2  501    0 -0.99687920341E+00 -0.69849640474E+02 -0.12045994686E+03  0.22122578393E+03  0.17190195645E+03 0.  0.
         24    2    5    5    0    0  0.52313012407E+02 -0.85532620947E+02 -0.79169831290E+02  0.15183656240E+03  0.82060946749E+02 0.  0.
          5    1    5    5  501    0 -0.53309891611E+02  0.15682980473E+02 -0.41290115574E+02  0.69389221527E+02  0.47000000000E+01 0. -1.
        -13    1    6    6    0    0  0.33638631125E+01 -0.23891374838E+02 -0.68226561002E+02  0.72366960644E+02  0.00000000000E+00 0.  1.
         14    1    6    6    0    0  0.48949149295E+02 -0.61641246109E+02 -0.10943270289E+02  0.79469601755E+02  0.00000000000E+00 0. -1.
         -5    1    3    3    0  503 -0.10070012556E+02  0.69193279050E+02  0.14007994592E+02  0.71466278279E+02  0.47000000000E+01 0.  1.
         11    1    4    4    0    0  0.44386291396E+01  0.19833073371E+02 -0.12332575817E+03  0.12498917895E+03  0.00000000000E+00 0. -1.
        -12    1    4    4    0    0  0.66282626203E+01 -0.19176711947E+02  0.26777267534E+01  0.20465834139E+02  0.00000000000E+00 0.  1.
</event>
<event>
12    1  0.1040325E-001  0.2572101E+03  0.7818608E-02  0.1108854E+00
         21   -1    0    0  501  502  0.00000000000E+00  0.00000000000E+00  0.16776316853E+03  0.16776316853E+03  0.00000000000E+00 0.  1.
         21   -1    0    0  502  503 -0.00000000000E+00 -0.00000000000E+00 -0.39527034899E+03  0.39527034899E+03  0.00000000000E+00 0.  1.
         -6    2    1    2    0  503  0.10363298270E+02 -0.19107003284E+03 -0.98594148226E+02  0.27545935885E+03  0.17187756372E+03 0.  0.
        -24    2    3    3    0    0  0.38022708017E+02 -0.65530547966E+02  0.47884226907E+01  0.11042829759E+03  0.80196638799E+02 0.  0.
          6    2    1    2  501    0 -0.10363298270E+02  0.19107003284E+03 -0.12891303224E+03  0.28757415868E+03  0.17165422063E+03 0.  0.
         24    2    5    5    0    0  0.11748396829E+02  0.73431057206E+02  0.24653649876E+01  0.10978150162E+03  0.80720227218E+02 0.  0.
          5    1    5    5  501    0 -0.22111695099E+02  0.11763897564E+03 -0.13137839722E+03  0.17779265706E+03  0.47000000000E+01 0. -1.
        -13    1    6    6    0    0 -0.51749975192E+01  0.28347769760E+02 -0.37436750281E+02  0.47242850478E+02  0.00000000000E+00 0.  1.
         14    1    6    6    0    0  0.16923394348E+02  0.45083287446E+02  0.39902115269E+02  0.62538651138E+02  0.00000000000E+00 0. -1.
         -5    1    3    3    0  503 -0.27659409748E+02 -0.12553948488E+03 -0.10338257092E+03  0.16503106126E+03  0.47000000000E+01 0.  1.
         13    1    4    4    0    0  0.39417219565E+02 -0.38190565002E+01 -0.19440558643E+02  0.44116184231E+02  0.00000000000E+00 0. -1.
        -14    1    4    4    0    0 -0.13945115473E+01 -0.61711491466E+02  0.24228981334E+02  0.66312113357E+02  0.00000000000E+00 0.  1.
</event>
<event>
12    1  0.1040325E-001  0.1838628E+03  0.7818608E-02  0.1165820E+00
         21   -1    0    0  503  502  0.00000000000E+00  0.00000000000E+00  0.57593415412E+02  0.57593415412E+02  0.00000000000E+00 0.  1.
         21   -1    0    0  501  503 -0.00000000000E+00 -0.00000000000E+00 -0.11786801648E+04  0.11786801648E+04  0.00000000000E+00 0.  1.
          6    2    1    2  501    0  0.37898349887E+02 -0.11370668558E+02 -0.11967718583E+03  0.21938127205E+03  0.17955482920E+03 0.  0.
         24    2    3    3    0    0  0.15066159587E+02  0.60334889609E+02 -0.34966360305E+02  0.10597487916E+03  0.78362877633E+02 0.  0.
         -6    2    1    2    0  502 -0.37898349887E+02  0.11370668558E+02 -0.10014095636E+04  0.10168923082E+04  0.17228834958E+03 0.  0.
        -24    2    5    5    0    0 -0.57480012393E+02 -0.36079366666E+02 -0.41565086794E+03  0.42886995584E+03  0.80982235567E+02 0.  0.
          5    1    3    3  501    0  0.22832190300E+02 -0.71705558167E+02 -0.84710825529E+02  0.11340639289E+03  0.47000000000E+01 0. -1.
        -11    1    4    4    0    0  0.31278184642E+02  0.31752993341E+02  0.14253126743E+02  0.46794540735E+02  0.00000000000E+00 0.  1.
         12    1    4    4    0    0 -0.16212025055E+02  0.28581896268E+02 -0.49219487048E+02  0.59180338424E+02  0.00000000000E+00 0. -1.
         -5    1    5    5    0  502  0.19581662506E+02  0.47450035224E+02 -0.58575869563E+03  0.58802235234E+03  0.47000000000E+01 0.  1.
         13    1    6    6    0    0  0.41598348472E+01  0.92469351144E+01 -0.52884313856E+01  0.11435800868E+02  0.00000000000E+00 0. -1.
        -14    1    6    6    0    0 -0.61639847240E+02 -0.45326301780E+02 -0.41036243656E+03  0.41743415497E+03  0.00000000000E+00 0.  1.
</event>
<event>
12    1  0.1040325E-001  0.2512178E+03  0.7818608E-02  0.1112892E+00
         21   -1    0    0  503  502  0.00000000000E+00  0.00000000000E+00  0.38066422363E+03  0.38066422363E+03  0.00000000000E+00 0. -1.
         21   -1    0    0  501  503 -0.00000000000E+00 -0.00000000000E+00 -0.18490680362E+03  0.18490680362E+03  0.00000000000E+00 0. -1.
          6    2    1    2  501    0 -0.10747852490E+03  0.14456760625E+03  0.38891689888E+01  0.25124788967E+03  0.17509697409E+03 0.  0.
         24    2    3    3    0    0 -0.41393126349E+02  0.14833522571E+03  0.37177877894E+02  0.17700704512E+03  0.78946623253E+02 0.  0.
         -6    2    1    2    0  502  0.10747852490E+03 -0.14456760625E+03  0.19186825103E+03  0.31432313758E+03  0.17185512205E+03 0.  0.
        -24    2    5    5    0    0  0.84760533714E+02 -0.37835363019E+02  0.44239442830E+02  0.13068154676E+03  0.80651569062E+02 0.  0.
          5    1    3    3  501    0 -0.66085398553E+02 -0.37676194560E+01 -0.33288708905E+02  0.74240844546E+02  0.47000000000E+01 0. -1.
        -13    1    4    4    0    0  0.17005689017E+02  0.60844988767E+01  0.10639683945E+02  0.20962286612E+02  0.00000000000E+00 0.  1.
         14    1    4    4    0    0 -0.58398815366E+02  0.14225072683E+03  0.26538193948E+02  0.15604475851E+03  0.00000000000E+00 0. -1.
         -5    1    5    5    0  502  0.22717991188E+02 -0.10673224324E+03  0.14762880820E+03  0.18364159082E+03  0.47000000000E+01 0.  1.
         13    1    6    6    0    0  0.70551075106E+02  0.55816571670E+01  0.46932401376E+02  0.84919134441E+02  0.00000000000E+00 0. -1.
        -14    1    6    6    0    0  0.14209458608E+02 -0.43417020185E+02 -0.26929585463E+01  0.45762412321E+02  0.00000000000E+00 0.  1.
</event>
<event>
12    1  0.1040325E-001  0.2443734E+03  0.7818608E-02  0.1117198E+00
         21   -1    0    0  503  502  0.00000000000E+00  0.00000000000E+00  0.29920581666E+03  0.29920581666E+03  0.00000000000E+00 0.  1.
         21   -1    0    0  501  503 -0.00000000000E+00 -0.00000000000E+00 -0.30036053556E+03  0.30036053556E+03  0.00000000000E+00 0. -1.
          6    2    1    2  501    0  0.37736337133E+02 -0.15641465008E+03 -0.17544035654E+03  0.30082834095E+03  0.18392606698E+03 0.  0.
         24    2    3    3    0    0  0.90053862321E+02 -0.13956821495E+03 -0.15819505941E+03  0.24303200809E+03  0.80311240764E+02 0.  0.
         -6    2    1    2    0  502 -0.37736337133E+02  0.15641465008E+03  0.17428563764E+03  0.29873801128E+03  0.18160215306E+03 0.  0.
        -24    2    5    5    0    0  0.12804022994E+02  0.66096740463E+02  0.11603403046E+02  0.10586693451E+03  0.80873028611E+02 0.  0.
          5    1    3    3  501    0 -0.52317525188E+02 -0.16846435128E+02 -0.17245297131E+02  0.57796332855E+02  0.47000000000E+01 0. -1.
        -13    1    4    4    0    0  0.36434496191E+02 -0.22949236065E+02 -0.52722507697E+01  0.43381292936E+02  0.00000000000E+00 0.  1.
         14    1    4    4    0    0  0.53619366130E+02 -0.11661897889E+03 -0.15292280864E+03  0.19965071516E+03  0.00000000000E+00 0. -1.
         -5    1    5    5    0  502 -0.50540360128E+02  0.90317909620E+02  0.16268223459E+03  0.19287107676E+03  0.47000000000E+01 0.  1.
         11    1    6    6    0    0 -0.33820508672E+02  0.26648592232E+02 -0.26939640987E+01  0.43141994824E+02  0.00000000000E+00 0. -1.
        -12    1    6    6    0    0  0.46624531667E+02  0.39448148231E+02  0.14297367145E+02  0.62724939691E+02  0.00000000000E+00 0.  1.
</event>
<event>
12    1  0.1040325E-001  0.1896725E+03  0.7818608E-02  0.1159007E+00
         21   -1    0    0  503  502  0.00000000000E+00  0.00000000000E+00  0.16193724206E+03  0.16193724206E+03  0.00000000000E+00 0.  1.
         21   -1    0    0  501  503 -0.00000000000E+00 -0.00000000000E+00 -0.25596672436E+03  0.25596672436E+03  0.00000000000E+00 0. -1.
          6    2    1    2  501    0  0.70277036870E+02 -0.32633072499E+02 -0.12450533166E+03  0.22688597942E+03  0.17312391722E+03 0.  0.
         24    2    3    3    0    0  0.34650489610E+02  0.45373708197E+02 -0.38512995620E+02  0.10534964509E+03  0.79723691987E+02 0.  0.
         -6    2    1    2    0  502 -0.70277036870E+02  0.32633072499E+02  0.30475849356E+02  0.19101798699E+03  0.17191659207E+03 0.  0.
        -24    2    5    5    0    0 -0.93235679598E+02 -0.19368931640E+02 -0.47565243836E+01  0.12397532990E+03  0.79241469176E+02 0.  0.
          5    1    3    3  501    0  0.35626547260E+02 -0.78006780696E+02 -0.85992336036E+02  0.12153633432E+03  0.47000000000E+01 0. -1.
        -11    1    4    4    0    0 -0.18411027389E+02  0.33129528866E+02 -0.33638135365E+02  0.50675988034E+02  0.00000000000E+00 0.  1.
         12    1    4    4    0    0  0.53061516999E+02  0.12244179330E+02 -0.48748602554E+01  0.54673657060E+02  0.00000000000E+00 0. -1.
         -5    1    5    5    0  502  0.22958642729E+02  0.52002004139E+02  0.35232373740E+02  0.67042657090E+02  0.47000000000E+01 0.  1.
         11    1    6    6    0    0 -0.91748732679E+02  0.72234669168E+01 -0.18698532170E+02  0.93912957188E+02  0.00000000000E+00 0. -1.
        -12    1    6    6    0    0 -0.14869469193E+01 -0.26592398556E+02  0.13942007786E+02  0.30062372714E+02  0.00000000000E+00 0.  1.
</event>
<event>
12    1  0.1040325E-001  0.1741879E+03  0.7818608E-02  0.1173961E+00
         21   -1    0    0  501  502  0.00000000000E+00  0.00000000000E+00  0.53558688086E+03  0.53558688086E+03  0.00000000000E+00 0. -1.
         21   -1    0    0  502  503 -0.00000000000E+00 -0.00000000000E+00 -0.92022725467E+02  0.92022725467E+02  0.00000000000E+00 0. -1.
         -6    2    1    2    0  503 -0.54975045907E+01 -0.23321222012E+02  0.26420017302E+02  0.17618016626E+03  0.17253211793E+03 0.  0.
        -24    2    3    3    0    0 -0.19601006845E+02  0.17225904075E+02 -0.43677944643E+02  0.93846743652E+02  0.78857575447E+02 0.  0.
          6    2    1    2  501    0  0.54975045907E+01  0.23321222012E+02  0.41714413809E+03  0.45142944007E+03  0.17089530555E+03 0.  0.
         24    2    5    5    0    0 -0.48871889871E+02  0.45475279838E+02  0.33144422193E+03  0.34744194580E+03  0.80026062997E+02 0.  0.
          5    1    5    5  501    0  0.54369394462E+02 -0.22154057826E+02  0.85699916166E+02  0.10398749426E+03  0.47000000000E+01 0. -1.
        -11    1    6    6    0    0 -0.16935233163E+02  0.54734010907E+02  0.11525254387E+03  0.12870805313E+03  0.00000000000E+00 0.  1.
         12    1    6    6    0    0 -0.31936656709E+02 -0.92587310686E+01  0.21619167805E+03  0.21873389267E+03  0.00000000000E+00 0. -1.
         -5    1    3    3    0  503  0.14103502254E+02 -0.40547126087E+02  0.70097961945E+02  0.82333422610E+02  0.47000000000E+01 0.  1.
         13    1    4    4    0    0 -0.25056257772E+02 -0.27692485743E+02 -0.14816466659E+02  0.40177325750E+02  0.00000000000E+00 0. -1.
        -14    1    4    4    0    0  0.54552509275E+01  0.44918389818E+02 -0.28861477984E+02  0.53669417902E+02  0.00000000000E+00 0.  1.
</event>
<event>
12    1  0.1040325E-001  0.2135991E+03  0.7818608E-02  0.1139035E+00
         21   -1    0    0  501  502  0.00000000000E+00  0.00000000000E+00  0.37777360908E+03  0.37777360908E+03  0.00000000000E+00 0. -1.
         21   -1    0    0  502  503 -0.00000000000E+00 -0.00000000000E+00 -0.12511245712E+03  0.12511245712E+03  0.00000000000E+00 0. -1.
         -6    2    1    2    0  503 -0.19436656846E+02 -0.12186092998E+03  0.74766588288E+02  0.22490934059E+03  0.17252912471E+03 0.  0.
        -24    2    3    3    0    0 -0.42253163089E+02 -0.12886463156E+03  0.10240955245E+03  0.18808722413E+03  0.80608091336E+02 0.  0.
          6    2    1    2  501    0  0.19436656846E+02  0.12186092998E+03  0.17789456367E+03  0.27797672561E+03  0.17434653512E+03 0.  0.
         24    2    5    5    0    0  0.99933222946E+01  0.11250619994E+03  0.20504815288E+03  0.24738105682E+03  0.79969561436E+02 0.  0.
          5    1    5    5  501    0  0.94433345513E+01  0.93547300432E+01 -0.27153589209E+02  0.30595668788E+02  0.47000000000E+01 0. -1.
        -13    1    6    6    0    0 -0.21708864749E+02  0.92414786611E+02  0.11062938851E+03  0.14577595547E+03  0.00000000000E+00 0.  1.
         14    1    6    6    0    0  0.31702187044E+02  0.20091413330E+02  0.94418764374E+02  0.10160510134E+03  0.00000000000E+00 0. -1.
         -5    1    3    3    0  503  0.22816506243E+02  0.70037015747E+01 -0.27642964162E+02  0.36822116459E+02  0.47000000000E+01 0.  1.
         11    1    4    4    0    0 -0.21551836543E+02 -0.11376819059E+02 -0.78870785697E+01  0.25614833176E+02  0.00000000000E+00 0. -1.
        -12    1    4    4    0    0 -0.20701326545E+02 -0.11748781250E+03  0.11029663102E+03  0.16247239095E+03  0.00000000000E+00 0.  1.
</event>
<event>
12    1  0.1040325E-001  0.2053095E+03  0.7818608E-02  0.1145625E+00
         21   -1    0    0  503  502  0.00000000000E+00  0.00000000000E+00  0.23951424803E+03  0.23951424803E+03  0.00000000000E+00 0. -1.
         21   -1    0    0  501  503 -0.00000000000E+00 -0.00000000000E+00 -0.17481772495E+03  0.17481772495E+03  0.00000000000E+00 0. -1.
          6    2    1    2  501    0 -0.93403005069E+01  0.11006442270E+03  0.35420701508E+02  0.20694568747E+03  0.17137815821E+03 0.  0.
         24    2    3    3    0    0 -0.67918739988E+02  0.68202427697E+02  0.46679382068E+02  0.13392029404E+03  0.80567698619E+02 0.  0.
         -6    2    1    2    0  502  0.93403005069E+01 -0.11006442270E+03  0.29275821577E+02  0.20738628551E+03  0.17306235677E+03 0.  0.
        -24    2    5    5    0    0 -0.54715325211E+01 -0.39313250618E+02 -0.43503326127E+02  0.10470224055E+03  0.86571071666E+02 0.  0.
          5    1    3    3  501    0  0.58578439481E+02  0.41861995004E+02 -0.11258680560E+02  0.73025393430E+02  0.47000000000E+01 0. -1.
        -13    1    4    4    0    0 -0.28923275032E+02 -0.13603490032E+02  0.25411754484E+02  0.40833418245E+02  0.00000000000E+00 0.  1.
         14    1    4    4    0    0 -0.38995464956E+02  0.81805917729E+02  0.21267627584E+02  0.93086875797E+02  0.00000000000E+00 0. -1.
         -5    1    5    5    0  502  0.14811833028E+02 -0.70751172083E+02  0.72779147703E+02  0.10268404496E+03  0.47000000000E+01 0.  1.
         13    1    6    6    0    0  0.10934781126E+02 -0.50912691163E+02  0.48906795868E+01  0.52302870921E+02  0.00000000000E+00 0. -1.
        -14    1    6    6    0    0 -0.16406313647E+02  0.11599440544E+02 -0.48394005713E+02  0.52399369628E+02  0.00000000000E+00 0.  1.
</event>
<event>
12    1  0.1040325E-001  0.1964342E+03  0.7818608E-02  0.1153105E+00
         21   -1    0    0  503  502  0.00000000000E+00  0.00000000000E+00  0.27295336110E+03  0.27295336110E+03  0.00000000000E+00 0. -1.
         21   -1    0    0  501  503 -0.00000000000E+00 -0.00000000000E+00 -0.17280972067E+03  0.17280972067E+03  0.00000000000E+00 0.  1.
          6    2    1    2  501    0 -0.16730964640E+00  0.91000161068E+02  0.14659074857E+03  0.24391229192E+03  0.17240447000E+03 0.  0.
         24    2    3    3    0    0  0.19587198977E+02  0.12179606420E+03  0.14756129880E+03  0.20701161132E+03  0.76560634141E+02 0.  0.
         -6    2    1    2    0  502  0.16730964640E+00 -0.91000161068E+02 -0.46447108140E+02  0.20185078986E+03  0.17408431924E+03 0.  0.
        -24    2    5    5    0    0  0.37730828009E+02 -0.79966248615E+02  0.23255889450E+02  0.12176731461E+03  0.80425283416E+02 0.  0.
          5    1    3    3  501    0 -0.19754508624E+02 -0.30795903130E+02 -0.97055023332E+00  0.36900680594E+02  0.47000000000E+01 0. -1.
        -11    1    4    4    0    0  0.35100383578E+02  0.51674052042E+02  0.10865617633E+03  0.12533319288E+03  0.00000000000E+00 0.  1.
         12    1    4    4    0    0 -0.15513184601E+02  0.70122012156E+02  0.38905122472E+02  0.81678418446E+02  0.00000000000E+00 0. -1.
         -5    1    5    5    0  502 -0.37563518362E+02 -0.11033912453E+02 -0.69702997589E+02  0.80083475254E+02  0.47000000000E+01 0.  1.
         13    1    6    6    0    0 -0.97976494592E+01 -0.58354417436E+02 -0.97917873106E+01  0.59975920735E+02  0.00000000000E+00 0. -1.
        -14    1    6    6    0    0  0.47528477468E+02 -0.21611831179E+02  0.33047676760E+02  0.61791393872E+02  0.00000000000E+00 0.  1.
</event>
<event>
12    1  0.1040325E-001  0.1972412E+03  0.7818608E-02  0.1152863E+00
         21   -1    0    0  501  502  0.00000000000E+00  0.00000000000E+00  0.57887948561E+03  0.57887948561E+03  0.00000000000E+00 0.  1.
         21   -1    0    0  502  503 -0.00000000000E+00 -0.00000000000E+00 -0.19414348682E+03  0.19414348682E+03  0.00000000000E+00 0. -1.
         -6    2    1    2    0  503  0.78079345976E+02 -0.45915156877E+02 -0.12224781139E+03  0.22902234700E+03  0.17117862641E+03 0.  0.
        -24    2    3    3    0    0  0.11800240995E+03 -0.55315340858E+02 -0.93312330011E+02  0.17860839478E+03  0.78799822747E+02 0.  0.
          6    2    1    2  501    0 -0.78079345976E+02  0.45915156877E+02  0.50698381019E+03  0.54400062543E+03  0.17521275860E+03 0.  0.
         24    2    5    5    0    0 -0.60280541200E+02  0.59017651914E+02  0.50785655103E+03  0.52138813985E+03  0.82525687269E+02 0.  0.
          5    1    5    5  501    0 -0.17798804776E+02 -0.13102495037E+02 -0.87274084773E+00  0.22612485582E+02  0.47000000000E+01 0. -1.
        -11    1    6    6    0    0  0.10772736960E+02  0.35016349939E+02  0.25581547673E+03  0.25842553039E+03  0.00000000000E+00 0.  1.
         12    1    6    6    0    0 -0.71053278160E+02  0.24001301975E+02  0.25204107431E+03  0.26296260946E+03  0.00000000000E+00 0. -1.
         -5    1    3    3    0  503 -0.39923063977E+02  0.94001839808E+01 -0.28935481376E+02  0.50413952222E+02  0.47000000000E+01 0.  1.
         11    1    4    4    0    0  0.13767652853E+02 -0.42665219925E+02 -0.43218995666E+02  0.62271589370E+02  0.00000000000E+00 0. -1.
        -12    1    4    4    0    0  0.10423475710E+03 -0.12650120933E+02 -0.50093334345E+02  0.11633680541E+03  0.00000000000E+00 0.  1.
</event>
<event>
12    1  0.1040325E-001  0.2228091E+03  0.7818608E-02  0.1132836E+00
         21   -1    0    0  501  502  0.00000000000E+00  0.00000000000E+00  0.13210746701E+03  0.13210746701E+03  0.00000000000E+00 0. -1.
         21   -1    0    0  502  503 -0.00000000000E+00 -0.00000000000E+00 -0.38815095862E+03  0.38815095862E+03  0.00000000000E+00 0.  1.
         -6    2    1    2    0  503 -0.69698581545E+02 -0.12433995056E+03 -0.19098111577E+03  0.29345815492E+03  0.17124715044E+03 0.  0.
        -24    2    3    3    0    0  0.32623182041E+02 -0.63269616247E+02 -0.55043508386E+02  0.11262549156E+03  0.67730326937E+02 0.  0.
          6    2    1    2  501    0  0.69698581545E+02  0.12433995056E+03 -0.65062375833E+02  0.22680027070E+03  0.16397235885E+03 0.  0.
         24    2    5    5    0    0  0.97108498830E+02  0.64227849981E+02 -0.73779512705E+02  0.15999572986E+03  0.81240013667E+02 0.  0.
          5    1    5    5  501    0 -0.27409917285E+02  0.60112100583E+02  0.87171368721E+01  0.66804540843E+02  0.47000000000E+01 0. -1.
        -11    1    6    6    0    0  0.31781672487E+02  0.30935581180E+02 -0.74463882784E+02  0.86671533552E+02  0.00000000000E+00 0.  1.
         12    1    6    6    0    0  0.65326826344E+02  0.33292268800E+02  0.68437007844E+00  0.73324196309E+02  0.00000000000E+00 0. -1.
         -5    1    3    3    0  503 -0.10232176359E+03 -0.61070334317E+02 -0.13593760739E+03  0.18083266336E+03  0.47000000000E+01 0.  1.
         13    1    4    4    0    0  0.26928601596E+02 -0.50738424699E+02 -0.16276021785E+01  0.57464653603E+02  0.00000000000E+00 0. -1.
        -14    1    4    4    0    0  0.56945804445E+01 -0.12531191548E+02 -0.53415906208E+02  0.55160837956E+02  0.00000000000E+00 0.  1.
</event>
<event>
12    1  0.1040325E-001  0.2320162E+03  0.7818608E-02  0.1125730E+00
         21   -1    0    0  501  502  0.00000000000E+00  0.00000000000E+00  0.35948536841E+03  0.35948536841E+03  0.00000000000E+00 0. -1.
         21   -1    0    0  502  503 -0.00000000000E+00 -0.00000000000E+00 -0.34439950846E+03  0.34439950846E+03  0.00000000000E+00 0.  1.
         -6    2    1    2    0  503 -0.87992776790E+02  0.12481416852E+03 -0.25831183962E+03  0.34530735778E+03  0.17085332721E+03 0.  0.
        -24    2    3    3    0    0 -0.12000653666E+03  0.13120669404E+03 -0.22986325315E+03  0.30175098883E+03  0.81239022116E+02 0.  0.
          6    2    1    2  501    0  0.87992776790E+02 -0.12481416852E+03  0.27339769957E+03  0.35857751908E+03  0.17467177686E+03 0.  0.
         24    2    5    5    0    0  0.79892828849E+01 -0.86753485168E+02  0.23241870803E+03  0.26085064252E+03  0.80215996108E+02 0.  0.
          5    1    5    5  501    0  0.80003493905E+02 -0.38060683354E+02  0.40978991536E+02  0.97726876557E+02  0.47000000000E+01 0. -1.
        -11    1    6    6    0    0 -0.21754547026E+01  0.53655323773E+01 -0.39186724474E+01  0.69912469993E+01  0.00000000000E+00 0.  1.
         12    1    6    6    0    0  0.10164737588E+02 -0.92119017546E+02  0.23633738048E+03  0.25385939553E+03  0.00000000000E+00 0. -1.
         -5    1    3    3    0  503  0.32013759867E+02 -0.63925255170E+01 -0.28448586473E+02  0.43556368945E+02  0.47000000000E+01 0.  1.
         11    1    4    4    0    0 -0.71541295079E+02  0.12777021263E+03 -0.18135310319E+03  0.23309296895E+03  0.00000000000E+00 0. -1.
        -12    1    4    4    0    0 -0.48465241578E+02  0.34364814086E+01 -0.48510149959E+02  0.68658019886E+02  0.00000000000E+00 0.  1.
</event>
<event>
12    1  0.1040325E-001  0.1949004E+03  0.7818608E-02  0.1154144E+00
         21   -1    0    0  503  502  0.00000000000E+00  0.00000000000E+00  0.80455412001E+02  0.80455412001E+02  0.00000000000E+00 0. -1.
         21   -1    0    0  501  503 -0.00000000000E+00 -0.00000000000E+00 -0.51828116648E+03  0.51828116648E+03  0.00000000000E+00 0. -1.
          6    2    1    2  501    0  0.75008939558E+02  0.51865011348E+02 -0.30862778079E+03  0.36501681803E+03  0.17224938303E+03 0.  0.
         24    2    3    3    0    0  0.10199565617E+02  0.93762784736E+01 -0.50987305978E+02  0.95932720332E+02  0.80071441367E+02 0.  0.
         -6    2    1    2    0  502 -0.75008939558E+02 -0.51865011348E+02 -0.12919797368E+03  0.23371976045E+03  0.17209442061E+03 0.  0.
        -24    2    5    5    0    0 -0.34837187732E+02  0.14293909552E+02 -0.12860066093E+03  0.15617481063E+03  0.80215310157E+02 0.  0.
          5    1    3    3  501    0  0.64809373941E+02  0.42488732874E+02 -0.25764047482E+03  0.26908409770E+03  0.47000000000E+01 0. -1.
        -11    1    4    4    0    0 -0.27968941706E+02  0.23956786712E+02 -0.38339914587E+02  0.53161436966E+02  0.00000000000E+00 0.  1.
         12    1    4    4    0    0  0.38168507323E+02 -0.14580508238E+02 -0.12647391391E+02  0.42771283366E+02  0.00000000000E+00 0. -1.
         -5    1    5    5    0  502 -0.40171751826E+02 -0.66158920900E+02 -0.59731274864E+00  0.77544949816E+02  0.47000000000E+01 0.  1.
         11    1    6    6    0    0 -0.46787605875E+02 -0.19260955695E+02 -0.57092660547E+02  0.76286541186E+02  0.00000000000E+00 0. -1.
        -12    1    6    6    0    0  0.11950418142E+02  0.33554865247E+02 -0.71508000388E+02  0.79888269445E+02  0.00000000000E+00 0.  1.
</event>
<event>
12    1  0.1040325E-001  0.3891842E+03  0.7818608E-02  0.1047664E+00
         21   -1    0    0  503  502  0.00000000000E+00  0.00000000000E+00  0.71659954602E+03  0.71659954602E+03  0.00000000000E+00 0.  1.
         21   -1    0    0  501  503 -0.00000000000E+00 -0.00000000000E+00 -0.26574930925E+03  0.26574930925E+03  0.00000000000E+00 0. -1.
          6    2    1    2  501    0 -0.13572735418E+03 -0.32263912203E+03  0.25149363871E+01  0.38919235330E+03  0.17013654878E+03 0.  0.
         24    2    3    3    0    0 -0.76164980945E+02 -0.16516245399E+03  0.64533475092E+02  0.20970707139E+03  0.82053311040E+02 0.  0.
         -6    2    1    2    0  502  0.13572735418E+03  0.32263912203E+03  0.44833530038E+03  0.59315650196E+03  0.16826222547E+03 0.  0.
        -24    2    5    5    0    0  0.70573848234E+02  0.17934029042E+03  0.34864058459E+03  0.40676803442E+03  0.82257940536E+02 0.  0.
          5    1    3    3  501    0 -0.59562373234E+02 -0.15747666803E+03 -0.62018538704E+02  0.17948528191E+03  0.47000000000E+01 0. -1.
        -11    1    4    4    0    0 -0.17601518091E+02 -0.12656832513E+03  0.28798340121E+02  0.13099121635E+03  0.00000000000E+00 0.  1.
         12    1    4    4    0    0 -0.58563462855E+02 -0.38594128858E+02  0.35735134970E+02  0.78715855043E+02  0.00000000000E+00 0. -1.
         -5    1    5    5    0  502  0.65153505946E+02  0.14329883160E+03  0.99694715794E+02  0.18638846754E+03  0.47000000000E+01 0.  1.
         11    1    6    6    0    0  0.84532436764E+02  0.14118922802E+03  0.24198682671E+03  0.29263929209E+03  0.00000000000E+00 0. -1.
        -12    1    6    6    0    0 -0.13958588531E+02  0.38151062404E+02  0.10665375788E+03  0.11412874234E+03  0.00000000000E+00 0.  1.
</event>
<event>
12    1  0.1040325E-001  0.1989850E+03  0.7818608E-02  0.1151436E+00
         21   -1    0    0  501  502  0.00000000000E+00  0.00000000000E+00  0.42490522726E+02  0.42490522726E+02  0.00000000000E+00 0.  1.
         21   -1    0    0  502  503 -0.00000000000E+00 -0.00000000000E+00 -0.10496125428E+04  0.10496125428E+04  0.00000000000E+00 0. -1.
         -6    2    1    2    0  503  0.47539697269E+02 -0.77050931504E+02 -0.70441294549E+03  0.73197855868E+03  0.17719521359E+03 0.  0.
        -24    2    3    3    0    0  0.18000494499E+02 -0.11966881079E+03 -0.56154521303E+03  0.57991894170E+03  0.79550679371E+02 0.  0.
          6    2    1    2  501    0 -0.47539697269E+02  0.77050931504E+02 -0.30270907457E+03  0.36012450684E+03  0.17280048535E+03 0.  0.
         24    2    5    5    0    0 -0.51208520569E+02  0.79100429289E+02 -0.10574091033E+03  0.16305546201E+03  0.80788322684E+02 0.  0.
          5    1    5    5  501    0  0.36688233000E+01 -0.20494977849E+01 -0.19696816423E+03  0.19706904482E+03  0.47000000000E+01 0. -1.
        -13    1    6    6    0    0 -0.64571921193E+02  0.28021666696E+02 -0.50431943078E+02  0.86591729938E+02  0.00000000000E+00 0.  1.
         14    1    6    6    0    0  0.13363400624E+02  0.51078762592E+02 -0.55308967256E+02  0.76463732077E+02  0.00000000000E+00 0. -1.
         -5    1    3    3    0  503  0.29539202770E+02  0.42617879289E+02 -0.14286773247E+03  0.15205961698E+03  0.47000000000E+01 0.  1.
         11    1    4    4    0    0 -0.24309247565E+02 -0.86101571545E+02 -0.38710639494E+03  0.39731068592E+03  0.00000000000E+00 0. -1.
        -12    1    4    4    0    0  0.42309742064E+02 -0.33567239247E+02 -0.17443881808E+03  0.18260825578E+03  0.00000000000E+00 0.  1.
</event>
<event>
12    1  0.1040325E-001  0.2313766E+03  0.7818608E-02  0.1125739E+00
         21   -1    0    0  501  502  0.00000000000E+00  0.00000000000E+00  0.11834077919E+03  0.11834077919E+03  0.00000000000E+00 0. -1.
         21   -1    0    0  502  503 -0.00000000000E+00 -0.00000000000E+00 -0.74134711644E+03  0.74134711644E+03  0.00000000000E+00 0. -1.
         -6    2    1    2    0  503  0.15445542665E+03 -0.25444886106E+02 -0.58035424844E+03  0.62477692053E+03  0.17038552079E+03 0.  0.
        -24    2    3    3    0    0  0.83894556909E+02 -0.56932345589E+02 -0.49978674451E+03  0.51304729540E+03  0.56135093096E+02 0.  0.
          6    2    1    2  501    0 -0.15445542665E+03  0.25444886106E+02 -0.42652088808E+02  0.23491097510E+03  0.16988244316E+03 0.  0.
         24    2    5    5    0    0 -0.16351966592E+03  0.64641530302E+02 -0.38335397533E+02  0.19417694543E+03  0.72923760518E+02 0.  0.
          5    1    5    5  501    0  0.90642392752E+01 -0.39196644197E+02 -0.43166912745E+01  0.40734029674E+02  0.47000000000E+01 0. -1.
        -13    1    6    6    0    0 -0.13015695873E+03  0.26138906040E+02 -0.41431304806E+01  0.13282033672E+03  0.00000000000E+00 0.  1.
         14    1    6    6    0    0 -0.33362707188E+02  0.38502624262E+02 -0.34192267053E+02  0.61356608709E+02  0.00000000000E+00 0. -1.
         -5    1    3    3    0  503  0.70560869736E+02  0.31487459484E+02 -0.80567503939E+02  0.11172962514E+03  0.47000000000E+01 0.  1.
         13    1    4    4    0    0  0.39084389327E+02 -0.48526876276E+02 -0.19083496217E+03  0.20074966998E+03  0.00000000000E+00 0. -1.
        -14    1    4    4    0    0  0.44810167583E+02 -0.84054693128E+01 -0.30895178234E+03  0.31229762542E+03  0.00000000000E+00 0.  1.
</event>
<event>
12    1  0.1040325E-001  0.1905174E+03  0.7818608E-02  0.1158842E+00
         21   -1    0    0  503  502  0.00000000000E+00  0.00000000000E+00  0.31340925453E+03  0.31340925453E+03  0.00000000000E+00 0.  1.
         21   -1    0    0  501  503 -0.00000000000E+00 -0.00000000000E+00 -0.21409001493E+03  0.21409001493E+03  0.00000000000E+00 0.  1.
          6    2    1    2  501    0  0.17414694734E+02 -0.71889172223E+02 -0.13081196366E+03  0.23110311506E+03  0.17557208001E+03 0.  0.
         24    2    3    3    0    0 -0.40426393288E+02  0.10410370591E+02 -0.66696619314E+02  0.11172274150E+03  0.79314959818E+02 0.  0.
         -6    2    1    2    0  502 -0.17414694734E+02  0.71889172223E+02  0.23013120326E+03  0.29639615440E+03  0.17151963431E+03 0.  0.
        -24    2    5    5    0    0  0.29430116961E+01  0.86553577063E+02  0.24109660948E+03  0.26861466571E+03  0.80784160009E+02 0.  0.
          5    1    3    3  501    0  0.57841088023E+02 -0.82299542813E+02 -0.64115344343E+02  0.11938037356E+03  0.47000000000E+01 0. -1.
        -13    1    4    4    0    0  0.13676324972E+02 -0.22403586979E+02 -0.17116506734E+02  0.31335880027E+02  0.00000000000E+00 0.  1.
         14    1    4    4    0    0 -0.54102718260E+02  0.32813957570E+02 -0.49580112580E+02  0.80386861476E+02  0.00000000000E+00 0. -1.
         -5    1    5    5    0  502 -0.20357706430E+02 -0.14664404840E+02 -0.10965406222E+02  0.27781488694E+02  0.47000000000E+01 0.  1.
         11    1    6    6    0    0  0.30147388809E+02  0.47319888532E+02  0.63610299985E+02  0.84819261768E+02  0.00000000000E+00 0. -1.
        -12    1    6    6    0    0 -0.27204377113E+02  0.39233688531E+02  0.17748630950E+03  0.18379540394E+03  0.00000000000E+00 0.  1.
</event>
<event>
12    1  0.1040325E-001  0.2259399E+03  0.7818608E-02  0.1130233E+00
         21   -1    0    0  501  502  0.00000000000E+00  0.00000000000E+00  0.41669317716E+02  0.41669317716E+02  0.00000000000E+00 0. -1.
         21   -1    0    0  502  503 -0.00000000000E+00 -0.00000000000E+00 -0.14983882237E+04  0.14983882237E+04  0.00000000000E+00 0. -1.
         -6    2    1    2    0  503  0.50125839972E+02 -0.13318663071E+03 -0.10745792431E+04  0.10980753087E+04  0.17549232282E+03 0.  0.
        -24    2    3    3    0    0  0.52294472650E+02 -0.16521624459E+03 -0.84332298917E+03  0.86455412309E+03  0.78924320305E+02 0.  0.
          6    2    1    2  501    0 -0.50125839972E+02  0.13318663071E+03 -0.38213966292E+03  0.44198223279E+03  0.17048839752E+03 0.  0.
         24    2    5    5    0    0 -0.24219098708E+01  0.25106382591E+02 -0.25619619922E+03  0.26923718646E+03  0.78841448396E+02 0.  0.
          5    1    5    5  501    0 -0.47703930102E+02  0.10808024812E+03 -0.12594346370E+03  0.17274504633E+03  0.47000000000E+01 0. -1.
        -13    1    6    6    0    0 -0.88729918149E+01  0.52887694195E+02 -0.18245663722E+03  0.19017429544E+03  0.00000000000E+00 0.  1.
         14    1    6    6    0    0  0.64510819442E+01 -0.27781311603E+02 -0.73739562003E+02  0.79062891024E+02  0.00000000000E+00 0. -1.
         -5    1    3    3    0  503 -0.21686326778E+01  0.32029613880E+02 -0.23125625393E+03  0.23352118558E+03  0.47000000000E+01 0.  1.
         11    1    4    4    0    0  0.37887520667E+02 -0.87002046028E+02 -0.27995954500E+03  0.29560474805E+03  0.00000000000E+00 0. -1.
        -12    1    4    4    0    0  0.14406951984E+02 -0.78214198564E+02 -0.56336344417E+03  0.56894937503E+03  0.00000000000E+00 0.  1.
</event>
<event>
12    1  0.1040325E-001  0.2110985E+03  0.7818608E-02  0.1143408E+00
         21   -1    0    0  503  502  0.00000000000E+00  0.00000000000E+00  0.55104551594E+03  0.55104551594E+03  0.00000000000E+00 0.  1.
         21   -1    0    0  501  503 -0.00000000000E+00 -0.00000000000E+00 -0.12002463611E+03  0.12002463611E+03  0.00000000000E+00 0.  1.
          6    2    1    2  501    0  0.72713446978E+02  0.68857349276E+02  0.75912076223E+01  0.19793669821E+03  0.17056591143E+03 0.  0.
         24    2    3    3    0    0 -0.12800033132E+02  0.77497707110E+02  0.68320061019E+01  0.11185605316E+03  0.79343335362E+02 0.  0.
         -6    2    1    2    0  502 -0.72713446978E+02 -0.68857349276E+02  0.42342967221E+03  0.47313345384E+03  0.18583325298E+03 0.  0.
        -24    2    5    5    0    0 -0.10528888574E+03 -0.61993163149E+02  0.20457741835E+03  0.25171377251E+03  0.81111043851E+02 0.  0.
          5    1    3    3  501    0  0.85513480111E+02 -0.86403578343E+01  0.75920152036E+00  0.86080645043E+02  0.47000000000E+01 0. -1.
        -13    1    4    4    0    0 -0.19671439597E+01  0.81558229176E+02 -0.18812407616E+02  0.83722882666E+02  0.00000000000E+00 0.  1.
         14    1    4    4    0    0 -0.10832889173E+02 -0.40605220655E+01  0.25644413718E+02  0.28133170497E+02  0.00000000000E+00 0. -1.
         -5    1    5    5    0  502  0.32575438759E+02 -0.68641861271E+01  0.21885225386E+03  0.22141968133E+03  0.47000000000E+01 0.  1.
         11    1    6    6    0    0 -0.56987568769E+02  0.12026889013E+02  0.78886030159E+02  0.98057303695E+02  0.00000000000E+00 0. -1.
        -12    1    6    6    0    0 -0.48301316968E+02 -0.74020052162E+02  0.12569138819E+03  0.15365646881E+03  0.00000000000E+00 0.  1.
</event>
<event>
12    1  0.1040325E-001  0.3302753E+03  0.7818608E-02  0.1071049E+00
         21   -1    0    0  501  502  0.00000000000E+00  0.00000000000E+00  0.85551987232E+03  0.85551987232E+03  0.00000000000E+00 0. -1.
         21   -1    0    0  502  503 -0.00000000000E+00 -0.00000000000E+00 -0.13508835433E+03  0.13508835433E+03  0.00000000000E+00 0.  1.
         -6    2    1    2    0  503  0.78644093521E+02  0.27016211886E+03  0.24208886555E+03  0.40949822982E+03  0.17294310478E+03 0.  0.
        -24    2    3    3    0    0  0.12831308500E+02  0.48212911438E+02  0.10328792880E+03  0.13953422594E+03  0.79449837418E+02 0.  0.
          6    2    1    2  501    0 -0.78644093521E+02 -0.27016211886E+03  0.47834265244E+03  0.58110999682E+03  0.17235043182E+03 0.  0.
         24    2    5    5    0    0 -0.22708944565E+00 -0.44611579427E+02  0.11031328093E+03  0.14237319569E+03  0.78172004671E+02 0.  0.
          5    1    5    5  501    0 -0.78417004076E+02 -0.22555053944E+03  0.36802937151E+03  0.43873680113E+03  0.47000000000E+01 0. -1.
        -13    1    6    6    0    0  0.13137143785E+02 -0.57412069425E+02  0.43974381399E+02  0.73501540677E+02  0.00000000000E+00 0.  1.
         14    1    6    6    0    0 -0.13364233230E+02  0.12800489998E+02  0.66338899529E+02  0.68871655017E+02  0.00000000000E+00 0. -1.
         -5    1    3    3    0  503  0.65812785022E+02  0.22194920743E+03  0.13880093674E+03  0.26996400388E+03  0.47000000000E+01 0.  1.
         11    1    4    4    0    0  0.30271544847E+02 -0.10772935177E+02  0.31463696746E+02  0.44970954767E+02  0.00000000000E+00 0. -1.
        -12    1    4    4    0    0 -0.17440236347E+02  0.58985846615E+02  0.71824232055E+02  0.94563271173E+02  0.00000000000E+00 0.  1.
</event>
<event>
12    1  0.1040325E-001  0.2413606E+03  0.7818608E-02  0.1119968E+00
         21   -1    0    0  503  502  0.00000000000E+00  0.00000000000E+00  0.27249267979E+02  0.27249267979E+02  0.00000000000E+00 0.  1.
         21   -1    0    0  501  503 -0.00000000000E+00 -0.00000000000E+00 -0.22253984906E+04  0.22253984906E+04  0.00000000000E+00 0.  1.
          6    2    1    2  501    0 -0.16693399566E+03 -0.16158758069E+02 -0.13718052101E+04  0.13917764737E+04  0.16451186567E+03 0.  0.
         24    2    3    3    0    0 -0.16955176424E+03 -0.13000025188E+02 -0.13726809059E+04  0.13854767000E+04  0.79849956300E+02 0.  0.
         -6    2    1    2    0  502  0.16693399566E+03  0.16158758069E+02 -0.82634401246E+03  0.86087128480E+03  0.17357095871E+03 0.  0.
        -24    2    5    5    0    0  0.10146622894E+03 -0.14064070412E+02 -0.72423743733E+03  0.73578215448E+03  0.79764149395E+02 0.  0.
          5    1    3    3  501    0  0.26177685788E+01 -0.31587328813E+01  0.87569575778E+00  0.62997737109E+01  0.47000000000E+01 0. -1.
        -11    1    4    4    0    0 -0.70534458042E+02  0.22636310391E+02 -0.37393158199E+03  0.38119855761E+03  0.00000000000E+00 0.  1.
         12    1    4    4    0    0 -0.99017306201E+02 -0.35636335579E+02 -0.99874932389E+03  0.10042781424E+04  0.00000000000E+00 0. -1.
         -5    1    5    5    0  502  0.65467766725E+02  0.30222828482E+02 -0.10210657513E+03  0.12508913033E+03  0.47000000000E+01 0.  1.
         11    1    6    6    0    0  0.34712107532E+02  0.25144365471E+02 -0.40631640143E+03  0.40857090890E+03  0.00000000000E+00 0. -1.
        -12    1    6    6    0    0  0.66754121407E+02 -0.39208435883E+02 -0.31792103589E+03  0.32721124558E+03  0.00000000000E+00 0.  1.
</event>
<event>
12    1  0.1040325E-001  0.1925090E+03  0.7818608E-02  0.1156488E+00
         21   -1    0    0  501  502  0.00000000000E+00  0.00000000000E+00  0.22269204430E+03  0.22269204430E+03  0.00000000000E+00 0. -1.
         21   -1    0    0  502  503 -0.00000000000E+00 -0.00000000000E+00 -0.17175655515E+03  0.17175655515E+03  0.00000000000E+00 0. -1.
         -6    2    1    2    0  503 -0.68119165893E+02 -0.53500000196E+02 -0.12642792128E+02  0.19171257602E+03  0.17056201462E+03 0.  0.
        -24    2    3    3    0    0 -0.11100671744E+03 -0.39549417358E+02 -0.26904580601E+02  0.14417890954E+03  0.78594234947E+02 0.  0.
          6    2    1    2  501    0  0.68119165893E+02  0.53500000196E+02  0.63578281280E+02  0.20273602342E+03  0.17192215261E+03 0.  0.
         24    2    5    5    0    0  0.28014169728E+02 -0.49860185567E+01 -0.25411378496E+02  0.88848909779E+02  0.80241738050E+02 0.  0.
          5    1    5    5  501    0  0.40104996166E+02  0.58486018753E+02  0.88989659776E+02  0.11388711364E+03  0.47000000000E+01 0. -1.
        -11    1    6    6    0    0  0.30691229614E+02  0.33864815884E+02 -0.89577492758E+01  0.46572723800E+02  0.00000000000E+00 0.  1.
         12    1    6    6    0    0 -0.26770598865E+01 -0.38850834441E+02 -0.16453629220E+02  0.42276185978E+02  0.00000000000E+00 0. -1.
         -5    1    3    3    0  503  0.42887551549E+02 -0.13950582838E+02  0.14261788473E+02  0.47533666488E+02  0.47000000000E+01 0.  1.
         11    1    4    4    0    0 -0.77619399636E+02  0.12877344550E+02 -0.22662244513E+02  0.81879023742E+02  0.00000000000E+00 0. -1.
        -12    1    4    4    0    0 -0.33387317806E+02 -0.52426761908E+02 -0.42423360880E+01  0.62299885794E+02  0.00000000000E+00 0.  1.
</event>
<event>
12    1  0.1040325E-001  0.1875398E+03  0.7818608E-02  0.1161791E+00
         21   -1    0    0  503  502  0.00000000000E+00  0.00000000000E+00  0.70990891512E+02  0.70990891512E+02  0.00000000000E+00 0. -1.
         21   -1    0    0  501  503 -0.00000000000E+00 -0.00000000000E+00 -0.10742817024E+04  0.10742817024E+04  0.00000000000E+00 0. -1.
          6    2    1    2  501    0  0.46512522712E+02  0.44310440184E+02 -0.92356459707E+03  0.94148978565E+03  0.17118592711E+03 0.  0.
         24    2    3    3    0    0  0.38416813548E+02  0.92136884638E+02 -0.53848441775E+03  0.55333808360E+03  0.79072811583E+02 0.  0.
         -6    2    1    2    0  502 -0.46512522712E+02 -0.44310440184E+02 -0.79726213780E+02  0.20378280822E+03  0.17619402341E+03 0.  0.
        -24    2    5    5    0    0 -0.79706832111E+02 -0.48238776549E+02 -0.72072559421E+01  0.12379291356E+03  0.81194718182E+02 0.  0.
          5    1    3    3  501    0  0.80957091642E+01 -0.47826444454E+02 -0.38508017932E+03  0.38815170204E+03  0.47000000000E+01 0. -1.
        -11    1    4    4    0    0 -0.11062561353E+01  0.66774538631E+02 -0.42957787469E+03  0.43473809729E+03  0.00000000000E+00 0.  1.
         12    1    4    4    0    0  0.39523069683E+02  0.25362346008E+02 -0.10890654306E+03  0.11859998631E+03  0.00000000000E+00 0. -1.
         -5    1    5    5    0  502  0.33194309399E+02  0.39283363647E+01 -0.72518957838E+02  0.79989894668E+02  0.47000000000E+01 0.  1.
         13    1    6    6    0    0 -0.74179350057E+02 -0.27355622413E+02 -0.36756712772E+02  0.87189230908E+02  0.00000000000E+00 0. -1.
        -14    1    6    6    0    0 -0.55274820533E+01 -0.20883154136E+02  0.29549456830E+02  0.36603682649E+02  0.00000000000E+00 0.  1.
</event>
<event>
12    1  0.1040325E-001  0.1786477E+03  0.7818608E-02  0.1169144E+00
         21   -1    0    0  503  502  0.00000000000E+00  0.00000000000E+00  0.98193225175E+03  0.98193225175E+03  0.00000000000E+00 0.  1.
         21   -1    0    0  501  503 -0.00000000000E+00 -0.00000000000E+00 -0.31007852693E+03  0.31007852693E+03  0.00000000000E+00 0.  1.
          6    2    1    2  501    0 -0.40593407095E+02  0.26032087745E+02 -0.27531553192E+03  0.32814118722E+03  0.17190841266E+03 0.  0.
         24    2    3    3    0    0 -0.84183950547E+02  0.32363259335E+02 -0.11379363736E+03  0.16065497395E+03  0.68751077576E+02 0.  0.
         -6    2    1    2    0  502  0.40593407095E+02 -0.26032087745E+02  0.94716925674E+03  0.96386959146E+03  0.17201597057E+03 0.  0.
        -24    2    5    5    0    0  0.20916325686E+02  0.18274511908E+02  0.21926624926E+03  0.23433882404E+03  0.77881614800E+02 0.  0.
          5    1    3    3  501    0  0.43590543452E+02 -0.63311715900E+01 -0.16152189456E+03  0.16748621327E+03  0.47000000000E+01 0. -1.
        -13    1    4    4    0    0 -0.49034659014E+02 -0.13557451629E+02 -0.76402447847E+02  0.91790720208E+02  0.00000000000E+00 0.  1.
         14    1    4    4    0    0 -0.35149291533E+02  0.45920710964E+02 -0.37391189513E+02  0.68864253745E+02  0.00000000000E+00 0. -1.
         -5    1    5    5    0  502  0.19677081409E+02 -0.44306599653E+02  0.72790300749E+03  0.72953076742E+03  0.47000000000E+01 0.  1.
         11    1    6    6    0    0  0.47738249370E+02 -0.32901943502E+01  0.13897794528E+03  0.14698515267E+03  0.00000000000E+00 0. -1.
        -12    1    6    6    0    0 -0.26821923684E+02  0.21564706258E+02  0.80288303978E+02  0.87353671369E+02  0.00000000000E+00 0.  1.
</event>
<event>
12    1  0.1040325E-001  0.2329979E+03  0.7818608E-02  0.1124723E+00
         21   -1    0    0  503  502  0.00000000000E+00  0.00000000000E+00  0.91720171997E+02  0.91720171997E+02  0.00000000000E+00 0.  1.
         21   -1    0    0  501  503 -0.00000000000E+00 -0.00000000000E+00 -0.70423525220E+03  0.70423525220E+03  0.00000000000E+00 0. -1.
          6    2    1    2  501    0 -0.50287450875E+02 -0.14756760357E+03 -0.46646684488E+03  0.52096797128E+03  0.17178848737E+03 0.  0.
         24    2    3    3    0    0  0.22214388253E+02 -0.69220104328E+02 -0.33316158781E+03  0.35012526914E+03  0.79411325433E+02 0.  0.
         -6    2    1    2    0  502  0.50287450875E+02  0.14756760357E+03 -0.14604823533E+03  0.27498745292E+03  0.17315596115E+03 0.  0.
        -24    2    5    5    0    0 -0.38125109912E+02  0.76812424393E+02 -0.67765543160E+02  0.13724368290E+03  0.83005946235E+02 0.  0.
          5    1    3    3  501    0 -0.72501839128E+02 -0.78347499240E+02 -0.13330525706E+03  0.17084270214E+03  0.47000000000E+01 0. -1.
        -11    1    4    4    0    0  0.41427086686E+01  0.13445992798E+02 -0.11937730369E+03  0.12020356648E+03  0.00000000000E+00 0.  1.
         12    1    4    4    0    0  0.18071679585E+02 -0.82666097126E+02 -0.21378428412E+03  0.22992170266E+03  0.00000000000E+00 0. -1.
         -5    1    5    5    0  502  0.88412560787E+02  0.70755179175E+02 -0.78282692170E+02  0.13774377002E+03  0.47000000000E+01 0.  1.
         11    1    6    6    0    0 -0.29522558307E+02  0.90049102184E+01 -0.61244242954E+02  0.68582265580E+02  0.00000000000E+00 0. -1.
        -12    1    6    6    0    0 -0.86025516052E+01  0.67807514175E+02 -0.65213002062E+01  0.68661417325E+02  0.00000000000E+00 0.  1.
</event>
<event>
12    1  0.1040325E-001  0.1780822E+03  0.7818608E-02  0.1170609E+00
         21   -1    0    0  501  502  0.00000000000E+00  0.00000000000E+00  0.15019151795E+03  0.15019151795E+03  0.00000000000E+00 0.  1.
         21   -1    0    0  502  503 -0.00000000000E+00 -0.00000000000E+00 -0.27803474080E+03  0.27803474080E+03  0.00000000000E+00 0.  1.
         -6    2    1    2    0  503 -0.32861025656E+02 -0.31999248848E+02 -0.17287804874E+03  0.24819367538E+03  0.17207405914E+03 0.  0.
        -24    2    3    3    0    0 -0.13534286039E+02  0.48114576370E+02 -0.98732227827E+02  0.13723674403E+03  0.81164535004E+02 0.  0.
          6    2    1    2  501    0  0.32861025656E+02  0.31999248848E+02  0.45034825880E+02  0.18003258337E+03  0.16816597932E+03 0.  0.
         24    2    5    5    0    0 -0.16792387023E+02  0.27178719009E+02  0.80514428883E+02  0.11863558729E+03  0.81062705882E+02 0.  0.
          5    1    5    5  501    0  0.49653412679E+02  0.48205298393E+01 -0.35479603003E+02  0.61396996082E+02  0.47000000000E+01 0. -1.
        -13    1    6    6    0    0  0.32583804041E+02  0.49732893711E+01  0.28955495398E+02  0.43873210581E+02  0.00000000000E+00 0.  1.
         14    1    6    6    0    0 -0.49376191064E+02  0.22205429638E+02  0.51558933485E+02  0.74762376711E+02  0.00000000000E+00 0. -1.
         -5    1    3    3    0  503 -0.19326739617E+02 -0.80113825218E+02 -0.74145820909E+02  0.11095693135E+03  0.47000000000E+01 0.  1.
         11    1    4    4    0    0 -0.35665503549E+02  0.14923663019E+02 -0.99771696793E+01  0.39928533358E+02  0.00000000000E+00 0. -1.
        -12    1    4    4    0    0  0.22131217509E+02  0.33190913351E+02 -0.88755058148E+02  0.97308210673E+02  0.00000000000E+00 0.  1.
</event>
<event>
12    1  0.1040325E-001  0.2230773E+03  0.7818608E-02  0.1131892E+00
         21   -1    0    0  503  502  0.00000000000E+00  0.00000000000E+00  0.79828588349E+03  0.79828588349E+03  0.00000000000E+00 0.  1.
         21   -1    0    0  501  503 -0.00000000000E+00 -0.00000000000E+00 -0.71365818925E+02  0.71365818925E+02  0.00000000000E+00 0.  1.
          6    2    1    2  501    0 -0.60740498502E+02  0.12759411371E+03  0.20626045790E+03  0.30382043888E+03  0.17260885428E+03 0.  0.
         24    2    3    3    0    0 -0.13806959718E+02  0.13238212350E+03  0.20109169167E+03  0.25612884376E+03  0.86304445951E+02 0.  0.
         -6    2    1    2    0  502  0.60740498502E+02 -0.12759411371E+03  0.52065960666E+03  0.56583126353E+03  0.17061338391E+03 0.  0.
        -24    2    5    5    0    0 -0.18516456836E+02 -0.21981137034E+02  0.13319222148E+03  0.15645511572E+03  0.76889568965E+02 0.  0.
          5    1    3    3  501    0 -0.46933538784E+02 -0.47880097923E+01  0.51687662373E+01  0.47691595119E+02  0.47000000000E+01 0. -1.
        -11    1    4    4    0    0 -0.23188743321E+02  0.11402253781E+03  0.10143879116E+03  0.15436542779E+03  0.00000000000E+00 0.  1.
         12    1    4    4    0    0  0.93817836030E+01  0.18359585687E+02  0.99652900506E+02  0.10176341597E+03  0.00000000000E+00 0. -1.
         -5    1    5    5    0  502  0.79256955338E+02 -0.10561297667E+03  0.38746738518E+03  0.40937614780E+03  0.47000000000E+01 0.  1.
         13    1    6    6    0    0 -0.46753882780E+01  0.24354983597E+02  0.15576572035E+02  0.29285731644E+02  0.00000000000E+00 0. -1.
        -14    1    6    6    0    0 -0.13841068558E+02 -0.46336120631E+02  0.11761564944E+03  0.12716938408E+03  0.00000000000E+00 0.  1.
</event>
<event>
12    1  0.1040325E-001  0.2015018E+03  0.7818608E-02  0.1148682E+00
         21   -1    0    0  503  502  0.00000000000E+00  0.00000000000E+00  0.45309842419E+02  0.45309842419E+02  0.00000000000E+00 0.  1.
         21   -1    0    0  501  503 -0.00000000000E+00 -0.00000000000E+00 -0.11264023691E+04  0.11264023691E+04  0.00000000000E+00 0. -1.
          6    2    1    2  501    0  0.10727802489E+03 -0.61918352451E+01 -0.80687947823E+03  0.83142442126E+03  0.16930789238E+03 0.  0.
         24    2    3    3    0    0  0.69612229338E+02  0.46456373908E+02 -0.67063188637E+03  0.68050708505E+03  0.79616007366E+02 0.  0.
         -6    2    1    2    0  502 -0.10727802489E+03  0.61918352451E+01 -0.27421304844E+03  0.34028779025E+03  0.17045841373E+03 0.  0.
        -24    2    5    5    0    0 -0.60864491751E+02 -0.21558114755E+02 -0.26714399875E+03  0.28554898092E+03  0.77479453861E+02 0.  0.
          5    1    3    3  501    0  0.37665795549E+02 -0.52648209153E+02 -0.13624759186E+03  0.15091733621E+03  0.47000000000E+01 0. -1.
        -13    1    4    4    0    0 -0.99631280818E+01 -0.11750014325E+02 -0.58902031431E+02  0.60883298732E+02  0.00000000000E+00 0.  1.
         14    1    4    4    0    0  0.79575357420E+02  0.58206388233E+02 -0.61172985494E+03  0.61962378631E+03  0.00000000000E+00 0. -1.
         -5    1    5    5    0  502 -0.46413533136E+02  0.27749950000E+02 -0.70690496895E+01  0.54738809328E+02  0.47000000000E+01 0.  1.
         11    1    6    6    0    0 -0.84229887308E+01 -0.37372268015E+02 -0.16767746422E+03  0.17199815454E+03  0.00000000000E+00 0. -1.
        -12    1    6    6    0    0 -0.52441503020E+02  0.15814153260E+02 -0.99466534526E+02  0.11355082639E+03  0.00000000000E+00 0.  1.
</event>
<event>
12    1  0.1040325E-001  0.1967106E+03  0.7818608E-02  0.1152654E+00
         21   -1    0    0  501  502  0.00000000000E+00  0.00000000000E+00  0.25658174988E+04  0.25658174988E+04  0.00000000000E+00 0.  1.
         21   -1    0    0  502  503 -0.00000000000E+00 -0.00000000000E+00 -0.19073147315E+02  0.19073147315E+02  0.00000000000E+00 0.  1.
         -6    2    1    2    0  503 -0.50241775527E+02  0.80871094103E+02  0.68050347700E+03  0.70836434451E+03  0.17213568047E+03 0.  0.
        -24    2    3    3    0    0  0.10552855436E+02  0.10383656608E+03  0.49934466524E+03  0.51584420235E+03  0.76529413850E+02 0.  0.
          6    2    1    2  501    0  0.50241775527E+02 -0.80871094103E+02  0.18662408745E+04  0.18765263017E+04  0.17155637311E+03 0.  0.
         24    2    5    5    0    0  0.46134487757E+02 -0.12250933347E+03  0.14223068458E+04  0.14306001591E+04  0.80765857398E+02 0.  0.
          5    1    5    5  501    0  0.41072877699E+01  0.41638239362E+02  0.44393402870E+03  0.44592614257E+03  0.47000000000E+01 0. -1.
        -11    1    6    6    0    0  0.39888535487E+02 -0.21177149840E+02  0.66296416214E+03  0.66450059987E+03  0.00000000000E+00 0.  1.
         12    1    6    6    0    0  0.62459522709E+01 -0.10133218362E+03  0.75934268369E+03  0.76609955922E+03  0.00000000000E+00 0. -1.
         -5    1    3    3    0  503 -0.60794630964E+02 -0.22965471978E+02  0.18115881176E+03  0.19252014216E+03  0.47000000000E+01 0.  1.
         11    1    4    4    0    0  0.31278682488E+02  0.15322658012E+02  0.89502087801E+02  0.96040426631E+02  0.00000000000E+00 0. -1.
        -12    1    4    4    0    0 -0.20725827052E+02  0.88513908069E+02  0.40984257744E+03  0.41980377572E+03  0.00000000000E+00 0.  1.
</event>
<event>
12    1  0.1040325E-001  0.1941933E+03  0.7818608E-02  0.1154867E+00
         21   -1    0    0  501  502  0.00000000000E+00  0.00000000000E+00  0.17366048200E+03  0.17366048200E+03  0.00000000000E+00 0. -1.
         21   -1    0    0  502  503 -0.00000000000E+00 -0.00000000000E+00 -0.59891852312E+03  0.59891852312E+03  0.00000000000E+00 0. -1.
         -6    2    1    2    0  503 -0.70431738166E+02  0.55341836869E+02 -0.52119235029E+03  0.55598164053E+03  0.17161226634E+03 0.  0.
        -24    2    3    3    0    0 -0.46518570534E+02  0.22943873860E+02 -0.50099292391E+03  0.51068733162E+03  0.84363748871E+02 0.  0.
          6    2    1    2  501    0  0.70431738166E+02 -0.55341836869E+02  0.95934309165E+02  0.21659736459E+03  0.17230112601E+03 0.  0.
         24    2    5    5    0    0  0.51330928551E+02  0.23832076593E+01  0.11824074120E+03  0.15166132988E+03  0.79873288379E+02 0.  0.
          5    1    5    5  501    0  0.19100809616E+02 -0.57725044528E+02 -0.22306432036E+02  0.64936034711E+02  0.47000000000E+01 0. -1.
        -11    1    6    6    0    0  0.99417866559E+01  0.18229784830E+02 -0.44285922263E+01  0.21231500323E+02  0.00000000000E+00 0.  1.
         12    1    6    6    0    0  0.41389141895E+02 -0.15846577170E+02  0.12266933343E+03  0.13042982956E+03  0.00000000000E+00 0. -1.
         -5    1    3    3    0  503 -0.23913167632E+02  0.32397963009E+02 -0.20199426385E+02  0.45294308910E+02  0.47000000000E+01 0.  1.
         11    1    4    4    0    0 -0.40060377816E+02 -0.13607331882E+02 -0.10871632823E+03  0.11665861895E+03  0.00000000000E+00 0. -1.
        -12    1    4    4    0    0 -0.64581927186E+01  0.36551205742E+02 -0.39227659568E+03  0.39402871267E+03  0.00000000000E+00 0.  1.
</event>
<event>
12    1  0.1040325E-001  0.2202389E+03  0.7818608E-02  0.1133804E+00
         21   -1    0    0  503  502  0.00000000000E+00  0.00000000000E+00  0.17233465762E+03  0.17233465762E+03  0.00000000000E+00 0. -1.
         21   -1    0    0  501  503 -0.00000000000E+00 -0.00000000000E+00 -0.48335397008E+03  0.48335397008E+03  0.00000000000E+00 0.  1.
          6    2    1    2  501    0  0.58441006138E+02  0.12343121512E+03 -0.36763922282E+03  0.42828808147E+03  0.17210887981E+03 0.  0.
         24    2    3    3    0    0  0.79136573407E+02  0.79964960815E+02 -0.35106237813E+03  0.37715586513E+03  0.79654008387E+02 0.  0.
         -6    2    1    2    0  502 -0.58441006138E+02 -0.12343121512E+03  0.56619910372E+02  0.22740054623E+03  0.17278477395E+03 0.  0.
        -24    2    5    5    0    0 -0.57792477172E+01 -0.30352953003E+02  0.79975003063E+02  0.11783607190E+03  0.80837103278E+02 0.  0.
          5    1    3    3  501    0 -0.20695567269E+02  0.43466254309E+02 -0.16576844687E+02  0.51132216342E+02  0.47000000000E+01 0. -1.
        -11    1    4    4    0    0  0.38778699686E+02 -0.85424118583E+01 -0.83533139724E+02  0.92490787552E+02  0.00000000000E+00 0.  1.
         12    1    4    4    0    0  0.40357873722E+02  0.88507372673E+02 -0.26752923841E+03  0.28466507758E+03  0.00000000000E+00 0. -1.
         -5    1    5    5    0  502 -0.52661758421E+02 -0.93078262121E+02 -0.23355092691E+02  0.10956447432E+03  0.47000000000E+01 0.  1.
         11    1    6    6    0    0 -0.26503416438E+02  0.17786392050E+02  0.43619480980E+02  0.54050401904E+02  0.00000000000E+00 0. -1.
        -12    1    6    6    0    0  0.20724168721E+02 -0.48139345053E+02  0.36355522083E+02  0.63785669999E+02  0.00000000000E+00 0.  1.
</event>
<event>
12    1  0.1040325E-001  0.1780003E+03  0.7818608E-02  0.1169784E+00
         21   -1    0    0  501  502  0.00000000000E+00  0.00000000000E+00  0.24486327883E+03  0.24486327883E+03  0.00000000000E+00 0.  1.
         21   -1    0    0  502  503 -0.00000000000E+00 -0.00000000000E+00 -0.12935384145E+03  0.12935384145E+03  0.00000000000E+00 0.  1.
         -6    2    1    2    0  503 -0.45146429061E+02  0.17860732461E+01  0.53998786585E+02  0.18588849293E+03  0.17203857921E+03 0.  0.
        -24    2    3    3    0    0 -0.47144493475E+02  0.65145258327E+02  0.41840255018E+02  0.12117142806E+03  0.80407711642E+02 0.  0.
          6    2    1    2  501    0  0.45146429061E+02 -0.17860732461E+01  0.61510650799E+02  0.18832862734E+03  0.17217061771E+03 0.  0.
         24    2    5    5    0    0 -0.21112243600E+02 -0.94975434358E+01  0.83439499680E+02  0.11795361126E+03  0.80093533709E+02 0.  0.
          5    1    5    5  501    0  0.66258672661E+02  0.77114701897E+01 -0.21928848880E+02  0.70375016081E+02  0.47000000000E+01 0. -1.
        -11    1    6    6    0    0 -0.24417033773E+02 -0.33632396107E+02  0.13195601411E+02  0.43605659069E+02  0.00000000000E+00 0.  1.
         12    1    6    6    0    0  0.33047901730E+01  0.24134852672E+02  0.70243898268E+02  0.74347952194E+02  0.00000000000E+00 0. -1.
         -5    1    3    3    0  503  0.19980644146E+01 -0.63359185081E+02  0.12158531567E+02  0.64717064870E+02  0.47000000000E+01 0.  1.
         13    1    4    4    0    0 -0.35735571941E+02  0.58927503948E+02  0.64924328826E+02  0.94681837208E+02  0.00000000000E+00 0. -1.
        -14    1    4    4    0    0 -0.11408921535E+02  0.62177543792E+01 -0.23084073809E+02  0.26489590856E+02  0.00000000000E+00 0.  1.
</event>
<event>
12    1  0.1040325E-001  0.1873043E+03  0.7818608E-02  0.1161049E+00
         21   -1    0    0  503  502  0.00000000000E+00  0.00000000000E+00  0.11993112295E+04  0.11993112295E+04  0.00000000000E+00 0. -1.
         21   -1    0    0  501  503 -0.00000000000E+00 -0.00000000000E+00 -0.39245073386E+02  0.39245073386E+02  0.00000000000E+00 0. -1.
          6    2    1    2  501    0 -0.68930834587E+02 -0.26449012671E+02  0.26680224207E+03  0.32598519073E+03  0.17213918198E+03 0.  0.
         24    2    3    3    0    0 -0.12926771500E+02 -0.70542439962E+02  0.11279715392E+03  0.15621963889E+03  0.80858149785E+02 0.  0.
         -6    2    1    2    0  502  0.68930834587E+02  0.26449012671E+02  0.89326391403E+03  0.91257111214E+03  0.17150686396E+03 0.  0.
        -24    2    5    5    0    0  0.10959711580E+03  0.37179229481E+02  0.59936013757E+03  0.61563609602E+03  0.79883698755E+02 0.  0.
          5    1    3    3  501    0 -0.56004063087E+02  0.44093427291E+02  0.15400508815E+03  0.16976555183E+03  0.47000000000E+01 0. -1.
        -13    1    4    4    0    0 -0.30103805713E+02 -0.72105696616E+01  0.73451253566E+02  0.79707704042E+02  0.00000000000E+00 0.  1.
         14    1    4    4    0    0  0.17177034213E+02 -0.63331870301E+02  0.39345900351E+02  0.76511934851E+02  0.00000000000E+00 0. -1.
         -5    1    5    5    0  502 -0.40666281209E+02 -0.10730216810E+02  0.29390377646E+03  0.29693501612E+03  0.47000000000E+01 0.  1.
         13    1    6    6    0    0 -0.12643448000E+02  0.16816885723E+01  0.72796470960E+02  0.73905419545E+02  0.00000000000E+00 0. -1.
        -14    1    6    6    0    0  0.12224056380E+03  0.35497540909E+02  0.52656366661E+03  0.54173067648E+03  0.00000000000E+00 0.  1.
</event>
<event>
12    1  0.1040325E-001  0.2739421E+03  0.7818608E-02  0.1099277E+00
         21   -1    0    0  503  502  0.00000000000E+00  0.00000000000E+00  0.73271942149E+02  0.73271942149E+02  0.00000000000E+00 0.  1.
         21   -1    0    0  501  503 -0.00000000000E+00 -0.00000000000E+00 -0.12079983162E+04  0.12079983162E+04  0.00000000000E+00 0.  1.
          6    2    1    2  501    0  0.21673492396E+02 -0.20980047838E+03 -0.81997465474E+03  0.86400182460E+03  0.17220550947E+03 0.  0.
         24    2    3    3    0    0 -0.84003404681E+00 -0.12753256965E+03 -0.70337164189E+03  0.71945695169E+03  0.81371842368E+02 0.  0.
         -6    2    1    2    0  502 -0.21673492396E+02  0.20980047838E+03 -0.31475171927E+03  0.41726843370E+03  0.17480938185E+03 0.  0.
        -24    2    5    5    0    0 -0.64945180549E+02  0.20732564593E+03 -0.26861165984E+03  0.35378962720E+03  0.76243534650E+02 0.  0.
          5    1    3    3  501    0  0.22513526443E+02 -0.82267908737E+02 -0.11660301284E+03  0.14454487291E+03  0.47000000000E+01 0. -1.
        -13    1    4    4    0    0 -0.15961850450E+01 -0.26986315037E+02 -0.37651315937E+03  0.37748240778E+03  0.00000000000E+00 0.  1.
         14    1    4    4    0    0  0.75615099818E+00 -0.10054625461E+03 -0.32685848252E+03  0.34197454390E+03  0.00000000000E+00 0. -1.
         -5    1    5    5    0  502  0.43271688152E+02  0.24748324518E+01 -0.46140059425E+02  0.63478806502E+02  0.47000000000E+01 0.  1.
         13    1    6    6    0    0 -0.43176373844E+02  0.43421058696E+02 -0.46481125931E+02  0.76877062018E+02  0.00000000000E+00 0. -1.
        -14    1    6    6    0    0 -0.21768806705E+02  0.16390458723E+03 -0.22213053391E+03  0.27691256518E+03  0.00000000000E+00 0.  1.
</event>
<event>
12    1  0.1040325E-001  0.1830072E+03  0.7818608E-02  0.1164977E+00
         21   -1    0    0  503  502  0.00000000000E+00  0.00000000000E+00  0.38872496435E+03  0.38872496435E+03  0.00000000000E+00 0. -1.
         21   -1    0    0  501  503 -0.00000000000E+00 -0.00000000000E+00 -0.10968480705E+03  0.10968480705E+03  0.00000000000E+00 0. -1.
          6    2    1    2  501    0 -0.32202304287E+02 -0.53335166685E+02  0.23776651352E+02  0.18432203768E+03  0.17183613130E+03 0.  0.
         24    2    3    3    0    0 -0.31367456120E+02  0.28388770216E+02 -0.18378956022E+02  0.92242267552E+02  0.79881226336E+02 0.  0.
         -6    2    1    2    0  502  0.32202304287E+02  0.53335166685E+02  0.25526350595E+03  0.31408773371E+03  0.17207561883E+03 0.  0.
        -24    2    5    5    0    0  0.75482359208E+02  0.71839258982E+02  0.22171294211E+03  0.25609381231E+03  0.74625373195E+02 0.  0.
          5    1    3    3  501    0 -0.83484816785E+00 -0.81723936901E+02  0.42155607374E+02  0.92079770130E+02  0.47000000000E+01 0. -1.
        -13    1    4    4    0    0  0.22411927950E+02 -0.11546785670E+01 -0.21125833746E+02  0.30820912519E+02  0.00000000000E+00 0.  1.
         14    1    4    4    0    0 -0.53779384069E+02  0.29543448783E+02  0.27468777242E+01  0.61421355033E+02  0.00000000000E+00 0. -1.
         -5    1    5    5    0  502 -0.43280054920E+02 -0.18504092297E+02  0.33550563837E+02  0.57993921400E+02  0.47000000000E+01 0.  1.
         11    1    6    6    0    0  0.10716691432E+02  0.44079608370E+01  0.10915921278E+03  0.10977254360E+03  0.00000000000E+00 0. -1.
        -12    1    6    6    0    0  0.64765667776E+02  0.67431298145E+02  0.11255372933E+03  0.14632126871E+03  0.00000000000E+00 0.  1.
</event>
<event>
12    1  0.1040325E-001  0.1948334E+03  0.7818608E-02  0.1156485E+00
         21   -1    0    0  503  502  0.00000000000E+00  0.00000000000E+00  0.21629644266E+03  0.21629644266E+03  0.00000000000E+00 0.  1.
         21   -1    0    0  501  503 -0.00000000000E+00 -0.00000000000E+00 -0.18122442309E+03  0.18122442309E+03  0.00000000000E+00 0.  1.
          6    2    1    2  501    0 -0.42171832021E+02  0.50787795797E+02  0.74023187437E+02  0.19883205291E+03  0.17232785430E+03 0.  0.
         24    2    3    3    0    0 -0.14501781634E+02  0.83983043048E+02  0.20961192162E+01  0.11478950850E+03  0.76868617489E+02 0.  0.
         -6    2    1    2    0  502  0.42171832021E+02 -0.50787795797E+02 -0.38951167868E+02  0.19868881284E+03  0.18330899392E+03 0.  0.
        -24    2    5    5    0    0  0.72574129329E+02 -0.90498925668E+02 -0.44636829484E+02  0.14813497752E+03  0.80588244949E+02 0.  0.
          5    1    3    3  501    0 -0.27670050387E+02 -0.33195247251E+02  0.71927068221E+02  0.84042544413E+02  0.47000000000E+01 0. -1.
        -11    1    4    4    0    0 -0.53214726826E+01  0.24979592043E+02  0.37498803371E+02  0.45370236327E+02  0.00000000000E+00 0.  1.
         12    1    4    4    0    0 -0.91803089514E+01  0.59003451005E+02 -0.35402684155E+02  0.69419272168E+02  0.00000000000E+00 0. -1.
         -5    1    5    5    0  502 -0.30402297308E+02  0.39711129871E+02  0.56856616165E+01  0.50553835317E+02  0.47000000000E+01 0.  1.
         11    1    6    6    0    0  0.19851599643E+02 -0.46069207518E+02  0.19641731957E+02  0.53872586016E+02  0.00000000000E+00 0. -1.
        -12    1    6    6    0    0  0.52722529686E+02 -0.44429718150E+02 -0.64278561442E+02  0.94262391506E+02  0.00000000000E+00 0.  1.
</event>
<event>
12    1  0.1040325E-001  0.2446045E+03  0.7818608E-02  0.1116860E+00
         21   -1    0    0  501  502  0.00000000000E+00  0.00000000000E+00  0.70771327631E+02  0.70771327631E+02  0.00000000000E+00 0. -1.
         21   -1    0    0  502  503 -0.00000000000E+00 -0.00000000000E+00 -0.86483738606E+03  0.86483738606E+03  0.00000000000E+00 0. -1.
         -6    2    1    2    0  503  0.13599094376E+03 -0.10637519153E+03 -0.32285243791E+03  0.40469097741E+03  0.17242932574E+03 0.  0.
        -24    2    3    3    0    0  0.89136226854E+02 -0.12085743969E+03 -0.31094937480E+03  0.35400692747E+03  0.77971811159E+02 0.  0.
          6    2    1    2  501    0 -0.13599094376E+03  0.10637519153E+03 -0.47121362051E+03  0.53091773628E+03  0.17326900583E+03 0.  0.
         24    2    5    5    0    0 -0.76116017150E+02  0.13842537944E+03 -0.34382287574E+03  0.38647842988E+03  0.78715774381E+02 0.  0.
          5    1    5    5  501    0 -0.59874926606E+02 -0.32050187903E+02 -0.12739074477E+03  0.14443930640E+03  0.47000000000E+01 0. -1.
        -13    1    6    6    0    0  0.71698403543E+01  0.41944056962E+02 -0.13776665770E+03  0.14418863513E+03  0.00000000000E+00 0.  1.
         14    1    6    6    0    0 -0.83285857504E+02  0.96481322476E+02 -0.20605621804E+03  0.24228979475E+03  0.00000000000E+00 0. -1.
         -5    1    3    3    0  503  0.46854716902E+02  0.14482248158E+02 -0.11903063111E+02  0.50684049947E+02  0.47000000000E+01 0.  1.
         13    1    4    4    0    0  0.10042556406E+03 -0.84966870634E+02 -0.23868880516E+03  0.27253808675E+03  0.00000000000E+00 0. -1.
        -14    1    4    4    0    0 -0.11289337204E+02 -0.35890569059E+02 -0.72260569648E+02  0.81468840717E+02  0.00000000000E+00 0.  1.
</event>
<event>
12    1  0.1040325E-001  0.1818400E+03  0.7818608E-02  0.1167230E+00
         21   -1    0    0  503  502  0.00000000000E+00  0.00000000000E+00  0.27418603611E+03  0.27418603611E+03  0.00000000000E+00 0. -1.
         21   -1    0    0  501  503 -0.00000000000E+00 -0.00000000000E+00 -0.13569548699E+03  0.13569548699E+03  0.00000000000E+00 0. -1.
          6    2    1    2  501    0  0.44747921496E+02 -0.29186795586E+02 -0.52892327122E+01  0.18191690637E+03  0.17381466948E+03 0.  0.
         24    2    3    3    0    0  0.21081169716E+02  0.27799171324E+02 -0.55494175089E+02  0.10222912937E+03  0.78447318498E+02 0.  0.
         -6    2    1    2    0  502 -0.44747921496E+02  0.29186795586E+02  0.14377978184E+03  0.22796461673E+03  0.16864458277E+03 0.  0.
        -24    2    5    5    0    0 -0.23381291418E+02  0.44460783388E+02  0.14002866556E+02  0.95473238424E+02  0.79972576147E+02 0.  0.
          5    1    3    3  501    0  0.23666751780E+02 -0.56985966911E+02  0.50204942377E+02  0.79687777002E+02  0.47000000000E+01 0. -1.
        -11    1    4    4    0    0  0.48039693617E+02  0.22549459074E+02 -0.52419146985E+02  0.74592608467E+02  0.00000000000E+00 0.  1.
         12    1    4    4    0    0 -0.26958523901E+02  0.52497122504E+01 -0.30750281041E+01  0.27636520900E+02  0.00000000000E+00 0. -1.
         -5    1    5    5    0  502 -0.21366630078E+02 -0.15273987802E+02  0.12977691528E+03  0.13249137830E+03  0.47000000000E+01 0.  1.
         11    1    6    6    0    0 -0.34505438712E+02  0.73366090092E+01 -0.22819855085E+02  0.42014246614E+02  0.00000000000E+00 0. -1.
        -12    1    6    6    0    0  0.11124147294E+02  0.37124174379E+02  0.36822721641E+02  0.53458991810E+02  0.00000000000E+00 0.  1.
</event>
<event>
12    1  0.1040325E-001  0.1738437E+03  0.7818608E-02  0.1174380E+00
         21   -1    0    0  503  502  0.00000000000E+00  0.00000000000E+00  0.11305671591E+04  0.11305671591E+04  0.00000000000E+00 0. -1.
         21   -1    0    0  501  503 -0.00000000000E+00 -0.00000000000E+00 -0.48846776039E+02  0.48846776039E+02  0.00000000000E+00 0. -1.
          6    2    1    2  501    0 -0.74144123450E+01 -0.15160104064E+02  0.13986696284E+03  0.22165118082E+03  0.17111889551E+03 0.  0.
         24    2    3    3    0    0  0.31736263947E+02  0.30336274971E+02  0.99661753107E+01  0.78476460427E+02  0.64278691356E+02 0.  0.
         -6    2    1    2    0  502  0.74144123450E+01  0.15160104064E+02  0.94185342025E+03  0.95776275434E+03  0.17302261734E+03 0.  0.
        -24    2    5    5    0    0 -0.43549749918E+02  0.48625085219E+02  0.72408354978E+03  0.73157023174E+03  0.81468013816E+02 0.  0.
          5    1    3    3  501    0 -0.39150676292E+02 -0.45496379035E+02  0.12990078753E+03  0.14317472039E+03  0.47000000000E+01 0. -1.
        -13    1    4    4    0    0  0.41187076711E+02  0.13661341925E+02  0.28418223340E+02  0.51871022440E+02  0.00000000000E+00 0.  1.
         14    1    4    4    0    0 -0.94508127647E+01  0.16674933046E+02 -0.18452048029E+02  0.26605437987E+02  0.00000000000E+00 0. -1.
         -5    1    5    5    0  502  0.50964162263E+02 -0.33464981154E+02  0.21776987046E+03  0.22619252260E+03  0.47000000000E+01 0.  1.
         13    1    6    6    0    0  0.61612150330E+00  0.91678976343E+01  0.49081281030E+03  0.49089881310E+03  0.00000000000E+00 0. -1.
        -14    1    6    6    0    0 -0.44165871421E+02  0.39457187584E+02  0.23327073949E+03  0.24067141864E+03  0.00000000000E+00 0.  1.
</event>
<event>
12    1  0.1040325E-001  0.2557795E+03  0.7818608E-02  0.1109786E+00
         21   -1    0    0  501  502  0.00000000000E+00  0.00000000000E+00  0.54693922984E+03  0.54693922984E+03  0.00000000000E+00 0.  1.
         21   -1    0    0  502  503 -0.00000000000E+00 -0.00000000000E+00 -0.13650008606E+03  0.13650008606E+03  0.00000000000E+00 0. -1.
         -6    2    1    2    0  503 -0.50769717932E+02  0.18198025511E+03  0.84357124007E+02  0.26933118628E+03  0.17242037590E+03 0.  0.
        -24    2    3    3    0    0 -0.69200309908E+02  0.41199722271E+02  0.25872963007E+02  0.11570393533E+03  0.78942323435E+02 0.  0.
          6    2    1    2  501    0  0.50769717932E+02 -0.18198025511E+03  0.32608201978E+03  0.41410812961E+03  0.17164405577E+03 0.  0.
         24    2    5    5    0    0  0.54102654311E+02 -0.32056292515E+02  0.10154304195E+03  0.14405601318E+03  0.80538453376E+02 0.  0.
          5    1    5    5  501    0 -0.33329363790E+01 -0.14992396260E+03  0.22453897783E+03  0.27005211643E+03  0.47000000000E+01 0. -1.
        -11    1    6    6    0    0  0.70052503333E+02 -0.14346592244E+02  0.95793338970E+02  0.11953887118E+03  0.00000000000E+00 0.  1.
         12    1    6    6    0    0 -0.15949849022E+02 -0.17709700271E+02  0.57497029774E+01  0.24517142000E+02  0.00000000000E+00 0. -1.
         -5    1    3    3    0  503  0.18430591975E+02  0.14078053284E+03  0.58484160999E+02  0.15362725095E+03  0.47000000000E+01 0.  1.
         11    1    4    4    0    0  0.15105445074E+02  0.17557513917E+02  0.14708759701E+02  0.27436989226E+02  0.00000000000E+00 0. -1.
        -12    1    4    4    0    0 -0.84305754982E+02  0.23642208353E+02  0.11164203306E+02  0.88266946103E+02  0.00000000000E+00 0.  1.
</event>
<event>
12    1  0.1040325E-001  0.2216847E+03  0.7818608E-02  0.1132787E+00
         21   -1    0    0  503  502  0.00000000000E+00  0.00000000000E+00  0.23332581148E+03  0.23332581148E+03  0.00000000000E+00 0. -1.
         21   -1    0    0  501  503 -0.00000000000E+00 -0.00000000000E+00 -0.40401251367E+03  0.40401251367E+03  0.00000000000E+00 0. -1.
          6    2    1    2  501    0  0.99043950923E+02  0.97070422052E+02 -0.30618444634E+03  0.37752346901E+03  0.17187985170E+03 0.  0.
         24    2    3    3    0    0  0.53518130219E+02  0.10951326253E+02 -0.57027800240E+02  0.10995997503E+03  0.76517346400E+02 0.  0.
         -6    2    1    2    0  502 -0.99043950923E+02 -0.97070422052E+02  0.13549774415E+03  0.25981485614E+03  0.17295013660E+03 0.  0.
        -24    2    5    5    0    0 -0.12572989300E+02 -0.89332391833E+02  0.12452945113E+03  0.17218211245E+03  0.77464439302E+02 0.  0.
          5    1    3    3  501    0  0.45525820704E+02  0.86119095798E+02 -0.24915664610E+03  0.26756349398E+03  0.47000000000E+01 0. -1.
        -13    1    4    4    0    0  0.59436376773E+02  0.41576108590E+01 -0.71401748973E+02  0.92995582521E+02  0.00000000000E+00 0.  1.
         14    1    4    4    0    0 -0.59182465535E+01  0.67937153944E+01  0.14373948733E+02  0.16964392512E+02  0.00000000000E+00 0. -1.
         -5    1    5    5    0  502 -0.86470961623E+02 -0.77380302186E+01  0.10968293014E+02  0.87632743694E+02  0.47000000000E+01 0.  1.
         11    1    6    6    0    0 -0.33352138169E+02 -0.32015346605E+02  0.92274553250E+02  0.10320823958E+03  0.00000000000E+00 0. -1.
        -12    1    6    6    0    0  0.20779148869E+02 -0.57317045228E+02  0.32254897883E+02  0.68973872871E+02  0.00000000000E+00 0.  1.
</event>
<event>
12    1  0.1040325E-001  0.1849982E+03  0.7818608E-02  0.1163270E+00
         21   -1    0    0  501  502  0.00000000000E+00  0.00000000000E+00  0.16173465778E+03  0.16173465778E+03  0.00000000000E+00 0. -1.
         21   -1    0    0  502  503 -0.00000000000E+00 -0.00000000000E+00 -0.51302641995E+03  0.51302641995E+03  0.00000000000E+00 0. -1.
         -6    2    1    2    0  503  0.54306894473E+02  0.39104412066E+02 -0.43452466026E+03  0.47190139108E+03  0.17146675685E+03 0.  0.
        -24    2    3    3    0    0  0.85639719505E+02  0.24425967504E+02 -0.19314896129E+03  0.22801305452E+03  0.82174462817E+02 0.  0.
          6    2    1    2  501    0 -0.54306894473E+02 -0.39104412066E+02  0.83232898089E+02  0.20285968665E+03  0.17247012296E+03 0.  0.
         24    2    5    5    0    0  0.30745498844E+01  0.37605079416E+02  0.29006350767E+02  0.92679903230E+02  0.79527361474E+02 0.  0.
          5    1    5    5  501    0 -0.57381444358E+02 -0.76709491482E+02  0.54226547322E+02  0.11017978342E+03  0.47000000000E+01 0. -1.
        -13    1    6    6    0    0  0.25737873559E+02  0.43046251086E+02  0.42507761967E+02  0.65744411894E+02  0.00000000000E+00 0.  1.
         14    1    6    6    0    0 -0.22663323675E+02 -0.54411716696E+01 -0.13501411200E+02  0.26935491336E+02  0.00000000000E+00 0. -1.
         -5    1    3    3    0  503 -0.31332825032E+02  0.14678444561E+02 -0.24137569896E+03  0.24388833656E+03  0.47000000000E+01 0.  1.
         11    1    4    4    0    0  0.31892655231E+02  0.49322033718E+02 -0.70132769184E+02  0.91479012790E+02  0.00000000000E+00 0. -1.
        -12    1    4    4    0    0  0.53747064274E+02 -0.24896066213E+02 -0.12301619211E+03  0.13653404173E+03  0.00000000000E+00 0.  1.
</event>
<event>
12    1  0.1040325E-001  0.2304458E+03  0.7818608E-02  0.1127087E+00
         21   -1    0    0  501  502  0.00000000000E+00  0.00000000000E+00  0.64323987660E+03  0.64323987660E+03  0.00000000000E+00 0. -1.
         21   -1    0    0  502  503 -0.00000000000E+00 -0.00000000000E+00 -0.86054371756E+02  0.86054371756E+02  0.00000000000E+00 0.  1.
         -6    2    1    2    0  503 -0.11254612746E+03 -0.94926721389E+02  0.18801829171E+03  0.29410498283E+03  0.17166580810E+03 0.  0.
        -24    2    3    3    0    0  0.17155107600E+01 -0.61772955989E+02  0.11130539462E+03  0.15246511307E+03  0.83892066141E+02 0.  0.
          6    2    1    2  501    0  0.11254612746E+03  0.94926721389E+02  0.36916721313E+03  0.43518926552E+03  0.17727817782E+03 0.  0.
         24    2    5    5    0    0  0.22666790091E+01  0.19238357785E+02  0.71304814931E+02  0.10864006035E+03  0.79643165659E+02 0.  0.
          5    1    5    5  501    0  0.11027944845E+03  0.75688363604E+02  0.29786239820E+03  0.32654920517E+03  0.47000000000E+01 0. -1.
        -11    1    6    6    0    0  0.11923401054E+02 -0.28769340928E+02  0.16861822825E+02  0.35414171445E+02  0.00000000000E+00 0.  1.
         12    1    6    6    0    0 -0.96567220449E+01  0.48007698713E+02  0.54442992106E+02  0.73225888904E+02  0.00000000000E+00 0. -1.
         -5    1    3    3    0  503 -0.11426163822E+03 -0.33153765400E+02  0.76712897083E+02  0.14163986977E+03  0.47000000000E+01 0.  1.
         13    1    4    4    0    0 -0.22856067470E+01  0.42888955360E+01  0.78405262661E+02  0.78555737130E+02  0.00000000000E+00 0. -1.
        -14    1    4    4    0    0  0.40011175071E+01 -0.66061851525E+02  0.32900131963E+02  0.73909375937E+02  0.00000000000E+00 0.  1.
</event>
<event>
12    1  0.1040325E-001  0.1947495E+03  0.7818608E-02  0.1155397E+00
         21   -1    0    0  501  502  0.00000000000E+00  0.00000000000E+00  0.10598845771E+03  0.10598845771E+03  0.00000000000E+00 0.  1.
         21   -1    0    0  502  503 -0.00000000000E+00 -0.00000000000E+00 -0.44840346512E+03  0.44840346512E+03  0.00000000000E+00 0.  1.
         -6    2    1    2    0  503 -0.71879499027E+02  0.51627555552E+02 -0.30392622105E+03  0.36096886836E+03  0.17347999656E+03 0.  0.
        -24    2    3    3    0    0 -0.34411715704E+02  0.80960072369E+02 -0.11215630483E+03  0.16332772361E+03  0.79738379028E+02 0.  0.
          6    2    1    2  501    0  0.71879499027E+02 -0.51627555552E+02 -0.38488786358E+02  0.19342305448E+03  0.16762763631E+03 0.  0.
         24    2    5    5    0    0  0.34602150412E+02 -0.17962158722E+02  0.41775086567E+02  0.98621477693E+02  0.80380905976E+02 0.  0.
          5    1    5    5  501    0  0.37277348615E+02 -0.33665396830E+02 -0.80263872925E+02  0.94801576782E+02  0.47000000000E+01 0. -1.
        -11    1    6    6    0    0  0.52327592236E+02 -0.22444487534E+02  0.45142620207E+01  0.57116639357E+02  0.00000000000E+00 0.  1.
         12    1    6    6    0    0 -0.17725441824E+02  0.44823288119E+01  0.37260824546E+02  0.41504838336E+02  0.00000000000E+00 0. -1.
         -5    1    3    3    0  503 -0.37467783323E+02 -0.29332516817E+02 -0.19176991622E+03  0.19764114475E+03  0.47000000000E+01 0.  1.
         13    1    4    4    0    0 -0.11481382497E+02  0.57148676833E+02 -0.14272379060E+02  0.60012450474E+02  0.00000000000E+00 0. -1.
        -14    1    4    4    0    0 -0.22930333207E+02  0.23811395536E+02 -0.97883925774E+02  0.10331527314E+03  0.00000000000E+00 0.  1.
</event>
<event>
12    1  0.1040325E-001  0.2387145E+03  0.7818608E-02  0.1120663E+00
         21   -1    0    0  503  502  0.00000000000E+00  0.00000000000E+00  0.12584986997E+03  0.12584986997E+03  0.00000000000E+00 0.  1.
         21   -1    0    0  501  503 -0.00000000000E+00 -0.00000000000E+00 -0.45978850078E+03  0.45978850078E+03  0.00000000000E+00 0. -1.
          6    2    1    2  501    0 -0.16072667182E+03  0.38285987318E+02 -0.13051357546E+03  0.27200421125E+03  0.17220225811E+03 0.  0.
         24    2    3    3    0    0 -0.74073621386E+02 -0.31224405174E+02 -0.19051922901E+02  0.11456776120E+03  0.79378405605E+02 0.  0.
         -6    2    1    2    0  502  0.16072667182E+03 -0.38285987318E+02 -0.20342505536E+03  0.31363415951E+03  0.17229553971E+03 0.  0.
        -24    2    5    5    0    0  0.14389549585E+03 -0.53388730796E+02 -0.22389975707E+03  0.28276856774E+03  0.79187697169E+02 0.  0.
          5    1    3    3  501    0 -0.86653050434E+02  0.69510392492E+02 -0.11146165256E+03  0.15743645005E+03  0.47000000000E+01 0. -1.
        -13    1    4    4    0    0 -0.84867966220E+02 -0.10502410466E+02 -0.18181765533E+01  0.85534660121E+02  0.00000000000E+00 0.  1.
         14    1    4    4    0    0  0.10794344834E+02 -0.20721994708E+02 -0.17233746348E+02  0.29033101079E+02  0.00000000000E+00 0. -1.
         -5    1    5    5    0  502  0.16831175966E+02  0.15102743478E+02  0.20474701711E+02  0.30865591766E+02  0.47000000000E+01 0.  1.
         13    1    6    6    0    0  0.11153829272E+03 -0.20329265046E+01 -0.15456422282E+03  0.19061747692E+03  0.00000000000E+00 0. -1.
        -14    1    6    6    0    0  0.32357203138E+02 -0.51355804291E+02 -0.69335534248E+02  0.92151090817E+02  0.00000000000E+00 0.  1.
</event>
<event>
12    1  0.1040325E-001  0.1766226E+03  0.7818608E-02  0.1171610E+00
         21   -1    0    0  501  502  0.00000000000E+00  0.00000000000E+00  0.15342308412E+03  0.15342308412E+03  0.00000000000E+00 0. -1.
         21   -1    0    0  502  503 -0.00000000000E+00 -0.00000000000E+00 -0.28454719221E+03  0.28454719221E+03  0.00000000000E+00 0. -1.
         -6    2    1    2    0  503 -0.24366710432E+02 -0.34809551081E+02 -0.18392950820E+03  0.25362289242E+03  0.16937847015E+03 0.  0.
        -24    2    3    3    0    0  0.34350158688E+02  0.22057201501E+02 -0.12058991966E+03  0.15010723300E+03  0.79522318476E+02 0.  0.
          6    2    1    2  501    0  0.24366710432E+02  0.34809551081E+02  0.52805400112E+02  0.18434738392E+03  0.17143542881E+03 0.  0.
         24    2    5    5    0    0  0.17922876052E+02  0.13971825310E+02 -0.26668385615E+02  0.10180099433E+03  0.95581369870E+02 0.  0.
          5    1    5    5  501    0  0.64438343798E+01  0.20837725771E+02  0.79473785727E+02  0.82546389591E+02  0.47000000000E+01 0. -1.
        -13    1    6    6    0    0  0.51332138799E+02  0.10046289140E+01 -0.38376372220E+02  0.64099482819E+02  0.00000000000E+00 0.  1.
         14    1    6    6    0    0 -0.33409262747E+02  0.12967196396E+02  0.11707986605E+02  0.37701511508E+02  0.00000000000E+00 0. -1.
         -5    1    3    3    0  503 -0.58716869120E+02 -0.56866752583E+02 -0.63339588544E+02  0.10351565942E+03  0.47000000000E+01 0.  1.
         11    1    4    4    0    0  0.34270403376E+02  0.50373260301E+02 -0.86253668547E+02  0.10560123692E+03  0.00000000000E+00 0. -1.
        -12    1    4    4    0    0  0.79755311899E-01 -0.28316058799E+02 -0.34336251111E+02  0.44505996081E+02  0.00000000000E+00 0.  1.
</event>
<event>
12    1  0.1040325E-001  0.2037244E+03  0.7818608E-02  0.1146755E+00
         21   -1    0    0  503  502  0.00000000000E+00  0.00000000000E+00  0.92784937377E+03  0.92784937377E+03  0.00000000000E+00 0. -1.
         21   -1    0    0  501  503 -0.00000000000E+00 -0.00000000000E+00 -0.91759188312E+02  0.91759188312E+02  0.00000000000E+00 0.  1.
          6    2    1    2  501    0  0.10570050925E+03 -0.18669326061E+02  0.52868167975E+02  0.21047249678E+03  0.17315451864E+03 0.  0.
         24    2    3    3    0    0  0.13890983217E+03 -0.10648567236E+02  0.65706270358E+02  0.17367441837E+03  0.80225657833E+02 0.  0.
         -6    2    1    2    0  502 -0.10570050925E+03  0.18669326061E+02  0.78322201749E+03  0.80913606531E+03  0.17246246581E+03 0.  0.
        -24    2    5    5    0    0 -0.46258338081E+02 -0.32542666115E+01  0.17984086554E+03  0.20241955807E+03  0.80501655126E+02 0.  0.
          5    1    3    3  501    0 -0.33209322928E+02 -0.80207588248E+01 -0.12838102382E+02  0.36798078405E+02  0.47000000000E+01 0. -1.
        -11    1    4    4    0    0  0.11234389966E+03 -0.26094777300E+02  0.17714452785E+02  0.11668715024E+03  0.00000000000E+00 0.  1.
         12    1    4    4    0    0  0.26565932511E+02  0.15446210063E+02  0.47991817572E+02  0.56987268134E+02  0.00000000000E+00 0. -1.
         -5    1    5    5    0  502 -0.59442171164E+02  0.21923592673E+02  0.60338115194E+03  0.60671650723E+03  0.47000000000E+01 0.  1.
         13    1    6    6    0    0 -0.33961323901E+02 -0.34114296330E+02  0.15079654638E+03  0.15829325676E+03  0.00000000000E+00 0. -1.
        -14    1    6    6    0    0 -0.12297014180E+02  0.30860029719E+02  0.29044319161E+02  0.44126301312E+02  0.00000000000E+00 0.  1.
</event>
<event>
12    1  0.1040325E-001  0.2006290E+03  0.7818608E-02  0.1151387E+00
         21   -1    0    0  503  502  0.00000000000E+00  0.00000000000E+00  0.65967641637E+03  0.65967641637E+03  0.00000000000E+00 0.  1.
         21   -1    0    0  501  503 -0.00000000000E+00 -0.00000000000E+00 -0.58144424454E+02  0.58144424454E+02  0.00000000000E+00 0.  1.
          6    2    1    2  501    0  0.78777409070E+02  0.37037729919E+02  0.32699389116E+03  0.38363654642E+03  0.18076039742E+03 0.  0.
         24    2    3    3    0    0  0.47760397988E+02 -0.41582421329E+01  0.59505733806E+02  0.11118257340E+03  0.80760669131E+02 0.  0.
         -6    2    1    2    0  502 -0.78777409070E+02 -0.37037729919E+02  0.27453810076E+03  0.33418429441E+03  0.16950014821E+03 0.  0.
        -24    2    5    5    0    0 -0.41013161207E+02 -0.78896994584E+01  0.48665933108E+02  0.10328156117E+03  0.80959132177E+02 0.  0.
          5    1    3    3  501    0  0.31017011083E+02  0.41195972052E+02  0.26748815735E+03  0.27245397302E+03  0.47000000000E+01 0. -1.
        -13    1    4    4    0    0  0.47867279175E+02  0.31250857282E+02  0.27432183886E+02  0.63406759964E+02  0.00000000000E+00 0.  1.
         14    1    4    4    0    0 -0.10688118684E+00 -0.35409099415E+02  0.32073549920E+02  0.47775813436E+02  0.00000000000E+00 0. -1.
         -5    1    5    5    0  502 -0.37764247864E+02 -0.29148030461E+02  0.22587216765E+03  0.23090273324E+03  0.47000000000E+01 0.  1.
         11    1    6    6    0    0  0.33596570648E+01  0.80630255089E+01  0.55013734861E+02  0.55702878735E+02  0.00000000000E+00 0. -1.
        -12    1    6    6    0    0 -0.44372818271E+02 -0.15952724967E+02 -0.63478017531E+01  0.47578682436E+02  0.00000000000E+00 0.  1.
</event>
<event>
12    1  0.1040325E-001  0.1736657E+03  0.7818608E-02  0.1174414E+00
         21   -1    0    0  503  502  0.00000000000E+00  0.00000000000E+00  0.55903667516E+03  0.55903667516E+03  0.00000000000E+00 0.  1.
         21   -1    0    0  501  503 -0.00000000000E+00 -0.00000000000E+00 -0.76130440481E+02  0.76130440481E+02  0.00000000000E+00 0.  1.
          6    2    1    2  501    0  0.12720522904E+02 -0.61417010735E+01  0.69104678081E+02  0.18690967508E+03  0.17309025944E+03 0.  0.
         24    2    3    3    0    0  0.65913480718E+02 -0.40823885242E+02  0.46878435112E+02  0.11946754777E+03  0.77869960483E+02 0.  0.
         -6    2    1    2    0  502 -0.12720522904E+02  0.61417010735E+01  0.41380155660E+03  0.44825744056E+03  0.17176574914E+03 0.  0.
        -24    2    5    5    0    0  0.46358529491E+01  0.67139413614E+02  0.19251894165E+03  0.21801832486E+03  0.77066562717E+02 0.  0.
          5    1    3    3  501    0 -0.53192957814E+02  0.34682184169E+02  0.22226242969E+02  0.67442127311E+02  0.47000000000E+01 0. -1.
        -13    1    4    4    0    0 -0.10803699958E+02  0.11359239546E+02  0.36955608999E+00  0.15680842693E+02  0.00000000000E+00 0.  1.
         14    1    4    4    0    0  0.76717180676E+02 -0.52183124788E+02  0.46508879022E+02  0.10378670508E+03  0.00000000000E+00 0. -1.
         -5    1    5    5    0  502 -0.17356375854E+02 -0.60997712540E+02  0.22128261495E+03  0.23023911569E+03  0.47000000000E+01 0.  1.
         11    1    6    6    0    0 -0.23615351663E+02 -0.39930881750E+01  0.30074224260E+02  0.38445917237E+02  0.00000000000E+00 0. -1.
        -12    1    6    6    0    0  0.28251204612E+02  0.71132501789E+02  0.16244471739E+03  0.17957240763E+03  0.00000000000E+00 0.  1.
</event>
<event>
12    1  0.1040325E-001  0.2057266E+03  0.7818608E-02  0.1146043E+00
         21   -1    0    0  501  502  0.00000000000E+00  0.00000000000E+00  0.80684018011E+02  0.80684018011E+02  0.00000000000E+00 0.  1.
         21   -1    0    0  502  503 -0.00000000000E+00 -0.00000000000E+00 -0.51510398082E+03  0.51510398082E+03  0.00000000000E+00 0.  1.
         -6    2    1    2    0  503 -0.79703806346E+02  0.67980365640E+02 -0.19021853150E+03  0.27647970971E+03  0.17112543147E+03 0.  0.
        -24    2    3    3    0    0 -0.86492930591E+02  0.84133548886E+02 -0.81480492022E+02  0.16623875196E+03  0.80229489476E+02 0.  0.
          6    2    1    2  501    0  0.79703806346E+02 -0.67980365640E+02 -0.24420143132E+03  0.31930828913E+03  0.17705766741E+03 0.  0.
         24    2    5    5    0    0  0.10494426782E+03 -0.30075930779E+02 -0.10255469561E+03  0.17044689449E+03  0.81343821453E+02 0.  0.
          5    1    5    5  501    0 -0.25240461476E+02 -0.37904434861E+02 -0.14164673571E+03  0.14886139464E+03  0.47000000000E+01 0. -1.
        -13    1    6    6    0    0  0.76360912828E+02  0.18444307337E+02 -0.71041840120E+02  0.10591564818E+03  0.00000000000E+00 0.  1.
         14    1    6    6    0    0  0.28583354994E+02 -0.48520238116E+02 -0.31512855493E+02  0.64531246315E+02  0.00000000000E+00 0. -1.
         -5    1    3    3    0  503  0.67891242446E+01 -0.16153183246E+02 -0.10873803947E+03  0.11024095775E+03  0.47000000000E+01 0.  1.
         13    1    4    4    0    0 -0.32069088940E+02  0.14084456385E+02  0.12326962006E+02  0.37131554901E+02  0.00000000000E+00 0. -1.
        -14    1    4    4    0    0 -0.54423841651E+02  0.70049092501E+02 -0.93807454028E+02  0.12910719706E+03  0.00000000000E+00 0.  1.
</event>
<event>
12    1  0.1040325E-001  0.2280306E+03  0.7818608E-02  0.1128155E+00
         21   -1    0    0  503  502  0.00000000000E+00  0.00000000000E+00  0.18313805652E+03  0.18313805652E+03  0.00000000000E+00 0. -1.
         21   -1    0    0  501  503 -0.00000000000E+00 -0.00000000000E+00 -0.41677558109E+03  0.41677558109E+03  0.00000000000E+00 0. -1.
          6    2    1    2  501    0  0.11790276934E+03  0.92301577117E+02  0.52950791558E+02  0.23409775811E+03  0.17198060899E+03 0.  0.
         24    2    3    3    0    0  0.35984788016E+02  0.11193672429E+03  0.38836635728E+02  0.14855599016E+03  0.82072301806E+02 0.  0.
         -6    2    1    2    0  502 -0.11790276934E+03 -0.92301577117E+02 -0.28658831613E+03  0.36581587950E+03  0.17107820025E+03 0.  0.
        -24    2    5    5    0    0 -0.24557337034E+02 -0.52023913976E+02 -0.55359538856E+02  0.11318077244E+03  0.80222554691E+02 0.  0.
          5    1    3    3  501    0  0.81917981326E+02 -0.19635147176E+02  0.14114155830E+02  0.85541767949E+02  0.47000000000E+01 0. -1.
        -13    1    4    4    0    0  0.35151678546E+02  0.64153913674E+02 -0.16957294024E+02  0.75092709133E+02  0.00000000000E+00 0.  1.
         14    1    4    4    0    0  0.83310946998E+00  0.47782810619E+02  0.55793929752E+02  0.73463281027E+02  0.00000000000E+00 0. -1.
         -5    1    5    5    0  502 -0.93345432308E+02 -0.40277663141E+02 -0.23122877727E+03  0.25263510706E+03  0.47000000000E+01 0.  1.
         13    1    6    6    0    0 -0.32100722347E+02 -0.65661097781E+02 -0.21946120098E+02  0.76311652612E+02  0.00000000000E+00 0. -1.
        -14    1    6    6    0    0  0.75433853136E+01  0.13637183805E+02 -0.33413418758E+02  0.36869119832E+02  0.00000000000E+00 0.  1.
</event>
<event>
12    1  0.1040325E-001  0.2173093E+03  0.7818608E-02  0.1136778E+00
         21   -1    0    0  503  502  0.00000000000E+00  0.00000000000E+00  0.18877927999E+03  0.18877927999E+03  0.00000000000E+00 0. -1.
         21   -1    0    0  501  503 -0.00000000000E+00 -0.00000000000E+00 -0.50019856456E+03  0.50019856456E+03  0.00000000000E+00 0. -1.
          6    2    1    2  501    0  0.20216060950E+01 -0.12374404893E+03 -0.40098936080E+03  0.45393288297E+03  0.17304888973E+03 0.  0.
         24    2    3    3    0    0  0.67855533990E+02 -0.81195496653E+02 -0.19570654106E+03  0.23414295726E+03  0.72971172761E+02 0.  0.
         -6    2    1    2    0  502 -0.20216060950E+01  0.12374404893E+03  0.89570076231E+02  0.23504496158E+03  0.17862435128E+03 0.  0.
        -24    2    5    5    0    0 -0.29090292451E+02  0.26425937257E+02  0.16203336131E+02  0.11011179066E+03  0.10157501202E+03 0.  0.
          5    1    3    3  501    0 -0.65833927895E+02 -0.42548552280E+02 -0.20528281974E+03  0.21978992571E+03  0.47000000000E+01 0. -1.
        -13    1    4    4    0    0  0.13248081026E+02  0.51694602796E+01 -0.73423203821E+02  0.74787711757E+02  0.00000000000E+00 0.  1.
         14    1    4    4    0    0  0.54607452964E+02 -0.86364956932E+02 -0.12228333723E+03  0.15935524551E+03  0.00000000000E+00 0. -1.
         -5    1    5    5    0  502  0.27068686356E+02  0.97318111676E+02  0.73366740101E+02  0.12493317091E+03  0.47000000000E+01 0.  1.
         13    1    6    6    0    0  0.33943683670E+02  0.30588922843E+02  0.84273459462E+01  0.46463706498E+02  0.00000000000E+00 0. -1.
        -14    1    6    6    0    0 -0.63033976121E+02 -0.41629855867E+01  0.77759901847E+01  0.63648084166E+02  0.00000000000E+00 0.  1.
</event>
<event>
12    1  0.1040325E-001  0.2356016E+03  0.7818608E-02  0.1122789E+00
         21   -1    0    0  501  502  0.00000000000E+00  0.00000000000E+00  0.33720390234E+02  0.33720390234E+02  0.00000000000E+00 0. -1.
         21   -1    0    0  502  503 -0.00000000000E+00 -0.00000000000E+00 -0.19661976734E+04  0.19661976734E+04  0.00000000000E+00 0.  1.
         -6    2    1    2    0  503 -0.66925645068E+01  0.16046472071E+03 -0.56230244954E+03  0.60966560810E+03  0.17237862956E+03 0.  0.
        -24    2    3    3    0    0 -0.61895772465E+02  0.43505709176E+02 -0.26500185493E+03  0.28541795876E+03  0.74253583659E+02 0.  0.
          6    2    1    2  501    0  0.66925645068E+01 -0.16046472071E+03 -0.13701748336E+04  0.13902524555E+04  0.17213105008E+03 0.  0.
         24    2    5    5    0    0 -0.58600849424E+02 -0.65319815650E+02 -0.79826454939E+03  0.80679787626E+03  0.77432450899E+02 0.  0.
          5    1    5    5  501    0  0.65293413931E+02 -0.95144905061E+02 -0.57191028419E+03  0.58345457923E+03  0.47000000000E+01 0. -1.
        -13    1    6    6    0    0 -0.69516528762E+02 -0.71550068784E+02 -0.60901691568E+03  0.61713334353E+03  0.00000000000E+00 0.  1.
         14    1    6    6    0    0  0.10915679338E+02  0.62302531345E+01 -0.18924763371E+03  0.18966453273E+03  0.00000000000E+00 0. -1.
         -5    1    3    3    0  503  0.55203207958E+02  0.11695901153E+03 -0.29730059461E+03  0.32424764934E+03  0.47000000000E+01 0.  1.
         13    1    4    4    0    0 -0.61556588934E+02  0.50206299072E+02 -0.14586046027E+03  0.16608780804E+03  0.00000000000E+00 0. -1.
        -14    1    4    4    0    0 -0.33918353068E+00 -0.67005898960E+01 -0.11914139466E+03  0.11933015073E+03  0.00000000000E+00 0.  1.
</event>
<event>
12    1  0.1040325E-001  0.1906793E+03  0.7818608E-02  0.1157942E+00
         21   -1    0    0  503  502  0.00000000000E+00  0.00000000000E+00  0.53551333570E+03  0.53551333570E+03  0.00000000000E+00 0. -1.
         21   -1    0    0  501  503 -0.00000000000E+00 -0.00000000000E+00 -0.15022484571E+03  0.15022484571E+03  0.00000000000E+00 0. -1.
          6    2    1    2  501    0  0.76437709976E+02 -0.31134645384E+02 -0.61312382785E+02  0.20029425390E+03  0.17189092534E+03 0.  0.
         24    2    3    3    0    0  0.34303466238E+02  0.16166289690E+02  0.25480460471E+02  0.92740729574E+02  0.80706333939E+02 0.  0.
         -6    2    1    2    0  502 -0.76437709976E+02  0.31134645384E+02  0.44660087278E+03  0.48544392751E+03  0.17143913654E+03 0.  0.
        -24    2    5    5    0    0 -0.37467726173E+02  0.70588924928E+02  0.39072242050E+03  0.40657827439E+03  0.79090179552E+02 0.  0.
          5    1    3    3  501    0  0.42134243738E+02 -0.47300935074E+02 -0.86792843255E+02  0.10755352432E+03  0.47000000000E+01 0. -1.
        -11    1    4    4    0    0 -0.23976799867E+02  0.11531584906E+02 -0.45864286477E+01  0.26998142715E+02  0.00000000000E+00 0.  1.
         12    1    4    4    0    0  0.58280266105E+02  0.46347047843E+01  0.30066889118E+02  0.65742586859E+02  0.00000000000E+00 0. -1.
         -5    1    5    5    0  502 -0.38969983803E+02 -0.39454279544E+02  0.55878452281E+02  0.78865653115E+02  0.47000000000E+01 0.  1.
         11    1    6    6    0    0 -0.41048338794E+01  0.16521428433E+02  0.26658175724E+03  0.26712476589E+03  0.00000000000E+00 0. -1.
        -12    1    6    6    0    0 -0.33362892293E+02  0.54067496496E+02  0.12414066325E+03  0.13945350850E+03  0.00000000000E+00 0.  1.
</event>
<event>
12    1  0.1040325E-001  0.4358394E+03  0.7818608E-02  0.1032058E+00
         21   -1    0    0  503  502  0.00000000000E+00  0.00000000000E+00  0.27081571267E+03  0.27081571267E+03  0.00000000000E+00 0.  1.
         21   -1    0    0  501  503 -0.00000000000E+00 -0.00000000000E+00 -0.13824966962E+04  0.13824966962E+04  0.00000000000E+00 0. -1.
          6    2    1    2  501    0 -0.35107035217E+03 -0.19229334806E+03 -0.11361832386E+04  0.12167847769E+04  0.17153926058E+03 0.  0.
         24    2    3    3    0    0 -0.12901596969E+03 -0.13967030375E+03 -0.50344656991E+03  0.54413693785E+03  0.80458959703E+02 0.  0.
         -6    2    1    2    0  502  0.35107035217E+03  0.19229334806E+03  0.24502255039E+02  0.43652763193E+03  0.17242067468E+03 0.  0.
        -24    2    5    5    0    0  0.85269907069E+02  0.94687445521E+02  0.29532674490E+02  0.15328889174E+03  0.79928943926E+02 0.  0.
          5    1    3    3  501    0 -0.22205438248E+03 -0.52623044307E+02 -0.63273666864E+03  0.67264783908E+03  0.47000000000E+01 0. -1.
        -11    1    4    4    0    0  0.38671793121E+01 -0.15704355166E+02 -0.11920643434E+02  0.20091878631E+02  0.00000000000E+00 0.  1.
         12    1    4    4    0    0 -0.13288314900E+03 -0.12396594858E+03 -0.49152592648E+03  0.52404505922E+03  0.00000000000E+00 0. -1.
         -5    1    5    5    0  502  0.26580044510E+03  0.97605902535E+02 -0.50304194514E+01  0.28323874019E+03  0.47000000000E+01 0.  1.
         13    1    6    6    0    0  0.30775424915E+02  0.19883371397E+02 -0.26391908242E+02  0.45155376839E+02  0.00000000000E+00 0. -1.
        -14    1    6    6    0    0  0.54494482154E+02  0.74804074124E+02  0.55924582733E+02  0.10813351490E+03  0.00000000000E+00 0.  1.
</event>
<event>
12    1  0.1040325E-001  0.1746807E+03  0.7818608E-02  0.1173331E+00
         21   -1    0    0  503  502  0.00000000000E+00  0.00000000000E+00  0.75191228046E+02  0.75191228046E+02  0.00000000000E+00 0. -1.
         21   -1    0    0  501  503 -0.00000000000E+00 -0.00000000000E+00 -0.47058830879E+03  0.47058830879E+03  0.00000000000E+00 0. -1.
          6    2    1    2  501    0 -0.23863597931E+02  0.11584224335E+02 -0.30038761099E+03  0.34693253096E+03  0.17153949586E+03 0.  0.
         24    2    3    3    0    0 -0.33212802310E+02 -0.43156044517E+02 -0.24706212317E+03  0.26979886576E+03  0.93734736576E+02 0.  0.
         -6    2    1    2    0  502  0.23863597931E+02 -0.11584224335E+02 -0.95009469750E+02  0.19884700587E+03  0.17265476201E+03 0.  0.
        -24    2    5    5    0    0  0.58522754812E+02  0.44554218702E+02 -0.62070394579E+02  0.12495617684E+03  0.79695175588E+02 0.  0.
          5    1    3    3  501    0  0.93492043786E+01  0.54740268851E+02 -0.53325487815E+02  0.77133665200E+02  0.47000000000E+01 0. -1.
        -13    1    4    4    0    0  0.12543442325E+02 -0.50573458664E+00 -0.17037227213E+03  0.17083414420E+03  0.00000000000E+00 0.  1.
         14    1    4    4    0    0 -0.45756244635E+02 -0.42650309930E+02 -0.76689851043E+02  0.98964721559E+02  0.00000000000E+00 0. -1.
         -5    1    5    5    0  502 -0.34659156881E+02 -0.56138443037E+02 -0.32939075171E+02  0.73890829035E+02  0.47000000000E+01 0.  1.
         13    1    6    6    0    0  0.10482947760E+02 -0.14048842739E+02 -0.43555053262E+02  0.46950024928E+02  0.00000000000E+00 0. -1.
        -14    1    6    6    0    0  0.48039807052E+02  0.58603061441E+02 -0.18515341317E+02  0.78006151911E+02  0.00000000000E+00 0.  1.
</event>
<event>
12    1  0.1040325E-001  0.2268307E+03  0.7818608E-02  0.1130383E+00
         21   -1    0    0  501  502  0.00000000000E+00  0.00000000000E+00  0.68221886950E+02  0.68221886950E+02  0.00000000000E+00 0. -1.
         21   -1    0    0  502  503 -0.00000000000E+00 -0.00000000000E+00 -0.11401972004E+04  0.11401972004E+04  0.00000000000E+00 0. -1.
         -6    2    1    2    0  503  0.86122851811E+02 -0.10496958376E+03 -0.90582214096E+03  0.93379115405E+03  0.18170418050E+03 0.  0.
        -24    2    3    3    0    0 -0.38477899551E+01 -0.93813134110E+02 -0.65087496561E+03  0.66316348553E+03  0.85626386518E+02 0.  0.
          6    2    1    2  501    0 -0.86122851811E+02  0.10496958376E+03 -0.16615317251E+03  0.27462793331E+03  0.17139972551E+03 0.  0.
         24    2    5    5    0    0 -0.96562100975E+02  0.37030018070E+02 -0.48294047509E+02  0.13810824296E+03  0.77756737108E+02 0.  0.
          5    1    5    5  501    0  0.10439249164E+02  0.67939565691E+02 -0.11785912500E+03  0.13651969035E+03  0.47000000000E+01 0. -1.
        -13    1    6    6    0    0 -0.64774978983E+02 -0.16752536473E+02 -0.24155044869E+02  0.71133055419E+02  0.00000000000E+00 0.  1.
         14    1    6    6    0    0 -0.31787121992E+02  0.53782554543E+02 -0.24139002641E+02  0.66975187542E+02  0.00000000000E+00 0. -1.
         -5    1    3    3    0  503  0.89970641766E+02 -0.11156449651E+02 -0.25494717535E+03  0.27062766852E+03  0.47000000000E+01 0.  1.
         11    1    4    4    0    0 -0.37213685777E+02 -0.82433055776E+02 -0.42141283853E+03  0.43100910381E+03  0.00000000000E+00 0. -1.
        -12    1    4    4    0    0  0.33365895822E+02 -0.11380078334E+02 -0.22946212708E+03  0.23215438172E+03  0.00000000000E+00 0.  1.
</event>
<event>
12    1  0.1040325E-001  0.2120289E+03  0.7818608E-02  0.1140102E+00
         21   -1    0    0  501  502  0.00000000000E+00  0.00000000000E+00  0.68698638033E+02  0.68698638033E+02  0.00000000000E+00 0. -1.
         21   -1    0    0  502  503 -0.00000000000E+00 -0.00000000000E+00 -0.78474910381E+03  0.78474910381E+03  0.00000000000E+00 0.  1.
         -6    2    1    2    0  503  0.14064128053E+01  0.12335735785E+03 -0.53285100553E+03  0.57323656928E+03  0.17161280412E+03 0.  0.
        -24    2    3    3    0    0 -0.16907113693E+02  0.14456727117E+03 -0.51188455946E+03  0.53792470815E+03  0.78432410652E+02 0.  0.
          6    2    1    2  501    0 -0.14064128053E+01 -0.12335735785E+03 -0.18319946025E+03  0.28021117257E+03  0.17244489920E+03 0.  0.
         24    2    5    5    0    0  0.54563037755E+02 -0.12495411554E+03 -0.10242884472E+03  0.18181853380E+03  0.63052794713E+02 0.  0.
          5    1    5    5  501    0 -0.55969450560E+02  0.15967576909E+01 -0.80770615527E+02  0.98392638769E+02  0.47000000000E+01 0. -1.
        -11    1    6    6    0    0  0.55156797542E+02 -0.10685005550E+03 -0.10924834443E+03  0.16246355726E+03  0.00000000000E+00 0.  1.
         12    1    6    6    0    0 -0.59375978655E+00 -0.18104060034E+02  0.68194997091E+01  0.19354976536E+02  0.00000000000E+00 0. -1.
         -5    1    3    3    0  503  0.18313526498E+02 -0.21209913318E+02 -0.20966446071E+02  0.35311861132E+02  0.47000000000E+01 0.  1.
         13    1    4    4    0    0 -0.32544833269E+02  0.20445089361E+02 -0.15696954150E+03  0.16160632664E+03  0.00000000000E+00 0. -1.
        -14    1    4    4    0    0  0.15637719576E+02  0.12412218181E+03 -0.35491501795E+03  0.37631838151E+03  0.00000000000E+00 0.  1.
</event>
<event>
12    1  0.1040325E-001  0.1834286E+03  0.7818608E-02  0.1164591E+00
         21   -1    0    0  503  502  0.00000000000E+00  0.00000000000E+00  0.32221410134E+02  0.32221410134E+02  0.00000000000E+00 0. -1.
         21   -1    0    0  501  503 -0.00000000000E+00 -0.00000000000E+00 -0.15058011667E+04  0.15058011667E+04  0.00000000000E+00 0.  1.
          6    2    1    2  501    0  0.39802775651E+02 -0.50563806318E+02 -0.31067707082E+03  0.36078566138E+03  0.17177046214E+03 0.  0.
         24    2    3    3    0    0 -0.92546622209E+01  0.26056443516E+02 -0.19999683244E+03  0.21743469325E+03  0.80712612534E+02 0.  0.
         -6    2    1    2    0  502 -0.39802775651E+02  0.50563806318E+02 -0.11629026858E+04  0.11772369155E+04  0.17147343567E+03 0.  0.
        -24    2    5    5    0    0 -0.85964044900E+02  0.63493114171E+02 -0.78447922016E+03  0.79576025944E+03  0.80034686710E+02 0.  0.
          5    1    3    3  501    0  0.49057437872E+02 -0.76620249834E+02 -0.11068023838E+03  0.14335096813E+03  0.47000000000E+01 0. -1.
        -11    1    4    4    0    0  0.15777806738E+02 -0.19497691686E+02 -0.11580378762E+03  0.11848888721E+03  0.00000000000E+00 0.  1.
         12    1    4    4    0    0 -0.25032468959E+02  0.45554135202E+02 -0.84193044824E+02  0.98945806040E+02  0.00000000000E+00 0. -1.
         -5    1    5    5    0  502  0.46161269249E+02 -0.12929307853E+02 -0.37842346562E+03  0.38147665605E+03  0.47000000000E+01 0.  1.
         11    1    6    6    0    0 -0.68509885710E+02  0.93611515726E+01 -0.29539497548E+03  0.30338000451E+03  0.00000000000E+00 0. -1.
        -12    1    6    6    0    0 -0.17454159189E+02  0.54131962599E+02 -0.48908424468E+03  0.49238025492E+03  0.00000000000E+00 0.  1.
</event>
<event>
12    1  0.1040325E-001  0.2194244E+03  0.7818608E-02  0.1134404E+00
         21   -1    0    0  503  502  0.00000000000E+00  0.00000000000E+00  0.47809977137E+03  0.47809977137E+03  0.00000000000E+00 0.  1.
         21   -1    0    0  501  503 -0.00000000000E+00 -0.00000000000E+00 -0.10160671055E+03  0.10160671055E+03  0.00000000000E+00 0. -1.
          6    2    1    2  501    0 -0.60901215591E+02 -0.12083143476E+03  0.15794543305E+03  0.27035868916E+03  0.17273640986E+03 0.  0.
         24    2    3    3    0    0 -0.37600074274E+02 -0.15343541020E+03  0.14216325737E+03  0.22703283694E+03  0.79858165586E+02 0.  0.
         -6    2    1    2    0  502  0.60901215591E+02  0.12083143476E+03  0.21854762777E+03  0.30934779276E+03  0.17211565180E+03 0.  0.
        -24    2    5    5    0    0  0.22930622521E+02  0.14726824456E+03  0.19404169425E+03  0.25678067730E+03  0.77912693586E+02 0.  0.
          5    1    3    3  501    0 -0.23301141317E+02  0.32603975442E+02  0.15782175682E+02  0.43325852220E+02  0.47000000000E+01 0. -1.
        -11    1    4    4    0    0 -0.30251112756E+02 -0.12455159029E+03  0.14890969877E+03  0.19647474864E+03  0.00000000000E+00 0.  1.
         12    1    4    4    0    0 -0.73489615183E+01 -0.28883819918E+02 -0.67464414023E+01  0.30558088292E+02  0.00000000000E+00 0. -1.
         -5    1    5    5    0  502  0.37970593070E+02 -0.26436809797E+02  0.24505933517E+02  0.52567115461E+02  0.47000000000E+01 0.  1.
         13    1    6    6    0    0  0.22123674016E+02  0.41795098223E+02  0.16152182085E+02  0.49971793780E+02  0.00000000000E+00 0. -1.
        -14    1    6    6    0    0  0.80694850457E+00  0.10547314634E+03  0.17788951217E+03  0.20680888352E+03  0.00000000000E+00 0.  1.
</event>
<event>
12    1  0.1040325E-001  0.2827543E+03  0.7818608E-02  0.1094209E+00
         21   -1    0    0  503  502  0.00000000000E+00  0.00000000000E+00  0.16722978435E+03  0.16722978435E+03  0.00000000000E+00 0.  1.
         21   -1    0    0  501  503 -0.00000000000E+00 -0.00000000000E+00 -0.77686771245E+03  0.77686771245E+03  0.00000000000E+00 0. -1.
          6    2    1    2  501    0  0.21083486635E+03  0.75833741990E+02 -0.59762135642E+03  0.66108793634E+03  0.17229009439E+03 0.  0.
         24    2    3    3    0    0  0.61975644266E+02  0.75416563474E+02 -0.19728733429E+03  0.23394784069E+03  0.79250623726E+02 0.  0.
         -6    2    1    2    0  502 -0.21083486635E+03 -0.75833741990E+02 -0.12016571674E+02  0.28300956047E+03  0.17247584187E+03 0.  0.
        -24    2    5    5    0    0 -0.69089043321E+02 -0.91918602695E+02 -0.12921041341E+02  0.14027375853E+03  0.79293433489E+02 0.  0.
          5    1    3    3  501    0  0.14885922208E+03  0.41717851572E+00 -0.40033402213E+03  0.42714009565E+03  0.47000000000E+01 0. -1.
        -13    1    4    4    0    0  0.28033834861E+02  0.67084633763E+02 -0.18164847879E+03  0.19565892219E+03  0.00000000000E+00 0.  1.
         14    1    4    4    0    0  0.33941809405E+02  0.83319297116E+01 -0.15638855500E+02  0.38288918498E+02  0.00000000000E+00 0. -1.
         -5    1    5    5    0  502 -0.14174582303E+03  0.16084860704E+02  0.90446966684E+00  0.14273580194E+03  0.47000000000E+01 0.  1.
         13    1    6    6    0    0 -0.67504269267E+02 -0.44252951050E+02 -0.34681591190E+02  0.87851936879E+02  0.00000000000E+00 0. -1.
        -14    1    6    6    0    0 -0.15847740540E+01 -0.47665651644E+02  0.21760549849E+02  0.52421821651E+02  0.00000000000E+00 0.  1.
</event>
<event>
12    1  0.1040325E-001  0.2324828E+03  0.7818608E-02  0.1124912E+00
         21   -1    0    0  501  502  0.00000000000E+00  0.00000000000E+00  0.63909837578E+02  0.63909837578E+02  0.00000000000E+00 0. -1.
         21   -1    0    0  502  503 -0.00000000000E+00 -0.00000000000E+00 -0.11486761355E+04  0.11486761355E+04  0.00000000000E+00 0. -1.
         -6    2    1    2    0  503 -0.15659355726E+03  0.12792468788E+02 -0.85381038803E+03  0.88488352080E+03  0.17129354116E+03 0.  0.
        -24    2    3    3    0    0 -0.13525780026E+03 -0.49248750708E+02 -0.52949451190E+03  0.55396479217E+03  0.76108086702E+02 0.  0.
          6    2    1    2  501    0  0.15659355726E+03 -0.12792468788E+02 -0.23095590987E+03  0.32770245226E+03  0.17135657408E+03 0.  0.
         24    2    5    5    0    0  0.63373285168E+02  0.45853336360E+02 -0.66910940923E+02  0.13006087913E+03  0.79498783247E+02 0.  0.
          5    1    5    5  501    0  0.93220272088E+02 -0.58645805148E+02 -0.16404496895E+03  0.19764157312E+03  0.47000000000E+01 0. -1.
        -11    1    6    6    0    0  0.49790628764E+02 -0.94023961575E+01 -0.14509289085E+02  0.52707032130E+02  0.00000000000E+00 0.  1.
         12    1    6    6    0    0  0.13582656404E+02  0.55255732517E+02 -0.52401651838E+02  0.77353847004E+02  0.00000000000E+00 0. -1.
         -5    1    3    3    0  503 -0.21335756997E+02  0.62041219496E+02 -0.32431587614E+03  0.33091872863E+03  0.47000000000E+01 0.  1.
         11    1    4    4    0    0 -0.16968578301E+02 -0.39407606697E+02 -0.11244621191E+03  0.12035382290E+03  0.00000000000E+00 0. -1.
        -12    1    4    4    0    0 -0.11828922196E+03 -0.98411440107E+01 -0.41704829999E+03  0.43361096927E+03  0.00000000000E+00 0.  1.
</event>
<event>
12    1  0.1040325E-001  0.2131120E+03  0.7818608E-02  0.1139443E+00
         21   -1    0    0  501  502  0.00000000000E+00  0.00000000000E+00  0.26266010746E+03  0.26266010746E+03  0.00000000000E+00 0.  1.
         21   -1    0    0  502  503 -0.00000000000E+00 -0.00000000000E+00 -0.18235499595E+03  0.18235499595E+03  0.00000000000E+00 0.  1.
         -6    2    1    2    0  503 -0.11436393790E+03  0.47337799900E+02 -0.14056324039E+02  0.21194682514E+03  0.17147565089E+03 0.  0.
        -24    2    3    3    0    0  0.10109018675E+01  0.90432796792E+01 -0.37098095671E+02  0.88129067240E+02  0.79420784183E+02 0.  0.
          6    2    1    2  501    0  0.11436393790E+03 -0.47337799900E+02  0.94361435547E+02  0.23306827827E+03  0.17348419013E+03 0.  0.
         24    2    5    5    0    0  0.41897606064E+02  0.27392433358E+01  0.11094012016E+03  0.14331293139E+03  0.80423710412E+02 0.  0.
          5    1    5    5  501    0  0.72466331841E+02 -0.50077043236E+02 -0.16578684611E+02  0.89755346878E+02  0.47000000000E+01 0. -1.
        -13    1    6    6    0    0  0.65876013553E+02  0.71758215782E+01  0.78503537697E+02  0.10273240486E+03  0.00000000000E+00 0.  1.
         14    1    6    6    0    0 -0.23978407490E+02 -0.44365782424E+01  0.32436582461E+02  0.40580526536E+02  0.00000000000E+00 0. -1.
         -5    1    3    3    0  503 -0.11537483977E+03  0.38294520221E+02  0.23041771632E+02  0.12381775790E+03  0.47000000000E+01 0.  1.
         11    1    4    4    0    0 -0.12134240722E+02 -0.28971490010E+02  0.27237497663E+01  0.31527858223E+02  0.00000000000E+00 0. -1.
        -12    1    4    4    0    0  0.13145142589E+02  0.38014769690E+02 -0.39821845437E+02  0.56601209018E+02  0.00000000000E+00 0.  1.
</event>
<event>
12    1  0.1040325E-001  0.1979355E+03  0.7818608E-02  0.1151845E+00
         21   -1    0    0  503  502  0.00000000000E+00  0.00000000000E+00  0.44120983369E+02  0.44120983369E+02  0.00000000000E+00 0. -1.
         21   -1    0    0  501  503 -0.00000000000E+00 -0.00000000000E+00 -0.92867743672E+03  0.92867743672E+03  0.00000000000E+00 0. -1.
          6    2    1    2  501    0 -0.83268774886E+02 -0.47870669454E+02 -0.55466178569E+03  0.58892117940E+03  0.17306983901E+03 0.  0.
         24    2    3    3    0    0  0.72155356012E+01 -0.45751783593E+02 -0.39184772883E+03  0.40258168484E+03  0.79887926013E+02 0.  0.
         -6    2    1    2    0  502  0.83268774886E+02  0.47870669454E+02 -0.32989466766E+03  0.38387724069E+03  0.17118981951E+03 0.  0.
        -24    2    5    5    0    0 -0.19675752437E+02  0.33554956415E+02 -0.18485690620E+03  0.20538198138E+03  0.80601564334E+02 0.  0.
          5    1    3    3  501    0 -0.90484310487E+02 -0.21188858617E+01 -0.16281405686E+03  0.18633949456E+03  0.47000000000E+01 0. -1.
        -11    1    4    4    0    0  0.41827577977E+02 -0.14754910736E+02 -0.15507616447E+03  0.16129435966E+03  0.00000000000E+00 0.  1.
         12    1    4    4    0    0 -0.34612042376E+02 -0.30996872857E+02 -0.23677156436E+03  0.24128732518E+03  0.00000000000E+00 0. -1.
         -5    1    5    5    0  502  0.10294452732E+03  0.14315713039E+02 -0.14503776146E+03  0.17849525931E+03  0.47000000000E+01 0.  1.
         11    1    6    6    0    0  0.23206768951E+02 -0.11764751712E+02 -0.40745985668E+02  0.48344584558E+02  0.00000000000E+00 0. -1.
        -12    1    6    6    0    0 -0.42882521388E+02  0.45319708127E+02 -0.14411092053E+03  0.15703739682E+03  0.00000000000E+00 0.  1.
</event>
<event>
12    1  0.1040325E-001  0.1720100E+03  0.7818608E-02  0.1175909E+00
         21   -1    0    0  503  502  0.00000000000E+00  0.00000000000E+00  0.12135122360E+03  0.12135122360E+03  0.00000000000E+00 0. -1.
         21   -1    0    0  501  503 -0.00000000000E+00 -0.00000000000E+00 -0.25443541873E+03  0.25443541873E+03  0.00000000000E+00 0. -1.
          6    2    1    2  501    0 -0.80866593417E+00 -0.60157061479E+01 -0.10620573147E+03  0.20168928073E+03  0.17135362822E+03 0.  0.
         24    2    3    3    0    0 -0.37920128497E+02  0.39447656171E+02 -0.10456797506E+03  0.14279148610E+03  0.80379682573E+02 0.  0.
         -6    2    1    2    0  502  0.80866593417E+00  0.60157061479E+01 -0.26878463659E+02  0.17409736160E+03  0.17190287039E+03 0.  0.
        -24    2    5    5    0    0 -0.30547365322E+02  0.59377457498E+02 -0.39548189900E+02  0.11074683543E+03  0.79006191189E+02 0.  0.
          5    1    3    3  501    0  0.37111462563E+02 -0.45463362319E+02 -0.16377564103E+01  0.58897794636E+02  0.47000000000E+01 0. -1.
        -11    1    4    4    0    0  0.20442359684E+02 -0.65814922987E+01 -0.34527843300E+02  0.40661751970E+02  0.00000000000E+00 0.  1.
         12    1    4    4    0    0 -0.58362488181E+02  0.46029148469E+02 -0.70040131764E+02  0.10212973413E+03  0.00000000000E+00 0. -1.
         -5    1    5    5    0  502  0.31356031256E+02 -0.53361751350E+02  0.12669726242E+02  0.63350526173E+02  0.47000000000E+01 0.  1.
         13    1    6    6    0    0  0.17986125768E+02  0.37132173947E+01 -0.31494041895E+02  0.36457692994E+02  0.00000000000E+00 0. -1.
        -14    1    6    6    0    0 -0.48533491090E+02  0.55664240103E+02 -0.80541480055E+01  0.74289142435E+02  0.00000000000E+00 0.  1.
</event>
<event>
12    1  0.1040325E-001  0.2012755E+03  0.7818608E-02  0.1148886E+00
         21   -1    0    0  501  502  0.00000000000E+00  0.00000000000E+00  0.46444485907E+03  0.46444485907E+03  0.00000000000E+00 0. -1.
         21   -1    0    0  502  503 -0.00000000000E+00 -0.00000000000E+00 -0.14786510096E+03  0.14786510096E+03  0.00000000000E+00 0.  1.
         -6    2    1    2    0  503 -0.58528040417E+02  0.84887544474E+02 -0.38254466047E+02  0.20487854666E+03  0.17285944575E+03 0.  0.
        -24    2    3    3    0    0  0.27162962648E+02  0.74984831445E+02 -0.28784657684E+02  0.11797182078E+03  0.82025864790E+02 0.  0.
          6    2    1    2  501    0  0.58528040417E+02 -0.84887544474E+02  0.35483422416E+03  0.40743141337E+03  0.17164382669E+03 0.  0.
         24    2    5    5    0    0  0.63852035436E+02 -0.72986412978E+02  0.12332627051E+03  0.17550900294E+03  0.78676185773E+02 0.  0.
          5    1    5    5  501    0 -0.53239950192E+01 -0.11901131496E+02  0.23150795365E+03  0.23192241042E+03  0.47000000000E+01 0. -1.
        -13    1    6    6    0    0  0.49253518309E+02 -0.86756978228E+02  0.80417890328E+02  0.12813945303E+03  0.00000000000E+00 0.  1.
         14    1    6    6    0    0  0.14598517127E+02  0.13770565249E+02  0.42908380182E+02  0.47369549918E+02  0.00000000000E+00 0. -1.
         -5    1    3    3    0  503 -0.85691003065E+02  0.99027130287E+01 -0.94698083633E+01  0.86906725874E+02  0.47000000000E+01 0.  1.
         13    1    4    4    0    0  0.18724174275E+02  0.19359147749E+02  0.27427777592E+02  0.38440269087E+02  0.00000000000E+00 0. -1.
        -14    1    4    4    0    0  0.84387883729E+01  0.55625683696E+02 -0.56212435276E+02  0.79531551698E+02  0.00000000000E+00 0.  1.
</event>
<event>
12    1  0.1040325E-001  0.1777543E+03  0.7818608E-02  0.1170181E+00
         21   -1    0    0  503  502  0.00000000000E+00  0.00000000000E+00  0.27063957670E+03  0.27063957670E+03  0.00000000000E+00 0. -1.
         21   -1    0    0  501  503 -0.00000000000E+00 -0.00000000000E+00 -0.22276893936E+03  0.22276893936E+03  0.00000000000E+00 0. -1.
          6    2    1    2  501    0  0.46034779204E+02  0.53255129440E+01 -0.14663054714E+03  0.23042806896E+03  0.17160715494E+03 0.  0.
         24    2    3    3    0    0  0.14440791817E+02  0.35409578206E+01 -0.17146778639E+03  0.18992691923E+03  0.80311630715E+02 0.  0.
         -6    2    1    2    0  502 -0.46034779204E+02 -0.53255129440E+01  0.19450118448E+03  0.26298044710E+03  0.17082284042E+03 0.  0.
        -24    2    5    5    0    0  0.25771521289E+02  0.26964635891E+02  0.14661415305E+03  0.17070880313E+03  0.79085540346E+02 0.  0.
          5    1    3    3  501    0  0.31593987387E+02  0.17845551234E+01  0.24837239251E+02  0.40501149732E+02  0.47000000000E+01 0. -1.
        -11    1    4    4    0    0 -0.10311773128E+02 -0.84133173516E+01  0.27199449954E+01  0.13583617879E+02  0.00000000000E+00 0.  1.
         12    1    4    4    0    0  0.24752564945E+02  0.11954275172E+02 -0.17418773138E+03  0.17634330135E+03  0.00000000000E+00 0. -1.
         -5    1    5    5    0  502 -0.71806300493E+02 -0.32290148835E+02  0.47887031428E+02  0.92271643971E+02  0.47000000000E+01 0.  1.
         11    1    6    6    0    0  0.71494704682E+01  0.49705953906E+02  0.54915184467E+02  0.74414207426E+02  0.00000000000E+00 0. -1.
        -12    1    6    6    0    0  0.18622050821E+02 -0.22741318016E+02  0.91698968587E+02  0.96294595704E+02  0.00000000000E+00 0.  1.
</event>
<event>
12    1  0.1040325E-001  0.1892416E+03  0.7818608E-02  0.1159246E+00
         21   -1    0    0  501  502  0.00000000000E+00  0.00000000000E+00  0.26465180565E+03  0.26465180565E+03  0.00000000000E+00 0. -1.
         21   -1    0    0  502  503 -0.00000000000E+00 -0.00000000000E+00 -0.13622134349E+03  0.13622134349E+03  0.00000000000E+00 0.  1.
         -6    2    1    2    0  503  0.67731980246E+02 -0.35173585252E+02  0.45209868087E+02  0.19414128382E+03  0.17269077469E+03 0.  0.
        -24    2    3    3    0    0  0.74757411743E+02  0.31565411589E+02  0.52164175966E+02  0.12651064886E+03  0.81846180122E+02 0.  0.
          6    2    1    2  501    0 -0.67731980246E+02  0.35173585252E+02  0.83220594070E+02  0.20673186533E+03  0.17316926580E+03 0.  0.
         24    2    5    5    0    0 -0.50491830053E+02  0.64346736452E+02 -0.20356766307E+01  0.11486774163E+03  0.80625843827E+02 0.  0.
          5    1    5    5  501    0 -0.17240150193E+02 -0.29173151200E+02  0.85256270701E+02  0.91864123701E+02  0.47000000000E+01 0. -1.
        -13    1    6    6    0    0 -0.63642426392E+02  0.56649056560E+02 -0.23648295314E+02  0.88423503196E+02  0.00000000000E+00 0.  1.
         14    1    6    6    0    0  0.13150596339E+02  0.76976798918E+01  0.21612618684E+02  0.26444238430E+02  0.00000000000E+00 0. -1.
         -5    1    3    3    0  503 -0.70254314972E+01 -0.66738996841E+02 -0.69543078786E+01  0.67630634960E+02  0.47000000000E+01 0.  1.
         13    1    4    4    0    0 -0.11209776370E+02  0.25490509829E+02  0.20962555260E+02  0.34854754348E+02  0.00000000000E+00 0. -1.
        -14    1    4    4    0    0  0.85967188113E+02  0.60749017599E+01  0.31201620706E+02  0.91655894509E+02  0.00000000000E+00 0.  1.
</event>
<event>
12    1  0.1040325E-001  0.1884361E+03  0.7818608E-02  0.1161336E+00
         21   -1    0    0  503  502  0.00000000000E+00  0.00000000000E+00  0.53377465179E+03  0.53377465179E+03  0.00000000000E+00 0. -1.
         21   -1    0    0  501  503 -0.00000000000E+00 -0.00000000000E+00 -0.97781429351E+02  0.97781429351E+02  0.00000000000E+00 0. -1.
          6    2    1    2  501    0  0.44550078473E+02 -0.64485327210E+02  0.40025868964E+03  0.43976161247E+03  0.16443901680E+03 0.  0.
         24    2    3    3    0    0  0.35038515033E+02 -0.39141485686E+02  0.99196378141E+02  0.13744822284E+03  0.79324265439E+02 0.  0.
         -6    2    1    2    0  502 -0.44550078473E+02  0.64485327210E+02  0.35734532794E+02  0.19179446867E+03  0.17136246515E+03 0.  0.
        -24    2    5    5    0    0  0.64633602008E+01 -0.26265769543E+02  0.28801854214E+02  0.87351735467E+02  0.77904513400E+02 0.  0.
          5    1    3    3  501    0  0.95115634398E+01 -0.25343841524E+02  0.30106231150E+03  0.30231338963E+03  0.47000000000E+01 0. -1.
        -13    1    4    4    0    0  0.20944085430E+02 -0.60927044397E+02  0.49002903542E+02  0.80944697226E+02  0.00000000000E+00 0.  1.
         14    1    4    4    0    0  0.14094429603E+02  0.21785558711E+02  0.50193474599E+02  0.56503525611E+02  0.00000000000E+00 0. -1.
         -5    1    5    5    0  502 -0.51013438673E+02  0.90751096753E+02  0.69326785802E+01  0.10444273321E+03  0.47000000000E+01 0.  1.
         11    1    6    6    0    0  0.85421230931E+01  0.21376112453E+02 -0.10741222395E+02  0.25402360305E+02  0.00000000000E+00 0. -1.
        -12    1    6    6    0    0 -0.20787628924E+01 -0.47641881996E+02  0.39543076609E+02  0.61949375162E+02  0.00000000000E+00 0.  1.
</event>
<event>
12    1  0.1040325E-001  0.1947408E+03  0.7818608E-02  0.1154608E+00
         21   -1    0    0  503  502  0.00000000000E+00  0.00000000000E+00  0.19575058336E+03  0.19575058336E+03  0.00000000000E+00 0.  1.
         21   -1    0    0  501  503 -0.00000000000E+00 -0.00000000000E+00 -0.29735833849E+03  0.29735833849E+03  0.00000000000E+00 0.  1.
          6    2    1    2  501    0 -0.65546957007E+02  0.62769134484E+02 -0.19733278142E+03  0.27611295461E+03  0.17047512798E+03 0.  0.
         24    2    3    3    0    0  0.12727949506E+02  0.10183164408E+02 -0.34993011371E+02  0.88313763502E+02  0.79429921585E+02 0.  0.
         -6    2    1    2    0  502  0.65546957007E+02 -0.62769134484E+02  0.95725026295E+02  0.21699596723E+03  0.17230090342E+03 0.  0.
        -24    2    5    5    0    0  0.76566353161E+02 -0.54192438416E+02  0.21681907737E+01  0.12228610355E+03  0.78421701406E+02 0.  0.
          5    1    3    3  501    0 -0.78274906513E+02  0.52585970076E+02 -0.16233977005E+03  0.18779919110E+03  0.47000000000E+01 0. -1.
        -11    1    4    4    0    0  0.62997550704E+00  0.34439675465E+02  0.99284839259E+01  0.35847774106E+02  0.00000000000E+00 0.  1.
         12    1    4    4    0    0  0.12097973998E+02 -0.24256511057E+02 -0.44921495297E+02  0.52465989396E+02  0.00000000000E+00 0. -1.
         -5    1    5    5    0  502 -0.11019396154E+02 -0.85766960675E+01  0.93556835521E+02  0.94709863688E+02  0.47000000000E+01 0.  1.
         13    1    6    6    0    0  0.46872065986E+02  0.64395230701E+01  0.21632681534E+02  0.52023369148E+02  0.00000000000E+00 0. -1.
        -14    1    6    6    0    0  0.29694287175E+02 -0.60631961487E+02 -0.19464490760E+02  0.70262734398E+02  0.00000000000E+00 0.  1.
</event>
<event>
12    1  0.1040325E-001  0.1830804E+03  0.7818608E-02  0.1165210E+00
         21   -1    0    0  503  502  0.00000000000E+00  0.00000000000E+00  0.14481718524E+04  0.14481718524E+04  0.00000000000E+00 0.  1.
         21   -1    0    0  501  503 -0.00000000000E+00 -0.00000000000E+00 -0.16194671161E+03  0.16194671161E+03  0.00000000000E+00 0.  1.
          6    2    1    2  501    0 -0.57671910387E+02  0.74213533296E+01 -0.10233185375E+03  0.20973851679E+03  0.17360101210E+03 0.  0.
         24    2    3    3    0    0 -0.10332882660E+03 -0.14655967732E+02 -0.63200667867E+02  0.14551000434E+03  0.79291822696E+02 0.  0.
         -6    2    1    2    0  502  0.57671910387E+02 -0.74213533296E+01  0.13885569946E+04  0.14003800472E+04  0.17202506734E+03 0.  0.
        -24    2    5    5    0    0 -0.31718177316E+01  0.53704134533E+02  0.31208729392E+03  0.32045070189E+03  0.48948736677E+02 0.  0.
          5    1    3    3  501    0  0.45656916214E+02  0.22077321061E+02 -0.39131185887E+02  0.64228512456E+02  0.47000000000E+01 0. -1.
        -13    1    4    4    0    0 -0.70120114723E+02  0.14029319133E+02 -0.71192272511E+02  0.10090585686E+03  0.00000000000E+00 0.  1.
         14    1    4    4    0    0 -0.33208711879E+02 -0.28685286864E+02  0.79916046436E+01  0.44604147474E+02  0.00000000000E+00 0. -1.
         -5    1    5    5    0  502  0.60843728119E+02 -0.61125487863E+02  0.10764697007E+04  0.10799293454E+04  0.47000000000E+01 0.  1.
         13    1    6    6    0    0 -0.89833126280E+01  0.57122713496E+02  0.30584162231E+03  0.31126002352E+03  0.00000000000E+00 0. -1.
        -14    1    6    6    0    0  0.58114948964E+01 -0.34185789627E+01  0.62456716017E+01  0.91906783651E+01  0.00000000000E+00 0.  1.
</event>
<event>
12    1  0.1040325E-001  0.3098193E+03  0.7818608E-02  0.1080653E+00
         21   -1    0    0  501  502  0.00000000000E+00  0.00000000000E+00  0.52439752039E+03  0.52439752039E+03  0.00000000000E+00 0.  1.
         21   -1    0    0  502  503 -0.00000000000E+00 -0.00000000000E+00 -0.18477744711E+03  0.18477744711E+03  0.00000000000E+00 0.  1.
         -6    2    1    2    0  503 -0.24132244542E+03 -0.90390802979E+02  0.12656081172E+03  0.33467245690E+03  0.17199126261E+03 0.  0.
        -24    2    3    3    0    0 -0.11501507943E+03 -0.49132931143E+02  0.13718333821E+03  0.20129070866E+03  0.77821383273E+02 0.  0.
          6    2    1    2  501    0  0.24132244542E+03  0.90390802979E+02  0.21305926157E+03  0.37450251060E+03  0.16867383193E+03 0.  0.
         24    2    5    5    0    0  0.25957636658E+03  0.92570262032E+02  0.18776265997E+03  0.34288030745E+03  0.79768071664E+02 0.  0.
          5    1    5    5  501    0 -0.18253921163E+02 -0.21794590533E+01  0.25296601594E+02  0.31622203146E+02  0.47000000000E+01 0. -1.
        -13    1    6    6    0    0  0.16132226283E+03  0.93213600181E+02  0.10171644159E+03  0.21227313121E+03  0.00000000000E+00 0.  1.
         14    1    6    6    0    0  0.98254103754E+02 -0.64333814916E+00  0.86046218382E+02  0.13060717624E+03  0.00000000000E+00 0. -1.
         -5    1    3    3    0  503 -0.12630736600E+03 -0.41257871836E+02 -0.10622526488E+02  0.13338174823E+03  0.47000000000E+01 0.  1.
         11    1    4    4    0    0 -0.66136545299E+02 -0.65433854083E+02  0.69008621606E+02  0.11583532164E+03  0.00000000000E+00 0. -1.
        -12    1    4    4    0    0 -0.48878534127E+02  0.16300922940E+02  0.68174716600E+02  0.85455387019E+02  0.00000000000E+00 0.  1.
</event>
<event>
12    1  0.1040325E-001  0.2113773E+03  0.7818608E-02  0.1140894E+00
         21   -1    0    0  501  502  0.00000000000E+00  0.00000000000E+00  0.22437719792E+02  0.22437719792E+02  0.00000000000E+00 0.  1.
         21   -1    0    0  502  503 -0.00000000000E+00 -0.00000000000E+00 -0.19872866894E+04  0.19872866894E+04  0.00000000000E+00 0.  1.
         -6    2    1    2    0  503  0.11063269152E+03 -0.44365577632E+02 -0.10668108401E+04  0.10871449468E+04  0.17201996946E+03 0.  0.
        -24    2    3    3    0    0  0.19379999151E+02  0.25943063070E+02 -0.31822087197E+03  0.32972868793E+03  0.80049093670E+02 0.  0.
          6    2    1    2  501    0 -0.11063269152E+03  0.44365577632E+02 -0.89803812951E+03  0.92257946239E+03  0.17456370029E+03 0.  0.
         24    2    5    5    0    0 -0.61394985112E+02 -0.30195329652E+02 -0.68885125639E+03  0.69506041151E+03  0.62544544852E+02 0.  0.
          5    1    5    5  501    0 -0.49237706409E+02  0.74560907284E+02 -0.20918687312E+03  0.22751905088E+03  0.47000000000E+01 0. -1.
        -13    1    6    6    0    0 -0.58287665181E+02 -0.45685786879E+02 -0.48785318582E+03  0.49344237146E+03  0.00000000000E+00 0.  1.
         14    1    6    6    0    0 -0.31073199314E+01  0.15490457228E+02 -0.20099807057E+03  0.20161804006E+03  0.00000000000E+00 0. -1.
         -5    1    3    3    0  503  0.91252692370E+02 -0.70308640703E+02 -0.74858996812E+03  0.75741625886E+03  0.47000000000E+01 0.  1.
         11    1    4    4    0    0 -0.29614710983E+02  0.55681921148E+01 -0.75833671828E+02  0.81601358157E+02  0.00000000000E+00 0. -1.
        -12    1    4    4    0    0  0.48994710134E+02  0.20374870956E+02 -0.24238720014E+03  0.24812732977E+03  0.00000000000E+00 0.  1.
</event>
<event>
12    1  0.1040325E-001  0.1949633E+03  0.7818608E-02  0.1154334E+00
         21   -1    0    0  501  502  0.00000000000E+00  0.00000000000E+00  0.23216945543E+03  0.23216945543E+03  0.00000000000E+00 0.  1.
         21   -1    0    0  502  503 -0.00000000000E+00 -0.00000000000E+00 -0.74228788917E+03  0.74228788917E+03  0.00000000000E+00 0.  1.
         -6    2    1    2    0  503 -0.70416472632E+02 -0.58935339434E+02 -0.68578428811E+03  0.71295917008E+03  0.17198498344E+03 0.  0.
        -24    2    3    3    0    0 -0.15940131469E+01  0.38751895528E+01 -0.48126928846E+03  0.48817000538E+03  0.81683952975E+02 0.  0.
          6    2    1    2  501    0  0.70416472632E+02  0.58935339434E+02  0.17566585437E+03  0.26149817452E+03  0.17056069018E+03 0.  0.
         24    2    5    5    0    0  0.10248501705E+03  0.50190517398E+02  0.18008204491E+03  0.22763881552E+03  0.79797372615E+02 0.  0.
          5    1    5    5  501    0 -0.32068544419E+02  0.87448220359E+01 -0.44161905306E+01  0.33859359007E+02  0.47000000000E+01 0. -1.
        -13    1    6    6    0    0  0.23392591721E+02 -0.19448240587E+02  0.63974641740E+02  0.70839270148E+02  0.00000000000E+00 0.  1.
         14    1    6    6    0    0  0.79092425330E+02  0.69638757984E+02  0.11610740317E+03  0.15679954537E+03  0.00000000000E+00 0. -1.
         -5    1    3    3    0  503 -0.68822459485E+02 -0.62810528986E+02 -0.20451499965E+03  0.22478916469E+03  0.47000000000E+01 0.  1.
         13    1    4    4    0    0  0.17261510439E+02 -0.28500763055E+02 -0.10795274158E+03  0.11297808483E+03  0.00000000000E+00 0. -1.
        -14    1    4    4    0    0 -0.18855523586E+02  0.32375952608E+02 -0.37331654688E+03  0.37519192056E+03  0.00000000000E+00 0.  1.
</event>
<event>
12    1  0.1040325E-001  0.1765642E+03  0.7818608E-02  0.1171210E+00
         21   -1    0    0  501  502  0.00000000000E+00  0.00000000000E+00  0.20471848433E+03  0.20471848433E+03  0.00000000000E+00 0.  1.
         21   -1    0    0  502  503 -0.00000000000E+00 -0.00000000000E+00 -0.16549151678E+03  0.16549151678E+03  0.00000000000E+00 0.  1.
         -6    2    1    2    0  503 -0.31259477138E+02  0.27644374285E+02  0.72189313816E+02  0.19075168439E+03  0.17156206378E+03 0.  0.
        -24    2    3    3    0    0 -0.85866169361E+02  0.23830063616E+02  0.62797861747E+02  0.13501364376E+03  0.79650747576E+02 0.  0.
          6    2    1    2  501    0  0.31259477138E+02 -0.27644374285E+02 -0.32962346265E+02  0.17945831672E+03  0.17139838047E+03 0.  0.
         24    2    5    5    0    0  0.50592336447E+02 -0.38574822272E+02 -0.78440520892E+02  0.12862930424E+03  0.79655390098E+02 0.  0.
          5    1    5    5  501    0 -0.19332859308E+02  0.10930447987E+02  0.45478174627E+02  0.50829012479E+02  0.47000000000E+01 0. -1.
        -11    1    6    6    0    0  0.32200946642E+02 -0.37542947751E+02 -0.14671832694E+01  0.49482588021E+02  0.00000000000E+00 0.  1.
         12    1    6    6    0    0  0.18391389805E+02 -0.10318745207E+01 -0.76973337623E+02  0.79146716222E+02  0.00000000000E+00 0. -1.
         -5    1    3    3    0  503  0.54606692222E+02  0.38143106697E+01  0.93914520693E+01  0.55738040631E+02  0.47000000000E+01 0.  1.
         11    1    4    4    0    0 -0.39424908513E+02 -0.28787048398E+02  0.32019592493E+02  0.58380406560E+02  0.00000000000E+00 0. -1.
        -12    1    4    4    0    0 -0.46441260848E+02  0.52617112014E+02  0.30778269254E+02  0.76633237203E+02  0.00000000000E+00 0.  1.
</event>
<event>
12    1  0.1040325E-001  0.1971074E+03  0.7818608E-02  0.1152472E+00
         21   -1    0    0  501  502  0.00000000000E+00  0.00000000000E+00  0.45532980077E+03  0.45532980077E+03  0.00000000000E+00 0.  1.
         21   -1    0    0  502  503 -0.00000000000E+00 -0.00000000000E+00 -0.10069129475E+03  0.10069129475E+03  0.00000000000E+00 0.  1.
         -6    2    1    2    0  503 -0.94911153968E+02  0.39224640912E+01  0.67302238343E+02  0.20828083153E+03  0.17270726859E+03 0.  0.
        -24    2    3    3    0    0 -0.10714298788E+03 -0.45866210928E+02  0.75646328038E+02  0.15612487545E+03  0.71198880844E+02 0.  0.
          6    2    1    2  501    0  0.94911153968E+02 -0.39224640912E+01  0.28733626768E+03  0.34774026399E+03  0.17128236221E+03 0.  0.
         24    2    5    5    0    0  0.43177769006E+02 -0.74339140829E+02  0.15862230208E+03  0.19209892493E+03  0.65957066707E+02 0.  0.
          5    1    5    5  501    0  0.51733384962E+02  0.70416676738E+02  0.12871396560E+03  0.15564133905E+03  0.47000000000E+01 0. -1.
        -13    1    6    6    0    0  0.31546538452E+02 -0.33009457908E+01  0.25254352559E+02  0.40544576143E+02  0.00000000000E+00 0.  1.
         14    1    6    6    0    0  0.11631230554E+02 -0.71038195038E+02  0.13336794952E+03  0.15155434879E+03  0.00000000000E+00 0. -1.
         -5    1    3    3    0  503  0.12231833911E+02  0.49788675019E+02 -0.83440896954E+01  0.52155956072E+02  0.47000000000E+01 0.  1.
         11    1    4    4    0    0 -0.39575549414E+02 -0.55602522241E+02  0.40145316847E+02  0.79180244100E+02  0.00000000000E+00 0. -1.
        -12    1    4    4    0    0 -0.67567438465E+02  0.97363113132E+01  0.35501011191E+02  0.76944631355E+02  0.00000000000E+00 0.  1.
</event>
<event>
12    1  0.1040325E-001  0.2597751E+03  0.7818608E-02  0.1107283E+00
         21   -1    0    0  503  502  0.00000000000E+00  0.00000000000E+00  0.79850460113E+02  0.79850460113E+02  0.00000000000E+00 0.  1.
         21   -1    0    0  501  503 -0.00000000000E+00 -0.00000000000E+00 -0.93470859757E+03  0.93470859757E+03  0.00000000000E+00 0.  1.
          6    2    1    2  501    0 -0.16867074654E+03  0.96503603268E+02 -0.58459404519E+03  0.63971344541E+03  0.17239584794E+03 0.  0.
         24    2    3    3    0    0 -0.25146787872E+02  0.24490165182E+02 -0.30531277920E+03  0.31752533652E+03  0.79839320261E+02 0.  0.
         -6    2    1    2    0  502  0.16867074654E+03 -0.96503603268E+02 -0.27026409227E+03  0.37484561227E+03  0.17234786709E+03 0.  0.
        -24    2    5    5    0    0  0.94960286416E+02 -0.10846358934E+03 -0.11028314677E+03  0.19823228854E+03  0.79698566796E+02 0.  0.
          5    1    3    3  501    0 -0.14352395867E+03  0.72013438086E+02 -0.27928126599E+03  0.32218810889E+03  0.47000000000E+01 0. -1.
        -11    1    4    4    0    0 -0.29143179123E+02 -0.24114342810E+02 -0.11489001170E+03  0.12095677412E+03  0.00000000000E+00 0.  1.
         12    1    4    4    0    0  0.39963912510E+01  0.48604507992E+02 -0.19042276750E+03  0.19656856240E+03  0.00000000000E+00 0. -1.
         -5    1    5    5    0  502  0.73710460121E+02  0.11959986073E+02 -0.15998094550E+03  0.17661332373E+03  0.47000000000E+01 0.  1.
         11    1    6    6    0    0  0.33876342054E+00 -0.15498436869E+02  0.10588187292E+02  0.18773012975E+02  0.00000000000E+00 0. -1.
        -12    1    6    6    0    0  0.94621522996E+02 -0.92965152472E+02 -0.12087133406E+03  0.17945927557E+03  0.00000000000E+00 0.  1.
</event>
<event>
12    1  0.1040325E-001  0.1773509E+03  0.7818608E-02  0.1170515E+00
         21   -1    0    0  503  502  0.00000000000E+00  0.00000000000E+00  0.37534437962E+03  0.37534437962E+03  0.00000000000E+00 0. -1.
         21   -1    0    0  501  503 -0.00000000000E+00 -0.00000000000E+00 -0.12036657633E+03  0.12036657633E+03  0.00000000000E+00 0. -1.
          6    2    1    2  501    0 -0.10580252189E+00 -0.42537240253E+02 -0.94390373840E+01  0.17760188899E+03  0.17217406176E+03 0.  0.
         24    2    3    3    0    0  0.38485021553E+02 -0.68400599290E+01  0.46257383183E+02  0.10087039839E+03  0.80667270117E+02 0.  0.
         -6    2    1    2    0  502  0.10580252189E+00  0.42537240253E+02  0.26441684068E+03  0.31810906696E+03  0.17166154154E+03 0.  0.
        -24    2    5    5    0    0  0.59580749055E+02 -0.10031830549E+02  0.15406604313E+03  0.18209375536E+03  0.75968985860E+02 0.  0.
          5    1    3    3  501    0 -0.38590824075E+02 -0.35697180324E+02 -0.55696420567E+02  0.76731490601E+02  0.47000000000E+01 0. -1.
        -13    1    4    4    0    0 -0.19194397583E+02 -0.18521021256E+02  0.11079742195E+01  0.26696080870E+02  0.00000000000E+00 0.  1.
         14    1    4    4    0    0  0.57679419137E+02  0.11680961327E+02  0.45149408964E+02  0.74174317518E+02  0.00000000000E+00 0. -1.
         -5    1    5    5    0  502 -0.59474946533E+02  0.52569070802E+02  0.11035079754E+03  0.13601531160E+03  0.47000000000E+01 0.  1.
         11    1    6    6    0    0  0.37857224723E+02 -0.28319464195E+02  0.14464515235E+03  0.15217549610E+03  0.00000000000E+00 0. -1.
        -12    1    6    6    0    0  0.21723524332E+02  0.18287633646E+02  0.94208907817E+01  0.29918259256E+02  0.00000000000E+00 0.  1.
</event>
<event>
12    1  0.1040325E-001  0.1940289E+03  0.7818608E-02  0.1155154E+00
         21   -1    0    0  501  502  0.00000000000E+00  0.00000000000E+00  0.69444393017E+03  0.69444393017E+03  0.00000000000E+00 0.  1.
         21   -1    0    0  502  503 -0.00000000000E+00 -0.00000000000E+00 -0.34306222951E+03  0.34306222951E+03  0.00000000000E+00 0.  1.
         -6    2    1    2    0  503 -0.31437401658E+00  0.87721625560E+02 -0.30051249742E+03  0.35770794188E+03  0.17306654257E+03 0.  0.
        -24    2    3    3    0    0 -0.37635702294E+02  0.11559887869E+03 -0.25053282717E+03  0.28922378148E+03  0.78129069157E+02 0.  0.
          6    2    1    2  501    0  0.31437401658E+00 -0.87721625560E+02  0.65189419808E+03  0.67979821780E+03  0.17165194147E+03 0.  0.
         24    2    5    5    0    0 -0.34711278403E+02 -0.11687970089E+03  0.52514780496E+03  0.54502534274E+03  0.80041675632E+02 0.  0.
          5    1    5    5  501    0  0.35025652420E+02  0.29158075334E+02  0.12674639311E+03  0.13477287506E+03  0.47000000000E+01 0. -1.
        -11    1    6    6    0    0  0.11194894499E+02 -0.11561148661E+02  0.19103010761E+03  0.19170677566E+03  0.00000000000E+00 0.  1.
         12    1    6    6    0    0 -0.45906172903E+02 -0.10531855223E+03  0.33411769735E+03  0.35331856708E+03  0.00000000000E+00 0. -1.
         -5    1    3    3    0  503  0.37321328278E+02 -0.27877253125E+02 -0.49979670249E+02  0.68484160391E+02  0.47000000000E+01 0.  1.
         13    1    4    4    0    0 -0.17737825492E+02 -0.76361431456E+01 -0.26975183516E+02  0.33175317046E+02  0.00000000000E+00 0. -1.
        -14    1    4    4    0    0 -0.19897876802E+02  0.12323502183E+03 -0.22355764365E+03  0.25604846444E+03  0.00000000000E+00 0.  1.
</event>
<event>
12    1  0.1040325E-001  0.2790531E+03  0.7818608E-02  0.1096222E+00
         21   -1    0    0  503  502  0.00000000000E+00  0.00000000000E+00  0.14247692983E+04  0.14247692983E+04  0.00000000000E+00 0. -1.
         21   -1    0    0  501  503 -0.00000000000E+00 -0.00000000000E+00 -0.11677132863E+03  0.11677132863E+03  0.00000000000E+00 0.  1.
          6    2    1    2  501    0 -0.88152420538E+02  0.20072542190E+03  0.91685586450E+02  0.29362780120E+03  0.17248041811E+03 0.  0.
         24    2    3    3    0    0  0.82377755555E+01  0.70214581689E+02  0.28206495232E+01  0.10857857442E+03  0.82361412885E+02 0.  0.
         -6    2    1    2    0  502  0.88152420538E+02 -0.20072542190E+03  0.12163123833E+04  0.12479128258E+04  0.17265301274E+03 0.  0.
        -24    2    5    5    0    0  0.11147451194E+03 -0.17803789695E+03  0.11690687132E+04  0.11903567826E+04  0.78125247805E+02 0.  0.
          5    1    3    3  501    0 -0.96390196094E+02  0.13051084021E+03  0.88864936927E+02  0.18504922678E+03  0.47000000000E+01 0. -1.
        -11    1    4    4    0    0 -0.28174555531E+02  0.62600422829E+02 -0.96949163969E+01  0.69329718892E+02  0.00000000000E+00 0.  1.
         12    1    4    4    0    0  0.36412331086E+02  0.76141588599E+01  0.12515565920E+02  0.39248855532E+02  0.00000000000E+00 0. -1.
         -5    1    5    5    0  502 -0.23322091398E+02 -0.22687524948E+02  0.47243670104E+02  0.57556043126E+02  0.47000000000E+01 0.  1.
         11    1    6    6    0    0  0.98113461443E+02 -0.17499936177E+03  0.95480980075E+03  0.97566017831E+03  0.00000000000E+00 0. -1.
        -12    1    6    6    0    0  0.13361050493E+02 -0.30385351831E+01  0.21425891240E+03  0.21469660433E+03  0.00000000000E+00 0.  1.
</event>
<event>
12    1  0.1040325E-001  0.1729953E+03  0.7818608E-02  0.1175117E+00
         21   -1    0    0  503  502  0.00000000000E+00  0.00000000000E+00  0.37381603237E+02  0.37381603237E+02  0.00000000000E+00 0.  1.
         21   -1    0    0  501  503 -0.00000000000E+00 -0.00000000000E+00 -0.79724947695E+03  0.79724947695E+03  0.00000000000E+00 0.  1.
          6    2    1    2  501    0 -0.24292153792E+01 -0.52815632230E+01 -0.40441406321E+03  0.43931501403E+03  0.17150262688E+03 0.  0.
         24    2    3    3    0    0  0.25658707523E+02 -0.57682786580E+02 -0.33261468690E+03  0.34597659717E+03  0.71285361111E+02 0.  0.
         -6    2    1    2    0  502  0.24292153792E+01  0.52815632230E+01 -0.35545381050E+03  0.39531606616E+03  0.17289761354E+03 0.  0.
        -24    2    5    5    0    0 -0.62314105963E+01 -0.23827814335E+02 -0.71218716469E+02  0.10942440664E+03  0.79341035910E+02 0.  0.
          5    1    3    3  501    0 -0.28087922902E+02  0.52401223357E+02 -0.71799376318E+02  0.93338416860E+02  0.47000000000E+01 0. -1.
        -11    1    4    4    0    0  0.17927906369E+01  0.60460481318E+01  0.16677317459E+00  0.63084554030E+01  0.00000000000E+00 0.  1.
         12    1    4    4    0    0  0.23865916886E+02 -0.63728834712E+02 -0.33278146007E+03  0.33966814176E+03  0.00000000000E+00 0. -1.
         -5    1    5    5    0  502  0.86606259754E+01  0.29109377558E+02 -0.28423509403E+03  0.28589165951E+03  0.47000000000E+01 0.  1.
         11    1    6    6    0    0  0.32662886735E+02  0.64617518241E+01 -0.34569000709E+02  0.47996189605E+02  0.00000000000E+00 0. -1.
        -12    1    6    6    0    0 -0.38894297331E+02 -0.30289566159E+02 -0.36649715760E+02  0.61428217037E+02  0.00000000000E+00 0.  1.
</event>
<event>
12    1  0.1040325E-001  0.2229517E+03  0.7818608E-02  0.1131870E+00
         21   -1    0    0  501  502  0.00000000000E+00  0.00000000000E+00  0.13665880983E+04  0.13665880983E+04  0.00000000000E+00 0.  1.
         21   -1    0    0  502  503 -0.00000000000E+00 -0.00000000000E+00 -0.36474973486E+02  0.36474973486E+02  0.00000000000E+00 0.  1.
         -6    2    1    2    0  503 -0.13868584241E+03 -0.23544163193E+02  0.72187184060E+03  0.75524757494E+03  0.17179014722E+03 0.  0.
        -24    2    3    3    0    0 -0.10040582317E+03 -0.69623730362E+02  0.35293691083E+03  0.38145116138E+03  0.77535361818E+02 0.  0.
          6    2    1    2  501    0  0.13868584241E+03  0.23544163193E+02  0.60824128423E+03  0.64781549687E+03  0.17297215856E+03 0.  0.
         24    2    5    5    0    0  0.64199777028E+02 -0.36077121981E+02  0.20138745913E+03  0.22989804500E+03  0.82903753219E+02 0.  0.
          5    1    5    5  501    0  0.74486065380E+02  0.59621285175E+02  0.40685382510E+03  0.41791745187E+03  0.47000000000E+01 0. -1.
        -13    1    6    6    0    0 -0.31331913553E+01 -0.73019128736E+01 -0.60042932506E+01  0.99592347659E+01  0.00000000000E+00 0.  1.
         14    1    6    6    0    0  0.67332968383E+02 -0.28775209108E+02  0.20739175238E+03  0.21993881023E+03  0.00000000000E+00 0. -1.
         -5    1    3    3    0  503 -0.38280019242E+02  0.46079567169E+02  0.36893492977E+03  0.37379641356E+03  0.47000000000E+01 0.  1.
         11    1    4    4    0    0 -0.14368578926E+02 -0.45023534374E+02  0.18748963379E+03  0.19335443488E+03  0.00000000000E+00 0. -1.
        -12    1    4    4    0    0 -0.86037244240E+02 -0.24600195989E+02  0.16544727704E+03  0.18809672650E+03  0.00000000000E+00 0.  1.
</event>
<event>
12    1  0.1040325E-001  0.2491356E+03  0.7818608E-02  0.1113983E+00
         21   -1    0    0  503  502  0.00000000000E+00  0.00000000000E+00  0.13673516405E+03  0.13673516405E+03  0.00000000000E+00 0. -1.
         21   -1    0    0  501  503 -0.00000000000E+00 -0.00000000000E+00 -0.55919458452E+03  0.55919458452E+03  0.00000000000E+00 0. -1.
          6    2    1    2  501    0  0.17899794273E+03  0.78433633503E+01 -0.36298665313E+03  0.43979392004E+03  0.17192323840E+03 0.  0.
         24    2    3    3    0    0  0.89126645550E+02  0.55911236861E+02 -0.12802100233E+03  0.18363319397E+03  0.79133731983E+02 0.  0.
         -6    2    1    2    0  502 -0.17899794273E+03 -0.78433633503E+01 -0.59472767338E+02  0.25613582853E+03  0.17310912960E+03 0.  0.
        -24    2    5    5    0    0 -0.20567834555E+03 -0.33316007069E+01 -0.59720388005E+02  0.22867037364E+03  0.80055815812E+02 0.  0.
          5    1    3    3  501    0  0.89871297184E+02 -0.48067873511E+02 -0.23496565081E+03  0.25616072607E+03  0.47000000000E+01 0. -1.
        -13    1    4    4    0    0 -0.60044286901E+01 -0.10126414552E+02 -0.28878801331E+02  0.31186256619E+02  0.00000000000E+00 0.  1.
         14    1    4    4    0    0  0.95131074241E+02  0.66037651413E+02 -0.99142200996E+02  0.15244693735E+03  0.00000000000E+00 0. -1.
         -5    1    5    5    0  502  0.26680402816E+02 -0.45117626434E+01  0.24762066686E+00  0.27465454895E+02  0.47000000000E+01 0.  1.
         13    1    6    6    0    0 -0.77809561191E+02 -0.40025683717E+02 -0.18899588263E+02  0.89518588049E+02  0.00000000000E+00 0. -1.
        -14    1    6    6    0    0 -0.12786878436E+03  0.36694083010E+02 -0.40820799742E+02  0.13915178559E+03  0.00000000000E+00 0.  1.
</event>
<event>
12    1  0.1040325E-001  0.1729769E+03  0.7818608E-02  0.1174805E+00
         21   -1    0    0  501  502  0.00000000000E+00  0.00000000000E+00  0.60151894971E+03  0.60151894971E+03  0.00000000000E+00 0. -1.
         21   -1    0    0  502  503 -0.00000000000E+00 -0.00000000000E+00 -0.78184481975E+02  0.78184481975E+02  0.00000000000E+00 0. -1.
         -6    2    1    2    0  503 -0.19347863204E+02  0.66499915028E+01  0.56630571641E+02  0.18201107732E+03  0.17176276786E+03 0.  0.
        -24    2    3    3    0    0  0.25451377822E+02 -0.27991641799E+02  0.81767657442E+02  0.11987431013E+03  0.79073356959E+02 0.  0.
          6    2    1    2  501    0  0.19347863204E+02 -0.66499915028E+01  0.46670389609E+03  0.49769235437E+03  0.17165835479E+03 0.  0.
         24    2    5    5    0    0  0.66053463446E+02 -0.40175186578E+02  0.25963442719E+03  0.28273839011E+03  0.80955888047E+02 0.  0.
          5    1    5    5  501    0 -0.46705600242E+02  0.33525195075E+02  0.20706946890E+03  0.21495396426E+03  0.47000000000E+01 0. -1.
        -11    1    6    6    0    0  0.41582713616E+01  0.35398672259E+01 -0.50393886624E+01  0.74308356721E+01  0.00000000000E+00 0.  1.
         12    1    6    6    0    0  0.61895192084E+02 -0.43715053804E+02  0.26467381586E+03  0.27530755444E+03  0.00000000000E+00 0. -1.
         -5    1    3    3    0  503 -0.44799241026E+02  0.34641633302E+02 -0.25137085801E+02  0.62136767191E+02  0.47000000000E+01 0.  1.
         13    1    4    4    0    0  0.30889575712E+02  0.12667961640E+02  0.69425800542E+02  0.77036257183E+02  0.00000000000E+00 0. -1.
        -14    1    4    4    0    0 -0.54381978901E+01 -0.40659603440E+02  0.12341856900E+02  0.42838052943E+02  0.00000000000E+00 0.  1.
</event>
<event>
12    1  0.1040325E-001  0.1869638E+03  0.7818608E-02  0.1161345E+00
         21   -1    0    0  503  502  0.00000000000E+00  0.00000000000E+00  0.13189623538E+03  0.13189623538E+03  0.00000000000E+00 0.  1.
         21   -1    0    0  501  503 -0.00000000000E+00 -0.00000000000E+00 -0.35371629285E+03  0.35371629285E+03  0.00000000000E+00 0. -1.
          6    2    1    2  501    0 -0.43589283664E+01 -0.66342054715E+02 -0.23309790252E+03  0.29881448674E+03  0.17474323119E+03 0.  0.
         24    2    3    3    0    0 -0.54293330081E+02 -0.35901099993E+02 -0.70694720963E+02  0.12613854870E+03  0.81710068073E+02 0.  0.
         -6    2    1    2    0  502  0.43589283664E+01  0.66342054715E+02  0.11277845054E+02  0.18679804149E+03  0.17420117690E+03 0.  0.
        -24    2    5    5    0    0 -0.19762749678E+02  0.95802459297E+02  0.47413491286E+02  0.13409466666E+03  0.78515367849E+02 0.  0.
          5    1    3    3  501    0  0.49934401714E+02 -0.30440954722E+02 -0.16240318155E+03  0.17267593804E+03  0.47000000000E+01 0. -1.
        -13    1    4    4    0    0 -0.86084959600E+00 -0.42764973867E+02 -0.80651150206E+01  0.43527349244E+02  0.00000000000E+00 0.  1.
         14    1    4    4    0    0 -0.53432480485E+02  0.68638738748E+01 -0.62629605943E+02  0.82611199458E+02  0.00000000000E+00 0. -1.
         -5    1    5    5    0  502  0.24121678044E+02 -0.29460404583E+02 -0.36135646232E+02  0.52703374830E+02  0.47000000000E+01 0.  1.
         11    1    6    6    0    0  0.12824183712E+02  0.31311896730E-01 -0.11330234717E+02  0.17112419088E+02  0.00000000000E+00 0. -1.
        -12    1    6    6    0    0 -0.32586933389E+02  0.95771147401E+02  0.58743726003E+02  0.11698224757E+03  0.00000000000E+00 0.  1.
</event>
<event>
12    1  0.1040325E-001  0.1763029E+03  0.7818608E-02  0.1171567E+00
         21   -1    0    0  501  502  0.00000000000E+00  0.00000000000E+00  0.61149000806E+03  0.61149000806E+03  0.00000000000E+00 0. -1.
         21   -1    0    0  502  503 -0.00000000000E+00 -0.00000000000E+00 -0.73500566790E+02  0.73500566790E+02  0.00000000000E+00 0. -1.
         -6    2    1    2    0  503  0.84463313598E+01 -0.34011721742E+02  0.77830671074E+02  0.19221395280E+03  0.17222210242E+03 0.  0.
        -24    2    3    3    0    0  0.17040991425E+02 -0.88484163469E+02  0.54597783055E+02  0.13218918978E+03  0.79832458359E+02 0.  0.
          6    2    1    2  501    0 -0.84463313598E+01  0.34011721742E+02  0.46015877019E+03  0.49277662205E+03  0.17278474390E+03 0.  0.
         24    2    5    5    0    0 -0.23937351179E+02 -0.30692896344E+02  0.14715894934E+03  0.17274906519E+03  0.81678837437E+02 0.  0.
          5    1    5    5  501    0  0.15491019819E+02  0.64704618086E+02  0.31299982085E+03  0.32002755686E+03  0.47000000000E+01 0. -1.
        -13    1    6    6    0    0 -0.29182901812E+01  0.14841006105E+02 -0.21181041620E+01  0.15272794278E+02  0.00000000000E+00 0.  1.
         14    1    6    6    0    0 -0.21019060997E+02 -0.45533902449E+02  0.14927705351E+03  0.15747627091E+03  0.00000000000E+00 0. -1.
         -5    1    3    3    0  503 -0.85946600648E+01  0.54472441727E+02  0.23232888020E+02  0.60024763016E+02  0.47000000000E+01 0.  1.
         11    1    4    4    0    0 -0.26481244925E+02 -0.61274539346E+02  0.43501436487E+02  0.79675595268E+02  0.00000000000E+00 0. -1.
        -12    1    4    4    0    0  0.43522236350E+02 -0.27209624123E+02  0.11096346568E+02  0.52513594516E+02  0.00000000000E+00 0.  1.
</event>
<event>
12    1  0.1040325E-001  0.2024419E+03  0.7818608E-02  0.1147937E+00
         21   -1    0    0  501  502  0.00000000000E+00  0.00000000000E+00  0.10048646169E+04  0.10048646169E+04  0.00000000000E+00 0. -1.
         21   -1    0    0  502  503 -0.00000000000E+00 -0.00000000000E+00 -0.63828382217E+02  0.63828382217E+02  0.00000000000E+00 0.  1.
         -6    2    1    2    0  503  0.94749756835E+02  0.44579554848E+02  0.14868777667E+03  0.25117876597E+03  0.17325664319E+03 0.  0.
        -24    2    3    3    0    0  0.13611368668E+02  0.52581674524E+02  0.13869834910E+03  0.16890270252E+03  0.79629071459E+02 0.  0.
          6    2    1    2  501    0 -0.94749756835E+02 -0.44579554848E+02  0.79234845803E+03  0.81751423316E+03  0.17189703127E+03 0.  0.
         24    2    5    5    0    0 -0.13290687156E+03 -0.21743291473E+02  0.63200562016E+03  0.65105289836E+03  0.79383659008E+02 0.  0.
          5    1    5    5  501    0  0.38157114729E+02 -0.22836263375E+02  0.16034283786E+03  0.16646133480E+03  0.47000000000E+01 0. -1.
        -11    1    6    6    0    0 -0.18450540711E+02 -0.31278761620E+02  0.90762151018E+02  0.97757615757E+02  0.00000000000E+00 0.  1.
         12    1    6    6    0    0 -0.11445633085E+03  0.95354701478E+01  0.54124346914E+03  0.55329528261E+03  0.00000000000E+00 0. -1.
         -5    1    3    3    0  503  0.81138388167E+02 -0.80021196760E+01  0.99894275692E+01  0.82276063450E+02  0.47000000000E+01 0.  1.
         11    1    4    4    0    0  0.34946916533E+02 -0.22548829914E+01  0.71281338267E+02  0.79419145409E+02  0.00000000000E+00 0. -1.
        -12    1    4    4    0    0 -0.21335547865E+02  0.54836557515E+02  0.67417010833E+02  0.89483557107E+02  0.00000000000E+00 0.  1.
</event>
<event>
12    1  0.1040325E-001  0.2056767E+03  0.7818608E-02  0.1146142E+00
         21   -1    0    0  501  502  0.00000000000E+00  0.00000000000E+00  0.11605836695E+04  0.11605836695E+04  0.00000000000E+00 0. -1.
         21   -1    0    0  502  503 -0.00000000000E+00 -0.00000000000E+00 -0.51274559692E+02  0.51274559692E+02  0.00000000000E+00 0. -1.
         -6    2    1    2    0  503  0.94967851480E+02 -0.59502899872E+02  0.22372171993E+03  0.30389852728E+03  0.17246280470E+03 0.  0.
        -24    2    3    3    0    0  0.57327892834E+01  0.21991710162E+02  0.10698741408E+03  0.13581147855E+03  0.80510562934E+02 0.  0.
          6    2    1    2  501    0 -0.94967851480E+02  0.59502899872E+02  0.88558738992E+03  0.90795970196E+03  0.16603104312E+03 0.  0.
         24    2    5    5    0    0 -0.42443458468E+02  0.19880146982E+01  0.70459195542E+03  0.71086020629E+03  0.84065509494E+02 0.  0.
          5    1    5    5  501    0 -0.52524393012E+02  0.57514885174E+02  0.18099543451E+03  0.19709949566E+03  0.47000000000E+01 0. -1.
        -11    1    6    6    0    0  0.16677887377E+02  0.21168381508E+02  0.12083639632E+03  0.12380503616E+03  0.00000000000E+00 0.  1.
         12    1    6    6    0    0 -0.59121345845E+02 -0.19180366810E+02  0.58375555910E+03  0.58705517014E+03  0.00000000000E+00 0. -1.
         -5    1    3    3    0  503  0.89235062197E+02 -0.81494610034E+02  0.11673430584E+03  0.16808704873E+03  0.47000000000E+01 0.  1.
         13    1    4    4    0    0  0.33232035852E+02  0.25803550511E+02  0.24297571961E+02  0.48585629862E+02  0.00000000000E+00 0. -1.
        -14    1    4    4    0    0 -0.27499246568E+02 -0.38118403494E+01  0.82689842122E+02  0.87225848685E+02  0.00000000000E+00 0.  1.
</event>
<event>
12    1  0.1040325E-001  0.1776729E+03  0.7818608E-02  0.1170555E+00
         21   -1    0    0  501  502  0.00000000000E+00  0.00000000000E+00  0.23922428820E+04  0.23922428820E+04  0.00000000000E+00 0.  1.
         21   -1    0    0  502  503 -0.00000000000E+00 -0.00000000000E+00 -0.18562241957E+02  0.18562241957E+02  0.00000000000E+00 0.  1.
         -6    2    1    2    0  503  0.26650766084E+02 -0.24758292055E+02  0.53467948364E+03  0.56342685907E+03  0.17390928362E+03 0.  0.
        -24    2    3    3    0    0  0.30963207374E+02 -0.82718437086E+02  0.34274973359E+03  0.36283499852E+03  0.79817267748E+02 0.  0.
          6    2    1    2  501    0 -0.26650766084E+02  0.24758292055E+02  0.18390011564E+04  0.18473782648E+04  0.17192429726E+03 0.  0.
         24    2    5    5    0    0  0.45283291991E+02  0.11704006530E+02  0.12980599172E+04  0.13014987568E+04  0.82169976360E+02 0.  0.
          5    1    5    5  501    0 -0.71934058075E+02  0.13054285525E+02  0.54094123912E+03  0.54587950801E+03  0.47000000000E+01 0. -1.
        -13    1    6    6    0    0  0.53033409366E+01  0.36061666366E+02  0.89280126205E+03  0.89354499759E+03  0.00000000000E+00 0.  1.
         14    1    6    6    0    0  0.39979951054E+02 -0.24357659836E+02  0.40525865518E+03  0.40795375924E+03  0.00000000000E+00 0. -1.
         -5    1    3    3    0  503 -0.43124412898E+01  0.57960145031E+02  0.19192975005E+03  0.20059186055E+03  0.47000000000E+01 0.  1.
         13    1    4    4    0    0 -0.66538608563E+01 -0.44506566025E+02  0.59753622182E+02  0.74803767602E+02  0.00000000000E+00 0. -1.
        -14    1    4    4    0    0  0.37617068230E+02 -0.38211871060E+02  0.28299611141E+03  0.28803123092E+03  0.00000000000E+00 0.  1.
</event>
<event>
12    1  0.1040325E-001  0.1839461E+03  0.7818608E-02  0.1164785E+00
         21   -1    0    0  501  502  0.00000000000E+00  0.00000000000E+00  0.26070252213E+03  0.26070252213E+03  0.00000000000E+00 0. -1.
         21   -1    0    0  502  503 -0.00000000000E+00 -0.00000000000E+00 -0.16413255231E+03  0.16413255231E+03  0.00000000000E+00 0. -1.
         -6    2    1    2    0  503  0.48935793548E+02 -0.20562244191E+02  0.14885482765E+03  0.23663037129E+03  0.17612113765E+03 0.  0.
        -24    2    3    3    0    0  0.80359621531E+01  0.62598710933E+01  0.16601772978E+03  0.18458349544E+03  0.80033852306E+02 0.  0.
          6    2    1    2  501    0 -0.48935793548E+02  0.20562244191E+02 -0.52284857832E+02  0.18820470315E+03  0.17282877698E+03 0.  0.
         24    2    5    5    0    0 -0.10093059640E+03  0.20307960815E+02 -0.37400208503E+02  0.13391688712E+03  0.77042575885E+02 0.  0.
          5    1    5    5  501    0  0.51994802850E+02  0.25428337528E+00 -0.14884649329E+02  0.54287816028E+02  0.47000000000E+01 0. -1.
        -13    1    6    6    0    0 -0.29609882092E+02  0.44211299244E+02 -0.12236069955E+02  0.54599500971E+02  0.00000000000E+00 0.  1.
         14    1    6    6    0    0 -0.71320714306E+02 -0.23903338429E+02 -0.25164138548E+02  0.79317386152E+02  0.00000000000E+00 0. -1.
         -5    1    3    3    0  503  0.40899831395E+02 -0.26822115284E+02 -0.17162902126E+02  0.52046875851E+02  0.47000000000E+01 0.  1.
         13    1    4    4    0    0 -0.30200521051E+01 -0.34798325761E+02  0.10124743636E+03  0.10710316316E+03  0.00000000000E+00 0. -1.
        -14    1    4    4    0    0  0.11056014258E+02  0.41058196854E+02  0.64770293417E+02  0.77480332275E+02  0.00000000000E+00 0.  1.
</event>
<event>
12    1  0.1040325E-001  0.1738985E+03  0.7818608E-02  0.1174151E+00
         21   -1    0    0  501  502  0.00000000000E+00  0.00000000000E+00  0.10054573640E+04  0.10054573640E+04  0.00000000000E+00 0.  1.
         21   -1    0    0  502  503 -0.00000000000E+00 -0.00000000000E+00 -0.32471582754E+02  0.32471582754E+02  0.00000000000E+00 0.  1.
         -6    2    1    2    0  503  0.17183039931E+02  0.19622950969E+02  0.63505938692E+03  0.65843838851E+03  0.17193129294E+03 0.  0.
        -24    2    3    3    0    0  0.17649847345E+02  0.66303797185E+02  0.56100191335E+03  0.57076901699E+03  0.79664379367E+02 0.  0.
          6    2    1    2  501    0 -0.17183039931E+02 -0.19622950969E+02  0.33792639433E+03  0.37949055824E+03  0.17070008419E+03 0.  0.
         24    2    5    5    0    0 -0.51201804232E+02  0.26724903178E+02  0.28477058254E+03  0.30104930484E+03  0.78743596913E+02 0.  0.
          5    1    5    5  501    0  0.34018764300E+02 -0.46347854147E+02  0.53155811785E+02  0.78441253401E+02  0.47000000000E+01 0. -1.
        -11    1    6    6    0    0  0.95407814478E+01  0.14708593835E+02  0.16768471853E+03  0.16859873686E+03  0.00000000000E+00 0.  1.
         12    1    6    6    0    0 -0.60742585680E+02  0.12016309343E+02  0.11708586402E+03  0.13245056798E+03  0.00000000000E+00 0. -1.
         -5    1    3    3    0  503 -0.46680741408E+00 -0.46680846216E+02  0.74057473569E+02  0.87669371527E+02  0.47000000000E+01 0.  1.
         11    1    4    4    0    0 -0.55475095256E+01  0.76949572357E+02  0.36147704868E+03  0.36961827373E+03  0.00000000000E+00 0. -1.
        -12    1    4    4    0    0  0.23197356871E+02 -0.10645775172E+02  0.19952486466E+03  0.20115074326E+03  0.00000000000E+00 0.  1.
</event>
<event>
12    1  0.1040325E-001  0.2292805E+03  0.7818608E-02  0.1127484E+00
         21   -1    0    0  501  502  0.00000000000E+00  0.00000000000E+00  0.38337478123E+02  0.38337478123E+02  0.00000000000E+00 0.  1.
         21   -1    0    0  502  503 -0.00000000000E+00 -0.00000000000E+00 -0.17185261318E+04  0.17185261318E+04  0.00000000000E+00 0. -1.
         -6    2    1    2    0  503  0.91272827259E+02  0.12284305015E+03 -0.12386042323E+04  0.12593031958E+04  0.16817535672E+03 0.  0.
        -24    2    3    3    0    0  0.60876881793E+02  0.11026955680E+03 -0.11960923152E+04  0.12053461821E+04  0.79732190032E+02 0.  0.
          6    2    1    2  501    0 -0.91272827259E+02 -0.12284305015E+03 -0.44158442140E+03  0.49756041419E+03  0.17072908533E+03 0.  0.
         24    2    5    5    0    0 -0.16686761363E+02  0.37726903723E+01 -0.17325463487E+03  0.19159049522E+03  0.79981673890E+02 0.  0.
          5    1    5    5  501    0 -0.74586065896E+02 -0.12661574052E+03 -0.26832978654E+03  0.30596991897E+03  0.47000000000E+01 0. -1.
        -11    1    6    6    0    0  0.14703169823E+02  0.31239897372E+02 -0.44973468832E+02  0.56698565144E+02  0.00000000000E+00 0.  1.
         12    1    6    6    0    0 -0.31389931186E+02 -0.27467206999E+02 -0.12828116604E+03  0.13489193008E+03  0.00000000000E+00 0. -1.
         -5    1    3    3    0  503  0.30395945465E+02  0.12573493344E+02 -0.42511917072E+02  0.53957013712E+02  0.47000000000E+01 0.  1.
         11    1    4    4    0    0  0.57131773570E+02  0.31308560703E+02 -0.69629170425E+03  0.69933282700E+03  0.00000000000E+00 0. -1.
        -12    1    4    4    0    0  0.37451082235E+01  0.78960996100E+02 -0.49980061099E+03  0.50601335505E+03  0.00000000000E+00 0.  1.
</event>
<event>
12    1  0.1040325E-001  0.2167906E+03  0.7818608E-02  0.1136389E+00
         21   -1    0    0  501  502  0.00000000000E+00  0.00000000000E+00  0.56934747034E+03  0.56934747034E+03  0.00000000000E+00 0. -1.
         21   -1    0    0  502  503 -0.00000000000E+00 -0.00000000000E+00 -0.97105304692E+02  0.97105304692E+02  0.00000000000E+00 0.  1.
         -6    2    1    2    0  503 -0.10410537135E+03 -0.78938194735E+02  0.10608165482E+03  0.24092757420E+03  0.17240536995E+03 0.  0.
        -24    2    3    3    0    0 -0.52096073692E+02 -0.92631411381E+02  0.25845750885E+02  0.14421996589E+03  0.94004342743E+02 0.  0.
          6    2    1    2  501    0  0.10410537135E+03  0.78938194735E+02  0.36616051083E+03  0.42552520083E+03  0.17300002866E+03 0.  0.
         24    2    5    5    0    0  0.13027850647E+03  0.55751805663E+02  0.21322977340E+03  0.26857762331E+03  0.81155716940E+02 0.  0.
          5    1    5    5  501    0 -0.26173135121E+02  0.23186389073E+02  0.15293073742E+03  0.15694757752E+03  0.47000000000E+01 0. -1.
        -13    1    6    6    0    0 -0.23406407378E+01  0.87826805997E+01 -0.38681551386E+01  0.98780920099E+01  0.00000000000E+00 0.  1.
         14    1    6    6    0    0  0.13261914721E+03  0.46969125063E+02  0.21709792854E+03  0.25869953130E+03  0.00000000000E+00 0. -1.
         -5    1    3    3    0  503 -0.52009297660E+02  0.13693216646E+02  0.80235903931E+02  0.96707608309E+02  0.47000000000E+01 0.  1.
         13    1    4    4    0    0 -0.35274017394E+02 -0.50672205429E+02  0.61122686944E+02  0.86878717563E+02  0.00000000000E+00 0. -1.
        -14    1    4    4    0    0 -0.16822056298E+02 -0.41959205952E+02 -0.35276936059E+02  0.57341248329E+02  0.00000000000E+00 0.  1.
</event>
<event>
12    1  0.1040325E-001  0.1962845E+03  0.7818608E-02  0.1154250E+00
         21   -1    0    0  503  502  0.00000000000E+00  0.00000000000E+00  0.18212117337E+03  0.18212117337E+03  0.00000000000E+00 0. -1.
         21   -1    0    0  501  503 -0.00000000000E+00 -0.00000000000E+00 -0.37767432051E+03  0.37767432051E+03  0.00000000000E+00 0. -1.
          6    2    1    2  501    0 -0.85809164196E+02  0.22402375133E+02 -0.28783415925E+03  0.34839072339E+03  0.17510714960E+03 0.  0.
         24    2    3    3    0    0 -0.58420226744E+02 -0.54099864047E+02 -0.14673077143E+03  0.18549504343E+03  0.80862684041E+02 0.  0.
         -6    2    1    2    0  502  0.85809164196E+02 -0.22402375133E+02  0.92281012118E+02  0.21140477048E+03  0.16825906429E+03 0.  0.
        -24    2    5    5    0    0  0.84109615074E+02  0.32003818767E+02  0.52212516579E+02  0.14365156586E+03  0.99050258573E+02 0.  0.
          5    1    3    3  501    0 -0.27388937451E+02  0.76502239180E+02 -0.14110338782E+03  0.16289567996E+03  0.47000000000E+01 0. -1.
        -13    1    4    4    0    0  0.12667468768E+01 -0.72353263277E+01  0.93817933098E+01  0.11915227250E+02  0.00000000000E+00 0.  1.
         14    1    4    4    0    0 -0.59686973621E+02 -0.46864537719E+02 -0.15611256474E+03  0.17357981618E+03  0.00000000000E+00 0. -1.
         -5    1    5    5    0  502  0.16995491220E+01 -0.54406193900E+02  0.40068495538E+02  0.67753204622E+02  0.47000000000E+01 0.  1.
         11    1    6    6    0    0  0.38720033403E+02  0.65351522232E+01  0.76672988558E+02  0.86143463918E+02  0.00000000000E+00 0. -1.
        -12    1    6    6    0    0  0.45389581670E+02  0.25468666544E+02 -0.24460471979E+02  0.57508101944E+02  0.00000000000E+00 0.  1.
</event>
<event>
12    1  0.1040325E-001  0.1820388E+03  0.7818608E-02  0.1165905E+00
         21   -1    0    0  503  502  0.00000000000E+00  0.00000000000E+00  0.45331306870E+03  0.45331306870E+03  0.00000000000E+00 0.  1.
         21   -1    0    0  501  503 -0.00000000000E+00 -0.00000000000E+00 -0.86026601364E+02  0.86026601364E+02  0.00000000000E+00 0.  1.
          6    2    1    2  501    0  0.50990773320E+02 -0.30670357028E+02  0.78814407456E+02  0.19836794672E+03  0.17203895402E+03 0.  0.
         24    2    3    3    0    0  0.88113198013E+02 -0.38543119784E+01  0.15483477926E+02  0.12007317472E+03  0.79993986115E+02 0.  0.
         -6    2    1    2    0  502 -0.50990773320E+02  0.30670357028E+02  0.28847205988E+03  0.34097172334E+03  0.17176977913E+03 0.  0.
        -24    2    5    5    0    0  0.37744509376E+02  0.23311340200E+02  0.16892830767E+03  0.19183787669E+03  0.79353205556E+02 0.  0.
          5    1    3    3  501    0 -0.37122424694E+02 -0.26816045049E+02  0.63330929530E+02  0.78294771999E+02  0.47000000000E+01 0. -1.
        -11    1    4    4    0    0  0.92476452083E+02 -0.21695520210E+02 -0.15837856396E+01  0.95000516651E+02  0.00000000000E+00 0.  1.
         12    1    4    4    0    0 -0.43632540691E+01  0.17841208231E+02  0.17067263566E+02  0.25072658073E+02  0.00000000000E+00 0. -1.
         -5    1    5    5    0  502 -0.88735282695E+02  0.73590168276E+01  0.11954375221E+03  0.14913384665E+03  0.47000000000E+01 0.  1.
         13    1    6    6    0    0  0.24683899109E+02 -0.59350801721E+01  0.63975661735E+01  0.26181079137E+02  0.00000000000E+00 0. -1.
        -14    1    6    6    0    0  0.13060610267E+02  0.29246420372E+02  0.16253074149E+03  0.16565679755E+03  0.00000000000E+00 0.  1.
</event>
<event>
12    1  0.1040325E-001  0.2299537E+03  0.7818608E-02  0.1127129E+00
         21   -1    0    0  503  502  0.00000000000E+00  0.00000000000E+00  0.14073858934E+04  0.14073858934E+04  0.00000000000E+00 0.  1.
         21   -1    0    0  501  503 -0.00000000000E+00 -0.00000000000E+00 -0.46876212843E+02  0.46876212843E+02  0.00000000000E+00 0.  1.
          6    2    1    2  501    0  0.54978132439E+02 -0.13823582865E+03  0.34603891522E+03  0.41405556319E+03  0.17195156060E+03 0.  0.
         24    2    3    3    0    0  0.18508139514E+02 -0.16109015522E+03  0.30353017177E+03  0.35338049503E+03  0.80340648202E+02 0.  0.
         -6    2    1    2    0  502 -0.54978132439E+02  0.13823582865E+03  0.10144707654E+04  0.10402065431E+04  0.17534816542E+03 0.  0.
        -24    2    5    5    0    0 -0.83519576832E+02  0.13768015401E+03  0.97409271952E+03  0.99053361878E+03  0.79805257865E+02 0.  0.
          5    1    3    3  501    0  0.36469992924E+02  0.22854326573E+02  0.42508743452E+02  0.60675068165E+02  0.47000000000E+01 0. -1.
        -13    1    4    4    0    0  0.25631014132E+02 -0.10003716986E+03  0.25482889941E+03  0.27495845543E+03  0.00000000000E+00 0.  1.
         14    1    4    4    0    0 -0.71228746181E+01 -0.61052985366E+02  0.48701272357E+02  0.78422039594E+02  0.00000000000E+00 0. -1.
         -5    1    5    5    0  502  0.28541444393E+02  0.55567464049E+00  0.40378045834E+02  0.49672924292E+02  0.47000000000E+01 0.  1.
         11    1    6    6    0    0 -0.59813460182E+02  0.26723926523E+02  0.31408094634E+03  0.32084055093E+03  0.00000000000E+00 0. -1.
        -12    1    6    6    0    0 -0.23706116649E+02  0.11095622749E+03  0.66001177318E+03  0.66969306784E+03  0.00000000000E+00 0.  1.
</event>
<event>
12    1  0.1040325E-001  0.1796116E+03  0.7818608E-02  0.1168624E+00
         21   -1    0    0  501  502  0.00000000000E+00  0.00000000000E+00  0.35040322691E+02  0.35040322691E+02  0.00000000000E+00 0.  1.
         21   -1    0    0  502  503 -0.00000000000E+00 -0.00000000000E+00 -0.91259908149E+03  0.91259908149E+03  0.00000000000E+00 0.  1.
         -6    2    1    2    0  503  0.46390599598E+02  0.14348910234E+02 -0.42352080169E+03  0.46003283676E+03  0.17292299580E+03 0.  0.
        -24    2    3    3    0    0 -0.17561376989E+02  0.38659401897E+02 -0.33810078081E+03  0.35049049206E+03  0.82027408385E+02 0.  0.
          6    2    1    2  501    0 -0.46390599598E+02 -0.14348910234E+02 -0.45403795712E+03  0.48760656743E+03  0.17103133964E+03 0.  0.
         24    2    5    5    0    0 -0.52190508464E+02  0.54070227555E+02 -0.28984833626E+03  0.30957528098E+03  0.78596169607E+02 0.  0.
          5    1    5    5  501    0  0.57999088658E+01 -0.68419137790E+02 -0.16418962085E+03  0.17803128645E+03  0.47000000000E+01 0. -1.
        -13    1    6    6    0    0 -0.57574489872E+02  0.15526685818E+02 -0.23417412841E+03  0.24164730967E+03  0.00000000000E+00 0.  1.
         14    1    6    6    0    0  0.53839814083E+01  0.38543541737E+02 -0.55674207857E+02  0.67927971307E+02  0.00000000000E+00 0. -1.
         -5    1    3    3    0  503  0.63951976587E+02 -0.24310491663E+02 -0.85420020878E+02  0.10954234469E+03  0.47000000000E+01 0.  1.
         13    1    4    4    0    0 -0.23074386567E+02  0.68847648327E+01 -0.21590694645E+02  0.32341697505E+02  0.00000000000E+00 0. -1.
        -14    1    4    4    0    0  0.55130095788E+01  0.31774637064E+02 -0.31651008616E+03  0.31814879456E+03  0.00000000000E+00 0.  1.
</event>
<event>
12    1  0.1040325E-001  0.2008114E+03  0.7818608E-02  0.1149435E+00
         21   -1    0    0  501  502  0.00000000000E+00  0.00000000000E+00  0.10859919241E+03  0.10859919241E+03  0.00000000000E+00 0.  1.
         21   -1    0    0  502  503 -0.00000000000E+00 -0.00000000000E+00 -0.86067769574E+03  0.86067769574E+03  0.00000000000E+00 0.  1.
         -6    2    1    2    0  503 -0.97919382985E+02 -0.35788541109E+02 -0.74198581278E+03  0.76821201578E+03  0.16952206222E+03 0.  0.
        -24    2    3    3    0    0 -0.92007084752E+02  0.36375456949E+02 -0.50481360780E+03  0.52018914848E+03  0.77275442846E+02 0.  0.
          6    2    1    2  501    0  0.97919382985E+02  0.35788541109E+02 -0.10092690551E+02  0.20106487237E+03  0.17162807246E+03 0.  0.
         24    2    5    5    0    0  0.42865819023E+02 -0.44036923773E+02  0.11345340112E+02  0.10164314985E+03  0.80161612222E+02 0.  0.
          5    1    5    5  501    0  0.55053563962E+02  0.79825464882E+02 -0.21438030663E+02  0.99421722512E+02  0.47000000000E+01 0. -1.
        -11    1    6    6    0    0  0.27393701995E+02  0.17906250997E+02  0.18171035673E+02  0.37433077234E+02  0.00000000000E+00 0.  1.
         12    1    6    6    0    0  0.15472117029E+02 -0.61943174770E+02 -0.68256955613E+01  0.64210072620E+02  0.00000000000E+00 0. -1.
         -5    1    3    3    0  503 -0.59122982331E+01 -0.72163998058E+02 -0.23717220499E+03  0.24802286730E+03  0.47000000000E+01 0.  1.
         11    1    4    4    0    0 -0.55516216133E+02  0.47144060993E+02 -0.19698699391E+03  0.21002020976E+03  0.00000000000E+00 0. -1.
        -12    1    4    4    0    0 -0.36490868619E+02 -0.10768604045E+02 -0.30782661389E+03  0.31016893872E+03  0.00000000000E+00 0.  1.
</event>
<event>
12    1  0.1040325E-001  0.2108712E+03  0.7818608E-02  0.1141697E+00
         21   -1    0    0  503  502  0.00000000000E+00  0.00000000000E+00  0.76426829144E+02  0.76426829144E+02  0.00000000000E+00 0. -1.
         21   -1    0    0  501  503 -0.00000000000E+00 -0.00000000000E+00 -0.66491073571E+03  0.66491073571E+03  0.00000000000E+00 0.  1.
          6    2    1    2  501    0 -0.10443107334E+03  0.50117132538E+02 -0.43140915510E+03  0.47839432296E+03  0.17125914013E+03 0.  0.
         24    2    3    3    0    0  0.44495981022E+01 -0.84732446101E+01 -0.20732783138E+03  0.22242095998E+03  0.79966611656E+02 0.  0.
         -6    2    1    2    0  502  0.10443107334E+03 -0.50117132538E+02 -0.15707475146E+03  0.26294324190E+03  0.17620753349E+03 0.  0.
        -24    2    5    5    0    0  0.19992146589E+02  0.14214425619E+02 -0.12750445769E+03  0.15264830094E+03  0.80264445608E+02 0.  0.
          5    1    3    3  501    0 -0.10888067145E+03  0.58590377148E+02 -0.22408132372E+03  0.25597336297E+03  0.47000000000E+01 0. -1.
        -11    1    4    4    0    0 -0.35210535685E+01  0.34244218604E+02 -0.12058001458E+03  0.12539778404E+03  0.00000000000E+00 0.  1.
         12    1    4    4    0    0  0.79706516707E+01 -0.42717463214E+02 -0.86747816799E+02  0.97023175947E+02  0.00000000000E+00 0. -1.
         -5    1    5    5    0  502  0.84438926756E+02 -0.64331558156E+02 -0.29570293778E+02  0.11029494096E+03  0.47000000000E+01 0.  1.
         13    1    6    6    0    0 -0.20365591077E+02 -0.21154025576E+02 -0.56178709527E+02  0.63390042610E+02  0.00000000000E+00 0. -1.
        -14    1    6    6    0    0  0.40357737666E+02  0.35368451195E+02 -0.71325748160E+02  0.89258258329E+02  0.00000000000E+00 0.  1.
</event>
<event>
12    1  0.1040325E-001  0.1729457E+03  0.7818608E-02  0.1174988E+00
         21   -1    0    0  503  502  0.00000000000E+00  0.00000000000E+00  0.42309568206E+03  0.42309568206E+03  0.00000000000E+00 0. -1.
         21   -1    0    0  501  503 -0.00000000000E+00 -0.00000000000E+00 -0.85071393668E+03  0.85071393668E+03  0.00000000000E+00 0. -1.
          6    2    1    2  501    0 -0.26045708468E+01 -0.19663032345E+02 -0.82382358062E+03  0.84178114171E+03  0.17180448167E+03 0.  0.
         24    2    3    3    0    0 -0.36319690302E+02  0.41850042382E+02 -0.35076873363E+03  0.36353063632E+03  0.77751354340E+02 0.  0.
         -6    2    1    2    0  502  0.26045708468E+01  0.19663032345E+02  0.39620532600E+03  0.43202847703E+03  0.17110384562E+03 0.  0.
        -24    2    5    5    0    0  0.34298473738E+02 -0.38721444985E+02  0.15371333490E+03  0.18055739237E+03  0.79356455379E+02 0.  0.
          5    1    3    3  501    0  0.33715119455E+02 -0.61513074726E+02 -0.47305484699E+03  0.47825050539E+03  0.47000000000E+01 0. -1.
        -13    1    4    4    0    0 -0.45749038389E+01  0.38393736288E+02 -0.30659678272E+03  0.30902523506E+03  0.00000000000E+00 0.  1.
         14    1    4    4    0    0 -0.31744786463E+02  0.34563060933E+01 -0.44171950913E+02  0.54505401263E+02  0.00000000000E+00 0. -1.
         -5    1    5    5    0  502 -0.31693902891E+02  0.58384477330E+02  0.24249199110E+03  0.25147108466E+03  0.47000000000E+01 0.  1.
         13    1    6    6    0    0  0.20232143578E+02  0.25174829473E+01  0.12872305172E+03  0.13032766935E+03  0.00000000000E+00 0. -1.
        -14    1    6    6    0    0  0.14066330160E+02 -0.41238927933E+02  0.24990283182E+02  0.50229723020E+02  0.00000000000E+00 0.  1.
</event>
<event>
12    1  0.1040325E-001  0.2517584E+03  0.7818608E-02  0.1113693E+00
         21   -1    0    0  503  502  0.00000000000E+00  0.00000000000E+00  0.99912365310E+02  0.99912365310E+02  0.00000000000E+00 0. -1.
         21   -1    0    0  501  503 -0.00000000000E+00 -0.00000000000E+00 -0.62025661383E+03  0.62025661383E+03  0.00000000000E+00 0.  1.
          6    2    1    2  501    0 -0.98154999173E+02 -0.13784064157E+03 -0.21140878346E+03  0.32164240881E+03  0.17356762109E+03 0.  0.
         24    2    3    3    0    0 -0.19430267041E+02 -0.51583327380E+02 -0.22646170885E+02  0.99625919317E+02  0.79837959663E+02 0.  0.
         -6    2    1    2    0  502  0.98154999173E+02  0.13784064157E+03 -0.30893546506E+03  0.39852657033E+03  0.18640777708E+03 0.  0.
        -24    2    5    5    0    0  0.13529511149E+03  0.14654814054E+03 -0.26329577735E+03  0.33885849197E+03  0.75625964592E+02 0.  0.
          5    1    3    3  501    0 -0.78724732132E+02 -0.86257314190E+02 -0.18876261257E+03  0.22201648949E+03  0.47000000000E+01 0. -1.
        -13    1    4    4    0    0 -0.26838341446E+02 -0.16996243677E+02 -0.46965757181E+02  0.56700539842E+02  0.00000000000E+00 0.  1.
         14    1    4    4    0    0  0.74080744052E+01 -0.34587083703E+02  0.24319586296E+02  0.42925379475E+02  0.00000000000E+00 0. -1.
         -5    1    5    5    0  502 -0.37140112315E+02 -0.87074989686E+01 -0.45639687711E+02  0.59668078362E+02  0.47000000000E+01 0.  1.
         13    1    6    6    0    0  0.63016165014E+02  0.81419608962E+02 -0.76580853151E+02  0.12831530246E+03  0.00000000000E+00 0. -1.
        -14    1    6    6    0    0  0.72278946474E+02  0.65128531576E+02 -0.18671492420E+03  0.21054318950E+03  0.00000000000E+00 0.  1.
</event>
<event>
12    1  0.1040325E-001  0.2068764E+03  0.7818608E-02  0.1144364E+00
         21   -1    0    0  501  502  0.00000000000E+00  0.00000000000E+00  0.44188541281E+03  0.44188541281E+03  0.00000000000E+00 0. -1.
         21   -1    0    0  502  503 -0.00000000000E+00 -0.00000000000E+00 -0.10374106301E+03  0.10374106301E+03  0.00000000000E+00 0. -1.
         -6    2    1    2    0  503 -0.77450861629E+02  0.81113472497E+02  0.95888357849E+02  0.22801847865E+03  0.17383848264E+03 0.  0.
        -24    2    3    3    0    0  0.15153293729E+02  0.16617873001E+02  0.72489237464E+01  0.84441839805E+02  0.81068498199E+02 0.  0.
          6    2    1    2  501    0  0.77450861629E+02 -0.81113472497E+02  0.24225599194E+03  0.31760799717E+03  0.17207220242E+03 0.  0.
         24    2    5    5    0    0  0.94683342817E+02 -0.37629761722E+02  0.23770567338E+03  0.27037890751E+03  0.78865912151E+02 0.  0.
          5    1    5    5  501    0 -0.17232481189E+02 -0.43483710776E+02  0.45503185669E+01  0.47229089656E+02  0.47000000000E+01 0. -1.
        -11    1    6    6    0    0 -0.12492061189E+02 -0.99412750654E+01  0.16147803111E+02  0.22707533727E+02  0.00000000000E+00 0.  1.
         12    1    6    6    0    0  0.10717540401E+03 -0.27688486657E+02  0.22155787027E+03  0.24767137379E+03  0.00000000000E+00 0. -1.
         -5    1    3    3    0  503 -0.92604155358E+02  0.64495599496E+02  0.88639434103E+02  0.14357663885E+03  0.47000000000E+01 0.  1.
         11    1    4    4    0    0 -0.15282862074E+02  0.10226368782E+02 -0.30449177854E+02  0.35571012407E+02  0.00000000000E+00 0. -1.
        -12    1    4    4    0    0  0.30436155803E+02  0.63915042189E+01  0.37698101601E+02  0.48870827398E+02  0.00000000000E+00 0.  1.
</event>
<event>
12    1  0.1040325E-001  0.3117846E+03  0.7818608E-02  0.1079830E+00
         21   -1    0    0  501  502  0.00000000000E+00  0.00000000000E+00  0.45941482516E+02  0.45941482516E+02  0.00000000000E+00 0. -1.
         21   -1    0    0  502  503 -0.00000000000E+00 -0.00000000000E+00 -0.21584994377E+04  0.21584994377E+04  0.00000000000E+00 0. -1.
         -6    2    1    2    0  503  0.19887436191E+03  0.16648563291E+03 -0.12378364349E+04  0.12758143006E+04  0.16791251412E+03 0.  0.
        -24    2    3    3    0    0  0.18280224279E+03  0.92341660647E+02 -0.73101067852E+03  0.76332032121E+03  0.79609411518E+02 0.  0.
          6    2    1    2  501    0 -0.19887436191E+03 -0.16648563291E+03 -0.87472152031E+03  0.92862661959E+03  0.17303520660E+03 0.  0.
         24    2    5    5    0    0 -0.17249831840E+03 -0.19068895292E+03 -0.81627273409E+03  0.85992547708E+03  0.83980373290E+02 0.  0.
          5    1    5    5  501    0 -0.26376043507E+02  0.24203320014E+02 -0.58448786220E+02  0.68701142504E+02  0.47000000000E+01 0. -1.
        -13    1    6    6    0    0 -0.12723199098E+02 -0.36107105126E+02 -0.22511868411E+03  0.22835066186E+03  0.00000000000E+00 0.  1.
         14    1    6    6    0    0 -0.15977511930E+03 -0.15458184780E+03 -0.59115404998E+03  0.63157481522E+03  0.00000000000E+00 0. -1.
         -5    1    3    3    0  503  0.16072119114E+02  0.74143972264E+02 -0.50682575635E+03  0.51249397942E+03  0.47000000000E+01 0.  1.
         13    1    4    4    0    0  0.85390568210E+02  0.14954338936E+02 -0.20088562045E+03  0.21879262761E+03  0.00000000000E+00 0. -1.
        -14    1    4    4    0    0  0.97411674584E+02  0.77387321711E+02 -0.53012505806E+03  0.54452769360E+03  0.00000000000E+00 0.  1.
</event>
<event>
12    1  0.1040325E-001  0.1755979E+03  0.7818608E-02  0.1172462E+00
         21   -1    0    0  503  502  0.00000000000E+00  0.00000000000E+00  0.15939884014E+03  0.15939884014E+03  0.00000000000E+00 0.  1.
         21   -1    0    0  501  503 -0.00000000000E+00 -0.00000000000E+00 -0.40028329353E+03  0.40028329353E+03  0.00000000000E+00 0.  1.
          6    2    1    2  501    0  0.28893147025E+02  0.13716471264E+02 -0.32252092874E+03  0.36722523882E+03  0.17266056591E+03 0.  0.
         24    2    3    3    0    0  0.85334665449E+01  0.74259346885E+02 -0.16976406018E+03  0.20158494400E+03  0.78926439579E+02 0.  0.
         -6    2    1    2    0  502 -0.28893147025E+02 -0.13716471264E+02  0.81636475347E+02  0.19245689485E+03  0.17132479896E+03 0.  0.
        -24    2    5    5    0    0  0.34411990773E+02 -0.37687942024E+02  0.14726042185E+02  0.97161207915E+02  0.81356486662E+02 0.  0.
          5    1    3    3  501    0  0.20359680480E+02 -0.60542875621E+02 -0.15275686856E+03  0.16564029483E+03  0.47000000000E+01 0. -1.
        -11    1    4    4    0    0 -0.26238751562E+02  0.74958987691E+01 -0.79492508907E+02  0.84045937167E+02  0.00000000000E+00 0.  1.
         12    1    4    4    0    0  0.34772218107E+02  0.66763448116E+02 -0.90271551277E+02  0.11753900683E+03  0.00000000000E+00 0. -1.
         -5    1    5    5    0  502 -0.63305137798E+02  0.23971470760E+02  0.66910433162E+02  0.95295686932E+02  0.47000000000E+01 0.  1.
         11    1    6    6    0    0 -0.16242542062E+02  0.15287549935E+02  0.73966856321E+01  0.23499793914E+02  0.00000000000E+00 0. -1.
        -12    1    6    6    0    0  0.50654532835E+02 -0.52975491959E+02  0.73293565533E+01  0.73661414000E+02  0.00000000000E+00 0.  1.
</event>
<event>
12    1  0.1040325E-001  0.2076250E+03  0.7818608E-02  0.1143534E+00
         21   -1    0    0  501  502  0.00000000000E+00  0.00000000000E+00  0.19033784712E+04  0.19033784712E+04  0.00000000000E+00 0. -1.
         21   -1    0    0  502  503 -0.00000000000E+00 -0.00000000000E+00 -0.26036328284E+02  0.26036328284E+02  0.00000000000E+00 0. -1.
         -6    2    1    2    0  503 -0.10662753735E+02 -0.94338391735E+02  0.58935327781E+03  0.62485633314E+03  0.18464756843E+03 0.  0.
        -24    2    3    3    0    0 -0.62042488496E+02 -0.89806981365E+02  0.52572828878E+03  0.54281585500E+03  0.79650828856E+02 0.  0.
          6    2    1    2  501    0  0.10662753735E+02  0.94338391735E+02  0.12879888652E+04  0.13045584664E+04  0.18423910823E+03 0.  0.
         24    2    5    5    0    0 -0.58632670891E+02  0.27460424631E+02  0.83926780073E+03  0.84559528484E+03  0.80430587427E+02 0.  0.
          5    1    5    5  501    0  0.69295424626E+02  0.66877967104E+02  0.44872106442E+03  0.45896318155E+03  0.47000000000E+01 0. -1.
        -11    1    6    6    0    0  0.16300348840E+02  0.14142727620E+02  0.32623891593E+03  0.32695190530E+03  0.00000000000E+00 0.  1.
         12    1    6    6    0    0 -0.74933019731E+02  0.13317697011E+02  0.51302888480E+03  0.51864337954E+03  0.00000000000E+00 0. -1.
         -5    1    3    3    0  503  0.51379734761E+02 -0.45314103704E+01  0.63624989030E+02  0.82040478138E+02  0.47000000000E+01 0.  1.
         13    1    4    4    0    0  0.17129216338E+02 -0.33578865075E+02  0.16440307825E+03  0.16866926919E+03  0.00000000000E+00 0. -1.
        -14    1    4    4    0    0 -0.79171704834E+02 -0.56228116290E+02  0.36132521053E+03  0.37414658580E+03  0.00000000000E+00 0.  1.
</event>
<event>
12    1  0.1040325E-001  0.2337487E+03  0.7818608E-02  0.1124166E+00
         21   -1    0    0  503  502  0.00000000000E+00  0.00000000000E+00  0.77203601668E+02  0.77203601668E+02  0.00000000000E+00 0.  1.
         21   -1    0    0  501  503 -0.00000000000E+00 -0.00000000000E+00 -0.71058093342E+03  0.71058093342E+03  0.00000000000E+00 0.  1.
          6    2    1    2  501    0  0.24559624020E+02 -0.15548287305E+03 -0.28332413947E+03  0.36730234256E+03  0.17280145805E+03 0.  0.
         24    2    3    3    0    0  0.28007659164E+02 -0.16903699512E+03 -0.29345530647E+03  0.34940447353E+03  0.81299043890E+02 0.  0.
         -6    2    1    2    0  502 -0.24559624020E+02  0.15548287305E+03 -0.35005319229E+03  0.42048219253E+03  0.17172634585E+03 0.  0.
        -24    2    5    5    0    0 -0.10380983155E+02  0.14971438089E+03 -0.17252911531E+03  0.24223742468E+03  0.79940688187E+02 0.  0.
          5    1    3    3  501    0 -0.34480351433E+01  0.13554122068E+02  0.10131166997E+02  0.17897869038E+02  0.47000000000E+01 0. -1.
        -13    1    4    4    0    0  0.39304367707E+02 -0.17293712945E+03 -0.26924245436E+03  0.32240282768E+03  0.00000000000E+00 0.  1.
         14    1    4    4    0    0 -0.11296708543E+02  0.39001343295E+01 -0.24212852102E+02  0.27001645850E+02  0.00000000000E+00 0. -1.
         -5    1    5    5    0  502 -0.14178640865E+02  0.57684921544E+01 -0.17752407697E+03  0.17824476784E+03  0.47000000000E+01 0.  1.
         11    1    6    6    0    0  0.11278940646E+02 -0.51248994077E+01 -0.58292149813E+01  0.13691561026E+02  0.00000000000E+00 0. -1.
        -12    1    6    6    0    0 -0.21659923801E+02  0.15483928030E+03 -0.16669990033E+03  0.22854586366E+03  0.00000000000E+00 0.  1.
</event>
<event>
12    1  0.1040325E-001  0.1846235E+03  0.7818608E-02  0.1163410E+00
         21   -1    0    0  501  502  0.00000000000E+00  0.00000000000E+00  0.41203819431E+03  0.41203819431E+03  0.00000000000E+00 0.  1.
         21   -1    0    0  502  503 -0.00000000000E+00 -0.00000000000E+00 -0.26207418151E+03  0.26207418151E+03  0.00000000000E+00 0.  1.
         -6    2    1    2    0  503 -0.64690294183E+02  0.94323091185E+01 -0.20386188417E+03  0.27501514115E+03  0.17262635207E+03 0.  0.
        -24    2    3    3    0    0 -0.21725823235E+02 -0.24515791311E+02 -0.28253084115E+02  0.91007098004E+02  0.80068843543E+02 0.  0.
          6    2    1    2  501    0  0.64690294183E+02 -0.94323091185E+01  0.35382589698E+03  0.39909723467E+03  0.17266161916E+03 0.  0.
         24    2    5    5    0    0  0.10945269208E+03 -0.19282759949E+02  0.25836717266E+03  0.29310118901E+03  0.82480267062E+02 0.  0.
          5    1    5    5  501    0 -0.44762397897E+02  0.98504508305E+01  0.95458724317E+02  0.10599604566E+03  0.47000000000E+01 0. -1.
        -11    1    6    6    0    0  0.61180244891E+02 -0.39728935363E+02  0.20792545328E+03  0.22035064055E+03  0.00000000000E+00 0.  1.
         12    1    6    6    0    0  0.48272447190E+02  0.20446175414E+02  0.50441719383E+02  0.72750548459E+02  0.00000000000E+00 0. -1.
         -5    1    3    3    0  503 -0.42964470948E+02  0.33948100429E+02 -0.17560880006E+03  0.18400804315E+03  0.47000000000E+01 0.  1.
         13    1    4    4    0    0 -0.28181319724E+02  0.16743736805E+02 -0.35831306960E+02  0.48563587820E+02  0.00000000000E+00 0. -1.
        -14    1    4    4    0    0  0.64554964885E+01 -0.41259528116E+02  0.75782228449E+01  0.42443510184E+02  0.00000000000E+00 0.  1.
</event>
<event>
12    1  0.1040325E-001  0.1752864E+03  0.7818608E-02  0.1173044E+00
         21   -1    0    0  503  502  0.00000000000E+00  0.00000000000E+00  0.11618171703E+03  0.11618171703E+03  0.00000000000E+00 0.  1.
         21   -1    0    0  501  503 -0.00000000000E+00 -0.00000000000E+00 -0.81097331153E+03  0.81097331153E+03  0.00000000000E+00 0.  1.
          6    2    1    2  501    0  0.97491773194E+01 -0.29223751245E+02 -0.72842961322E+03  0.74867019723E+03  0.17014196634E+03 0.  0.
         24    2    3    3    0    0 -0.66302795236E+01 -0.83776963116E+02 -0.48190683969E+03  0.49560912278E+03  0.79571730470E+02 0.  0.
         -6    2    1    2    0  502 -0.97491773194E+01  0.29223751245E+02  0.33638018718E+02  0.17848483133E+03  0.17255794567E+03 0.  0.
        -24    2    5    5    0    0 -0.51872691106E+01 -0.35447131105E+02  0.61169151608E+02  0.10789313699E+03  0.81337918817E+02 0.  0.
          5    1    3    3  501    0  0.16379456843E+02  0.54553211871E+02 -0.24652277353E+03  0.25306107445E+03  0.47000000000E+01 0. -1.
        -13    1    4    4    0    0  0.35324312632E+02 -0.32720351943E+02 -0.16481118772E+03  0.17170077487E+03  0.00000000000E+00 0.  1.
         14    1    4    4    0    0 -0.41954592156E+02 -0.51056611173E+02 -0.31709565197E+03  0.32390834791E+03  0.00000000000E+00 0. -1.
         -5    1    5    5    0  502 -0.45619082088E+01  0.64670882350E+02 -0.27531132890E+02  0.70591694332E+02  0.47000000000E+01 0.  1.
         11    1    6    6    0    0 -0.10193992970E+01  0.16864767087E+02 -0.98743215983E+01  0.19569409057E+02  0.00000000000E+00 0. -1.
        -12    1    6    6    0    0 -0.41678698136E+01 -0.52311898192E+02  0.71043473206E+02  0.88323727936E+02  0.00000000000E+00 0.  1.
</event>
<event>
12    1  0.1040325E-001  0.2304120E+03  0.7818608E-02  0.1126820E+00
         21   -1    0    0  503  502  0.00000000000E+00  0.00000000000E+00  0.85222605212E+03  0.85222605212E+03  0.00000000000E+00 0.  1.
         21   -1    0    0  501  503 -0.00000000000E+00 -0.00000000000E+00 -0.61717089138E+02  0.61717089138E+02  0.00000000000E+00 0.  1.
          6    2    1    2  501    0 -0.14516198095E+03 -0.47218448407E+02  0.37131361589E+03  0.43559762530E+03  0.16902635071E+03 0.  0.
         24    2    3    3    0    0 -0.14240252054E+03  0.15054499681E+02  0.28417493350E+03  0.32835596057E+03  0.80976096428E+02 0.  0.
         -6    2    1    2    0  502  0.14516198095E+03  0.47218448407E+02  0.41919534709E+03  0.47834551595E+03  0.17259232611E+03 0.  0.
        -24    2    5    5    0    0  0.11619808008E+03  0.86757620025E+02  0.23328495391E+03  0.28602542357E+03  0.79748321351E+02 0.  0.
          5    1    3    3  501    0 -0.27594604120E+01 -0.62272948088E+02  0.87138682391E+02  0.10724166473E+03  0.47000000000E+01 0. -1.
        -13    1    4    4    0    0  0.49434856063E+01  0.10676597217E+02  0.52174952076E+02  0.53485076444E+02  0.00000000000E+00 0.  1.
         14    1    4    4    0    0 -0.14734600615E+03  0.43779024642E+01  0.23199998143E+03  0.27487088412E+03  0.00000000000E+00 0. -1.
         -5    1    5    5    0  502  0.28963900872E+02 -0.39539171618E+02  0.18591039317E+03  0.19232009239E+03  0.47000000000E+01 0.  1.
         11    1    6    6    0    0  0.71316963481E+02  0.36718309308E+02  0.18957098376E+03  0.20584339048E+03  0.00000000000E+00 0. -1.
        -12    1    6    6    0    0  0.44881116602E+02  0.50039310717E+02  0.43713970152E+02  0.80182033093E+02  0.00000000000E+00 0.  1.
</event>
<event>
12    1  0.1040325E-001  0.1751366E+03  0.7818608E-02  0.1175928E+00
         21   -1    0    0  503  502  0.00000000000E+00  0.00000000000E+00  0.15337977697E+03  0.15337977697E+03  0.00000000000E+00 0. -1.
         21   -1    0    0  501  503 -0.00000000000E+00 -0.00000000000E+00 -0.22731290203E+03  0.22731290203E+03  0.00000000000E+00 0. -1.
          6    2    1    2  501    0 -0.26263639323E+02 -0.27067821956E+01 -0.11953358992E+03  0.21204031412E+03  0.17313494815E+03 0.  0.
         24    2    3    3    0    0 -0.15973396613E+02 -0.44763923694E+01  0.94190178660E+01  0.82580337017E+02  0.80346790081E+02 0.  0.
         -6    2    1    2    0  502  0.26263639323E+02  0.27067821956E+01  0.45600464867E+02  0.16865236489E+03  0.16020958887E+03 0.  0.
        -24    2    5    5    0    0 -0.15420990382E+01  0.24800639441E+02  0.81513617303E+02  0.11792621649E+03  0.81514863323E+02 0.  0.
          5    1    3    3  501    0 -0.10290242710E+02  0.17696101737E+01 -0.12895260779E+03  0.12945997710E+03  0.47000000000E+01 0. -1.
        -11    1    4    4    0    0  0.24301166981E+02  0.16011665825E+02 -0.13308180060E+02  0.32000434616E+02  0.00000000000E+00 0.  1.
         12    1    4    4    0    0 -0.40274563594E+02 -0.20488058194E+02  0.22727197926E+02  0.50579902400E+02  0.00000000000E+00 0. -1.
         -5    1    5    5    0  502  0.27805738361E+02 -0.22093857245E+02 -0.35913152437E+02  0.50726148402E+02  0.47000000000E+01 0.  1.
         13    1    6    6    0    0  0.25207554569E+02  0.13678124927E+02  0.84085974764E+02  0.88842349478E+02  0.00000000000E+00 0. -1.
        -14    1    6    6    0    0 -0.26749653607E+02  0.11122514513E+02 -0.25723574602E+01  0.29083867007E+02  0.00000000000E+00 0.  1.
</event>
<event>
12    1  0.1040325E-001  0.1909639E+03  0.7818608E-02  0.1158604E+00
         21   -1    0    0  501  502  0.00000000000E+00  0.00000000000E+00  0.10541893771E+03  0.10541893771E+03  0.00000000000E+00 0. -1.
         21   -1    0    0  502  503 -0.00000000000E+00 -0.00000000000E+00 -0.37599769471E+03  0.37599769471E+03  0.00000000000E+00 0. -1.
         -6    2    1    2    0  503 -0.67364819259E+02  0.34800117048E+02 -0.21332590185E+03  0.28631302303E+03  0.17526591151E+03 0.  0.
        -24    2    3    3    0    0 -0.42558431293E+02  0.85248843765E+02 -0.10161343312E+03  0.16116432515E+03  0.81055934236E+02 0.  0.
          6    2    1    2  501    0  0.67364819259E+02 -0.34800117048E+02 -0.57252855157E+02  0.19510360938E+03  0.17040675442E+03 0.  0.
         24    2    5    5    0    0  0.10134546181E+03 -0.20206805479E+02 -0.76110818636E+02  0.15332608436E+03  0.83885718781E+02 0.  0.
          5    1    5    5  501    0 -0.33980642548E+02 -0.14593311569E+02  0.18857963479E+02  0.41777525024E+02  0.47000000000E+01 0. -1.
        -13    1    6    6    0    0 -0.39931339301E+01  0.93717400113E+01  0.98608432035E+01  0.14177829810E+02  0.00000000000E+00 0.  1.
         14    1    6    6    0    0  0.10533859574E+03 -0.29578545490E+02 -0.85971661840E+02  0.13914825455E+03  0.00000000000E+00 0. -1.
         -5    1    3    3    0  503 -0.24806387965E+02 -0.50448726717E+02 -0.11171246873E+03  0.12514869788E+03  0.47000000000E+01 0.  1.
         13    1    4    4    0    0 -0.29391305648E+02 -0.83046753077E+01 -0.27285272624E+02  0.40954884713E+02  0.00000000000E+00 0. -1.
        -14    1    4    4    0    0 -0.13167125645E+02  0.93553519073E+02 -0.74328160493E+02  0.12020944044E+03  0.00000000000E+00 0.  1.
</event>
<event>
12    1  0.1040325E-001  0.2126282E+03  0.7818608E-02  0.1139912E+00
         21   -1    0    0  503  502  0.00000000000E+00  0.00000000000E+00  0.14413503064E+03  0.14413503064E+03  0.00000000000E+00 0. -1.
         21   -1    0    0  501  503 -0.00000000000E+00 -0.00000000000E+00 -0.50945347587E+03  0.50945347587E+03  0.00000000000E+00 0. -1.
          6    2    1    2  501    0 -0.10678932190E+03 -0.60519640744E+02 -0.38628148039E+03  0.43992940156E+03  0.17104943754E+03 0.  0.
         24    2    3    3    0    0 -0.60674115505E+02  0.31294601188E+02 -0.20544798862E+03  0.23189260427E+03  0.83093944015E+02 0.  0.
         -6    2    1    2    0  502  0.10678932190E+03  0.60519640744E+02  0.20963035151E+02  0.21365910495E+03  0.17362078820E+03 0.  0.
        -24    2    5    5    0    0  0.74814534902E+02  0.34316402672E+02 -0.57923999715E+02  0.12447249744E+03  0.73235119648E+02 0.  0.
          5    1    3    3  501    0 -0.46115206400E+02 -0.91814241932E+02 -0.18083349176E+03  0.20803679729E+03  0.47000000000E+01 0. -1.
        -11    1    4    4    0    0  0.13002694072E+02  0.24316208543E+02 -0.26494898199E+02  0.38240393325E+02  0.00000000000E+00 0.  1.
         12    1    4    4    0    0 -0.73676809577E+02  0.69783926447E+01 -0.17895309042E+03  0.19365221095E+03  0.00000000000E+00 0. -1.
         -5    1    5    5    0  502  0.31974787002E+02  0.26203238072E+02  0.78887034866E+02  0.89186607511E+02  0.47000000000E+01 0.  1.
         13    1    6    6    0    0  0.89212944304E+02  0.23820752078E+02 -0.49363317994E+02  0.10470489398E+03  0.00000000000E+00 0. -1.
        -14    1    6    6    0    0 -0.14398409401E+02  0.10495650595E+02 -0.85606817209E+01  0.19767603451E+02  0.00000000000E+00 0.  1.
</event>
<event>
12    1  0.1040325E-001  0.2159820E+03  0.7818608E-02  0.1136949E+00
         21   -1    0    0  501  502  0.00000000000E+00  0.00000000000E+00  0.18477679088E+03  0.18477679088E+03  0.00000000000E+00 0.  1.
         21   -1    0    0  502  503 -0.00000000000E+00 -0.00000000000E+00 -0.25244988469E+03  0.25244988469E+03  0.00000000000E+00 0.  1.
         -6    2    1    2    0  503  0.95378248628E+02 -0.88512782840E+02 -0.27630049103E+02  0.21756404240E+03  0.17216030290E+03 0.  0.
        -24    2    3    3    0    0  0.24537041352E+02 -0.10507241492E+03  0.17608002142E+02  0.13176620243E+03  0.73552780982E+02 0.  0.
          6    2    1    2  501    0 -0.95378248628E+02  0.88512782840E+02 -0.40043044714E+02  0.21966263317E+03  0.17238533564E+03 0.  0.
         24    2    5    5    0    0 -0.58106100703E+02  0.81982087488E+02  0.35909065024E+02  0.13467630506E+03  0.82163645152E+02 0.  0.
          5    1    5    5  501    0 -0.37272147925E+02  0.65306953522E+01 -0.75952109738E+02  0.84986328114E+02  0.47000000000E+01 0. -1.
        -11    1    6    6    0    0  0.67186025530E+01  0.33686388152E+02 -0.16733489072E+02  0.38208925966E+02  0.00000000000E+00 0.  1.
         12    1    6    6    0    0 -0.64824703256E+02  0.48295699336E+02  0.52642554096E+02  0.96467379089E+02  0.00000000000E+00 0. -1.
         -5    1    3    3    0  503  0.70841207276E+02  0.16559632075E+02 -0.45238051245E+02  0.85797839968E+02  0.47000000000E+01 0.  1.
         11    1    4    4    0    0 -0.19450981586E+02 -0.74098824681E+02  0.69692608272E+01  0.76925594572E+02  0.00000000000E+00 0. -1.
        -12    1    4    4    0    0  0.43988022938E+02 -0.30973590235E+02  0.10638741314E+02  0.54840607863E+02  0.00000000000E+00 0.  1.
</event>
<event>
12    1  0.1040325E-001  0.1779278E+03  0.7818608E-02  0.1169835E+00
         21   -1    0    0  503  502  0.00000000000E+00  0.00000000000E+00  0.37949307245E+03  0.37949307245E+03  0.00000000000E+00 0.  1.
         21   -1    0    0  501  503 -0.00000000000E+00 -0.00000000000E+00 -0.11663138183E+03  0.11663138183E+03  0.00000000000E+00 0.  1.
          6    2    1    2  501    0 -0.22778207863E+01 -0.47858282351E+02 -0.96685075090E+00  0.17793040863E+03  0.17135545470E+03 0.  0.
         24    2    3    3    0    0 -0.71151811677E+01 -0.79477710293E+02 -0.46959320603E+02  0.12171132324E+03  0.79000861871E+02 0.  0.
         -6    2    1    2    0  502  0.22778207863E+01  0.47858282351E+02  0.26382854137E+03  0.31819404565E+03  0.17130775753E+03 0.  0.
        -24    2    5    5    0    0  0.32470345274E+02  0.15733504099E+02  0.52849979411E+02  0.10260732640E+03  0.80207709311E+02 0.  0.
          5    1    3    3  501    0  0.48373603814E+01  0.31619427942E+02  0.45992469852E+02  0.56219085389E+02  0.47000000000E+01 0. -1.
        -13    1    4    4    0    0  0.18174461845E+02 -0.20623296677E+01 -0.34871824308E+02  0.39377765269E+02  0.00000000000E+00 0.  1.
         14    1    4    4    0    0 -0.25289643013E+02 -0.77415380626E+02 -0.12087496294E+02  0.82333557969E+02  0.00000000000E+00 0. -1.
         -5    1    5    5    0  502 -0.30192524487E+02  0.32124778251E+02  0.21097856196E+03  0.21558671925E+03  0.47000000000E+01 0.  1.
         13    1    6    6    0    0 -0.83528148042E+01  0.38811731592E+02  0.33235346259E+02  0.51775556639E+02  0.00000000000E+00 0. -1.
        -14    1    6    6    0    0  0.40823160078E+02 -0.23078227493E+02  0.19614633152E+02  0.50831769757E+02  0.00000000000E+00 0.  1.
</event>
<event>
12    1  0.1040325E-001  0.2235003E+03  0.7818608E-02  0.1132053E+00
         21   -1    0    0  503  502  0.00000000000E+00  0.00000000000E+00  0.22842277137E+03  0.22842277137E+03  0.00000000000E+00 0. -1.
         21   -1    0    0  501  503 -0.00000000000E+00 -0.00000000000E+00 -0.22441748280E+03  0.22441748280E+03  0.00000000000E+00 0. -1.
          6    2    1    2  501    0  0.11561229676E+03 -0.67519130904E+02 -0.45108804865E+02  0.22400716741E+03  0.17383719560E+03 0.  0.
         24    2    3    3    0    0  0.12788422396E+03 -0.45591300911E+01 -0.32894991251E+02  0.15854092311E+03  0.87624103120E+02 0.  0.
         -6    2    1    2    0  502 -0.11561229676E+03  0.67519130904E+02  0.49114093438E+02  0.22883308675E+03  0.17896187085E+03 0.  0.
        -24    2    5    5    0    0 -0.10550248376E+03  0.67443688394E+02  0.98093797973E+02  0.17860047317E+03  0.81217674393E+02 0.  0.
          5    1    3    3  501    0 -0.12271927200E+02 -0.62960000813E+02 -0.12213813613E+02  0.65466244299E+02  0.47000000000E+01 0. -1.
        -13    1    4    4    0    0 -0.96443292601E+01  0.65387483702E+01 -0.15621243408E+02  0.19488241654E+02  0.00000000000E+00 0.  1.
         14    1    4    4    0    0  0.13752855322E+03 -0.11097878461E+02 -0.17273747843E+02  0.13905268146E+03  0.00000000000E+00 0. -1.
         -5    1    5    5    0  502 -0.10109813000E+02  0.75442510450E-01 -0.48979704536E+02  0.50232613578E+02  0.47000000000E+01 0.  1.
         13    1    6    6    0    0 -0.40156106733E+02  0.72906604929E+02  0.61654819571E+02  0.10358186485E+03  0.00000000000E+00 0. -1.
        -14    1    6    6    0    0 -0.65346377025E+02 -0.54629165348E+01  0.36438978403E+02  0.75018608321E+02  0.00000000000E+00 0.  1.
</event>
<event>
12    1  0.1040325E-001  0.1853469E+03  0.7818608E-02  0.1163258E+00
         21   -1    0    0  503  502  0.00000000000E+00  0.00000000000E+00  0.15586289544E+02  0.15586289544E+02  0.00000000000E+00 0. -1.
         21   -1    0    0  501  503 -0.00000000000E+00 -0.00000000000E+00 -0.21780980001E+04  0.21780980001E+04  0.00000000000E+00 0. -1.
          6    2    1    2  501    0  0.47376161320E+02  0.38295833499E+02 -0.11099610342E+04  0.11253297223E+04  0.17504975013E+03 0.  0.
         24    2    3    3    0    0 -0.40599817605E+02  0.29967659159E+02 -0.66073735459E+03  0.66747260961E+03  0.79996418956E+02 0.  0.
         -6    2    1    2    0  502 -0.47376161320E+02 -0.38295833499E+02 -0.10525506764E+04  0.10683545673E+04  0.17264843947E+03 0.  0.
        -24    2    5    5    0    0 -0.84010400038E+02  0.16542671602E+01 -0.88090079478E+03  0.88828832995E+03  0.77520726037E+02 0.  0.
          5    1    3    3  501    0  0.87975978925E+02  0.83281743398E+01 -0.44922367960E+03  0.45785711272E+03  0.47000000000E+01 0. -1.
        -11    1    4    4    0    0 -0.42256237092E+02 -0.53622836150E+01 -0.16277904249E+03  0.16825980011E+03  0.00000000000E+00 0.  1.
         12    1    4    4    0    0  0.16564194869E+01  0.35329942774E+02 -0.49795831209E+03  0.49921280949E+03  0.00000000000E+00 0. -1.
         -5    1    5    5    0  502  0.36634238718E+02 -0.39950100659E+02 -0.17164988158E+03  0.18006623736E+03  0.47000000000E+01 0.  1.
         11    1    6    6    0    0 -0.14018230529E+02  0.22327999369E+02 -0.48505921777E+03  0.48577514870E+03  0.00000000000E+00 0. -1.
        -12    1    6    6    0    0 -0.69992169509E+02 -0.20673732208E+02 -0.39584157701E+03  0.40251318126E+03  0.00000000000E+00 0.  1.
</event>
<event>
12    1  0.1040325E-001  0.1981305E+03  0.7818608E-02  0.1151408E+00
         21   -1    0    0  503  502  0.00000000000E+00  0.00000000000E+00  0.49515425908E+02  0.49515425908E+02  0.00000000000E+00 0.  1.
         21   -1    0    0  501  503 -0.00000000000E+00 -0.00000000000E+00 -0.97507752770E+03  0.97507752770E+03  0.00000000000E+00 0.  1.
          6    2    1    2  501    0  0.44665357551E+01  0.97705153534E+02 -0.68557162456E+03  0.71362746414E+03  0.17230629181E+03 0.  0.
         24    2    3    3    0    0  0.58795028279E+02  0.80403320334E+02 -0.34125142884E+03  0.36458674200E+03  0.80928397253E+02 0.  0.
         -6    2    1    2    0  502 -0.44665357551E+01 -0.97705153534E+02 -0.23999047723E+03  0.31096548947E+03  0.17186581833E+03 0.  0.
        -24    2    5    5    0    0 -0.39547018288E+02 -0.96192469668E+02 -0.24209413103E+03  0.27547684584E+03  0.80380137095E+02 0.  0.
          5    1    3    3  501    0 -0.54328492524E+02  0.17301833200E+02 -0.34432019572E+03  0.34904072214E+03  0.47000000000E+01 0. -1.
        -13    1    4    4    0    0  0.50864656247E+02  0.19799400254E+02 -0.84013780322E+02  0.10018754808E+03  0.00000000000E+00 0.  1.
         14    1    4    4    0    0  0.79303720316E+01  0.60603920080E+02 -0.25723764852E+03  0.26439919392E+03  0.00000000000E+00 0. -1.
         -5    1    5    5    0  502  0.35080482533E+02 -0.15126838661E+01  0.21036538009E+01  0.35488643628E+02  0.47000000000E+01 0.  1.
         11    1    6    6    0    0  0.64655742432E+01 -0.71216620762E+02 -0.18328071857E+03  0.19673696277E+03  0.00000000000E+00 0. -1.
        -12    1    6    6    0    0 -0.46012592532E+02 -0.24975848906E+02 -0.58813412465E+02  0.78739883069E+02  0.00000000000E+00 0.  1.
</event>
<event>
12    1  0.1040325E-001  0.2446864E+03  0.7818608E-02  0.1117354E+00
         21   -1    0    0  501  502  0.00000000000E+00  0.00000000000E+00  0.25602006524E+03  0.25602006524E+03  0.00000000000E+00 0.  1.
         21   -1    0    0  502  503 -0.00000000000E+00 -0.00000000000E+00 -0.23084269886E+03  0.23084269886E+03  0.00000000000E+00 0. -1.
         -6    2    1    2    0  503 -0.16479187538E+03 -0.55106440613E+02 -0.12020224168E+01  0.24075845584E+03  0.16664365338E+03 0.  0.
        -24    2    3    3    0    0 -0.11967731159E+03 -0.44554481877E+02 -0.63145100543E+02  0.16326198736E+03  0.79745921706E+02 0.  0.
          6    2    1    2  501    0  0.16479187538E+03  0.55106440613E+02  0.26379388792E+02  0.24610430826E+03  0.17227413154E+03 0.  0.
         24    2    5    5    0    0  0.30207068977E+02  0.28514455501E+02  0.55641467954E+02  0.10575273874E+03  0.79762946326E+02 0.  0.
          5    1    5    5  501    0  0.13458480641E+03  0.26591985112E+02 -0.29262079163E+02  0.14035156951E+03  0.47000000000E+01 0. -1.
        -11    1    6    6    0    0  0.16814710972E+02  0.45931047460E+02  0.65437587269E+02  0.81697450715E+02  0.00000000000E+00 0.  1.
         12    1    6    6    0    0  0.13392358005E+02 -0.17416591959E+02 -0.97961193147E+01  0.24055288026E+02  0.00000000000E+00 0. -1.
         -5    1    3    3    0  503 -0.45114563790E+02 -0.10551958736E+02  0.61943078126E+02  0.77496468480E+02  0.47000000000E+01 0.  1.
         11    1    4    4    0    0 -0.46725719203E+02  0.20807469951E+02 -0.11083854616E+02  0.52336368559E+02  0.00000000000E+00 0. -1.
        -12    1    4    4    0    0 -0.72951592391E+02 -0.65361951828E+02 -0.52061245926E+02  0.11092561880E+03  0.00000000000E+00 0.  1.
</event>
<event>
12    1  0.1040325E-001  0.2061829E+03  0.7818608E-02  0.1145250E+00
         21   -1    0    0  501  502  0.00000000000E+00  0.00000000000E+00  0.55133181066E+03  0.55133181066E+03  0.00000000000E+00 0.  1.
         21   -1    0    0  502  503 -0.00000000000E+00 -0.00000000000E+00 -0.80377018352E+02  0.80377018352E+02  0.00000000000E+00 0.  1.
         -6    2    1    2    0  503  0.34280669435E+02  0.10848828673E+03  0.31111424818E+03  0.37323380387E+03  0.17194919097E+03 0.  0.
        -24    2    3    3    0    0 -0.10292775117E+02  0.25246398708E+01  0.72988495214E+02  0.10877010004E+03  0.79945601526E+02 0.  0.
          6    2    1    2  501    0 -0.34280669435E+02 -0.10848828673E+03  0.15984054413E+03  0.25847502514E+03  0.16827200130E+03 0.  0.
         24    2    5    5    0    0 -0.46744002597E+02 -0.44839524267E+02  0.19678593705E+02  0.10396301272E+03  0.78901687235E+02 0.  0.
          5    1    5    5  501    0  0.12463333163E+02 -0.63648762464E+02  0.14016195042E+03  0.15451201242E+03  0.47000000000E+01 0. -1.
        -13    1    6    6    0    0 -0.37073271813E+02 -0.44642866335E+02  0.47193562228E+02  0.74797361673E+02  0.00000000000E+00 0.  1.
         14    1    6    6    0    0 -0.96707307844E+01 -0.19665793206E+00 -0.27514968523E+02  0.29165651048E+02  0.00000000000E+00 0. -1.
         -5    1    3    3    0  503  0.44573444552E+02  0.10596364686E+03  0.23812575297E+03  0.26446370383E+03  0.47000000000E+01 0.  1.
         11    1    4    4    0    0 -0.12990970716E+02  0.32508054383E+02  0.70314213498E+02  0.78546976643E+02  0.00000000000E+00 0. -1.
        -12    1    4    4    0    0  0.26981955984E+01 -0.29983414512E+02  0.26742817161E+01  0.30223123399E+02  0.00000000000E+00 0.  1.
</event>
<event>
12    1  0.1040325E-001  0.1777028E+03  0.7818608E-02  0.1170061E+00
         21   -1    0    0  501  502  0.00000000000E+00  0.00000000000E+00  0.47895901121E+02  0.47895901121E+02  0.00000000000E+00 0. -1.
         21   -1    0    0  502  503 -0.00000000000E+00 -0.00000000000E+00 -0.11872504057E+04  0.11872504057E+04  0.00000000000E+00 0. -1.
         -6    2    1    2    0  503 -0.28443765736E+02  0.38191809527E+02 -0.98164708719E+03  0.99760177676E+03  0.17120350196E+03 0.  0.
        -24    2    3    3    0    0 -0.61649372960E+02  0.30549475260E+02 -0.36710192806E+03  0.38209478229E+03  0.80614399755E+02 0.  0.
          6    2    1    2  501    0  0.28443765736E+02 -0.38191809527E+02 -0.15770741736E+03  0.23754453003E+03  0.17113769933E+03 0.  0.
         24    2    5    5    0    0 -0.50973365811E+01 -0.86416614234E+02 -0.11825484456E+03  0.16662744581E+03  0.79288608132E+02 0.  0.
          5    1    5    5  501    0  0.33541102317E+02  0.48224804706E+02 -0.39452572797E+02  0.70917084218E+02  0.47000000000E+01 0. -1.
        -11    1    6    6    0    0 -0.12619727642E+02  0.65640150180E+01 -0.47389820125E+02  0.49478670864E+02  0.00000000000E+00 0.  1.
         12    1    6    6    0    0  0.75223910609E+01 -0.92980629252E+02 -0.70865024434E+02  0.11714877495E+03  0.00000000000E+00 0. -1.
         -5    1    3    3    0  503  0.33205607224E+02  0.76423342669E+01 -0.61454515914E+03  0.61550699447E+03  0.47000000000E+01 0.  1.
         11    1    4    4    0    0 -0.41496212429E+02  0.57852695457E+02 -0.27020142933E+03  0.27942384012E+03  0.00000000000E+00 0. -1.
        -12    1    4    4    0    0 -0.20153160531E+02 -0.27303220197E+02 -0.96900498728E+02  0.10267094217E+03  0.00000000000E+00 0.  1.
</event>
<event>
12    1  0.1040325E-001  0.2533970E+03  0.7818608E-02  0.1111216E+00
         21   -1    0    0  503  502  0.00000000000E+00  0.00000000000E+00  0.63500601406E+03  0.63500601406E+03  0.00000000000E+00 0. -1.
         21   -1    0    0  501  503 -0.00000000000E+00 -0.00000000000E+00 -0.14193367084E+03  0.14193367084E+03  0.00000000000E+00 0. -1.
          6    2    1    2  501    0 -0.13807435291E+03 -0.12528957734E+03  0.38047619139E+02  0.25623752094E+03  0.17160431433E+03 0.  0.
         24    2    3    3    0    0 -0.16852457044E+03 -0.91011828338E+02  0.28348726434E+02  0.20913828163E+03  0.79066344377E+02 0.  0.
         -6    2    1    2    0  502  0.13807435291E+03  0.12528957734E+03  0.45502472407E+03  0.52070216396E+03  0.17123445597E+03 0.  0.
        -24    2    5    5    0    0  0.21135333245E+02  0.94130551108E+02  0.22280265235E+03  0.25879607424E+03  0.89594214019E+02 0.  0.
          5    1    3    3  501    0  0.30450217530E+02 -0.34277749000E+02  0.96988927055E+01  0.47099239313E+02  0.47000000000E+01 0. -1.
        -11    1    4    4    0    0  0.87639272803E+01 -0.50470020335E+01  0.25124499524E+01  0.10420703223E+02  0.00000000000E+00 0.  1.
         12    1    4    4    0    0 -0.17728849772E+03 -0.85964826304E+02  0.25836276481E+02  0.19871757840E+03  0.00000000000E+00 0. -1.
         -5    1    5    5    0  502  0.11693901966E+03  0.31159026230E+02  0.23222207172E+03  0.26190608972E+03  0.47000000000E+01 0.  1.
         13    1    6    6    0    0  0.90790434168E+01  0.11008997736E+03  0.17461109968E+03  0.20661865423E+03  0.00000000000E+00 0. -1.
        -14    1    6    6    0    0  0.12056289829E+02 -0.15959426248E+02  0.48191552671E+02  0.52177420015E+02  0.00000000000E+00 0.  1.
</event>
<event>
12    1  0.1040325E-001  0.2875116E+03  0.7818608E-02  0.1092214E+00
         21   -1    0    0  503  502  0.00000000000E+00  0.00000000000E+00  0.63659518777E+03  0.63659518777E+03  0.00000000000E+00 0.  1.
         21   -1    0    0  501  503 -0.00000000000E+00 -0.00000000000E+00 -0.12835941599E+03  0.12835941599E+03  0.00000000000E+00 0. -1.
          6    2    1    2  501    0  0.75023166149E+02  0.21985874587E+03  0.27351656939E+03  0.39379964356E+03  0.16217429494E+03 0.  0.
         24    2    3    3    0    0  0.89046568768E+02  0.18162214205E+03  0.27887170302E+03  0.35245401321E+03  0.74421171659E+02 0.  0.
         -6    2    1    2    0  502 -0.75023166149E+02 -0.21985874587E+03  0.23471920239E+03  0.37115496020E+03  0.16940058122E+03 0.  0.
        -24    2    5    5    0    0  0.17175599085E+02 -0.10805470130E+03  0.75916743121E+02  0.15611759656E+03  0.81477189402E+02 0.  0.
          5    1    3    3  501    0 -0.14023402619E+02  0.38236603814E+02 -0.53551336285E+01  0.41345630343E+02  0.47000000000E+01 0. -1.
        -11    1    4    4    0    0  0.58864995535E+02  0.59595092225E+02  0.72355375612E+02  0.11068858612E+03  0.00000000000E+00 0.  1.
         12    1    4    4    0    0  0.30181573233E+02  0.12202704983E+03  0.20651632741E+03  0.24176542710E+03  0.00000000000E+00 0. -1.
         -5    1    5    5    0  502 -0.92198765233E+02 -0.11180404457E+03  0.15880245926E+03  0.21503736364E+03  0.47000000000E+01 0.  1.
         13    1    6    6    0    0  0.32600979663E+02 -0.10480425250E+03  0.84177050559E+02  0.13832039278E+03  0.00000000000E+00 0. -1.
        -14    1    6    6    0    0 -0.15425380579E+02 -0.32504487908E+01 -0.82603074376E+01  0.17797203778E+02  0.00000000000E+00 0.  1.
</event>
<event>
12    1  0.1040325E-001  0.1907231E+03  0.7818608E-02  0.1158617E+00
         21   -1    0    0  503  502  0.00000000000E+00  0.00000000000E+00  0.38003750601E+03  0.38003750601E+03  0.00000000000E+00 0.  1.
         21   -1    0    0  501  503 -0.00000000000E+00 -0.00000000000E+00 -0.12432620758E+03  0.12432620758E+03  0.00000000000E+00 0.  1.
          6    2    1    2  501    0 -0.57784317302E+02  0.58435616402E+02  0.22729992061E+01  0.18717881912E+03  0.16815764987E+03 0.  0.
         24    2    3    3    0    0  0.11540718157E+02 -0.14879972397E+02  0.22567249479E+02  0.84149295697E+02  0.78849359307E+02 0.  0.
         -6    2    1    2    0  502  0.57784317302E+02 -0.58435616402E+02  0.25343829922E+03  0.31718489447E+03  0.17210908510E+03 0.  0.
        -24    2    5    5    0    0  0.77080438545E+01 -0.88602832013E+02  0.10962869079E+03  0.16187556591E+03  0.79217253254E+02 0.  0.
          5    1    3    3  501    0 -0.69325035459E+02  0.73315588798E+02 -0.20294250273E+02  0.10302952342E+03  0.47000000000E+01 0. -1.
        -13    1    4    4    0    0  0.20693767204E+02 -0.31382230895E+02 -0.16277224072E+02  0.40963696617E+02  0.00000000000E+00 0.  1.
         14    1    4    4    0    0 -0.91530490471E+01  0.16502258498E+02  0.38844473551E+02  0.43185599080E+02  0.00000000000E+00 0. -1.
         -5    1    5    5    0  502  0.50076273447E+02  0.30167215611E+02  0.14380960843E+03  0.15530932856E+03  0.47000000000E+01 0.  1.
         11    1    6    6    0    0  0.42932766912E+02 -0.57993424848E+02  0.61099566080E+02  0.94549546670E+02  0.00000000000E+00 0. -1.
        -12    1    6    6    0    0 -0.35224723057E+02 -0.30609407165E+02  0.48529124711E+02  0.67326019239E+02  0.00000000000E+00 0.  1.
</event>
<event>
12    1  0.1040325E-001  0.3242096E+03  0.7818608E-02  0.1074633E+00
         21   -1    0    0  503  502  0.00000000000E+00  0.00000000000E+00  0.11732242992E+03  0.11732242992E+03  0.00000000000E+00 0. -1.
         21   -1    0    0  501  503 -0.00000000000E+00 -0.00000000000E+00 -0.90597569700E+03  0.90597569700E+03  0.00000000000E+00 0.  1.
          6    2    1    2  501    0  0.15615751153E+03  0.21471771565E+03 -0.30327895239E+03  0.44394820221E+03  0.18607261341E+03 0.  0.
         24    2    3    3    0    0  0.15873245817E+03  0.95787249348E+02 -0.22770630877E+03  0.30293614376E+03  0.74491299693E+02 0.  0.
         -6    2    1    2    0  502 -0.15615751153E+03 -0.21471771565E+03 -0.48537431469E+03  0.57934992471E+03  0.17195709953E+03 0.  0.
        -24    2    5    5    0    0 -0.27573603061E+02 -0.66949787500E+02 -0.25511048130E+03  0.27700458395E+03  0.80047512339E+02 0.  0.
          5    1    3    3  501    0 -0.25749466386E+01  0.11893046630E+03 -0.75572643623E+02  0.14101205845E+03  0.47000000000E+01 0. -1.
        -13    1    4    4    0    0  0.23622796102E+02 -0.11171020331E+02 -0.43082897620E+02  0.50388136086E+02  0.00000000000E+00 0.  1.
         14    1    4    4    0    0  0.13510966207E+03  0.10695826968E+03 -0.18462341115E+03  0.25254800767E+03  0.00000000000E+00 0. -1.
         -5    1    5    5    0  502 -0.12858390847E+03 -0.14776792815E+03 -0.23026383339E+03  0.30234534075E+03  0.47000000000E+01 0.  1.
         11    1    6    6    0    0  0.25336645116E+01 -0.47297506886E+01  0.53208326103E+01  0.75565373750E+01  0.00000000000E+00 0. -1.
        -12    1    6    6    0    0 -0.30107267572E+02 -0.62220036811E+02 -0.26043131391E+03  0.26944804658E+03  0.00000000000E+00 0.  1.
</event>
<event>
12    1  0.1040325E-001  0.1997122E+03  0.7818608E-02  0.1150180E+00
         21   -1    0    0  501  502  0.00000000000E+00  0.00000000000E+00  0.42731465799E+03  0.42731465799E+03  0.00000000000E+00 0.  1.
         21   -1    0    0  502  503 -0.00000000000E+00 -0.00000000000E+00 -0.11899887328E+03  0.11899887328E+03  0.00000000000E+00 0.  1.
         -6    2    1    2    0  503 -0.42127321238E+01 -0.10081159378E+03  0.26522714746E+02  0.20146569821E+03  0.17234920540E+03 0.  0.
        -24    2    3    3    0    0 -0.19403229962E+02  0.97727098307E+01  0.23326480531E+02  0.89698326655E+02  0.83843150706E+02 0.  0.
          6    2    1    2  501    0  0.42127321238E+01  0.10081159378E+03  0.28179306997E+03  0.34484783306E+03  0.17126578506E+03 0.  0.
         24    2    5    5    0    0 -0.24060570194E+02  0.77917010881E+02  0.28672759453E+03  0.30783457756E+03  0.76807825456E+02 0.  0.
          5    1    5    5  501    0  0.28273302318E+02  0.22894582902E+02 -0.49345245657E+01  0.37013255503E+02  0.47000000000E+01 0. -1.
        -11    1    6    6    0    0 -0.25270407777E+02  0.61151803492E+01  0.16064467839E+03  0.16273506578E+03  0.00000000000E+00 0.  1.
         12    1    6    6    0    0  0.12098375827E+01  0.71801830532E+02  0.12608291614E+03  0.14509951177E+03  0.00000000000E+00 0. -1.
         -5    1    3    3    0  503  0.15190497838E+02 -0.11058430361E+03  0.31962342153E+01  0.11176737155E+03  0.47000000000E+01 0.  1.
         13    1    4    4    0    0  0.26489880621E+02  0.15236988750E+02  0.30210074730E+02  0.42971248721E+02  0.00000000000E+00 0. -1.
        -14    1    4    4    0    0 -0.45893110583E+02 -0.54642789190E+01 -0.68835941987E+01  0.46727077933E+02  0.00000000000E+00 0.  1.
</event>
<event>
12    1  0.1040325E-001  0.1758878E+03  0.7818608E-02  0.1171998E+00
         21   -1    0    0  503  502  0.00000000000E+00  0.00000000000E+00  0.15044383371E+03  0.15044383371E+03  0.00000000000E+00 0.  1.
         21   -1    0    0  501  503 -0.00000000000E+00 -0.00000000000E+00 -0.36024308509E+03  0.36024308509E+03  0.00000000000E+00 0.  1.
          6    2    1    2  501    0  0.20124431310E+01  0.34047332050E+02 -0.27267684735E+03  0.32448295397E+03  0.17254927873E+03 0.  0.
         24    2    3    3    0    0  0.17129340826E+02  0.64776523692E+02 -0.26869584664E+03  0.28968723323E+03  0.85040124407E+02 0.  0.
         -6    2    1    2    0  502 -0.20124431310E+01 -0.34047332050E+02  0.62877595970E+02  0.18620396483E+03  0.17191583318E+03 0.  0.
        -24    2    5    5    0    0 -0.10320101456E+02  0.37154758583E+02 -0.15454184073E+01  0.89709562515E+02  0.80984175671E+02 0.  0.
          5    1    3    3  501    0 -0.15116897695E+02 -0.30729191642E+02 -0.39810007074E+01  0.34795720735E+02  0.47000000000E+01 0. -1.
        -13    1    4    4    0    0  0.12857893303E+01  0.78953194270E+02 -0.15428658441E+03  0.17331938803E+03  0.00000000000E+00 0.  1.
         14    1    4    4    0    0  0.15843551495E+02 -0.14176670578E+02 -0.11440926223E+03  0.11636784520E+03  0.00000000000E+00 0. -1.
         -5    1    5    5    0  502  0.83076583255E+01 -0.71202090633E+02  0.64423014377E+02  0.96494402319E+02  0.47000000000E+01 0.  1.
         11    1    6    6    0    0  0.35646004284E+02  0.15411532130E+02  0.58175101356E-01  0.38834988456E+02  0.00000000000E+00 0. -1.
        -12    1    6    6    0    0 -0.45966105740E+02  0.21743226453E+02 -0.16035935087E+01  0.50874574059E+02  0.00000000000E+00 0.  1.
</event>
<event>
12    1  0.1040325E-001  0.1878905E+03  0.7818608E-02  0.1160454E+00
         21   -1    0    0  503  502  0.00000000000E+00  0.00000000000E+00  0.16204901060E+04  0.16204901060E+04  0.00000000000E+00 0.  1.
         21   -1    0    0  501  503 -0.00000000000E+00 -0.00000000000E+00 -0.22360689417E+02  0.22360689417E+02  0.00000000000E+00 0.  1.
          6    2    1    2  501    0 -0.14304216184E+02 -0.74819472188E+02  0.66366257585E+03  0.68974695401E+03  0.17175646120E+03 0.  0.
         24    2    3    3    0    0  0.16721263701E+02 -0.10823880345E+03  0.39676777534E+03  0.41894378445E+03  0.78063997793E+02 0.  0.
         -6    2    1    2    0  502  0.14304216184E+02  0.74819472188E+02  0.93446684076E+03  0.95310384143E+03  0.17139455083E+03 0.  0.
        -24    2    5    5    0    0 -0.56555439355E+01  0.60852961253E+02  0.91757555779E+03  0.92308949666E+03  0.80088991249E+02 0.  0.
          5    1    3    3  501    0 -0.31025479885E+02  0.33419331260E+02  0.26689480051E+03  0.27080316956E+03  0.47000000000E+01 0. -1.
        -13    1    4    4    0    0  0.22582514156E+02 -0.95547987058E+02  0.39210147164E+03  0.40420657075E+03  0.00000000000E+00 0.  1.
         14    1    4    4    0    0 -0.58612504555E+01 -0.12690816390E+02  0.46663037052E+01  0.14737213706E+02  0.00000000000E+00 0. -1.
         -5    1    5    5    0  502  0.19959760120E+02  0.13966510935E+02  0.16891282969E+02  0.30014344772E+02  0.47000000000E+01 0.  1.
         13    1    6    6    0    0 -0.23283207308E+02 -0.28385583895E+01  0.94587216705E+02  0.97452073966E+02  0.00000000000E+00 0. -1.
        -14    1    6    6    0    0  0.17627663373E+02  0.63691519643E+02  0.82298834108E+03  0.82563742269E+03  0.00000000000E+00 0.  1.
</event>
<event>
12    1  0.1040325E-001  0.2194506E+03  0.7818608E-02  0.1134643E+00
         21   -1    0    0  501  502  0.00000000000E+00  0.00000000000E+00  0.25040146912E+03  0.25040146912E+03  0.00000000000E+00 0.  1.
         21   -1    0    0  502  503 -0.00000000000E+00 -0.00000000000E+00 -0.38191422449E+03  0.38191422449E+03  0.00000000000E+00 0. -1.
         -6    2    1    2    0  503  0.61825867788E+02 -0.11945139939E+03 -0.28960454650E+03  0.36335843523E+03  0.17339978188E+03 0.  0.
        -24    2    3    3    0    0 -0.27023368993E+01 -0.63887533605E+02 -0.58512542021E+02  0.11703174785E+03  0.78637095933E+02 0.  0.
          6    2    1    2  501    0 -0.61825867788E+02  0.11945139939E+03  0.15809179113E+03  0.26895725838E+03  0.17103776678E+03 0.  0.
         24    2    5    5    0    0 -0.65111597075E+02  0.10795926569E+03  0.18591961825E+03  0.23830855342E+03  0.79562171047E+02 0.  0.
          5    1    5    5  501    0  0.32857292871E+01  0.11492133693E+02 -0.27827827111E+02  0.30648704956E+02  0.47000000000E+01 0. -1.
        -11    1    6    6    0    0 -0.41418059460E+02  0.93583151571E+02  0.83128363460E+02  0.13184683052E+03  0.00000000000E+00 0.  1.
         12    1    6    6    0    0 -0.23693537615E+02  0.14376114124E+02  0.10279125479E+03  0.10646172290E+03  0.00000000000E+00 0. -1.
         -5    1    3    3    0  503  0.64528204688E+02 -0.55563865783E+02 -0.23109200448E+03  0.24632668738E+03  0.47000000000E+01 0.  1.
         13    1    4    4    0    0  0.36882846044E+02 -0.24999367286E+02 -0.16830795821E+02  0.47629700660E+02  0.00000000000E+00 0. -1.
        -14    1    4    4    0    0 -0.39585182943E+02 -0.38888166319E+02 -0.41681746200E+02  0.69402047193E+02  0.00000000000E+00 0.  1.
</event>
<event>
12    1  0.1040325E-001  0.1975426E+03  0.7818608E-02  0.1152511E+00
         21   -1    0    0  501  502  0.00000000000E+00  0.00000000000E+00  0.51823524494E+03  0.51823524494E+03  0.00000000000E+00 0.  1.
         21   -1    0    0  502  503 -0.00000000000E+00 -0.00000000000E+00 -0.78016549022E+02  0.78016549022E+02  0.00000000000E+00 0. -1.
         -6    2    1    2    0  503  0.16399395425E+02  0.89589416863E+02  0.15501193801E+03  0.25110116364E+03  0.17529372399E+03 0.  0.
        -24    2    3    3    0    0 -0.23986530848E+02  0.55011676662E+02  0.47796467015E+01  0.91669439973E+02  0.69128886662E+02 0.  0.
          6    2    1    2  501    0 -0.16399395425E+02 -0.89589416863E+02  0.28520675791E+03  0.34515063033E+03  0.17172902805E+03 0.  0.
         24    2    5    5    0    0  0.64697524684E+01  0.18548954140E+02  0.16048195840E+03  0.17843149279E+03  0.75481237740E+02 0.  0.
          5    1    5    5  501    0 -0.22869147893E+02 -0.10813837100E+03  0.12472479951E+03  0.16671913754E+03  0.47000000000E+01 0. -1.
        -13    1    6    6    0    0  0.36714344988E+02 -0.24032369307E+00  0.11470386580E+03  0.12043661284E+03  0.00000000000E+00 0.  1.
         14    1    6    6    0    0 -0.30244592520E+02  0.18789277833E+02  0.45778092603E+02  0.57994879951E+02  0.00000000000E+00 0. -1.
         -5    1    3    3    0  503  0.40385926273E+02  0.34577740201E+02  0.15023229131E+03  0.15943172366E+03  0.47000000000E+01 0.  1.
         11    1    4    4    0    0  0.15205853018E+02  0.49682547023E+02  0.39564500879E+01  0.52107839544E+02  0.00000000000E+00 0. -1.
        -12    1    4    4    0    0 -0.39192383866E+02  0.53291296393E+01  0.82319661366E+00  0.39561600429E+02  0.00000000000E+00 0.  1.
</event>
<event>
12    1  0.1040325E-001  0.1775996E+03  0.7818608E-02  0.1170235E+00
         21   -1    0    0  501  502  0.00000000000E+00  0.00000000000E+00  0.12161539634E+03  0.12161539634E+03  0.00000000000E+00 0.  1.
         21   -1    0    0  502  503 -0.00000000000E+00 -0.00000000000E+00 -0.26000907083E+03  0.26000907083E+03  0.00000000000E+00 0.  1.
         -6    2    1    2    0  503 -0.37286005979E+02  0.11891813764E+02 -0.82121638248E+02  0.19566704897E+03  0.17323385671E+03 0.  0.
        -24    2    3    3    0    0  0.13864878723E+02  0.63926088873E+02 -0.64077406098E+02  0.12035660411E+03  0.78109016637E+02 0.  0.
          6    2    1    2  501    0  0.37286005979E+02 -0.11891813764E+02 -0.56272036238E+02  0.18595741820E+03  0.17286398655E+03 0.  0.
         24    2    5    5    0    0  0.30881519244E+02 -0.73848485982E+02 -0.50402284713E+02  0.12321835010E+03  0.78962677165E+02 0.  0.
          5    1    5    5  501    0  0.64044867350E+01  0.61956672218E+02 -0.58697515249E+01  0.62739068097E+02  0.47000000000E+01 0. -1.
        -11    1    6    6    0    0  0.33497663172E+02  0.28971033521E+01 -0.49511174444E+01  0.33985294022E+02  0.00000000000E+00 0.  1.
         12    1    6    6    0    0 -0.26161439284E+01 -0.76745589334E+02 -0.45451167269E+02  0.89233056080E+02  0.00000000000E+00 0. -1.
         -5    1    3    3    0  503 -0.51150884702E+02 -0.52034275109E+02 -0.18044232150E+02  0.75310444865E+02  0.47000000000E+01 0.  1.
         13    1    4    4    0    0 -0.33624049559E+01 -0.14563590429E+02  0.35112331058E+01  0.15353588870E+02  0.00000000000E+00 0. -1.
        -14    1    4    4    0    0  0.17227283679E+02  0.78489679302E+02 -0.67588639204E+02  0.10500301524E+03  0.00000000000E+00 0.  1.
</event>
<event>
12    1  0.1040325E-001  0.1995523E+03  0.7818608E-02  0.1150141E+00
         21   -1    0    0  503  502  0.00000000000E+00  0.00000000000E+00  0.11797179618E+03  0.11797179618E+03  0.00000000000E+00 0. -1.
         21   -1    0    0  501  503 -0.00000000000E+00 -0.00000000000E+00 -0.35586130433E+03  0.35586130433E+03  0.00000000000E+00 0.  1.
          6    2    1    2  501    0  0.10017476060E+03  0.31215752777E+01 -0.64894221088E+02  0.20973367269E+03  0.17243035301E+03 0.  0.
         24    2    3    3    0    0  0.13612952145E+03 -0.14448263581E+02 -0.47063962033E+02  0.16567175940E+03  0.80573670690E+02 0.  0.
         -6    2    1    2    0  502 -0.10017476060E+03 -0.31215752777E+01 -0.17299528707E+03  0.26409942782E+03  0.17255842933E+03 0.  0.
        -24    2    5    5    0    0 -0.75035371045E+02 -0.37603395764E+02 -0.18609194717E+03  0.21921516156E+03  0.79879609280E+02 0.  0.
          5    1    3    3  501    0 -0.35954760851E+02  0.17569838859E+02 -0.17830259055E+02  0.44061913297E+02  0.47000000000E+01 0. -1.
        -13    1    4    4    0    0  0.91043825422E+02  0.26986317365E+02 -0.13710775355E+02  0.95943862927E+02  0.00000000000E+00 0.  1.
         14    1    4    4    0    0  0.45085696028E+02 -0.41434580947E+02 -0.33353186678E+02  0.69727896470E+02  0.00000000000E+00 0. -1.
         -5    1    5    5    0  502 -0.25139389554E+02  0.34481820486E+02  0.13096660098E+02  0.44884266252E+02  0.47000000000E+01 0.  1.
         13    1    6    6    0    0 -0.32585092077E+02 -0.20103851470E+02 -0.13465457639E+02  0.40586594081E+02  0.00000000000E+00 0. -1.
        -14    1    6    6    0    0 -0.42450278968E+02 -0.17499544294E+02 -0.17262648953E+03  0.17862856748E+03  0.00000000000E+00 0.  1.
</event>
<event>
12    1  0.1040325E-001  0.3166820E+03  0.7818608E-02  0.1077913E+00
         21   -1    0    0  503  502  0.00000000000E+00  0.00000000000E+00  0.83226741154E+02  0.83226741154E+02  0.00000000000E+00 0.  1.
         21   -1    0    0  501  503 -0.00000000000E+00 -0.00000000000E+00 -0.11822428334E+04  0.11822428334E+04  0.00000000000E+00 0.  1.
          6    2    1    2  501    0 -0.25050405565E+03 -0.99425724000E+02 -0.52981720408E+03  0.61410574434E+03  0.15421361483E+03 0.  0.
         24    2    3    3    0    0 -0.23602922157E+03 -0.12461727371E+03 -0.49850533699E+03  0.57113298530E+03  0.80287343627E+02 0.  0.
         -6    2    1    2    0  502  0.25050405565E+03  0.99425724000E+02 -0.56919888818E+03  0.65136383023E+03  0.16628201507E+03 0.  0.
        -24    2    5    5    0    0  0.21726850397E+03  0.87192289475E+02 -0.35458052322E+03  0.43379225259E+03  0.87408654058E+02 0.  0.
          5    1    3    3  501    0 -0.14474834080E+02  0.25191549714E+02 -0.31311867083E+02  0.42972759033E+02  0.47000000000E+01 0. -1.
        -11    1    4    4    0    0 -0.15078190890E+03 -0.11174441440E+03 -0.28910410379E+03  0.34467837331E+03  0.00000000000E+00 0.  1.
         12    1    4    4    0    0 -0.85247312675E+02 -0.12872859313E+02 -0.20940123321E+03  0.22645461199E+03  0.00000000000E+00 0. -1.
         -5    1    5    5    0  502  0.33235551682E+02  0.12233434525E+02 -0.21461836496E+03  0.21757157764E+03  0.47000000000E+01 0.  1.
         13    1    6    6    0    0  0.79314710222E+02 -0.20698124280E+01 -0.73210217019E+02  0.10795759935E+03  0.00000000000E+00 0. -1.
        -14    1    6    6    0    0  0.13795379375E+03  0.89262101903E+02 -0.28137030620E+03  0.32583465325E+03  0.00000000000E+00 0.  1.
</event>
<event>
12    1  0.1040325E-001  0.2485051E+03  0.7818608E-02  0.1114755E+00
         21   -1    0    0  501  502  0.00000000000E+00  0.00000000000E+00  0.24202847835E+03  0.24202847835E+03  0.00000000000E+00 0.  1.
         21   -1    0    0  502  503 -0.00000000000E+00 -0.00000000000E+00 -0.10197257542E+04  0.10197257542E+04  0.00000000000E+00 0. -1.
         -6    2    1    2    0  503  0.40159188323E+02 -0.17028828547E+03  0.15795883380E+03  0.29445847001E+03  0.17647644831E+03 0.  0.
        -24    2    3    3    0    0 -0.19701277134E+02 -0.11850652084E+03  0.36554152828E+02  0.14945566646E+03  0.81048469124E+02 0.  0.
          6    2    1    2  501    0 -0.40159188323E+02  0.17028828547E+03 -0.93565610970E+03  0.96729576259E+03  0.17204033286E+03 0.  0.
         24    2    5    5    0    0 -0.45362665263E+02  0.32245159732E+02 -0.52717095389E+03  0.53605894453E+03  0.79702293926E+02 0.  0.
          5    1    5    5  501    0  0.52034769397E+01  0.13804312574E+03 -0.40848515581E+03  0.43123681806E+03  0.47000000000E+01 0. -1.
        -11    1    6    6    0    0  0.53315445199E+00 -0.43721693970E+00 -0.35301380907E+03  0.35301448243E+03  0.00000000000E+00 0.  1.
         12    1    6    6    0    0 -0.45895819715E+02  0.32682376672E+02 -0.17415714482E+03  0.18304446210E+03  0.00000000000E+00 0. -1.
         -5    1    3    3    0  503  0.59860465457E+02 -0.51781764634E+02  0.12140468097E+03  0.14500280354E+03  0.47000000000E+01 0.  1.
         13    1    4    4    0    0 -0.47662049649E+02 -0.10140319636E+03  0.26019344243E+02  0.11502732495E+03  0.00000000000E+00 0. -1.
        -14    1    4    4    0    0  0.27960772515E+02 -0.17103324474E+02  0.10534808585E+02  0.34428341517E+02  0.00000000000E+00 0.  1.
</event>
<event>
12    1  0.1040325E-001  0.1876981E+03  0.7818608E-02  0.1162172E+00
         21   -1    0    0  501  502  0.00000000000E+00  0.00000000000E+00  0.36109939207E+03  0.36109939207E+03  0.00000000000E+00 0. -1.
         21   -1    0    0  502  503 -0.00000000000E+00 -0.00000000000E+00 -0.94191922341E+02  0.94191922341E+02  0.00000000000E+00 0. -1.
         -6    2    1    2    0  503 -0.63813465431E+02  0.32553534665E+02  0.12069414378E+03  0.21736503949E+03  0.16597768844E+03 0.  0.
        -24    2    3    3    0    0 -0.81208967994E+02 -0.24346092638E+02  0.62643465691E+02  0.13410555160E+03  0.82900340572E+02 0.  0.
          6    2    1    2  501    0  0.63813465431E+02 -0.32553534665E+02  0.14621332595E+03  0.23792627492E+03  0.17348972484E+03 0.  0.
         24    2    5    5    0    0  0.23654472142E+02 -0.69050681673E+02  0.14833509927E+03  0.18341592358E+03  0.79439087696E+02 0.  0.
          5    1    5    5  501    0  0.40158993289E+02  0.36497147009E+02 -0.21217733233E+01  0.54510351346E+02  0.47000000000E+01 0. -1.
        -13    1    6    6    0    0  0.15447580747E+02 -0.18640942205E+02 -0.23376211586E+01  0.24322354941E+02  0.00000000000E+00 0.  1.
         14    1    6    6    0    0  0.82068913948E+01 -0.50409739469E+02  0.15067272043E+03  0.15909356863E+03  0.00000000000E+00 0. -1.
         -5    1    3    3    0  503  0.17395502563E+02  0.56899627303E+02  0.58050678090E+02  0.83259487888E+02  0.47000000000E+01 0.  1.
         11    1    4    4    0    0 -0.44328489737E+02  0.17869145455E+02  0.61693813090E+02  0.78041321973E+02  0.00000000000E+00 0. -1.
        -12    1    4    4    0    0 -0.36880478257E+02 -0.42215238093E+02  0.94965260104E+00  0.56064229628E+02  0.00000000000E+00 0.  1.
</event>
<event>
12    1  0.1040325E-001  0.2101303E+03  0.7818608E-02  0.1141541E+00
         21   -1    0    0  501  502  0.00000000000E+00  0.00000000000E+00  0.30256434811E+03  0.30256434811E+03  0.00000000000E+00 0.  1.
         21   -1    0    0  502  503 -0.00000000000E+00 -0.00000000000E+00 -0.33971229189E+03  0.33971229189E+03  0.00000000000E+00 0. -1.
         -6    2    1    2    0  503  0.11184644849E+03 -0.42507368856E+02 -0.26129644787E+03  0.33530668619E+03  0.17273747621E+03 0.  0.
        -24    2    3    3    0    0  0.44964660581E+02 -0.80570199049E+02 -0.10705683726E+03  0.16287148075E+03  0.80947978109E+02 0.  0.
          6    2    1    2  501    0 -0.11184644849E+03  0.42507368856E+02  0.22414850410E+03  0.30696995380E+03  0.17225416163E+03 0.  0.
         24    2    5    5    0    0 -0.98087753230E+02  0.89152233616E+02  0.20249847705E+03  0.25352971826E+03  0.75513950621E+02 0.  0.
          5    1    5    5  501    0 -0.13758695259E+02 -0.46644864760E+02  0.21650027044E+02  0.53440235542E+02  0.47000000000E+01 0. -1.
        -11    1    6    6    0    0 -0.83361458142E+02  0.96072268537E+02  0.14090905093E+03  0.18982722175E+03  0.00000000000E+00 0.  1.
         12    1    6    6    0    0 -0.14726295088E+02 -0.69200349213E+01  0.61589426125E+02  0.63702496503E+02  0.00000000000E+00 0. -1.
         -5    1    3    3    0  503  0.66881787908E+02  0.38062830194E+02 -0.15423961061E+03  0.17243520545E+03  0.47000000000E+01 0.  1.
         11    1    4    4    0    0 -0.16259747111E+01 -0.31426209885E+02 -0.86584979572E+02  0.92126050328E+02  0.00000000000E+00 0. -1.
        -12    1    4    4    0    0  0.46590635292E+02 -0.49143989165E+02 -0.20471857691E+02  0.70745430419E+02  0.00000000000E+00 0.  1.
</event>
<event>
12    1  0.1040325E-001  0.1940069E+03  0.7818608E-02  0.1154940E+00
         21   -1    0    0  501  502  0.00000000000E+00  0.00000000000E+00  0.10098121052E+04  0.10098121052E+04  0.00000000000E+00 0.  1.
         21   -1    0    0  502  503 -0.00000000000E+00 -0.00000000000E+00 -0.48109004434E+02  0.48109004434E+02  0.00000000000E+00 0.  1.
         -6    2    1    2    0  503  0.56626154308E+02  0.70462648525E+02  0.22918066441E+03  0.30014291669E+03  0.17143654018E+03 0.  0.
        -24    2    3    3    0    0 -0.16974064536E+02  0.14217298886E+02  0.16361221118E+03  0.18655663394E+03  0.86857190631E+02 0.  0.
          6    2    1    2  501    0 -0.56626154308E+02 -0.70462648525E+02  0.73252243633E+03  0.75777819292E+03  0.17166002373E+03 0.  0.
         24    2    5    5    0    0  0.33609733418E+02 -0.55803792526E+02  0.41511759358E+03  0.42743697282E+03  0.78333082390E+02 0.  0.
          5    1    5    5  501    0 -0.90235887726E+02 -0.14658855999E+02  0.31740484275E+03  0.33034122010E+03  0.47000000000E+01 0. -1.
        -13    1    6    6    0    0  0.35864036078E+02  0.64820899942E+01  0.10576295080E+03  0.11186620730E+03  0.00000000000E+00 0.  1.
         14    1    6    6    0    0 -0.22543026601E+01 -0.62285882520E+02  0.30935464278E+03  0.31557076552E+03  0.00000000000E+00 0. -1.
         -5    1    3    3    0  503  0.73600218844E+02  0.56245349639E+02  0.65568453227E+02  0.11358628275E+03  0.47000000000E+01 0.  1.
         13    1    4    4    0    0 -0.22985795176E+02  0.10096903650E+02  0.17292106785E+03  0.17473405492E+03  0.00000000000E+00 0. -1.
        -14    1    4    4    0    0  0.60117306405E+01  0.41203952357E+01 -0.93088566666E+01  0.11822579018E+02  0.00000000000E+00 0.  1.
</event>
<event>
12    1  0.1040325E-001  0.1773767E+03  0.7818608E-02  0.1171231E+00
         21   -1    0    0  503  502  0.00000000000E+00  0.00000000000E+00  0.85981128781E+02  0.85981128781E+02  0.00000000000E+00 0. -1.
         21   -1    0    0  501  503 -0.00000000000E+00 -0.00000000000E+00 -0.81635210031E+03  0.81635210031E+03  0.00000000000E+00 0. -1.
          6    2    1    2  501    0  0.37801562481E+02 -0.21901737638E+02 -0.70136069228E+03  0.72259982980E+03  0.16833017885E+03 0.  0.
         24    2    3    3    0    0  0.27692489135E+02  0.41586120673E+02 -0.49852858265E+03  0.50977159809E+03  0.94021567256E+02 0.  0.
         -6    2    1    2    0  502 -0.37801562481E+02  0.21901737638E+02 -0.29010279246E+02  0.17973339929E+03  0.17191234476E+03 0.  0.
        -24    2    5    5    0    0 -0.45618158303E+02  0.78013408926E+02 -0.10731956502E+02  0.12001902994E+03  0.78245027427E+02 0.  0.
          5    1    3    3  501    0  0.10109073346E+02 -0.63487858311E+02 -0.20283210963E+03  0.21282823171E+03  0.47000000000E+01 0. -1.
        -11    1    4    4    0    0  0.58942916319E+02  0.13423938544E+02 -0.22293900871E+03  0.23098976409E+03  0.00000000000E+00 0.  1.
         12    1    4    4    0    0 -0.31250427184E+02  0.28162182129E+02 -0.27558957394E+03  0.27878183399E+03  0.00000000000E+00 0. -1.
         -5    1    5    5    0  502  0.78165958215E+01 -0.56111671288E+02 -0.18278322745E+02  0.59714369354E+02  0.47000000000E+01 0.  1.
         11    1    6    6    0    0  0.19255085173E+01  0.10896114851E+02  0.27258570657E+02  0.29418745319E+02  0.00000000000E+00 0. -1.
        -12    1    6    6    0    0 -0.47543666820E+02  0.67117294075E+02 -0.37990527159E+02  0.90600284616E+02  0.00000000000E+00 0.  1.
</event>
<event>
12    1  0.1040325E-001  0.2834672E+03  0.7818608E-02  0.1094028E+00
         21   -1    0    0  503  502  0.00000000000E+00  0.00000000000E+00  0.34639546783E+03  0.34639546783E+03  0.00000000000E+00 0. -1.
         21   -1    0    0  501  503 -0.00000000000E+00 -0.00000000000E+00 -0.55147632463E+03  0.55147632463E+03  0.00000000000E+00 0.  1.
          6    2    1    2  501    0 -0.16677372737E+03  0.15222745668E+03 -0.44483522017E+03  0.52660931755E+03  0.16867817144E+03 0.  0.
         24    2    3    3    0    0 -0.14325344429E+03  0.62279787310E+02 -0.36662364992E+03  0.40502425818E+03  0.72328609995E+02 0.  0.
         -6    2    1    2    0  502  0.16677372737E+03 -0.15222745668E+03  0.23975436337E+03  0.37126247492E+03  0.17136801283E+03 0.  0.
        -24    2    5    5    0    0  0.59871468468E+02 -0.22567447675E+02  0.32516436900E+02  0.10441146956E+03  0.75832406504E+02 0.  0.
          5    1    3    3  501    0 -0.23520283078E+02  0.89947669370E+02 -0.78211570245E+02  0.12158505937E+03  0.47000000000E+01 0. -1.
        -13    1    4    4    0    0 -0.13899036626E+03  0.62349152320E+02 -0.28387403376E+03  0.32216487355E+03  0.00000000000E+00 0.  1.
         14    1    4    4    0    0 -0.42630780315E+01 -0.69365010351E-01 -0.82749616167E+02  0.82859384632E+02  0.00000000000E+00 0. -1.
         -5    1    5    5    0  502  0.10690225890E+03 -0.12966000900E+03  0.20723792647E+03  0.26685100536E+03  0.47000000000E+01 0.  1.
         11    1    6    6    0    0  0.41430817044E+02 -0.33662729460E+02  0.52623038790E+02  0.74959163330E+02  0.00000000000E+00 0. -1.
        -12    1    6    6    0    0  0.18440651424E+02  0.11095281785E+02 -0.20106601889E+02  0.29452306232E+02  0.00000000000E+00 0.  1.
</event>
<event>
12    1  0.1040325E-001  0.2057759E+03  0.7818608E-02  0.1145427E+00
         21   -1    0    0  501  502  0.00000000000E+00  0.00000000000E+00  0.55186384000E+03  0.55186384000E+03  0.00000000000E+00 0. -1.
         21   -1    0    0  502  503 -0.00000000000E+00 -0.00000000000E+00 -0.80349620813E+02  0.80349620813E+02  0.00000000000E+00 0. -1.
         -6    2    1    2    0  503 -0.53849539296E+02 -0.97313654901E+02  0.30912883034E+03  0.37008233869E+03  0.17038363581E+03 0.  0.
        -24    2    3    3    0    0 -0.75437122745E+02 -0.77596675516E+02  0.31251586474E+03  0.34027722105E+03  0.80065085476E+02 0.  0.
          6    2    1    2  501    0  0.53849539296E+02  0.97313654901E+02  0.16238538885E+03  0.26213112213E+03  0.17312998112E+03 0.  0.
         24    2    5    5    0    0  0.63351503276E+02 -0.37330132146E+01  0.94359424476E+02  0.13985954617E+03  0.81422621629E+02 0.  0.
          5    1    5    5  501    0 -0.95019639800E+01  0.10104666812E+03  0.68025964377E+02  0.12227157595E+03  0.47000000000E+01 0. -1.
        -13    1    6    6    0    0  0.68701828861E+02 -0.64188626512E+01  0.30030631693E+02  0.75252786835E+02  0.00000000000E+00 0.  1.
         14    1    6    6    0    0 -0.53503255846E+01  0.26858494366E+01  0.64328792783E+02  0.64606759337E+02  0.00000000000E+00 0. -1.
         -5    1    3    3    0  503  0.21587583449E+02 -0.19716979385E+02 -0.33870344089E+01  0.29805117636E+02  0.47000000000E+01 0.  1.
         13    1    4    4    0    0 -0.45098287683E+02 -0.21489488483E+02  0.52168664941E+02  0.72230348670E+02  0.00000000000E+00 0. -1.
        -14    1    4    4    0    0 -0.30338835062E+02 -0.56107187033E+02  0.26034719980E+03  0.26804687238E+03  0.00000000000E+00 0.  1.
</event>
<event>
12    1  0.1040325E-001  0.2014310E+03  0.7818608E-02  0.1149679E+00
         21   -1    0    0  503  502  0.00000000000E+00  0.00000000000E+00  0.20505600179E+03  0.20505600179E+03  0.00000000000E+00 0.  1.
         21   -1    0    0  501  503 -0.00000000000E+00 -0.00000000000E+00 -0.19626008849E+03  0.19626008849E+03  0.00000000000E+00 0.  1.
          6    2    1    2  501    0  0.65167658014E+02 -0.66049520399E+02 -0.22885917869E+02  0.20272689269E+03  0.17878776521E+03 0.  0.
         24    2    3    3    0    0  0.64583163400E+02 -0.10770506173E+03 -0.43553134282E+02  0.15598558771E+03  0.81628810784E+02 0.  0.
         -6    2    1    2    0  502 -0.65167658014E+02  0.66049520399E+02  0.31681831176E+02  0.19858919759E+03  0.17269791017E+03 0.  0.
        -24    2    5    5    0    0 -0.56527054994E+02  0.10789465804E+03  0.12357695670E+01  0.14591350839E+03  0.80328448412E+02 0.  0.
          5    1    3    3  501    0  0.58449461462E+00  0.41655541329E+02  0.20667216413E+02  0.46741304985E+02  0.47000000000E+01 0. -1.
        -11    1    4    4    0    0  0.30200359878E+02 -0.72068018216E+02 -0.65365531559E+02  0.10187499056E+03  0.00000000000E+00 0.  1.
         12    1    4    4    0    0  0.34382803522E+02 -0.35637043512E+02  0.21812397277E+02  0.54110597144E+02  0.00000000000E+00 0. -1.
         -5    1    5    5    0  502 -0.86406030199E+01 -0.41845137642E+02  0.30446061609E+02  0.52675689197E+02  0.47000000000E+01 0.  1.
         11    1    6    6    0    0 -0.41851105505E+02  0.18829648215E+02  0.25422688490E+02  0.52463165878E+02  0.00000000000E+00 0. -1.
        -12    1    6    6    0    0 -0.14675949490E+02  0.89065009827E+02 -0.24186918923E+02  0.93450342513E+02  0.00000000000E+00 0.  1.
</event>
<event>
12    1  0.1040325E-001  0.1807955E+03  0.7818608E-02  0.1168830E+00
         21   -1    0    0  501  502  0.00000000000E+00  0.00000000000E+00  0.21350279769E+03  0.21350279769E+03  0.00000000000E+00 0.  1.
         21   -1    0    0  502  503 -0.00000000000E+00 -0.00000000000E+00 -0.27851382133E+03  0.27851382133E+03  0.00000000000E+00 0.  1.
         -6    2    1    2    0  503  0.12751318890E+02 -0.64907939665E+01 -0.20190128923E+03  0.27101871115E+03  0.18022842356E+03 0.  0.
        -24    2    3    3    0    0  0.79888384120E+01  0.67726783521E+02 -0.13220851787E+03  0.16898880177E+03  0.80170968431E+02 0.  0.
          6    2    1    2  501    0 -0.12751318890E+02  0.64907939665E+01  0.13689026560E+03  0.22099790787E+03  0.17290576604E+03 0.  0.
         24    2    5    5    0    0  0.46833588513E+02  0.34638260988E+02  0.11336940956E+03  0.15086972696E+03  0.80720860686E+02 0.  0.
          5    1    5    5  501    0 -0.59584907403E+02 -0.28147467022E+02  0.23520856032E+02  0.70128180915E+02  0.47000000000E+01 0. -1.
        -11    1    6    6    0    0  0.12373941095E+02 -0.16580030445E+02  0.75872011627E+02  0.78642062385E+02  0.00000000000E+00 0.  1.
         12    1    6    6    0    0  0.34459647418E+02  0.51218291433E+02  0.37497397937E+02  0.72227664572E+02  0.00000000000E+00 0. -1.
         -5    1    3    3    0  503  0.47624804784E+01 -0.74217577488E+02 -0.69692771356E+02  0.10202990938E+03  0.47000000000E+01 0.  1.
         13    1    4    4    0    0  0.17880277899E+02  0.12220386121E+02  0.35884833646E+01  0.21952662425E+02  0.00000000000E+00 0. -1.
        -14    1    4    4    0    0 -0.98914394868E+01  0.55506397400E+02 -0.13579700124E+03  0.14703613934E+03  0.00000000000E+00 0.  1.
</event>
<event>
12    1  0.1040325E-001  0.2063866E+03  0.7818608E-02  0.1144762E+00
         21   -1    0    0  503  502  0.00000000000E+00  0.00000000000E+00  0.64213036875E+02  0.64213036875E+02  0.00000000000E+00 0.  1.
         21   -1    0    0  501  503 -0.00000000000E+00 -0.00000000000E+00 -0.79480524411E+03  0.79480524411E+03  0.00000000000E+00 0.  1.
          6    2    1    2  501    0 -0.26770305398E+02 -0.10696644048E+03 -0.54420491955E+03  0.58202612554E+03  0.17446188039E+03 0.  0.
         24    2    3    3    0    0 -0.84498918114E+02 -0.86663326596E+02 -0.37907454985E+03  0.40585876716E+03  0.79832482129E+02 0.  0.
         -6    2    1    2    0  502  0.26770305398E+02  0.10696644048E+03 -0.18638728769E+03  0.27699215545E+03  0.17270195288E+03 0.  0.
        -24    2    5    5    0    0  0.32742955816E+02  0.33111085735E+02 -0.15923973073E+02  0.91061744791E+02  0.76617382439E+02 0.  0.
          5    1    3    3  501    0  0.57728612717E+02 -0.20303113882E+02 -0.16513036970E+03  0.17616735837E+03  0.47000000000E+01 0. -1.
        -13    1    4    4    0    0 -0.52917267019E+02 -0.92897300194E+02 -0.33231796307E+03  0.34909221434E+03  0.00000000000E+00 0.  1.
         14    1    4    4    0    0 -0.31581651096E+02  0.62339735984E+01 -0.46756586778E+02  0.56766552827E+02  0.00000000000E+00 0. -1.
         -5    1    5    5    0  502 -0.59726504184E+01  0.73855354743E+02 -0.17046331462E+03  0.18593041066E+03  0.47000000000E+01 0.  1.
         11    1    6    6    0    0 -0.22735086265E+02 -0.17841153746E+01 -0.11049233943E+02  0.25340733728E+02  0.00000000000E+00 0. -1.
        -12    1    6    6    0    0  0.55478042081E+02  0.34895201109E+02 -0.48747391306E+01  0.65721011063E+02  0.00000000000E+00 0.  1.
</event>
<event>
12    1  0.1040325E-001  0.1788386E+03  0.7818608E-02  0.1169469E+00
         21   -1    0    0  501  502  0.00000000000E+00  0.00000000000E+00  0.46146318035E+03  0.46146318035E+03  0.00000000000E+00 0. -1.
         21   -1    0    0  502  503 -0.00000000000E+00 -0.00000000000E+00 -0.74194778289E+02  0.74194778289E+02  0.00000000000E+00 0. -1.
         -6    2    1    2    0  503  0.33631113186E+02 -0.23221621149E+02  0.12029647568E+03  0.21553299504E+03  0.17410610106E+03 0.  0.
        -24    2    3    3    0    0  0.21300478583E+02  0.37529656022E+02  0.12494817744E+03  0.15319127099E+03  0.77416619631E+02 0.  0.
          6    2    1    2  501    0 -0.33631113186E+02  0.23221621149E+02  0.26697192639E+03  0.32012496360E+03  0.17185949895E+03 0.  0.
         24    2    5    5    0    0 -0.32219295882E+02 -0.59248405791E+00  0.41643393272E+02  0.93488376373E+02  0.77249402905E+02 0.  0.
          5    1    5    5  501    0 -0.14118173046E+01  0.23814105206E+02  0.22532853312E+03  0.22663658723E+03  0.47000000000E+01 0. -1.
        -11    1    6    6    0    0 -0.18425185142E+02 -0.30129074470E+02  0.48677321030E+02  0.60139256385E+02  0.00000000000E+00 0.  1.
         12    1    6    6    0    0 -0.13794110740E+02  0.29536590412E+02 -0.70339277576E+01  0.33349119988E+02  0.00000000000E+00 0. -1.
         -5    1    3    3    0  503  0.12330634603E+02 -0.60751277170E+02 -0.46517017610E+01  0.62341724044E+02  0.47000000000E+01 0.  1.
         11    1    4    4    0    0 -0.76049729837E+01 -0.21239341074E+02  0.24764591545E+02  0.33499704741E+02  0.00000000000E+00 0. -1.
        -12    1    4    4    0    0  0.28905451567E+02  0.58768997096E+02  0.10018358589E+03  0.11969156625E+03  0.00000000000E+00 0.  1.
</event>
<event>
12    1  0.1040325E-001  0.2083829E+03  0.7818608E-02  0.1142928E+00
         21   -1    0    0  501  502  0.00000000000E+00  0.00000000000E+00  0.22491689403E+03  0.22491689403E+03  0.00000000000E+00 0. -1.
         21   -1    0    0  502  503 -0.00000000000E+00 -0.00000000000E+00 -0.20176184070E+03  0.20176184070E+03  0.00000000000E+00 0. -1.
         -6    2    1    2    0  503 -0.75621366169E+02  0.89993386773E+02 -0.33599131624E+02  0.21070542611E+03  0.17161140482E+03 0.  0.
        -24    2    3    3    0    0 -0.75621425120E+02  0.19408286672E+02  0.30210968246E+02  0.11543698852E+03  0.79484049890E+02 0.  0.
          6    2    1    2  501    0  0.75621366169E+02 -0.89993386773E+02  0.56754184953E+02  0.21597330861E+03  0.17206403413E+03 0.  0.
         24    2    5    5    0    0  0.10339950565E+03 -0.22179698111E+02  0.20552361230E+02  0.13410155864E+03  0.79858823550E+02 0.  0.
          5    1    5    5  501    0 -0.27778139486E+02 -0.67813688663E+02  0.36201823723E+02  0.81871749977E+02  0.47000000000E+01 0. -1.
        -13    1    6    6    0    0  0.64333989501E+01  0.24167739489E+02  0.26836075447E+01  0.25152932304E+02  0.00000000000E+00 0.  1.
         14    1    6    6    0    0  0.96966106705E+02 -0.46347437600E+02  0.17868753685E+02  0.10894862633E+03  0.00000000000E+00 0. -1.
         -5    1    3    3    0  503  0.58951284721E-04  0.70585100102E+02 -0.63810099870E+02  0.95268437595E+02  0.47000000000E+01 0.  1.
         13    1    4    4    0    0 -0.48182362570E+02 -0.17747963750E+02  0.43583768309E+02  0.67350390794E+02  0.00000000000E+00 0. -1.
        -14    1    4    4    0    0 -0.27439062551E+02  0.37156250422E+02 -0.13372800064E+02  0.48086597724E+02  0.00000000000E+00 0.  1.
</event>
<event>
12    1  0.1040325E-001  0.1990250E+03  0.7818608E-02  0.1150669E+00
         21   -1    0    0  501  502  0.00000000000E+00  0.00000000000E+00  0.80435873919E+02  0.80435873919E+02  0.00000000000E+00 0. -1.
         21   -1    0    0  502  503 -0.00000000000E+00 -0.00000000000E+00 -0.53405015025E+03  0.53405015025E+03  0.00000000000E+00 0.  1.
         -6    2    1    2    0  503  0.33138477021E+01 -0.10057721575E+03 -0.14007452924E+03  0.24337590476E+03  0.17170963677E+03 0.  0.
        -24    2    3    3    0    0  0.44720321858E+02 -0.77060159451E+02 -0.29557510835E+02  0.12294480663E+03  0.79395237059E+02 0.  0.
          6    2    1    2  501    0 -0.33138477021E+01  0.10057721575E+03 -0.31353974709E+03  0.37111011941E+03  0.17113967925E+03 0.  0.
         24    2    5    5    0    0 -0.45948320284E+02  0.35218819870E+02 -0.25544834955E+03  0.27371341191E+03  0.79457908117E+02 0.  0.
          5    1    5    5  501    0  0.42634472582E+02  0.65358395881E+02 -0.58091397538E+02  0.97396707503E+02  0.47000000000E+01 0. -1.
        -11    1    6    6    0    0  0.47093212138E+01  0.23510096267E+02 -0.18286037991E+03  0.18442565135E+03  0.00000000000E+00 0.  1.
         12    1    6    6    0    0 -0.50657641498E+02  0.11708723602E+02 -0.72587969634E+02  0.89287760562E+02  0.00000000000E+00 0. -1.
         -5    1    3    3    0  503 -0.41406474156E+02 -0.23517056300E+02 -0.11051701841E+03  0.12043109813E+03  0.47000000000E+01 0.  1.
         13    1    4    4    0    0  0.42570069563E+02 -0.93299449644E+02 -0.28916593994E+02  0.10655124370E+03  0.00000000000E+00 0. -1.
        -14    1    4    4    0    0  0.21502522953E+01  0.16239290193E+02 -0.64091684162E+00  0.16393562923E+02  0.00000000000E+00 0.  1.
</event>
<event>
12    1  0.1040325E-001  0.1792486E+03  0.7818608E-02  0.1171166E+00
         21   -1    0    0  501  502  0.00000000000E+00  0.00000000000E+00  0.28025176011E+03  0.28025176011E+03  0.00000000000E+00 0. -1.
         21   -1    0    0  502  503 -0.00000000000E+00 -0.00000000000E+00 -0.10811470590E+03  0.10811470590E+03  0.00000000000E+00 0. -1.
         -6    2    1    2    0  503 -0.22762199587E+02 -0.43676258375E+02  0.88594555851E+02  0.19060549396E+03  0.16141786061E+03 0.  0.
        -24    2    3    3    0    0  0.36215612793E+02  0.28091550594E-01  0.76586192496E+02  0.11607534337E+03  0.79350293377E+02 0.  0.
          6    2    1    2  501    0  0.22762199587E+02  0.43676258375E+02  0.83542498361E+02  0.19776097206E+03  0.17234941184E+03 0.  0.
         24    2    5    5    0    0  0.69871494037E+02 -0.37231156551E+01  0.26724972977E+02  0.10991845688E+03  0.80448466194E+02 0.  0.
          5    1    5    5  501    0 -0.47109294450E+02  0.47399374030E+02  0.56817525384E+02  0.87842515178E+02  0.47000000000E+01 0. -1.
        -13    1    6    6    0    0  0.46469993169E+01 -0.34110565742E+02  0.52293268617E+01  0.34820556534E+02  0.00000000000E+00 0.  1.
         14    1    6    6    0    0  0.65224494721E+02  0.30387450087E+02  0.21495646115E+02  0.75097900345E+02  0.00000000000E+00 0. -1.
         -5    1    3    3    0  503 -0.58977812380E+02 -0.43704349926E+02  0.12008363355E+02  0.74530150584E+02  0.47000000000E+01 0.  1.
         11    1    4    4    0    0  0.13783133870E+02 -0.38464686498E+02  0.48463965608E+02  0.63389769279E+02  0.00000000000E+00 0. -1.
        -12    1    4    4    0    0  0.22432478922E+02  0.38492778049E+02  0.28122226887E+02  0.52685574094E+02  0.00000000000E+00 0.  1.
</event>
<event>
12    1  0.1040325E-001  0.2864516E+03  0.7818608E-02  0.1093487E+00
         21   -1    0    0  501  502  0.00000000000E+00  0.00000000000E+00  0.21283950116E+03  0.21283950116E+03  0.00000000000E+00 0.  1.
         21   -1    0    0  502  503 -0.00000000000E+00 -0.00000000000E+00 -0.86226422644E+03  0.86226422644E+03  0.00000000000E+00 0. -1.
         -6    2    1    2    0  503  0.35273343242E+02  0.22636034837E+03 -0.73197388228E+03  0.78602815542E+03  0.17196302135E+03 0.  0.
        -24    2    3    3    0    0  0.67921815690E+02  0.20877456975E+03 -0.50741769973E+03  0.55838204523E+03  0.78215039550E+02 0.  0.
          6    2    1    2  501    0 -0.35273343242E+02 -0.22636034837E+03  0.82549157006E+02  0.28907557218E+03  0.15577903278E+03 0.  0.
         24    2    5    5    0    0 -0.50340111198E+02 -0.10675390091E+03  0.90054722654E+02  0.16819905136E+03  0.79060392430E+02 0.  0.
          5    1    5    5  501    0  0.15066767956E+02 -0.11960644746E+03 -0.75055656489E+01  0.12087652082E+03  0.47000000000E+01 0. -1.
        -11    1    6    6    0    0 -0.22330952556E+02 -0.10902556343E+03  0.57744161618E+02  0.12537796108E+03  0.00000000000E+00 0.  1.
         12    1    6    6    0    0 -0.28009158642E+02  0.22716625196E+01  0.32310561037E+02  0.42821090282E+02  0.00000000000E+00 0. -1.
         -5    1    3    3    0  503 -0.32648472448E+02  0.17585778616E+02 -0.22455618255E+03  0.22764611019E+03  0.47000000000E+01 0.  1.
         13    1    4    4    0    0  0.81848407952E+01  0.94470224071E+02 -0.29510781395E+03  0.30996812208E+03  0.00000000000E+00 0. -1.
        -14    1    4    4    0    0  0.59736974895E+02  0.11430434568E+03 -0.21230988578E+03  0.24841392314E+03  0.00000000000E+00 0.  1.
</event>
<event>
12    1  0.1040325E-001  0.1998994E+03  0.7818608E-02  0.1149890E+00
         21   -1    0    0  503  502  0.00000000000E+00  0.00000000000E+00  0.12493941767E+03  0.12493941767E+03  0.00000000000E+00 0. -1.
         21   -1    0    0  501  503 -0.00000000000E+00 -0.00000000000E+00 -0.32666301915E+03  0.32666301915E+03  0.00000000000E+00 0. -1.
          6    2    1    2  501    0  0.39850217755E+02 -0.92822381027E+02 -0.66960860634E+02  0.21051992523E+03  0.17213613155E+03 0.  0.
         24    2    3    3    0    0  0.73094012417E+02 -0.78727741219E+01 -0.34525789227E+02  0.11358845740E+03  0.79407759760E+02 0.  0.
         -6    2    1    2    0  502 -0.39850217755E+02  0.92822381027E+02 -0.13476274085E+03  0.24108251159E+03  0.17249854144E+03 0.  0.
        -24    2    5    5    0    0  0.28895626496E+02  0.70245416630E+02 -0.12687512524E+03  0.16814407931E+03  0.80035980761E+02 0.  0.
          5    1    3    3  501    0 -0.33243794662E+02 -0.84949606905E+02 -0.32435071407E+02  0.96931467821E+02  0.47000000000E+01 0. -1.
        -11    1    4    4    0    0  0.29851086532E+02  0.34362965437E+01 -0.56339995475E+02  0.63852099348E+02  0.00000000000E+00 0.  1.
         12    1    4    4    0    0  0.43242925885E+02 -0.11309070666E+02  0.21814206248E+02  0.49736358056E+02  0.00000000000E+00 0. -1.
         -5    1    5    5    0  502 -0.68745844251E+02  0.22576964397E+02 -0.78876156105E+01  0.72938432278E+02  0.47000000000E+01 0.  1.
         11    1    6    6    0    0  0.31560261596E+02 -0.61924018133E+01 -0.24905111631E+02  0.40677518823E+02  0.00000000000E+00 0. -1.
        -12    1    6    6    0    0 -0.26646351008E+01  0.76437818443E+02 -0.10197001361E+03  0.12746656049E+03  0.00000000000E+00 0.  1.
</event>
<event>
12    1  0.1040325E-001  0.1764004E+03  0.7818608E-02  0.1175003E+00
         21   -1    0    0  503  502  0.00000000000E+00  0.00000000000E+00  0.11335606664E+03  0.11335606664E+03  0.00000000000E+00 0. -1.
         21   -1    0    0  501  503 -0.00000000000E+00 -0.00000000000E+00 -0.40257820481E+03  0.40257820481E+03  0.00000000000E+00 0. -1.
          6    2    1    2  501    0 -0.11733452225E+02 -0.40277395622E+02 -0.30558072612E+03  0.35284087918E+03  0.17133932224E+03 0.  0.
         24    2    3    3    0    0 -0.67674106842E+01  0.39375045831E+02 -0.20952611125E+03  0.22786987440E+03  0.80170420241E+02 0.  0.
         -6    2    1    2    0  502  0.11733452225E+02  0.40277395622E+02  0.16358587959E+02  0.16309339227E+03  0.15675429405E+03 0.  0.
        -24    2    5    5    0    0 -0.44787217826E+02  0.23338549538E+01 -0.35393060589E+01  0.92013756591E+02  0.80266200577E+02 0.  0.
          5    1    3    3  501    0 -0.49660415403E+01 -0.79652441453E+02 -0.96054614871E+02  0.12497100478E+03  0.47000000000E+01 0. -1.
        -13    1    4    4    0    0  0.34453877940E+02  0.22993618545E+02 -0.68681058448E+02  0.80205136920E+02  0.00000000000E+00 0.  1.
         14    1    4    4    0    0 -0.41221288624E+02  0.16381427286E+02 -0.14084505281E+03  0.14766473748E+03  0.00000000000E+00 0. -1.
         -5    1    5    5    0  502  0.56520670050E+02  0.37943540668E+02  0.19897894018E+02  0.71079635675E+02  0.47000000000E+01 0.  1.
         11    1    6    6    0    0 -0.44041434384E+02  0.24611461675E+02  0.24588647652E+02  0.56124625449E+02  0.00000000000E+00 0. -1.
        -12    1    6    6    0    0 -0.74578344148E+00 -0.22277606721E+02 -0.28127953711E+02  0.35889131142E+02  0.00000000000E+00 0.  1.
</event>
<event>
12    1  0.1040325E-001  0.2599715E+03  0.7818608E-02  0.1107232E+00
         21   -1    0    0  503  502  0.00000000000E+00  0.00000000000E+00  0.13524889261E+03  0.13524889261E+03  0.00000000000E+00 0.  1.
         21   -1    0    0  501  503 -0.00000000000E+00 -0.00000000000E+00 -0.63581100512E+03  0.63581100512E+03  0.00000000000E+00 0. -1.
          6    2    1    2  501    0 -0.17905977239E+03 -0.76923317232E+02 -0.42942918587E+03  0.50199063315E+03  0.17206269574E+03 0.  0.
         24    2    3    3    0    0 -0.15347204063E+03 -0.91768101753E+02 -0.42948604965E+03  0.47203745506E+03  0.79912704754E+02 0.  0.
         -6    2    1    2    0  502  0.17905977239E+03  0.76923317232E+02 -0.71132926635E+02  0.26906926459E+03  0.17134403133E+03 0.  0.
        -24    2    5    5    0    0  0.30968853188E+02 -0.28250203065E+01 -0.51571872812E+02  0.99671972647E+02  0.79421618332E+02 0.  0.
          5    1    3    3  501    0 -0.25587731764E+02  0.14844784521E+02  0.56863775150E-01  0.29953178091E+02  0.47000000000E+01 0. -1.
        -13    1    4    4    0    0  0.45395438046E+01  0.76650717746E+01 -0.25149632763E+02  0.26680794804E+02  0.00000000000E+00 0.  1.
         14    1    4    4    0    0 -0.15801158443E+03 -0.99433173528E+02 -0.40433641689E+03  0.44535666025E+03  0.00000000000E+00 0. -1.
         -5    1    5    5    0  502  0.14809091920E+03  0.79748337539E+02 -0.19561053823E+02  0.16939729194E+03  0.47000000000E+01 0.  1.
         13    1    6    6    0    0  0.12188973766E+01  0.35179202169E+02 -0.32064614083E+02  0.47615138899E+02  0.00000000000E+00 0. -1.
        -14    1    6    6    0    0  0.29749955811E+02 -0.38004222476E+02 -0.19507258729E+02  0.52056833748E+02  0.00000000000E+00 0.  1.
</event>
<event>
12    1  0.1040325E-001  0.1978716E+03  0.7818608E-02  0.1151573E+00
         21   -1    0    0  503  502  0.00000000000E+00  0.00000000000E+00  0.18083292558E+03  0.18083292558E+03  0.00000000000E+00 0. -1.
         21   -1    0    0  501  503 -0.00000000000E+00 -0.00000000000E+00 -0.35081801651E+03  0.35081801651E+03  0.00000000000E+00 0. -1.
          6    2    1    2  501    0  0.93725552111E+02  0.29218942542E+02 -0.24953011424E+03  0.31838915606E+03  0.17166289949E+03 0.  0.
         24    2    3    3    0    0  0.44404509574E+02 -0.39028430825E+02 -0.19277212225E+03  0.21673371418E+03  0.79482280178E+02 0.  0.
         -6    2    1    2    0  502 -0.93725552111E+02 -0.29218942542E+02  0.79545023310E+02  0.21326178603E+03  0.17179916450E+03 0.  0.
        -24    2    5    5    0    0  0.33491493700E+01 -0.35479130092E+02  0.76263404609E+02  0.11581669052E+03  0.79545040373E+02 0.  0.
          5    1    3    3  501    0  0.49321042537E+02  0.68247373367E+02 -0.56757991990E+02  0.10165544188E+03  0.47000000000E+01 0. -1.
        -11    1    4    4    0    0  0.15881132894E+02 -0.10349576390E+02  0.80788415322E+00  0.18973054320E+02  0.00000000000E+00 0.  1.
         12    1    4    4    0    0  0.28523376680E+02 -0.28678854435E+02 -0.19358000640E+03  0.19776065986E+03  0.00000000000E+00 0. -1.
         -5    1    5    5    0  502 -0.97074701481E+02  0.62601875498E+01  0.32816187008E+01  0.97445095501E+02  0.47000000000E+01 0.  1.
         13    1    6    6    0    0 -0.10747557342E+02  0.21958072127E+02  0.38632265441E+02  0.45717817680E+02  0.00000000000E+00 0. -1.
        -14    1    6    6    0    0  0.14096706712E+02 -0.57437202219E+02  0.37631139169E+02  0.70098872844E+02  0.00000000000E+00 0.  1.
</event>
<event>
12    1  0.1040325E-001  0.1844221E+03  0.7818608E-02  0.1163894E+00
         21   -1    0    0  501  502  0.00000000000E+00  0.00000000000E+00  0.97264987501E+02  0.97264987501E+02  0.00000000000E+00 0.  1.
         21   -1    0    0  502  503 -0.00000000000E+00 -0.00000000000E+00 -0.10770236977E+04  0.10770236977E+04  0.00000000000E+00 0.  1.
         -6    2    1    2    0  503  0.28600465942E+02 -0.56800109880E+02 -0.97263913021E+03  0.98972919937E+03  0.17173459562E+03 0.  0.
        -24    2    3    3    0    0 -0.92424048194E+00  0.18386714659E+02 -0.71807597037E+03  0.72261637822E+03  0.78755351279E+02 0.  0.
          6    2    1    2  501    0 -0.28600465942E+02  0.56800109880E+02 -0.71195799675E+01  0.18455948581E+03  0.17311058965E+03 0.  0.
         24    2    5    5    0    0  0.69515462529E+01 -0.27934919531E+02  0.22532999992E+02  0.87888206319E+02  0.79924445552E+02 0.  0.
          5    1    5    5  501    0 -0.35552012195E+02  0.84735029411E+02 -0.29652579960E+02  0.96671279492E+02  0.47000000000E+01 0. -1.
        -13    1    6    6    0    0 -0.10385159357E+02 -0.35102179062E+02  0.45394251159E+02  0.58315114233E+02  0.00000000000E+00 0.  1.
         14    1    6    6    0    0  0.17336705610E+02  0.71672595312E+01 -0.22861251166E+02  0.29573092086E+02  0.00000000000E+00 0. -1.
         -5    1    3    3    0  503  0.29524706424E+02 -0.75186824539E+02 -0.25456315984E+03  0.26711282115E+03  0.47000000000E+01 0.  1.
         13    1    4    4    0    0 -0.26335707136E+02  0.29799647421E+02 -0.59927560897E+03  0.60059374286E+03  0.00000000000E+00 0. -1.
        -14    1    4    4    0    0  0.25411466654E+02 -0.11412932763E+02 -0.11880036140E+03  0.12202263536E+03  0.00000000000E+00 0.  1.
</event>
<event>
12    1  0.1040325E-001  0.2171344E+03  0.7818608E-02  0.1136727E+00
         21   -1    0    0  503  502  0.00000000000E+00  0.00000000000E+00  0.41967760747E+02  0.41967760747E+02  0.00000000000E+00 0.  1.
         21   -1    0    0  501  503 -0.00000000000E+00 -0.00000000000E+00 -0.11512838575E+04  0.11512838575E+04  0.00000000000E+00 0.  1.
          6    2    1    2  501    0 -0.57689429781E+02 -0.11424626401E+03 -0.67001299571E+03  0.70321634099E+03  0.17092550616E+03 0.  0.
         24    2    3    3    0    0 -0.52580804219E+02 -0.36612929122E+02 -0.22061698166E+03  0.24711119940E+03  0.91032108167E+02 0.  0.
         -6    2    1    2    0  502  0.57689429781E+02  0.11424626401E+03 -0.43930310101E+03  0.49003527723E+03  0.17540547091E+03 0.  0.
        -24    2    5    5    0    0  0.71005633023E+01  0.76047719702E+02 -0.40106497964E+03  0.41585572395E+03  0.79051828425E+02 0.  0.
          5    1    3    3  501    0 -0.51086255617E+01 -0.77633334891E+02 -0.44939601405E+03  0.45610514159E+03  0.47000000000E+01 0. -1.
        -13    1    4    4    0    0 -0.77239351353E+02 -0.38851065738E+02 -0.17574938201E+03  0.19586517807E+03  0.00000000000E+00 0.  1.
         14    1    4    4    0    0  0.24658547134E+02  0.22381366161E+01 -0.44867599658E+02  0.51246021322E+02  0.00000000000E+00 0. -1.
         -5    1    5    5    0  502  0.50588866479E+02  0.38198544311E+02 -0.38238121371E+02  0.74179553281E+02  0.47000000000E+01 0.  1.
         13    1    6    6    0    0  0.43444876841E+01 -0.10751340878E+02 -0.10149779644E+02  0.15410513643E+02  0.00000000000E+00 0. -1.
        -14    1    6    6    0    0  0.27560756182E+01  0.86799060579E+02 -0.39091520000E+03  0.40044521031E+03  0.00000000000E+00 0.  1.
</event>
<event>
12    1  0.1040325E-001  0.1780552E+03  0.7818608E-02  0.1169739E+00
         21   -1    0    0  503  502  0.00000000000E+00  0.00000000000E+00  0.20246410430E+03  0.20246410430E+03  0.00000000000E+00 0.  1.
         21   -1    0    0  501  503 -0.00000000000E+00 -0.00000000000E+00 -0.20855321384E+03  0.20855321384E+03  0.00000000000E+00 0.  1.
          6    2    1    2  501    0  0.45398442985E+02  0.47492469212E+01 -0.10576941529E+03  0.20695890986E+03  0.17193384538E+03 0.  0.
         24    2    3    3    0    0  0.68047917462E+02  0.43571610800E+02 -0.28644103162E+02  0.11756887461E+03  0.80454653640E+02 0.  0.
         -6    2    1    2    0  502 -0.45398442985E+02 -0.47492469212E+01  0.99680305747E+02  0.20405840828E+03  0.17210490018E+03 0.  0.
        -24    2    5    5    0    0  0.18333030458E+02  0.43747232862E+02  0.29028012910E+02  0.97159176563E+02  0.79670318614E+02 0.  0.
          5    1    3    3  501    0 -0.22649474477E+02 -0.38822363878E+02 -0.77125312129E+02  0.89390035251E+02  0.47000000000E+01 0. -1.
        -11    1    4    4    0    0  0.32553074747E+02  0.89371182729E+01 -0.52594234256E+02  0.62495825744E+02  0.00000000000E+00 0.  1.
         12    1    4    4    0    0  0.35494842715E+02  0.34634492527E+02  0.23950131093E+02  0.55073048865E+02  0.00000000000E+00 0. -1.
         -5    1    5    5    0  502 -0.63731473444E+02 -0.48496479783E+02  0.70652292837E+02  0.10689923172E+03  0.47000000000E+01 0.  1.
         13    1    6    6    0    0  0.22188563948E+02 -0.76036854915E+01  0.38226339412E+02  0.44848650235E+02  0.00000000000E+00 0. -1.
        -14    1    6    6    0    0 -0.38555334895E+01  0.51350918354E+02 -0.91983265011E+01  0.52310526328E+02  0.00000000000E+00 0.  1.
</event>
<event>
12    1  0.1040325E-001  0.2002217E+03  0.7818608E-02  0.1149756E+00
         21   -1    0    0  501  502  0.00000000000E+00  0.00000000000E+00  0.26489785820E+03  0.26489785820E+03  0.00000000000E+00 0.  1.
         21   -1    0    0  502  503 -0.00000000000E+00 -0.00000000000E+00 -0.24397211712E+03  0.24397211712E+03  0.00000000000E+00 0.  1.
         -6    2    1    2    0  503  0.90614452336E+02 -0.44434283974E+02  0.16784564063E+03  0.26052706261E+03  0.17180455963E+03 0.  0.
        -24    2    3    3    0    0  0.12163297899E+03 -0.67518474209E+02  0.14070112991E+03  0.21305134991E+03  0.78998378493E+02 0.  0.
          6    2    1    2  501    0 -0.90614452336E+02  0.44434283974E+02 -0.14691989955E+03  0.24834291271E+03  0.17292588251E+03 0.  0.
         24    2    5    5    0    0 -0.38975083644E+02 -0.41887105004E+02 -0.88750119682E+02  0.13205095304E+03  0.79292393983E+02 0.  0.
          5    1    5    5  501    0 -0.51639368692E+02  0.86321388978E+02 -0.58169779870E+02  0.11629195967E+03  0.47000000000E+01 0. -1.
        -11    1    6    6    0    0 -0.53985779788E+02 -0.20368032730E+02 -0.88697320477E+02  0.10581368454E+03  0.00000000000E+00 0.  1.
         12    1    6    6    0    0  0.15010696144E+02 -0.21519072274E+02 -0.52799205019E-01  0.26237268494E+02  0.00000000000E+00 0. -1.
         -5    1    3    3    0  503 -0.31018526649E+02  0.23084190235E+02  0.27144510724E+02  0.47475712703E+02  0.47000000000E+01 0.  1.
         11    1    4    4    0    0  0.42919319348E+02  0.14045446727E+02  0.27601233743E+02  0.52926086680E+02  0.00000000000E+00 0. -1.
        -12    1    4    4    0    0  0.78713659637E+02 -0.81563920936E+02  0.11309989616E+03  0.16012526323E+03  0.00000000000E+00 0.  1.
</event>
<event>
12    1  0.1040325E-001  0.1744280E+03  0.7818608E-02  0.1176009E+00
         21   -1    0    0  503  502  0.00000000000E+00  0.00000000000E+00  0.14325101692E+03  0.14325101692E+03  0.00000000000E+00 0.  1.
         21   -1    0    0  501  503 -0.00000000000E+00 -0.00000000000E+00 -0.48120017613E+03  0.48120017613E+03  0.00000000000E+00 0.  1.
          6    2    1    2  501    0 -0.25538158111E+02 -0.21668833209E+02 -0.40977941836E+03  0.44535860579E+03  0.17118230105E+03 0.  0.
         24    2    3    3    0    0  0.39711227119E+02  0.21238378804E+02 -0.27114720311E+03  0.28617477426E+03  0.79668973746E+02 0.  0.
         -6    2    1    2    0  502  0.25538158111E+02  0.21668833209E+02  0.71830259149E+02  0.17909258725E+03  0.16060147206E+03 0.  0.
        -24    2    5    5    0    0 -0.24695680742E+02  0.55270037764E+02  0.27869378547E+02  0.10421182512E+03  0.80117092518E+02 0.  0.
          5    1    3    3  501    0 -0.65249385230E+02 -0.42907212012E+02 -0.13863221525E+03  0.15918383153E+03  0.47000000000E+01 0. -1.
        -13    1    4    4    0    0  0.38131482454E+00 -0.15199192946E+02 -0.17839435194E+03  0.17904107258E+03  0.00000000000E+00 0.  1.
         14    1    4    4    0    0  0.39329912295E+02  0.36437571749E+02 -0.92752851168E+02  0.10713370168E+03  0.00000000000E+00 0. -1.
         -5    1    5    5    0  502  0.50233838853E+02 -0.33601204556E+02  0.43960880602E+02  0.74880762128E+02  0.47000000000E+01 0.  1.
         13    1    6    6    0    0  0.27500291239E+02  0.27479392512E+02  0.22296719131E+02  0.44816589731E+02  0.00000000000E+00 0. -1.
        -14    1    6    6    0    0 -0.52195971981E+02  0.27790645252E+02  0.55726594156E+01  0.59395235394E+02  0.00000000000E+00 0.  1.
</event>
<event>
12    1  0.1040325E-001  0.1901694E+03  0.7818608E-02  0.1158680E+00
         21   -1    0    0  501  502  0.00000000000E+00  0.00000000000E+00  0.79736124375E+02  0.79736124375E+02  0.00000000000E+00 0. -1.
         21   -1    0    0  502  503 -0.00000000000E+00 -0.00000000000E+00 -0.45481640892E+03  0.45481640892E+03  0.00000000000E+00 0. -1.
         -6    2    1    2    0  503 -0.78274063238E+02 -0.90093507313E+01 -0.21523490782E+03  0.28612760851E+03  0.17127447396E+03 0.  0.
        -24    2    3    3    0    0 -0.18408106648E+02  0.22613323872E+02 -0.19890524070E+03  0.21632306470E+03  0.79888376741E+02 0.  0.
          6    2    1    2  501    0  0.78274063238E+02  0.90093507313E+01 -0.15984537673E+03  0.24842492479E+03  0.17307917674E+03 0.  0.
         24    2    5    5    0    0  0.56089064615E+02 -0.18768909827E+02 -0.18104180114E+03  0.20676938097E+03  0.80493403460E+02 0.  0.
          5    1    5    5  501    0  0.22184998623E+02  0.27778260558E+02  0.21196424410E+02  0.41655543825E+02  0.47000000000E+01 0. -1.
        -13    1    6    6    0    0  0.31200898748E+01  0.21462720161E+01 -0.13071471255E+03  0.13076955884E+03  0.00000000000E+00 0.  1.
         14    1    6    6    0    0  0.52968974740E+02 -0.20915181843E+02 -0.50327088594E+02  0.75999822124E+02  0.00000000000E+00 0. -1.
         -5    1    3    3    0  503 -0.59865956589E+02 -0.31622674604E+02 -0.16329667123E+02  0.69804543805E+02  0.47000000000E+01 0.  1.
         13    1    4    4    0    0 -0.32687201239E+02  0.26882097775E+02 -0.45288505848E+02  0.61985071329E+02  0.00000000000E+00 0. -1.
        -14    1    4    4    0    0  0.14279094591E+02 -0.42687739026E+01 -0.15361673485E+03  0.15433799337E+03  0.00000000000E+00 0.  1.
</event>
<event>
12    1  0.1040325E-001  0.1793366E+03  0.7818608E-02  0.1169487E+00
         21   -1    0    0  503  502  0.00000000000E+00  0.00000000000E+00  0.12729796038E+03  0.12729796038E+03  0.00000000000E+00 0.  1.
         21   -1    0    0  501  503 -0.00000000000E+00 -0.00000000000E+00 -0.26402361738E+03  0.26402361738E+03  0.00000000000E+00 0.  1.
          6    2    1    2  501    0  0.29850349378E+02  0.10622759433E+02 -0.11919078968E+03  0.21533242339E+03  0.17651550029E+03 0.  0.
         24    2    3    3    0    0 -0.43552917368E+02  0.41357079438E+02 -0.66460667231E+02  0.11975421558E+03  0.79478218582E+02 0.  0.
         -6    2    1    2    0  502 -0.29850349378E+02 -0.10622759433E+02 -0.17534867320E+02  0.17598915437E+03  0.17222318226E+03 0.  0.
        -24    2    5    5    0    0 -0.86932993996E+02 -0.81607418929E+01 -0.15180097307E+02  0.11861211376E+03  0.78831814794E+02 0.  0.
          5    1    3    3  501    0  0.73403266745E+02 -0.30734320004E+02 -0.52730122453E+02  0.95578207814E+02  0.47000000000E+01 0. -1.
        -11    1    4    4    0    0 -0.39276183651E+01 -0.92200571843E+01 -0.53216898727E+02  0.54152321748E+02  0.00000000000E+00 0.  1.
         12    1    4    4    0    0 -0.39625299003E+02  0.50577136622E+02 -0.13243768504E+02  0.65601893830E+02  0.00000000000E+00 0. -1.
         -5    1    5    5    0  502  0.57082644619E+02 -0.24620175405E+01 -0.23547700130E+01  0.57377040607E+02  0.47000000000E+01 0.  1.
         11    1    6    6    0    0 -0.48554878235E+02  0.19757551500E+02 -0.39166269944E+02  0.65436486328E+02  0.00000000000E+00 0. -1.
        -12    1    6    6    0    0 -0.38378115761E+02 -0.27918293393E+02  0.23986172636E+02  0.53175627435E+02  0.00000000000E+00 0.  1.
</event>
<event>
12    1  0.1040325E-001  0.4175410E+03  0.7818608E-02  0.1038194E+00
         21   -1    0    0  503  502  0.00000000000E+00  0.00000000000E+00  0.23541213023E+03  0.23541213023E+03  0.00000000000E+00 0. -1.
         21   -1    0    0  501  503 -0.00000000000E+00 -0.00000000000E+00 -0.82962782412E+03  0.82962782412E+03  0.00000000000E+00 0.  1.
          6    2    1    2  501    0 -0.27924291639E+03 -0.25835709470E+03 -0.11469852126E+03  0.42921196512E+03  0.16230269711E+03 0.  0.
         24    2    3    3    0    0 -0.19188398701E+03 -0.12568962946E+03 -0.19264736142E+02  0.24384223669E+03  0.80439784392E+02 0.  0.
         -6    2    1    2    0  502  0.27924291639E+03  0.25835709470E+03 -0.47951717262E+03  0.63582798922E+03  0.17209159859E+03 0.  0.
        -24    2    5    5    0    0  0.25299278484E+03  0.15397878407E+03 -0.31810035683E+03  0.44176258902E+03  0.79066635911E+02 0.  0.
          5    1    3    3  501    0 -0.87358929381E+02 -0.13266746524E+03 -0.95433785122E+02  0.18536972843E+03  0.47000000000E+01 0. -1.
        -13    1    4    4    0    0 -0.29828641041E+01 -0.20638241639E+02 -0.18222649853E+02  0.27692949715E+02  0.00000000000E+00 0.  1.
         14    1    4    4    0    0 -0.18890112290E+03 -0.10505138782E+03 -0.10420862891E+01  0.21614928697E+03  0.00000000000E+00 0. -1.
         -5    1    5    5    0  502  0.26250131545E+02  0.10437831063E+03 -0.16141681580E+03  0.19406540021E+03  0.47000000000E+01 0.  1.
         11    1    6    6    0    0  0.14307864206E+03  0.41638997856E+02 -0.14415340394E+03  0.20732946685E+03  0.00000000000E+00 0. -1.
        -12    1    6    6    0    0  0.10991414278E+03  0.11233978622E+03 -0.17394695289E+03  0.23443312217E+03  0.00000000000E+00 0.  1.
</event>
<event>
12    1  0.1040325E-001  0.2071465E+03  0.7818608E-02  0.1143970E+00
         21   -1    0    0  501  502  0.00000000000E+00  0.00000000000E+00  0.63061405793E+03  0.63061405793E+03  0.00000000000E+00 0.  1.
         21   -1    0    0  502  503 -0.00000000000E+00 -0.00000000000E+00 -0.74481451612E+02  0.74481451612E+02  0.00000000000E+00 0. -1.
         -6    2    1    2    0  503 -0.33828626722E+02  0.11112603208E+03  0.38369487952E+03  0.43604061886E+03  0.17151177727E+03 0.  0.
        -24    2    3    3    0    0 -0.62495396311E+02  0.55270304754E+02  0.11189728678E+03  0.15704659138E+03  0.71987137243E+02 0.  0.
          6    2    1    2  501    0  0.33828626722E+02 -0.11112603208E+03  0.17243772680E+03  0.26905489068E+03  0.17077000200E+03 0.  0.
         24    2    5    5    0    0  0.55096139480E+02 -0.31822422316E+02  0.30494455746E+02  0.10500809303E+03  0.77772338419E+02 0.  0.
          5    1    5    5  501    0 -0.21267512758E+02 -0.79303609760E+02  0.14194327105E+03  0.16404679764E+03  0.47000000000E+01 0. -1.
        -11    1    6    6    0    0  0.41881559401E+02  0.15396910987E+02  0.33627836279E+02  0.55874513498E+02  0.00000000000E+00 0.  1.
         12    1    6    6    0    0  0.13214580079E+02 -0.47219333303E+02 -0.31333805334E+01  0.49133579534E+02  0.00000000000E+00 0. -1.
         -5    1    3    3    0  503  0.28666769589E+02  0.55855727322E+02  0.27179759273E+03  0.27899402748E+03  0.47000000000E+01 0.  1.
         13    1    4    4    0    0 -0.37145356137E+02  0.38444482238E+02  0.15055405629E+02  0.55537563286E+02  0.00000000000E+00 0. -1.
        -14    1    4    4    0    0 -0.25350040174E+02  0.16825822517E+02  0.96841881154E+02  0.10150902810E+03  0.00000000000E+00 0.  1.
</event>
<event>
12    1  0.1040325E-001  0.1784423E+03  0.7818608E-02  0.1169505E+00
         21   -1    0    0  503  502  0.00000000000E+00  0.00000000000E+00  0.91854399573E+03  0.91854399573E+03  0.00000000000E+00 0. -1.
         21   -1    0    0  501  503 -0.00000000000E+00 -0.00000000000E+00 -0.91204111718E+02  0.91204111718E+02  0.00000000000E+00 0. -1.
          6    2    1    2  501    0 -0.17664620441E+02 -0.43599095711E+02  0.15309026074E+02  0.17834221370E+03  0.17134368663E+03 0.  0.
         24    2    3    3    0    0  0.36795139422E+01  0.38381817302E+02  0.28449997020E+02  0.92486420139E+02  0.79105201203E+02 0.  0.
         -6    2    1    2    0  502  0.17664620441E+02  0.43599095711E+02  0.81203085794E+03  0.83140589375E+03  0.17212996819E+03 0.  0.
        -24    2    5    5    0    0  0.60356675527E+02  0.71753880716E+02  0.50162756416E+03  0.51678294754E+03  0.81503705874E+02 0.  0.
          5    1    3    3  501    0 -0.21344134383E+02 -0.81980913013E+02 -0.13140970946E+02  0.85855793564E+02  0.47000000000E+01 0. -1.
        -11    1    4    4    0    0 -0.23644421839E+02  0.11159663931E+01  0.38501691437E+02  0.45196065190E+02  0.00000000000E+00 0.  1.
         12    1    4    4    0    0  0.27323935781E+02  0.37265850909E+02 -0.10051694417E+02  0.47290354949E+02  0.00000000000E+00 0. -1.
         -5    1    5    5    0  502 -0.42692055087E+02 -0.28154785005E+02  0.31040329378E+03  0.31462294620E+03  0.47000000000E+01 0.  1.
         13    1    6    6    0    0  0.13161450753E+02  0.59461648536E+02  0.39324945213E+03  0.39793723504E+03  0.00000000000E+00 0. -1.
        -14    1    6    6    0    0  0.47195224774E+02  0.12292232180E+02  0.10837811203E+03  0.11884571250E+03  0.00000000000E+00 0.  1.
</event>
<event>
12    1  0.1040325E-001  0.1810124E+03  0.7818608E-02  0.1166905E+00
         21   -1    0    0  503  502  0.00000000000E+00  0.00000000000E+00  0.16908183149E+03  0.16908183149E+03  0.00000000000E+00 0. -1.
         21   -1    0    0  501  503 -0.00000000000E+00 -0.00000000000E+00 -0.22410894493E+03  0.22410894493E+03  0.00000000000E+00 0. -1.
          6    2    1    2  501    0  0.29753321489E+02 -0.34653085713E+02 -0.10026760693E+03  0.20692773875E+03  0.17515535840E+03 0.  0.
         24    2    3    3    0    0  0.59466230041E+02  0.15625267092E+02 -0.10658148579E+03  0.14799790962E+03  0.82239811845E+02 0.  0.
         -6    2    1    2    0  502 -0.29753321489E+02  0.34653085713E+02  0.45240493478E+02  0.18626303767E+03  0.17481739176E+03 0.  0.
        -24    2    5    5    0    0  0.45717774223E+02  0.33007413212E+02  0.50620146345E+02  0.11043675468E+03  0.80338492408E+02 0.  0.
          5    1    3    3  501    0 -0.29712908552E+02 -0.50278352805E+02  0.63138788600E+01  0.58929829133E+02  0.47000000000E+01 0. -1.
        -13    1    4    4    0    0  0.44808386933E+02  0.18205906466E+02 -0.88860418466E+01  0.49175281489E+02  0.00000000000E+00 0.  1.
         14    1    4    4    0    0  0.14657843108E+02 -0.25806393741E+01 -0.97695443939E+02  0.98822628130E+02  0.00000000000E+00 0. -1.
         -5    1    5    5    0  502 -0.75471095711E+02  0.16456725005E+01 -0.53796528665E+01  0.75826282982E+02  0.47000000000E+01 0.  1.
         13    1    6    6    0    0  0.40397451902E+02  0.49257759077E+02  0.62791144916E+02  0.89448358449E+02  0.00000000000E+00 0. -1.
        -14    1    6    6    0    0  0.53203223208E+01 -0.16250345864E+02 -0.12170998571E+02  0.20988396235E+02  0.00000000000E+00 0.  1.
</event>
<event>
12    1  0.1040325E-001  0.1980148E+03  0.7818608E-02  0.1151480E+00
         21   -1    0    0  503  502  0.00000000000E+00  0.00000000000E+00  0.28228603530E+02  0.28228603530E+02  0.00000000000E+00 0.  1.
         21   -1    0    0  501  503 -0.00000000000E+00 -0.00000000000E+00 -0.13880578309E+04  0.13880578309E+04  0.00000000000E+00 0. -1.
          6    2    1    2  501    0  0.12268406003E+02 -0.96687709304E+02 -0.66275656268E+03  0.69170522322E+03  0.17236829043E+03 0.  0.
         24    2    3    3    0    0  0.65786387258E+02 -0.45372247821E+02 -0.50229178817E+03  0.51487625285E+03  0.80087612443E+02 0.  0.
         -6    2    1    2    0  502 -0.12268406003E+02  0.96687709304E+02 -0.69707266474E+03  0.72458121125E+03  0.17207151089E+03 0.  0.
        -24    2    5    5    0    0  0.43245110433E+02  0.79695663438E+02 -0.59444840267E+03  0.60657990069E+03  0.79678944120E+02 0.  0.
          5    1    3    3  501    0 -0.53517981254E+02 -0.51315461483E+02 -0.16046477451E+03  0.17682897037E+03  0.47000000000E+01 0. -1.
        -11    1    4    4    0    0  0.27033808539E+02 -0.26462279158E+02 -0.63087083628E+02  0.73559901733E+02  0.00000000000E+00 0.  1.
         12    1    4    4    0    0  0.38752578718E+02 -0.18909968663E+02 -0.43920470454E+03  0.44131635112E+03  0.00000000000E+00 0. -1.
         -5    1    5    5    0  502 -0.55513516437E+02  0.16992045866E+02 -0.10262426207E+03  0.11800131056E+03  0.47000000000E+01 0.  1.
         11    1    6    6    0    0  0.37733193642E+02  0.78225158326E+02 -0.30629989402E+03  0.31837492736E+03  0.00000000000E+00 0. -1.
        -12    1    6    6    0    0  0.55119167917E+01  0.14705051123E+01 -0.28814850865E+03  0.28820497333E+03  0.00000000000E+00 0.  1.
</event>
<event>
12    1  0.1040325E-001  0.1797914E+03  0.7818608E-02  0.1168333E+00
         21   -1    0    0  501  502  0.00000000000E+00  0.00000000000E+00  0.19182143936E+02  0.19182143936E+02  0.00000000000E+00 0.  1.
         21   -1    0    0  502  503 -0.00000000000E+00 -0.00000000000E+00 -0.16828252223E+04  0.16828252223E+04  0.00000000000E+00 0.  1.
         -6    2    1    2    0  503 -0.24673193693E+02  0.46070949700E+02 -0.90141055771E+03  0.91916589899E+03  0.17202807160E+03 0.  0.
        -24    2    3    3    0    0 -0.43314359963E+02  0.36791110732E+02 -0.88953057666E+03  0.89473574465E+03  0.77831139865E+02 0.  0.
          6    2    1    2  501    0  0.24673193693E+02 -0.46070949700E+02 -0.76223252064E+03  0.78284146723E+03  0.17061960147E+03 0.  0.
         24    2    5    5    0    0 -0.11271489438E+02  0.28503886306E+02 -0.53001856773E+03  0.53626726677E+03  0.75653032036E+02 0.  0.
          5    1    5    5  501    0  0.35944683131E+02 -0.74574836007E+02 -0.23221395291E+03  0.24657420047E+03  0.47000000000E+01 0. -1.
        -11    1    6    6    0    0 -0.43837840508E+02  0.14598856407E+02 -0.29566575036E+03  0.29925427115E+03  0.00000000000E+00 0.  1.
         12    1    6    6    0    0  0.32566351070E+02  0.13905029900E+02 -0.23435281737E+03  0.23701299561E+03  0.00000000000E+00 0. -1.
         -5    1    3    3    0  503  0.18641166270E+02  0.92798389682E+01 -0.11879981045E+02  0.24430154335E+02  0.47000000000E+01 0.  1.
         13    1    4    4    0    0 -0.40883093252E+02 -0.12924882499E+02 -0.53691183313E+03  0.53862119941E+03  0.00000000000E+00 0. -1.
        -14    1    4    4    0    0 -0.24312667112E+01  0.49715993231E+02 -0.35261874354E+03  0.35611454524E+03  0.00000000000E+00 0.  1.
</event>
<event>
12    1  0.1040325E-001  0.2285083E+03  0.7818608E-02  0.1128074E+00
         21   -1    0    0  503  502  0.00000000000E+00  0.00000000000E+00  0.25458831856E+03  0.25458831856E+03  0.00000000000E+00 0. -1.
         21   -1    0    0  501  503 -0.00000000000E+00 -0.00000000000E+00 -0.21185237095E+03  0.21185237095E+03  0.00000000000E+00 0. -1.
          6    2    1    2  501    0  0.29787563559E+02  0.14333399875E+03  0.68422322614E+02  0.23649327582E+03  0.17267171493E+03 0.  0.
         24    2    3    3    0    0  0.36766856595E+02  0.17181708468E+03  0.71934294616E+02  0.20658640934E+03  0.81427817433E+02 0.  0.
         -6    2    1    2    0  502 -0.29787563559E+02 -0.14333399875E+03 -0.25686375003E+02  0.22994741368E+03  0.17545395139E+03 0.  0.
        -24    2    5    5    0    0 -0.15176235349E+02 -0.99605773426E+01 -0.46626328791E+02  0.94070513090E+02  0.79660000478E+02 0.  0.
          5    1    3    3  501    0 -0.69792930361E+01 -0.28483085930E+02 -0.35119720020E+01  0.29906866482E+02  0.47000000000E+01 0. -1.
        -11    1    4    4    0    0  0.12114462270E+02 -0.50813412512E+01  0.13062986247E+02  0.18526247183E+02  0.00000000000E+00 0.  1.
         12    1    4    4    0    0  0.24652394324E+02  0.17689842593E+03  0.58871308369E+02  0.18806016216E+03  0.00000000000E+00 0. -1.
         -5    1    5    5    0  502 -0.14611328210E+02 -0.13337342140E+03  0.20939953787E+02  0.13587690059E+03  0.47000000000E+01 0.  1.
         11    1    6    6    0    0 -0.47152314851E+02 -0.63192171455E+01 -0.37621027593E+02  0.60651587104E+02  0.00000000000E+00 0. -1.
        -12    1    6    6    0    0  0.31976079502E+02 -0.36413601971E+01 -0.90053011980E+01  0.33418925986E+02  0.00000000000E+00 0.  1.
</event>
<event>
12    1  0.1040325E-001  0.1841807E+03  0.7818608E-02  0.1164308E+00
         21   -1    0    0  501  502  0.00000000000E+00  0.00000000000E+00  0.81438217540E+03  0.81438217540E+03  0.00000000000E+00 0. -1.
         21   -1    0    0  502  503 -0.00000000000E+00 -0.00000000000E+00 -0.18368568968E+03  0.18368568968E+03  0.00000000000E+00 0. -1.
         -6    2    1    2    0  503  0.62435030660E+02  0.63532121136E+01 -0.12379069053E+03  0.22191593268E+03  0.17315903025E+03 0.  0.
        -24    2    3    3    0    0 -0.56624313531E+00 -0.45564364295E+02 -0.10155036494E+03  0.13717327917E+03  0.80172314271E+02 0.  0.
          6    2    1    2  501    0 -0.62435030660E+02 -0.63532121136E+01  0.75448717625E+03  0.77615193240E+03  0.17094568345E+03 0.  0.
         24    2    5    5    0    0 -0.10083913333E+03  0.16822342981E+02  0.46757493176E+03  0.48571655664E+03  0.82720822960E+02 0.  0.
          5    1    5    5  501    0  0.38404102670E+02 -0.23175555095E+02  0.28691224449E+03  0.29043537576E+03  0.47000000000E+01 0. -1.
        -13    1    6    6    0    0 -0.74009739435E+02 -0.32730844881E+00  0.43062740989E+03  0.43694108849E+03  0.00000000000E+00 0.  1.
         14    1    6    6    0    0 -0.26829393896E+02  0.17149651430E+02  0.36947521865E+02  0.48775468147E+02  0.00000000000E+00 0. -1.
         -5    1    3    3    0  503  0.63001273796E+02  0.51917576409E+02 -0.22240325595E+02  0.84742653502E+02  0.47000000000E+01 0.  1.
         13    1    4    4    0    0  0.11310053556E+02 -0.58256874246E+02 -0.36118181853E+02  0.69471604046E+02  0.00000000000E+00 0. -1.
        -14    1    4    4    0    0 -0.11876296691E+02  0.12692509951E+02 -0.65432183084E+02  0.67701675128E+02  0.00000000000E+00 0.  1.
</event>
<event>
12    1  0.1040325E-001  0.1889183E+03  0.7818608E-02  0.1159707E+00
         21   -1    0    0  501  502  0.00000000000E+00  0.00000000000E+00  0.14811023064E+03  0.14811023064E+03  0.00000000000E+00 0.  1.
         21   -1    0    0  502  503 -0.00000000000E+00 -0.00000000000E+00 -0.29143316830E+03  0.29143316830E+03  0.00000000000E+00 0.  1.
         -6    2    1    2    0  503  0.46235845777E+02 -0.61249672109E+02 -0.16463616114E+03  0.25058968915E+03  0.17262922980E+03 0.  0.
        -24    2    3    3    0    0  0.94300796405E+01 -0.73111160787E+01 -0.10329845855E+02  0.82969400441E+02  0.81454508002E+02 0.  0.
          6    2    1    2  501    0 -0.46235845777E+02  0.61249672109E+02  0.21313223487E+02  0.18895370979E+03  0.17134752750E+03 0.  0.
         24    2    5    5    0    0  0.40858999818E+02  0.40788185331E+02  0.90810133136E+01  0.98533017823E+02  0.79329419951E+02 0.  0.
          5    1    5    5  501    0 -0.87094845595E+02  0.20461486778E+02  0.12232210174E+02  0.90420691969E+02  0.47000000000E+01 0. -1.
        -13    1    6    6    0    0  0.25370971860E+02  0.53312562429E+02 -0.20820140324E+02  0.62605061848E+02  0.00000000000E+00 0.  1.
         14    1    6    6    0    0  0.15488027958E+02 -0.12524377098E+02  0.29901153637E+02  0.35927955975E+02  0.00000000000E+00 0. -1.
         -5    1    3    3    0  503  0.36805766136E+02 -0.53938556030E+02 -0.15430631529E+03  0.16762028870E+03  0.47000000000E+01 0.  1.
         13    1    4    4    0    0  0.58022419421E+01  0.31433132482E+02 -0.25816044927E+02  0.41087419058E+02  0.00000000000E+00 0. -1.
        -14    1    4    4    0    0  0.36278376984E+01 -0.38744248560E+02  0.15486199072E+02  0.41881981383E+02  0.00000000000E+00 0.  1.
</event>
<event>
12    1  0.1040325E-001  0.1739556E+03  0.7818608E-02  0.1174275E+00
         21   -1    0    0  503  502  0.00000000000E+00  0.00000000000E+00  0.62885912996E+02  0.62885912996E+02  0.00000000000E+00 0.  1.
         21   -1    0    0  501  503 -0.00000000000E+00 -0.00000000000E+00 -0.47901969183E+03  0.47901969183E+03  0.00000000000E+00 0.  1.
          6    2    1    2  501    0  0.84848803771E+01  0.13347552718E+01 -0.23114284746E+03  0.28928802109E+03  0.17374339830E+03 0.  0.
         24    2    3    3    0    0 -0.54887811306E+01  0.45429656640E+02 -0.21242786186E+03  0.23916852161E+03  0.99909983559E+02 0.  0.
         -6    2    1    2    0  502 -0.84848803771E+01 -0.13347552718E+01 -0.18499093137E+03  0.25261758373E+03  0.17181450506E+03 0.  0.
        -24    2    5    5    0    0 -0.20193299402E+02  0.44985338683E+02 -0.18179458144E+03  0.20450371012E+03  0.79630694947E+02 0.  0.
          5    1    3    3  501    0  0.13973661508E+02 -0.44094901368E+02 -0.18714985597E+02  0.50119499483E+02  0.47000000000E+01 0. -1.
        -13    1    4    4    0    0 -0.42940305785E+02  0.22187786592E+01 -0.14245493996E+03  0.14880256301E+03  0.00000000000E+00 0.  1.
         14    1    4    4    0    0  0.37451524654E+02  0.43210877980E+02 -0.69972921903E+02  0.90365958604E+02  0.00000000000E+00 0. -1.
         -5    1    5    5    0  502  0.11708419025E+02 -0.46320093955E+02 -0.31963499367E+01  0.48113873602E+02  0.47000000000E+01 0.  1.
         13    1    6    6    0    0 -0.24746420918E+02 -0.36467715941E+01 -0.13346971789E+03  0.13579340884E+03  0.00000000000E+00 0. -1.
        -14    1    6    6    0    0  0.45531215161E+01  0.48632110277E+02 -0.48324863549E+02  0.68710301284E+02  0.00000000000E+00 0.  1.
</event>
<event>
12    1  0.1040325E-001  0.1784492E+03  0.7818608E-02  0.1169584E+00
         21   -1    0    0  503  502  0.00000000000E+00  0.00000000000E+00  0.14309042555E+03  0.14309042555E+03  0.00000000000E+00 0.  1.
         21   -1    0    0  501  503 -0.00000000000E+00 -0.00000000000E+00 -0.33957295839E+03  0.33957295839E+03  0.00000000000E+00 0.  1.
          6    2    1    2  501    0 -0.21707980711E+02  0.32798730176E+02 -0.24054786918E+03  0.29885403386E+03  0.17292617805E+03 0.  0.
         24    2    3    3    0    0  0.39397179278E+02  0.69075158298E+01 -0.20156488220E+03  0.22174399021E+03  0.83319529207E+02 0.  0.
         -6    2    1    2    0  502  0.21707980711E+02 -0.32798730176E+02  0.44065336340E+02  0.18380935008E+03  0.17406070833E+03 0.  0.
        -24    2    5    5    0    0  0.25456077227E+02  0.45747521700E+02 -0.10142253257E+01  0.93046919577E+02  0.76914582364E+02 0.  0.
          5    1    3    3  501    0 -0.61105159989E+02  0.25891214346E+02 -0.38982986987E+02  0.77110043652E+02  0.47000000000E+01 0. -1.
        -11    1    4    4    0    0  0.46960954507E+02  0.37528210586E+02 -0.11811780107E+03  0.13253494923E+03  0.00000000000E+00 0.  1.
         12    1    4    4    0    0 -0.75637752290E+01 -0.30620694756E+02 -0.83447081128E+02  0.89209040976E+02  0.00000000000E+00 0. -1.
         -5    1    5    5    0  502 -0.37480965154E+01 -0.78546251876E+02  0.45079561666E+02  0.90762430506E+02  0.47000000000E+01 0.  1.
         13    1    6    6    0    0 -0.18723882546E+02  0.37840830395E+02 -0.16843183409E+02  0.45455528266E+02  0.00000000000E+00 0. -1.
        -14    1    6    6    0    0  0.44179959772E+02  0.79066913052E+01  0.15828958083E+02  0.47591391311E+02  0.00000000000E+00 0.  1.
</event>
<event>
12    1  0.1040325E-001  0.1940019E+03  0.7818608E-02  0.1155186E+00
         21   -1    0    0  501  502  0.00000000000E+00  0.00000000000E+00  0.12507079130E+03  0.12507079130E+03  0.00000000000E+00 0.  1.
         21   -1    0    0  502  503 -0.00000000000E+00 -0.00000000000E+00 -0.49124236345E+03  0.49124236345E+03  0.00000000000E+00 0.  1.
         -6    2    1    2    0  503 -0.25947189382E+02 -0.86613119859E+02 -0.37627448681E+03  0.42334289653E+03  0.17164390304E+03 0.  0.
        -24    2    3    3    0    0 -0.29326043508E+01  0.27819336770E+02 -0.15160009420E+03  0.17011349273E+03  0.71927019830E+02 0.  0.
          6    2    1    2  501    0  0.25947189382E+02  0.86613119859E+02  0.10102914661E+02  0.19297025822E+03  0.17017744417E+03 0.  0.
         24    2    5    5    0    0 -0.25675757007E+02  0.52669171461E+02  0.57570009398E+02  0.11491684504E+03  0.80363481578E+02 0.  0.
          5    1    5    5  501    0  0.51622946390E+02  0.33943948398E+02 -0.47467094737E+02  0.78053413184E+02  0.47000000000E+01 0. -1.
        -11    1    6    6    0    0  0.71468879867E+01  0.49261992618E+02  0.64221583872E+02  0.81254130724E+02  0.00000000000E+00 0.  1.
         12    1    6    6    0    0 -0.32822644994E+02  0.34071788429E+01 -0.66515744742E+01  0.33662714315E+02  0.00000000000E+00 0. -1.
         -5    1    3    3    0  503 -0.23014585032E+02 -0.11443245663E+03 -0.22467439261E+03  0.25322940380E+03  0.47000000000E+01 0.  1.
         13    1    4    4    0    0 -0.58336645647E+01  0.26483188171E+02 -0.15939721547E+03  0.16168754806E+03  0.00000000000E+00 0. -1.
        -14    1    4    4    0    0  0.29010602139E+01  0.13361485990E+01  0.77971212728E+01  0.84259446703E+01  0.00000000000E+00 0.  1.
</event>
<event>
12    1  0.1040325E-001  0.2902332E+03  0.7818608E-02  0.1090668E+00
         21   -1    0    0  503  502  0.00000000000E+00  0.00000000000E+00  0.19263830643E+03  0.19263830643E+03  0.00000000000E+00 0. -1.
         21   -1    0    0  501  503 -0.00000000000E+00 -0.00000000000E+00 -0.43754389872E+03  0.43754389872E+03  0.00000000000E+00 0.  1.
          6    2    1    2  501    0 -0.40265199172E+02  0.22963221138E+03 -0.87004894073E+02  0.29977652591E+03  0.16716421606E+03 0.  0.
         24    2    3    3    0    0  0.30764859505E+02  0.74660383247E+02 -0.45894623985E+02  0.12435223724E+03  0.82683208633E+02 0.  0.
         -6    2    1    2    0  502  0.40265199172E+02 -0.22963221138E+03 -0.15790069821E+03  0.33040567923E+03  0.17286712703E+03 0.  0.
        -24    2    5    5    0    0  0.55417824331E+02 -0.81117635939E+02 -0.20352079157E+02  0.12735914819E+03  0.78453421768E+02 0.  0.
          5    1    3    3  501    0 -0.71030058677E+02  0.15497182813E+03 -0.41110270088E+02  0.17542428867E+03  0.47000000000E+01 0. -1.
        -13    1    4    4    0    0 -0.18129157716E+02  0.19870236317E+02 -0.43174354324E+02  0.50867647106E+02  0.00000000000E+00 0.  1.
         14    1    4    4    0    0  0.48894017221E+02  0.54790146931E+02 -0.27202696611E+01  0.73484590138E+02  0.00000000000E+00 0. -1.
         -5    1    5    5    0  502 -0.15152625158E+02 -0.14851457544E+03 -0.13754861905E+03  0.20304653105E+03  0.47000000000E+01 0.  1.
         11    1    6    6    0    0  0.29113218470E+01  0.13504276124E+02 -0.12880292211E+02  0.18887646650E+02  0.00000000000E+00 0. -1.
        -12    1    6    6    0    0  0.52506502484E+02 -0.94621912063E+02 -0.74717869463E+01  0.10847150154E+03  0.00000000000E+00 0.  1.
</event>
<event>
12    1  0.1040325E-001  0.2134866E+03  0.7818608E-02  0.1139109E+00
         21   -1    0    0  503  502  0.00000000000E+00  0.00000000000E+00  0.65346481579E+02  0.65346481579E+02  0.00000000000E+00 0. -1.
         21   -1    0    0  501  503 -0.00000000000E+00 -0.00000000000E+00 -0.16307891850E+04  0.16307891850E+04  0.00000000000E+00 0. -1.
          6    2    1    2  501    0  0.10939765930E+03  0.58630492501E+02 -0.14247748834E+04  0.14404718921E+04  0.17196052186E+03 0.  0.
         24    2    3    3    0    0  0.25829254045E+02  0.79132371460E+02 -0.10279568892E+04  0.10344046367E+04  0.79802905873E+02 0.  0.
         -6    2    1    2    0  502 -0.10939765930E+03 -0.58630492501E+02 -0.14066782003E+03  0.25566377448E+03  0.17369843833E+03 0.  0.
        -24    2    5    5    0    0 -0.46208518069E+02  0.27936005444E+00 -0.11384576064E+02  0.10010193640E+03  0.88065225339E+02 0.  0.
          5    1    3    3  501    0  0.83568405254E+02 -0.20501878959E+02 -0.39681799416E+03  0.40606725538E+03  0.47000000000E+01 0. -1.
        -11    1    4    4    0    0 -0.15464299570E+02  0.49471143634E+02 -0.28247300856E+03  0.28718903040E+03  0.00000000000E+00 0.  1.
         12    1    4    4    0    0  0.41293553615E+02  0.29661227826E+02 -0.74548388066E+03  0.74721560633E+03  0.00000000000E+00 0. -1.
         -5    1    5    5    0  502 -0.63189141230E+02 -0.58909852555E+02 -0.12928324397E+03  0.15556183808E+03  0.47000000000E+01 0.  1.
         11    1    6    6    0    0 -0.70024143364E+02  0.10006097910E+02  0.26736421411E+01  0.70785952078E+02  0.00000000000E+00 0. -1.
        -12    1    6    6    0    0  0.23815625295E+02 -0.97267378553E+01 -0.14058218205E+02  0.29315984319E+02  0.00000000000E+00 0.  1.
</event>
<event>
12    1  0.1040325E-001  0.1992483E+03  0.7818608E-02  0.1150744E+00
         21   -1    0    0  501  502  0.00000000000E+00  0.00000000000E+00  0.10014385945E+04  0.10014385945E+04  0.00000000000E+00 0. -1.
         21   -1    0    0  502  503 -0.00000000000E+00 -0.00000000000E+00 -0.49416503312E+02  0.49416503312E+02  0.00000000000E+00 0. -1.
         -6    2    1    2    0  503 -0.66015190232E+01 -0.99614422472E+02  0.23661254745E+03  0.30821743244E+03  0.17042850358E+03 0.  0.
        -24    2    3    3    0    0 -0.27504662859E+02 -0.10056678153E+03  0.10850347937E+03  0.17832566314E+03  0.95691447216E+02 0.  0.
          6    2    1    2  501    0  0.66015190232E+01  0.99614422472E+02  0.71540954371E+03  0.74263766534E+03  0.17243338870E+03 0.  0.
         24    2    5    5    0    0  0.70083040830E+02  0.67029165929E+02  0.40790019014E+03  0.42692292845E+03  0.80474095384E+02 0.  0.
          5    1    5    5  501    0 -0.63481521807E+02  0.32585256543E+02  0.30750935357E+03  0.31571473689E+03  0.47000000000E+01 0. -1.
        -13    1    6    6    0    0  0.31007684397E+02  0.73606400852E+02  0.20147985821E+03  0.21673373526E+03  0.00000000000E+00 0.  1.
         14    1    6    6    0    0  0.39075356433E+02 -0.65772349233E+01  0.20642033193E+03  0.21018919319E+03  0.00000000000E+00 0. -1.
         -5    1    3    3    0  503  0.20903143836E+02  0.95235905593E+00  0.12810906808E+03  0.12989176931E+03  0.47000000000E+01 0.  1.
         11    1    4    4    0    0 -0.51576897718E+02 -0.28534675857E+02  0.74804196018E+02  0.95236924806E+02  0.00000000000E+00 0. -1.
        -12    1    4    4    0    0  0.24072234859E+02 -0.72032105671E+02  0.33699283357E+02  0.83088738330E+02  0.00000000000E+00 0.  1.
</event>
<event>
12    1  0.1040325E-001  0.2759465E+03  0.7818608E-02  0.1097946E+00
         21   -1    0    0  503  502  0.00000000000E+00  0.00000000000E+00  0.11058149198E+03  0.11058149198E+03  0.00000000000E+00 0. -1.
         21   -1    0    0  501  503 -0.00000000000E+00 -0.00000000000E+00 -0.68824788531E+03  0.68824788531E+03  0.00000000000E+00 0.  1.
          6    2    1    2  501    0  0.88238363995E+01  0.21525199180E+03 -0.28567714677E+03  0.39718746702E+03  0.17243889268E+03 0.  0.
         24    2    3    3    0    0  0.11102027972E+02  0.27862728172E+02 -0.64160573320E+02  0.10699510221E+03  0.80198416958E+02 0.  0.
         -6    2    1    2    0  502 -0.88238363995E+01 -0.21525199180E+03 -0.29198924656E+03  0.40164191027E+03  0.17218369235E+03 0.  0.
        -24    2    5    5    0    0  0.22514262284E+02 -0.22298884851E+03 -0.22084683878E+03  0.32337782165E+03  0.74625537025E+02 0.  0.
          5    1    3    3  501    0 -0.22781915723E+01  0.18738926363E+03 -0.22151657345E+03  0.29019236480E+03  0.47000000000E+01 0. -1.
        -11    1    4    4    0    0  0.22703406927E+02  0.36595522522E+02 -0.76598919869E+02  0.87875317808E+02  0.00000000000E+00 0.  1.
         12    1    4    4    0    0 -0.11601378955E+02 -0.87327943501E+01  0.12438346549E+02  0.19119784405E+02  0.00000000000E+00 0. -1.
         -5    1    5    5    0  502 -0.31338098683E+02  0.77368567062E+01 -0.71142407787E+02  0.78264088614E+02  0.47000000000E+01 0.  1.
         11    1    6    6    0    0  0.24085570580E+02 -0.11606625944E+03 -0.16375812859E+03  0.20215888793E+03  0.00000000000E+00 0. -1.
        -12    1    6    6    0    0 -0.15713082967E+01 -0.10692258906E+03 -0.57088710186E+02  0.12121893372E+03  0.00000000000E+00 0.  1.
</event>
<event>
12    1  0.1040325E-001  0.1795381E+03  0.7818608E-02  0.1168757E+00
         21   -1    0    0  501  502  0.00000000000E+00  0.00000000000E+00  0.41461100240E+03  0.41461100240E+03  0.00000000000E+00 0.  1.
         21   -1    0    0  502  503 -0.00000000000E+00 -0.00000000000E+00 -0.79669336260E+02  0.79669336260E+02  0.00000000000E+00 0.  1.
         -6    2    1    2    0  503  0.53584786365E+02 -0.50053611404E+01  0.21302702123E+03  0.27726161761E+03  0.16910680014E+03 0.  0.
        -24    2    3    3    0    0  0.21742401313E+02 -0.23093032343E+01  0.23678311044E+02  0.85177702969E+02  0.78844871570E+02 0.  0.
          6    2    1    2  501    0 -0.53584786365E+02  0.50053611404E+01  0.12191464491E+03  0.21701872105E+03  0.17128211137E+03 0.  0.
         24    2    5    5    0    0 -0.82505074826E+02 -0.76596761949E+01  0.14016407462E+03  0.18025028432E+03  0.77320367108E+02 0.  0.
          5    1    5    5  501    0  0.28920288461E+02  0.12665037335E+02 -0.18249429711E+02  0.36768436738E+02  0.47000000000E+01 0. -1.
        -13    1    6    6    0    0 -0.92063821750E+02 -0.26415798717E+01  0.89415523101E+02  0.12836612088E+03  0.00000000000E+00 0.  1.
         14    1    6    6    0    0  0.95587469242E+01 -0.50180963232E+01  0.50748551521E+02  0.51884163432E+02  0.00000000000E+00 0. -1.
         -5    1    3    3    0  503  0.31842385052E+02 -0.26960579060E+01  0.18934871018E+03  0.19208391464E+03  0.47000000000E+01 0.  1.
         13    1    4    4    0    0 -0.21397799088E+01  0.33373188717E+02 -0.46122890879E+01  0.33758281856E+02  0.00000000000E+00 0. -1.
        -14    1    4    4    0    0  0.23882181221E+02 -0.35682491952E+02  0.28290600132E+02  0.51419421113E+02  0.00000000000E+00 0.  1.
</event>
<event>
12    1  0.1040325E-001  0.2239021E+03  0.7818608E-02  0.1131069E+00
         21   -1    0    0  501  502  0.00000000000E+00  0.00000000000E+00  0.70471368283E+03  0.70471368283E+03  0.00000000000E+00 0. -1.
         21   -1    0    0  502  503 -0.00000000000E+00 -0.00000000000E+00 -0.72638429927E+02  0.72638429927E+02  0.00000000000E+00 0. -1.
         -6    2    1    2    0  503  0.60231637046E+01  0.14418154569E+03  0.37362977504E+03  0.43540736710E+03  0.17075060735E+03 0.  0.
        -24    2    3    3    0    0  0.39984279835E+02  0.10782376147E+03  0.14858920624E+03  0.20488493113E+03  0.81696858074E+02 0.  0.
          6    2    1    2  501    0 -0.60231637046E+01 -0.14418154569E+03  0.25844547787E+03  0.34194474566E+03  0.17119447257E+03 0.  0.
         24    2    5    5    0    0  0.40021451426E+02 -0.15155677463E+03  0.18544051988E+03  0.25519041162E+03  0.78503421948E+02 0.  0.
          5    1    5    5  501    0 -0.46044615130E+02  0.73752289462E+01  0.73004957985E+02  0.86754334041E+02  0.47000000000E+01 0. -1.
        -13    1    6    6    0    0  0.16911586617E+02 -0.11925429479E+03  0.85676610210E+02  0.14781092695E+03  0.00000000000E+00 0.  1.
         14    1    6    6    0    0  0.23109864809E+02 -0.32302479840E+02  0.99763909671E+02  0.10737948467E+03  0.00000000000E+00 0. -1.
         -5    1    3    3    0  503 -0.33961116130E+02  0.36357784213E+02  0.22504056880E+03  0.23052243597E+03  0.47000000000E+01 0.  1.
         11    1    4    4    0    0 -0.19348409879E+02  0.64284986239E+02  0.77970785481E+02  0.10289005690E+03  0.00000000000E+00 0. -1.
        -12    1    4    4    0    0  0.59332689714E+02  0.43538775235E+02  0.70618420764E+02  0.10199487423E+03  0.00000000000E+00 0.  1.
</event>
<event>
12    1  0.1040325E-001  0.2006474E+03  0.7818608E-02  0.1149409E+00
         21   -1    0    0  501  502  0.00000000000E+00  0.00000000000E+00  0.67266175731E+02  0.67266175731E+02  0.00000000000E+00 0. -1.
         21   -1    0    0  502  503 -0.00000000000E+00 -0.00000000000E+00 -0.64232047875E+03  0.64232047875E+03  0.00000000000E+00 0.  1.
         -6    2    1    2    0  503 -0.28617017135E+02  0.98417136660E+02 -0.38267519099E+03  0.43161343089E+03  0.17130378124E+03 0.  0.
        -24    2    3    3    0    0 -0.63131469646E+02  0.37835043715E+02 -0.31861314218E+03  0.33681114444E+03  0.80686675850E+02 0.  0.
          6    2    1    2  501    0  0.28617017135E+02 -0.98417136660E+02 -0.19237911203E+03  0.27797322359E+03  0.17249499653E+03 0.  0.
         24    2    5    5    0    0 -0.28767404404E+01  0.15684696596E+02 -0.91196404252E+02  0.12218132562E+03  0.79732094164E+02 0.  0.
          5    1    5    5  501    0  0.31493757575E+02 -0.11410183326E+03 -0.10118270778E+03  0.15579189797E+03  0.47000000000E+01 0. -1.
        -13    1    6    6    0    0  0.75281808036E+01  0.27302470102E+02  0.13272554231E+01  0.28352424708E+02  0.00000000000E+00 0.  1.
         14    1    6    6    0    0 -0.10404921244E+02 -0.11617773506E+02 -0.92523659675E+02  0.93828900915E+02  0.00000000000E+00 0. -1.
         -5    1    3    3    0  503  0.34514452511E+02  0.60582092945E+02 -0.64062048810E+02  0.94802286446E+02  0.47000000000E+01 0.  1.
         13    1    4    4    0    0  0.10577569723E+02 -0.85972309836E+00 -0.39528251019E+01  0.11324704470E+02  0.00000000000E+00 0. -1.
        -14    1    4    4    0    0 -0.73709039369E+02  0.38694766813E+02 -0.31466031708E+03  0.32548643997E+03  0.00000000000E+00 0.  1.
</event>
<event>
12    1  0.1040325E-001  0.1743231E+03  0.7818608E-02  0.1173573E+00
         21   -1    0    0  503  502  0.00000000000E+00  0.00000000000E+00  0.21787214747E+03  0.21787214747E+03  0.00000000000E+00 0. -1.
         21   -1    0    0  501  503 -0.00000000000E+00 -0.00000000000E+00 -0.62480258458E+03  0.62480258458E+03  0.00000000000E+00 0. -1.
          6    2    1    2  501    0  0.23771107004E+02  0.10072372390E+02 -0.57508264356E+03  0.60092310055E+03  0.17240071822E+03 0.  0.
         24    2    3    3    0    0 -0.20065948200E+02  0.41281870229E+02 -0.18847185438E+03  0.21055697437E+03  0.81888732283E+02 0.  0.
         -6    2    1    2    0  502 -0.23771107004E+02 -0.10072372390E+02  0.16815220645E+03  0.24175163149E+03  0.17176195324E+03 0.  0.
        -24    2    5    5    0    0  0.13681374327E+02  0.10231116010E+00  0.18255008142E+03  0.20009108244E+03  0.80775730120E+02 0.  0.
          5    1    3    3  501    0  0.43837055204E+02 -0.31209497839E+02 -0.38661078918E+03  0.39036612619E+03  0.47000000000E+01 0. -1.
        -11    1    4    4    0    0 -0.43683064369E+02  0.69912213460E+01 -0.13913590798E+03  0.14599961705E+03  0.00000000000E+00 0.  1.
         12    1    4    4    0    0  0.23617116169E+02  0.34290648883E+02 -0.49335946395E+02  0.64557357316E+02  0.00000000000E+00 0. -1.
         -5    1    5    5    0  502 -0.37452481331E+02 -0.10174683550E+02 -0.14397874971E+02  0.41660549047E+02  0.47000000000E+01 0.  1.
         11    1    6    6    0    0  0.24567677653E+02  0.29573694398E+02  0.45894777434E+02  0.59870733930E+02  0.00000000000E+00 0. -1.
        -12    1    6    6    0    0 -0.10886303326E+02 -0.29471383238E+02  0.13665530399E+03  0.14022034852E+03  0.00000000000E+00 0.  1.
</event>
<event>
12    1  0.1040325E-001  0.2046296E+03  0.7818608E-02  0.1146524E+00
         21   -1    0    0  501  502  0.00000000000E+00  0.00000000000E+00  0.12626718688E+03  0.12626718688E+03  0.00000000000E+00 0.  1.
         21   -1    0    0  502  503 -0.00000000000E+00 -0.00000000000E+00 -0.41052094167E+03  0.41052094167E+03  0.00000000000E+00 0. -1.
         -6    2    1    2    0  503  0.93829741233E+02 -0.58896771902E+02 -0.26256873607E+03  0.33101276481E+03  0.16838722999E+03 0.  0.
        -24    2    3    3    0    0  0.64989848070E+02 -0.14910749641E+02 -0.26422181808E+03  0.27817970440E+03  0.55899624175E+02 0.  0.
          6    2    1    2  501    0 -0.93829741233E+02  0.58896771902E+02 -0.21685018718E+02  0.20577536375E+03  0.17204769748E+03 0.  0.
         24    2    5    5    0    0  0.14404705938E+02  0.15558070806E+02 -0.32240845627E+02  0.88615413043E+02  0.79772615487E+02 0.  0.
          5    1    5    5  501    0 -0.10823444717E+03  0.43338701096E+02  0.10555826908E+02  0.11715995070E+03  0.47000000000E+01 0. -1.
        -13    1    6    6    0    0  0.76576145446E+01  0.47685530355E+02 -0.11058330998E+02  0.49546297039E+02  0.00000000000E+00 0.  1.
         14    1    6    6    0    0  0.67470913932E+01 -0.32127459549E+02 -0.21182514628E+02  0.39069116004E+02  0.00000000000E+00 0. -1.
         -5    1    3    3    0  503  0.28839893163E+02 -0.43986022261E+02  0.16530820109E+01  0.52833060408E+02  0.47000000000E+01 0.  1.
         11    1    4    4    0    0  0.50748869216E+02 -0.22051212843E+02 -0.10995674912E+03  0.12309423378E+03  0.00000000000E+00 0. -1.
        -12    1    4    4    0    0  0.14240978854E+02  0.71404632029E+01 -0.15426506896E+03  0.15508547062E+03  0.00000000000E+00 0.  1.
</event>
<event>
12    1  0.1040325E-001  0.1867973E+03  0.7818608E-02  0.1161445E+00
         21   -1    0    0  503  502  0.00000000000E+00  0.00000000000E+00  0.91177950087E+02  0.91177950087E+02  0.00000000000E+00 0.  1.
         21   -1    0    0  501  503 -0.00000000000E+00 -0.00000000000E+00 -0.39793879990E+03  0.39793879990E+03  0.00000000000E+00 0. -1.
          6    2    1    2  501    0 -0.56965051178E+02  0.43153898541E+02 -0.10475740474E+03  0.21416662105E+03  0.17258607043E+03 0.  0.
         24    2    3    3    0    0 -0.74457132912E+02  0.86417285077E+02 -0.70334582930E+02  0.15598832441E+03  0.79834779351E+02 0.  0.
         -6    2    1    2    0  502  0.56965051178E+02 -0.43153898541E+02 -0.20200344507E+03  0.27495012894E+03  0.17229308045E+03 0.  0.
        -24    2    5    5    0    0  0.16212225460E+02 -0.23020751187E+02 -0.21149691691E+03  0.22827730565E+03  0.81159048625E+02 0.  0.
          5    1    3    3  501    0  0.17492081734E+02 -0.43263386537E+02 -0.34422821813E+02  0.58178296637E+02  0.47000000000E+01 0. -1.
        -11    1    4    4    0    0  0.96027527209E+00  0.56904860529E+02 -0.18543315407E+02  0.59857663057E+02  0.00000000000E+00 0.  1.
         12    1    4    4    0    0 -0.75417408185E+02  0.29512424548E+02 -0.51791267524E+02  0.96130661351E+02  0.00000000000E+00 0. -1.
         -5    1    5    5    0  502  0.40752825718E+02 -0.20133147354E+02  0.94934718395E+01  0.46672823291E+02  0.47000000000E+01 0. -1.
         11    1    6    6    0    0  0.59297985653E+01  0.20186720041E+02 -0.15495750763E+03  0.15637933159E+03  0.00000000000E+00 0. -1.
        -12    1    6    6    0    0  0.10282426895E+02 -0.43207471228E+02 -0.56539409278E+02  0.71897974062E+02  0.00000000000E+00 0.  1.
</event>
<event>
12    1  0.1040325E-001  0.2599615E+03  0.7818608E-02  0.1107180E+00
         21   -1    0    0  503  502  0.00000000000E+00  0.00000000000E+00  0.77470770718E+02  0.77470770718E+02  0.00000000000E+00 0.  1.
         21   -1    0    0  501  503 -0.00000000000E+00 -0.00000000000E+00 -0.11681428137E+04  0.11681428137E+04  0.00000000000E+00 0. -1.
          6    2    1    2  501    0 -0.10340006591E+03 -0.16488626103E+03 -0.23168741990E+03  0.34815352759E+03  0.17219978377E+03 0.  0.
         24    2    3    3    0    0 -0.13350296756E+03 -0.12570038172E+03 -0.13735608327E+03  0.24155986505E+03  0.76556165524E+02 0.  0.
         -6    2    1    2    0  502  0.10340006591E+03  0.16488626103E+03 -0.85898462306E+03  0.89746005680E+03  0.17233954332E+03 0.  0.
        -24    2    5    5    0    0  0.64709990984E+02  0.16784667646E+03 -0.52598850396E+03  0.56217780064E+03  0.83785938599E+02 0.  0.
          5    1    3    3  501    0  0.30102901640E+02 -0.39185879306E+02 -0.94331336634E+02  0.10659366255E+03  0.47000000000E+01 0. -1.
        -11    1    4    4    0    0 -0.46761837905E+01 -0.36182782006E+02 -0.50331331282E+02  0.62163520791E+02  0.00000000000E+00 0.  1.
         12    1    4    4    0    0 -0.12882678376E+03 -0.89517599717E+02 -0.87024751983E+02  0.17939634425E+03  0.00000000000E+00 0. -1.
         -5    1    5    5    0  502  0.38690074930E+02 -0.29604154322E+01 -0.33299611910E+03  0.33528225616E+03  0.47000000000E+01 0.  1.
         11    1    6    6    0    0 -0.14040682324E+02  0.25877780857E+02 -0.14636376822E+03  0.14929552220E+03  0.00000000000E+00 0. -1.
        -12    1    6    6    0    0  0.78750673308E+02  0.14196889560E+03 -0.37962473574E+03  0.41288227844E+03  0.00000000000E+00 0.  1.
</event>
<event>
12    1  0.1040325E-001  0.2585193E+03  0.7818608E-02  0.1108092E+00
         21   -1    0    0  503  502  0.00000000000E+00  0.00000000000E+00  0.67304503093E+02  0.67304503093E+02  0.00000000000E+00 0. -1.
         21   -1    0    0  501  503 -0.00000000000E+00 -0.00000000000E+00 -0.16440310999E+04  0.16440310999E+04  0.00000000000E+00 0.  1.
          6    2    1    2  501    0  0.19206185912E+03  0.69723352941E+01 -0.13270719983E+04  0.13519477445E+04  0.17235499460E+03 0.  0.
         24    2    3    3    0    0  0.17219856133E+03  0.55711304388E+02 -0.11581618256E+04  0.11749653326E+04  0.80303328304E+02 0.  0.
         -6    2    1    2    0  502 -0.19206185912E+03 -0.69723352941E+01 -0.24965459857E+03  0.35938785850E+03  0.17290414413E+03 0.  0.
        -24    2    5    5    0    0 -0.19748507577E+03 -0.33913765111E+02 -0.16899460363E+03  0.27404515698E+03  0.79944189218E+02 0.  0.
          5    1    3    3  501    0  0.19863297798E+02 -0.48738969094E+02 -0.16891017266E+03  0.17698241194E+03  0.47000000000E+01 0. -1.
        -11    1    4    4    0    0  0.17600276322E+03  0.40336138108E+02 -0.10982798158E+04  0.11130240476E+04  0.00000000000E+00 0.  1.
         12    1    4    4    0    0 -0.38042018894E+01  0.15375166280E+02 -0.59882009761E+02  0.61941284966E+02  0.00000000000E+00 0. -1.
         -5    1    5    5    0  502  0.54232166416E+01  0.26941429817E+02 -0.80659994941E+02  0.85342701523E+02  0.47000000000E+01 0.  1.
         13    1    6    6    0    0 -0.38966496544E+02 -0.23819704649E+02 -0.79617637208E+02  0.91786351584E+02  0.00000000000E+00 0. -1.
        -14    1    6    6    0    0 -0.15851857922E+03 -0.10094060462E+02 -0.89376966426E+02  0.18225880539E+03  0.00000000000E+00 0.  1.
</event>
<event>
12    1  0.1040325E-001  0.1765355E+03  0.7818608E-02  0.1171239E+00
         21   -1    0    0  503  502  0.00000000000E+00  0.00000000000E+00  0.48237679972E+02  0.48237679972E+02  0.00000000000E+00 0. -1.
         21   -1    0    0  501  503 -0.00000000000E+00 -0.00000000000E+00 -0.65019261920E+03  0.65019261920E+03  0.00000000000E+00 0. -1.
          6    2    1    2  501    0 -0.38779401672E+02 -0.14535144105E+02 -0.27138300828E+03  0.32374914676E+03  0.17160903366E+03 0.  0.
         24    2    3    3    0    0 -0.61200518315E+02  0.37685418790E+02 -0.11523541992E+03  0.15751481513E+03  0.79787347048E+02 0.  0.
         -6    2    1    2    0  502  0.38779401672E+02  0.14535144105E+02 -0.33057193094E+03  0.37468115242E+03  0.17144402013E+03 0.  0.
        -24    2    5    5    0    0  0.33611372865E+02 -0.14159244402E+02 -0.70017179040E+02  0.11245806954E+03  0.80088722400E+02 0.  0.
          5    1    3    3  501    0  0.22421116643E+02 -0.52220562895E+02 -0.15614758836E+03  0.16623433163E+03  0.47000000000E+01 0. -1.
        -13    1    4    4    0    0  0.13875400852E+02  0.27988830823E+02 -0.27328483109E+02  0.41505992202E+02  0.00000000000E+00 0.  1.
         14    1    4    4    0    0 -0.75075919167E+02  0.96965879671E+01 -0.87906936813E+02  0.11600882293E+03  0.00000000000E+00 0. -1.
         -5    1    5    5    0  502  0.51680288075E+01  0.28694388507E+02 -0.26055475190E+03  0.26222308288E+03  0.47000000000E+01 0.  1.
         11    1    6    6    0    0  0.23530899030E+02  0.92729969697E+01 -0.80872955589E+02  0.84735627853E+02  0.00000000000E+00 0. -1.
        -12    1    6    6    0    0  0.10080473835E+02 -0.23432241372E+02  0.10855776550E+02  0.27722441685E+02  0.00000000000E+00 0.  1.
</event>
<event>
12    1  0.1040325E-001  0.2318872E+03  0.7818608E-02  0.1127679E+00
         21   -1    0    0  501  502  0.00000000000E+00  0.00000000000E+00  0.90159649351E+03  0.90159649351E+03  0.00000000000E+00 0. -1.
         21   -1    0    0  502  503 -0.00000000000E+00 -0.00000000000E+00 -0.56582529376E+02  0.56582529376E+02  0.00000000000E+00 0.  1.
         -6    2    1    2    0  503  0.16880725228E+01 -0.13442808026E+03  0.44359668029E+03  0.49459785197E+03  0.17255509861E+03 0.  0.
        -24    2    3    3    0    0  0.67851649958E+02 -0.75982357258E+02  0.23796915532E+03  0.27077137780E+03  0.79439631995E+02 0.  0.
          6    2    1    2  501    0 -0.16880725228E+01  0.13442808026E+03  0.40141728384E+03  0.46358117091E+03  0.18893889994E+03 0.  0.
         24    2    5    5    0    0 -0.26758966158E+02  0.16341834328E+02  0.67340909957E+02  0.10833192775E+03  0.78853729120E+02 0.  0.
          5    1    5    5  501    0  0.25070893635E+02  0.11808624593E+03  0.33407637388E+03  0.35524924317E+03  0.47000000000E+01 0. -1.
        -11    1    6    6    0    0  0.40773654195E+01  0.27592018677E+02 -0.55072018889E+01  0.28430154345E+02  0.00000000000E+00 0.  1.
         12    1    6    6    0    0 -0.30836331578E+02 -0.11250184349E+02  0.72848111846E+02  0.79901773401E+02  0.00000000000E+00 0. -1.
         -5    1    3    3    0  503 -0.66163577435E+02 -0.58445723001E+02  0.20562752497E+03  0.22382647417E+03  0.47000000000E+01 0.  1.
         11    1    4    4    0    0  0.39357162516E+02 -0.76020326686E+02  0.10850140316E+03  0.13820503174E+03  0.00000000000E+00 0. -1.
        -12    1    4    4    0    0  0.28494487442E+02  0.37969428288E-01  0.12946775216E+03  0.13256634605E+03  0.00000000000E+00 0.  1.
</event>
<event>
12    1  0.1040325E-001  0.2804960E+03  0.7818608E-02  0.1095479E+00
         21   -1    0    0  501  502  0.00000000000E+00  0.00000000000E+00  0.78021919646E+03  0.78021919646E+03  0.00000000000E+00 0.  1.
         21   -1    0    0  502  503 -0.00000000000E+00 -0.00000000000E+00 -0.10546224452E+03  0.10546224452E+03  0.00000000000E+00 0.  1.
         -6    2    1    2    0  503 -0.11824258444E+03  0.18740469376E+03  0.24333886731E+03  0.37133784741E+03  0.17197722104E+03 0.  0.
        -24    2    3    3    0    0 -0.19070981164E+02  0.13539725163E+03  0.18842441520E+03  0.24652812029E+03  0.81093993489E+02 0.  0.
          6    2    1    2  501    0  0.11824258444E+03 -0.18740469376E+03  0.43141808463E+03  0.51434359357E+03  0.17124818389E+03 0.  0.
         24    2    5    5    0    0  0.13361970884E+03 -0.13368903950E+03  0.40159474309E+03  0.45083493929E+03  0.79036820134E+02 0.  0.
          5    1    5    5  501    0 -0.15377124406E+02 -0.53715654260E+02  0.29823341541E+02  0.63508654278E+02  0.47000000000E+01 0. -1.
        -11    1    6    6    0    0  0.95606940421E+02 -0.13216932280E+03  0.35498258334E+03  0.39066872337E+03  0.00000000000E+00 0.  1.
         12    1    6    6    0    0  0.38012768422E+02 -0.15197167035E+01  0.46612159748E+02  0.60166215922E+02  0.00000000000E+00 0. -1.
         -5    1    3    3    0  503 -0.99171603272E+02  0.52007442134E+02  0.54914452112E+02  0.12480972712E+03  0.47000000000E+01 0.  1.
         11    1    4    4    0    0 -0.16078111470E+02 -0.47212284485E+01  0.34522557192E+02  0.38374504838E+02  0.00000000000E+00 0. -1.
        -12    1    4    4    0    0 -0.29928696942E+01  0.14011848008E+03  0.15390185801E+03  0.20815361545E+03  0.00000000000E+00 0.  1.
</event>
<event>
12    1  0.1040325E-001  0.3082709E+03  0.7818608E-02  0.1081208E+00
         21   -1    0    0  501  502  0.00000000000E+00  0.00000000000E+00  0.95182102863E+02  0.95182102863E+02  0.00000000000E+00 0. -1.
         21   -1    0    0  502  503 -0.00000000000E+00 -0.00000000000E+00 -0.10363384958E+04  0.10363384958E+04  0.00000000000E+00 0.  1.
         -6    2    1    2    0  503 -0.88886135054E+02 -0.23987851554E+03 -0.36101194380E+03  0.47455898768E+03  0.17156387148E+03 0.  0.
        -24    2    3    3    0    0 -0.12748966782E+02 -0.20941803933E+03 -0.24813066036E+03  0.33495603945E+03  0.81291281226E+02 0.  0.
          6    2    1    2  501    0  0.88886135054E+02  0.23987851554E+03 -0.58014444913E+03  0.65696161097E+03  0.17201316581E+03 0.  0.
         24    2    5    5    0    0 -0.10264708203E+02  0.63388321401E+02 -0.24263108237E+03  0.26336658930E+03  0.79803976726E+02 0.  0.
          5    1    5    5  501    0  0.99150843257E+02  0.17649019414E+03 -0.33751336676E+03  0.39359502168E+03  0.47000000000E+01 0. -1.
        -13    1    6    6    0    0  0.26873286520E+02  0.57712826752E+02 -0.13243032045E+03  0.14693785651E+03  0.00000000000E+00 0.  1.
         14    1    6    6    0    0 -0.37137994723E+02  0.56754946488E+01 -0.11020076192E+03  0.11642873279E+03  0.00000000000E+00 0. -1.
         -5    1    3    3    0  503 -0.76137168272E+02 -0.30460476216E+02 -0.11288128344E+03  0.13960294823E+03  0.47000000000E+01 0.  1.
         11    1    4    4    0    0 -0.40519654293E+02 -0.15602149028E+03 -0.15212848379E+03  0.22164752061E+03  0.00000000000E+00 0. -1.
        -12    1    4    4    0    0  0.27770687511E+02 -0.53396549051E+02 -0.96002176576E+02  0.11330851884E+03  0.00000000000E+00 0.  1.
</event>
<event>
12    1  0.1040325E-001  0.1832529E+03  0.7818608E-02  0.1164885E+00
         21   -1    0    0  501  502  0.00000000000E+00  0.00000000000E+00  0.40412995219E+02  0.40412995219E+02  0.00000000000E+00 0.  1.
         21   -1    0    0  502  503 -0.00000000000E+00 -0.00000000000E+00 -0.11907113136E+04  0.11907113136E+04  0.00000000000E+00 0.  1.
         -6    2    1    2    0  503 -0.29868379811E+02  0.51404739134E+02 -0.91434270704E+03  0.93236575531E+03  0.17247825497E+03 0.  0.
        -24    2    3    3    0    0 -0.27864667935E+02  0.26611853272E+02 -0.21360787464E+03  0.23117384336E+03  0.79551186604E+02 0.  0.
          6    2    1    2  501    0  0.29868379811E+02 -0.51404739134E+02 -0.23595561137E+03  0.29875855354E+03  0.17334086494E+03 0.  0.
         24    2    5    5    0    0  0.70319946621E+02  0.58746407764E+01 -0.17775536405E+03  0.20750826363E+03  0.80518965030E+02 0.  0.
          5    1    5    5  501    0 -0.40451566810E+02 -0.57279379910E+02 -0.58200247322E+02  0.91250289910E+02  0.47000000000E+01 0. -1.
        -11    1    6    6    0    0  0.32289519685E+02 -0.21040444770E+02 -0.20822151729E+02  0.43804970040E+02  0.00000000000E+00 0.  1.
         12    1    6    6    0    0  0.38030426936E+02  0.26915085546E+02 -0.15693321232E+03  0.16370329359E+03  0.00000000000E+00 0. -1.
         -5    1    3    3    0  503 -0.20037118766E+01  0.24792885862E+02 -0.70073483240E+03  0.70119191195E+03  0.47000000000E+01 0.  1.
         11    1    4    4    0    0  0.10461575845E+02  0.38248943916E+02 -0.56407719424E+02  0.68951121024E+02  0.00000000000E+00 0. -1.
        -12    1    4    4    0    0 -0.38326243779E+02 -0.11637090644E+02 -0.15720015522E+03  0.16222272233E+03  0.00000000000E+00 0.  1.
</event>
<event>
12    1  0.1040325E-001  0.1752581E+03  0.7818608E-02  0.1172811E+00
         21   -1    0    0  501  502  0.00000000000E+00  0.00000000000E+00  0.68434901642E+02  0.68434901642E+02  0.00000000000E+00 0.  1.
         21   -1    0    0  502  503 -0.00000000000E+00 -0.00000000000E+00 -0.12756312615E+04  0.12756312615E+04  0.00000000000E+00 0.  1.
         -6    2    1    2    0  503  0.41979998952E+01 -0.31031201206E+02 -0.11449487507E+04  0.11580818824E+04  0.17107146480E+03 0.  0.
        -24    2    3    3    0    0  0.10525258783E+02 -0.68848152340E+02 -0.47198197262E+03  0.48400730913E+03  0.81518363917E+02 0.  0.
          6    2    1    2  501    0 -0.41979998952E+01  0.31031201206E+02 -0.62247609223E+02  0.18598428076E+03  0.17243789950E+03 0.  0.
         24    2    5    5    0    0 -0.53059436087E+02  0.82198786430E+01 -0.83138318448E+02  0.12796438662E+03  0.81117409270E+02 0.  0.
          5    1    5    5  501    0  0.48861436192E+02  0.22811322563E+02  0.20890709224E+02  0.58019894137E+02  0.47000000000E+01 0. -1.
        -11    1    6    6    0    0 -0.13415057153E+01  0.49760735501E+01  0.15613583983E+02  0.16442169880E+02  0.00000000000E+00 0.  1.
         12    1    6    6    0    0 -0.51717930372E+02  0.32438050930E+01 -0.98751902431E+02  0.11152221674E+03  0.00000000000E+00 0. -1.
         -5    1    3    3    0  503 -0.63272588878E+01  0.37816951135E+02 -0.67296677805E+03  0.67407457329E+03  0.47000000000E+01 0.  1.
         11    1    4    4    0    0 -0.19966150810E+02 -0.70851316335E+02 -0.38055842274E+03  0.38761226673E+03  0.00000000000E+00 0. -1.
        -12    1    4    4    0    0  0.30491409593E+02  0.20031639943E+01 -0.91423549882E+02  0.96395042393E+02  0.00000000000E+00 0.  1.
</event>
<event>
12    1  0.1040325E-001  0.1790845E+03  0.7818608E-02  0.1168869E+00
         21   -1    0    0  503  502  0.00000000000E+00  0.00000000000E+00  0.19082483335E+03  0.19082483335E+03  0.00000000000E+00 0. -1.
         21   -1    0    0  501  503 -0.00000000000E+00 -0.00000000000E+00 -0.17790542110E+03  0.17790542110E+03  0.00000000000E+00 0. -1.
          6    2    1    2  501    0  0.38445277190E+02  0.29971182563E+02  0.51303708972E+02  0.18628825361E+03  0.17232217430E+03 0.  0.
         24    2    3    3    0    0 -0.35379093076E+02  0.13683234599E+02 -0.10579917895E+02  0.88477169530E+02  0.79229815912E+02 0.  0.
         -6    2    1    2    0  502 -0.38445277190E+02 -0.29971182563E+02 -0.38384296721E+02  0.18244200084E+03  0.17156753280E+03 0.  0.
        -24    2    5    5    0    0 -0.83628984717E+02  0.94378476566E+01 -0.16376458354E+02  0.11840237218E+03  0.81658148993E+02 0.  0.
          5    1    3    3  501    0  0.73824370266E+02  0.16287947964E+02  0.61883626868E+02  0.97811084078E+02  0.47000000000E+01 0. -1.
        -11    1    4    4    0    0 -0.27116031307E+02 -0.27497265792E+02  0.12450916063E+02  0.40575905297E+02  0.00000000000E+00 0.  1.
         12    1    4    4    0    0 -0.82630617694E+01  0.41180500391E+02 -0.23030833959E+02  0.47901264233E+02  0.00000000000E+00 0. -1.
         -5    1    5    5    0  502  0.45183707527E+02 -0.39409030220E+02 -0.22007838367E+02  0.64039628656E+02  0.47000000000E+01 0.  1.
         13    1    6    6    0    0 -0.74157768438E+02 -0.10223404090E+02  0.18637269644E+02  0.77144283202E+02  0.00000000000E+00 0. -1.
        -14    1    6    6    0    0 -0.94712162787E+01  0.19661251747E+02 -0.35013727998E+02  0.41258088981E+02  0.00000000000E+00 0.  1.
</event>
<event>
12    1  0.1040325E-001  0.2237560E+03  0.7818608E-02  0.1133117E+00
         21   -1    0    0  503  502  0.00000000000E+00  0.00000000000E+00  0.49126129592E+02  0.49126129592E+02  0.00000000000E+00 0.  1.
         21   -1    0    0  501  503 -0.00000000000E+00 -0.00000000000E+00 -0.10066061284E+04  0.10066061284E+04  0.00000000000E+00 0. -1.
          6    2    1    2  501    0  0.21277381058E+02 -0.12159314161E+03 -0.39076246992E+03  0.45029107987E+03  0.18662564047E+03 0.  0.
         24    2    3    3    0    0  0.50561376398E+02 -0.76524110713E+02 -0.11062157531E+03  0.16500213729E+03  0.81093650062E+02 0.  0.
         -6    2    1    2    0  502 -0.21277381058E+02  0.12159314161E+03 -0.56671752889E+03  0.60544117812E+03  0.17364516575E+03 0.  0.
        -24    2    5    5    0    0 -0.44119949963E+02  0.13703988439E+03 -0.53938770648E+03  0.56633371068E+03  0.95227485835E+02 0.  0.
          5    1    3    3  501    0 -0.29283995340E+02 -0.45069030894E+02 -0.28014089461E+03  0.28528894259E+03  0.47000000000E+01 0. -1.
        -13    1    4    4    0    0  0.29582470183E+02  0.95480284909E+01 -0.14561558075E+02  0.34326758714E+02  0.00000000000E+00 0.  1.
         14    1    4    4    0    0  0.20978906215E+02 -0.86072139204E+02 -0.96060017238E+02  0.13067537857E+03  0.00000000000E+00 0. -1.
         -5    1    5    5    0  502  0.22842568905E+02 -0.15446742778E+02 -0.27329822406E+02  0.39107467438E+02  0.47000000000E+01 0.  1.
         13    1    6    6    0    0  0.39413824105E+01  0.12186557412E+03 -0.36653474868E+03  0.38628289458E+03  0.00000000000E+00 0. -1.
        -14    1    6    6    0    0 -0.48061332374E+02  0.15174310265E+02 -0.17285295780E+03  0.18005081611E+03  0.00000000000E+00 0.  1.
</event>
<event>
12    1  0.1040325E-001  0.4131807E+03  0.7818608E-02  0.1039449E+00
         21   -1    0    0  501  502  0.00000000000E+00  0.00000000000E+00  0.35250805520E+03  0.35250805520E+03  0.00000000000E+00 0. -1.
         21   -1    0    0  502  503 -0.00000000000E+00 -0.00000000000E+00 -0.14693621201E+04  0.14693621201E+04  0.00000000000E+00 0.  1.
         -6    2    1    2    0  503  0.25050104581E+03  0.27223386193E+03 -0.13054046923E+04  0.13692332406E+04  0.18400056246E+03 0.  0.
        -24    2    3    3    0    0  0.18923759961E+03  0.26573175800E+03 -0.92903420008E+03  0.98782489695E+03  0.79178569138E+02 0.  0.
          6    2    1    2  501    0 -0.25050104581E+03 -0.27223386193E+03  0.18855062740E+03  0.45263693468E+03  0.18018547668E+03 0.  0.
         24    2    5    5    0    0 -0.13832583165E+03 -0.23744506797E+03  0.17279064521E+03  0.33404517317E+03  0.78837647363E+02 0.  0.
          5    1    5    5  501    0 -0.11217521416E+03 -0.34788793955E+02  0.15759982191E+02  0.11859176150E+03  0.47000000000E+01 0. -1.
        -13    1    6    6    0    0  0.86945555798E+01 -0.38152516789E+01  0.29582122737E+01  0.99449716923E+01  0.00000000000E+00 0.  1.
         14    1    6    6    0    0 -0.14702038723E+03 -0.23362981630E+03  0.16983243294E+03  0.32410020148E+03  0.00000000000E+00 0. -1.
         -5    1    3    3    0  503  0.61263446200E+02  0.65021039274E+01 -0.37637049225E+03  0.38140834368E+03  0.47000000000E+01 0.  1.
         13    1    4    4    0    0  0.14450654461E+02  0.41389980834E+02 -0.66809566165E+02  0.79909136267E+02  0.00000000000E+00 0. -1.
        -14    1    4    4    0    0  0.17478694515E+03  0.22434177717E+03 -0.86222463391E+03  0.90791576069E+03  0.00000000000E+00 0.  1.
</event>
<event>
12    1  0.1040325E-001  0.2038818E+03  0.7818608E-02  0.1146928E+00
         21   -1    0    0  501  502  0.00000000000E+00  0.00000000000E+00  0.65303505472E+03  0.65303505472E+03  0.00000000000E+00 0. -1.
         21   -1    0    0  502  503 -0.00000000000E+00 -0.00000000000E+00 -0.37383964630E+03  0.37383964630E+03  0.00000000000E+00 0. -1.
         -6    2    1    2    0  503  0.10609720587E+03 -0.58860024605E+01 -0.32845116743E+03  0.38658501497E+03  0.17400155829E+03 0.  0.
        -24    2    3    3    0    0  0.89372986859E+02 -0.61682490092E+02 -0.28640480100E+03  0.31459241490E+03  0.71752471136E+02 0.  0.
          6    2    1    2  501    0 -0.10609720587E+03  0.58860024605E+01  0.60764657585E+03  0.64028968606E+03  0.17159620861E+03 0.  0.
         24    2    5    5    0    0 -0.39892403875E+01 -0.26313740351E+02  0.37198423617E+03  0.38140421254E+03  0.79928558210E+02 0.  0.
          5    1    5    5  501    0 -0.10210796548E+03  0.32199742812E+02  0.23566233969E+03  0.25888547352E+03  0.47000000000E+01 0. -1.
        -11    1    6    6    0    0  0.16616121082E+02  0.16769658773E+02  0.43741660334E+02  0.49705631311E+02  0.00000000000E+00 0.  1.
         12    1    6    6    0    0 -0.20605361469E+02 -0.43083399124E+02  0.32824257583E+03  0.33169858123E+03  0.00000000000E+00 0. -1.
         -5    1    3    3    0  503  0.16724219014E+02  0.55796487632E+02 -0.42046366433E+02  0.71992600063E+02  0.47000000000E+01 0.  1.
         13    1    4    4    0    0  0.87529483754E+02 -0.34082590904E+02 -0.25961324953E+03  0.27608345271E+03  0.00000000000E+00 0. -1.
        -14    1    4    4    0    0  0.18435031051E+01 -0.27599899189E+02 -0.26791551469E+02  0.38508962191E+02  0.00000000000E+00 0.  1.
</event>
<event>
12    1  0.1040325E-001  0.2085890E+03  0.7818608E-02  0.1143203E+00
         21   -1    0    0  503  502  0.00000000000E+00  0.00000000000E+00  0.57649692366E+02  0.57649692366E+02  0.00000000000E+00 0. -1.
         21   -1    0    0  501  503 -0.00000000000E+00 -0.00000000000E+00 -0.84756772347E+03  0.84756772347E+03  0.00000000000E+00 0. -1.
          6    2    1    2  501    0 -0.37994647250E+02 -0.10880935559E+03 -0.54989077991E+03  0.58721985095E+03  0.17077533321E+03 0.  0.
         24    2    3    3    0    0 -0.12447244295E+02  0.12023166663E+02 -0.22658767829E+03  0.24109826284E+03  0.80541330803E+02 0.  0.
         -6    2    1    2    0  502  0.37994647250E+02  0.10880935559E+03 -0.24002725120E+03  0.31799756489E+03  0.17385712777E+03 0.  0.
        -24    2    5    5    0    0  0.55572550925E+02  0.75214628157E+02 -0.24966116671E+03  0.27859590582E+03  0.80866753825E+02 0.  0.
          5    1    3    3  501    0 -0.25547402955E+02 -0.12083252226E+03 -0.32330310162E+03  0.34612158811E+03  0.47000000000E+01 0. -1.
        -13    1    4    4    0    0  0.29053322848E+02  0.23503812390E+02 -0.79642283967E+02  0.87973962971E+02  0.00000000000E+00 0.  1.
         14    1    4    4    0    0 -0.41500567143E+02 -0.11480645727E+02 -0.14694539432E+03  0.15312429987E+03  0.00000000000E+00 0. -1.
         -5    1    5    5    0  502 -0.17577903675E+02  0.33594727437E+02  0.96339155118E+01  0.39401659068E+02  0.47000000000E+01 0.  1.
         13    1    6    6    0    0  0.64641823648E+02  0.76001225826E+02 -0.16058873784E+03  0.18905949966E+03  0.00000000000E+00 0. -1.
        -14    1    6    6    0    0 -0.90692727231E+01 -0.78659766912E+00 -0.89072428871E+02  0.89536406163E+02  0.00000000000E+00 0.  1.
</event>
<event>
12    1  0.1040325E-001  0.1886457E+03  0.7818608E-02  0.1163260E+00
         21   -1    0    0  501  502  0.00000000000E+00  0.00000000000E+00  0.31977904465E+03  0.31977904465E+03  0.00000000000E+00 0. -1.
         21   -1    0    0  502  503 -0.00000000000E+00 -0.00000000000E+00 -0.34034396906E+03  0.34034396906E+03  0.00000000000E+00 0. -1.
         -6    2    1    2    0  503  0.24841386368E+02 -0.12784498600E+02 -0.28594011678E+03  0.33452940057E+03  0.17136986777E+03 0.  0.
        -24    2    3    3    0    0 -0.53281554432E+01 -0.46796642169E+02 -0.27139017193E+03  0.28656255724E+03  0.79038970364E+02 0.  0.
          6    2    1    2  501    0 -0.24841386368E+02  0.12784498600E+02  0.26537519236E+03  0.32559361315E+03  0.18656545854E+03 0.  0.
         24    2    5    5    0    0 -0.21377666945E+02  0.54574826801E+02  0.63227082684E+02  0.11908846278E+03  0.82152185711E+02 0.  0.
          5    1    5    5  501    0 -0.34637194222E+01 -0.41790328201E+02  0.20214810968E+03  0.20650515037E+03  0.47000000000E+01 0. -1.
        -13    1    6    6    0    0  0.29073871082E+02  0.34051704758E+02  0.17869436791E+02  0.48209183231E+02  0.00000000000E+00 0.  1.
         14    1    6    6    0    0 -0.50451538027E+02  0.20523122043E+02  0.45357645893E+02  0.70879279544E+02  0.00000000000E+00 0. -1.
         -5    1    3    3    0  503  0.30169541811E+02  0.34012143569E+02 -0.14549944851E+02  0.47966843323E+02  0.47000000000E+01 0. -1.
         13    1    4    4    0    0 -0.94963943983E+01 -0.68881551816E+02 -0.20528592681E+03  0.21674215426E+03  0.00000000000E+00 0. -1.
        -14    1    4    4    0    0  0.41682389551E+01  0.22084909648E+02 -0.66104245119E+02  0.69820402985E+02  0.00000000000E+00 0.  1.
</event>
<event>
12    1  0.1040325E-001  0.2570562E+03  0.7818608E-02  0.1108930E+00
         21   -1    0    0  503  502  0.00000000000E+00  0.00000000000E+00  0.18596947945E+03  0.18596947945E+03  0.00000000000E+00 0.  1.
         21   -1    0    0  501  503 -0.00000000000E+00 -0.00000000000E+00 -0.10492270432E+04  0.10492270432E+04  0.00000000000E+00 0.  1.
          6    2    1    2  501    0 -0.16984522824E+03 -0.88082002679E+02 -0.93390882414E+03  0.96864006359E+03  0.17167422708E+03 0.  0.
         24    2    3    3    0    0 -0.49138555265E+02 -0.89790227093E+02 -0.38008766334E+03  0.40179529906E+03  0.80597444306E+02 0.  0.
         -6    2    1    2    0  502  0.16984522824E+03  0.88082002679E+02  0.70651260345E+02  0.26655645910E+03  0.17162431222E+03 0.  0.
        -24    2    5    5    0    0  0.19340812997E+03  0.93647162907E+02  0.75276723461E+02  0.24146330754E+03  0.80383132145E+02 0.  0.
          5    1    3    3  501    0 -0.12070667297E+03  0.17082244132E+01 -0.55382116079E+03  0.56684476453E+03  0.47000000000E+01 0. -1.
        -11    1    4    4    0    0 -0.38407626455E+01 -0.26557207810E+02 -0.24055119779E+03  0.24204321000E+03  0.00000000000E+00 0.  1.
         12    1    4    4    0    0 -0.45297792620E+02 -0.63233019282E+02 -0.13953646555E+03  0.15975208907E+03  0.00000000000E+00 0. -1.
         -5    1    5    5    0  502 -0.23562901727E+02 -0.55651602275E+01 -0.46254631158E+01  0.25093151560E+02  0.47000000000E+01 0.  1.
         11    1    6    6    0    0  0.62593391404E+02  0.12183130350E+02 -0.11210944454E+02  0.64746016002E+02  0.00000000000E+00 0. -1.
        -12    1    6    6    0    0  0.13081473856E+03  0.81464032557E+02  0.86487667916E+02  0.17671729153E+03  0.00000000000E+00 0.  1.
</event>
<event>
12    1  0.1040325E-001  0.2260042E+03  0.7818608E-02  0.1129644E+00
         21   -1    0    0  503  502  0.00000000000E+00  0.00000000000E+00  0.15647195307E+03  0.15647195307E+03  0.00000000000E+00 0.  1.
         21   -1    0    0  501  503 -0.00000000000E+00 -0.00000000000E+00 -0.44815841493E+03  0.44815841493E+03  0.00000000000E+00 0. -1.
          6    2    1    2  501    0  0.80278201180E+02 -0.12095653558E+03 -0.30442740323E+03  0.37914895380E+03  0.17321319883E+03 0.  0.
         24    2    3    3    0    0 -0.63360912713E+01 -0.69987869610E+01 -0.90222044621E+02  0.12147778781E+03  0.80794223334E+02 0.  0.
         -6    2    1    2    0  502 -0.80278201180E+02  0.12095653558E+03  0.12740941365E+02  0.22548141420E+03  0.17205947658E+03 0.  0.
        -24    2    5    5    0    0 -0.10747903380E+03  0.42369359120E+02 -0.41780846179E+00  0.14115424008E+03  0.81101415700E+02 0.  0.
          5    1    3    3  501    0  0.86614292452E+02 -0.11395774861E+03 -0.21420535861E+03  0.25767116599E+03  0.47000000000E+01 0. -1.
        -13    1    4    4    0    0  0.17261660625E+01 -0.20941056537E+02  0.75958572401E+01  0.22342885789E+02  0.00000000000E+00 0.  1.
         14    1    4    4    0    0 -0.80622573338E+01  0.13942269576E+02 -0.97817901861E+02  0.99134902021E+02  0.00000000000E+00 0. -1.
         -5    1    5    5    0  502  0.27200832624E+02  0.78587176455E+02  0.13158749827E+02  0.84327174124E+02  0.47000000000E+01 0.  1.
         11    1    6    6    0    0 -0.16756539539E+02 -0.72036571763E+00 -0.31781478634E+02  0.35935538514E+02  0.00000000000E+00 0. -1.
        -12    1    6    6    0    0 -0.90722494265E+02  0.43089724838E+02  0.31363670173E+02  0.10521870157E+03  0.00000000000E+00 0.  1.
</event>
<event>
12    1  0.1040325E-001  0.1964934E+03  0.7818608E-02  0.1153725E+00
         21   -1    0    0  503  502  0.00000000000E+00  0.00000000000E+00  0.10924050780E+04  0.10924050780E+04  0.00000000000E+00 0.  1.
         21   -1    0    0  501  503 -0.00000000000E+00 -0.00000000000E+00 -0.36480506326E+02  0.36480506326E+02  0.00000000000E+00 0.  1.
          6    2    1    2  501    0  0.73743614079E+02 -0.41245255110E+02  0.39163115944E+03  0.43614076868E+03  0.17234997353E+03 0.  0.
         24    2    3    3    0    0  0.42874032201E+01  0.32036460198E+02  0.14395188906E+03  0.16863098194E+03  0.81667282917E+02 0.  0.
         -6    2    1    2    0  502 -0.73743614079E+02  0.41245255110E+02  0.66429341221E+03  0.69274481561E+03  0.17739884547E+03 0.  0.
        -24    2    5    5    0    0 -0.41127109265E+02 -0.59048818258E+02  0.27818979851E+03  0.29246887574E+03  0.54500249760E+02 0.  0.
          5    1    3    3  501    0  0.69456210859E+02 -0.73281715308E+02  0.24767927038E+03  0.26750978674E+03  0.47000000000E+01 0. -1.
        -13    1    4    4    0    0  0.29819348062E+02 -0.11215939219E+02  0.87241566948E+02  0.92876702219E+02  0.00000000000E+00 0.  1.
         14    1    4    4    0    0 -0.25531944842E+02  0.43252399416E+02  0.56710322110E+02  0.75754279724E+02  0.00000000000E+00 0. -1.
         -5    1    5    5    0  502 -0.32616504814E+02  0.10029407337E+03  0.38610361369E+03  0.40027593988E+03  0.47000000000E+01 0.  1.
         11    1    6    6    0    0 -0.25986192426E+01 -0.15966720104E+01 -0.21428670769E+01  0.37274740490E+01  0.00000000000E+00 0. -1.
        -12    1    6    6    0    0 -0.38528490022E+02 -0.57452146247E+02  0.28033266559E+03  0.28874140169E+03  0.00000000000E+00 0.  1.
</event>
<event>
12    1  0.1040325E-001  0.2008999E+03  0.7818608E-02  0.1149101E+00
         21   -1    0    0  503  502  0.00000000000E+00  0.00000000000E+00  0.76195544435E+03  0.76195544435E+03  0.00000000000E+00 0.  1.
         21   -1    0    0  501  503 -0.00000000000E+00 -0.00000000000E+00 -0.59445831411E+02  0.59445831411E+02  0.00000000000E+00 0. -1.
          6    2    1    2  501    0  0.28407046877E+02  0.96833400506E+02  0.21370474174E+03  0.29292142438E+03  0.17305945929E+03 0.  0.
         24    2    3    3    0    0  0.52965094001E+02 -0.28000417672E+01  0.11773562820E+03  0.15234375456E+03  0.80831924320E+02 0.  0.
         -6    2    1    2    0  502 -0.28407046877E+02 -0.96833400506E+02  0.48880487120E+03  0.52847985138E+03  0.17371552448E+03 0.  0.
        -24    2    5    5    0    0 -0.62629288501E+02 -0.28621085826E+02  0.30860823011E+03  0.33273256237E+03  0.10358727740E+03 0.  0.
          5    1    3    3  501    0 -0.24558047124E+02  0.99633442273E+02  0.95969113541E+02  0.14057766982E+03  0.47000000000E+01 0. -1.
        -11    1    4    4    0    0 -0.24288444434E+01 -0.19768105255E+02 -0.12992236457E+01  0.19959089478E+02  0.00000000000E+00 0.  1.
         12    1    4    4    0    0  0.55393938444E+02  0.16968063488E+02  0.11903485185E+03  0.13238466508E+03  0.00000000000E+00 0. -1.
         -5    1    5    5    0  502  0.34222241624E+02 -0.68212314680E+02  0.18019664109E+03  0.19574728901E+03  0.47000000000E+01 0.  1.
         11    1    6    6    0    0  0.49480282675E+01  0.18239001189E+01  0.20645806217E+03  0.20652540045E+03  0.00000000000E+00 0. -1.
        -12    1    6    6    0    0 -0.67577316768E+02 -0.30444985945E+02  0.10215016794E+03  0.12620716192E+03  0.00000000000E+00 0.  1.
</event>
<event>
12    1  0.1040325E-001  0.1781831E+03  0.7818608E-02  0.1169716E+00
         21   -1    0    0  501  502  0.00000000000E+00  0.00000000000E+00  0.19702621489E+02  0.19702621489E+02  0.00000000000E+00 0.  1.
         21   -1    0    0  502  503 -0.00000000000E+00 -0.00000000000E+00 -0.19205167748E+04  0.19205167748E+04  0.00000000000E+00 0. -1.
         -6    2    1    2    0  503  0.45531534909E+02 -0.35392320839E+00 -0.13415880397E+04  0.13532925899E+04  0.17166572018E+03 0.  0.
        -24    2    3    3    0    0  0.67549535616E+02  0.52482896788E+02 -0.77536312638E+03  0.78416231971E+03  0.80032316494E+02 0.  0.
          6    2    1    2  501    0 -0.45531534909E+02  0.35392320839E+00 -0.55922611361E+03  0.58692680646E+03  0.17226718801E+03 0.  0.
         24    2    5    5    0    0  0.35556323540E+02  0.18898380821E+02 -0.21136846884E+03  0.22923116947E+03  0.79049974677E+02 0.  0.
          5    1    5    5  501    0 -0.81087858448E+02 -0.18544457612E+02 -0.34785764477E+03  0.35769563699E+03  0.47000000000E+01 0. -1.
        -11    1    6    6    0    0 -0.72060951791E+01  0.18288848413E+02 -0.76846959536E+01  0.21106026057E+02  0.00000000000E+00 0.  1.
         12    1    6    6    0    0  0.42762418719E+02  0.60953240789E+00 -0.20368377288E+03  0.20812514341E+03  0.00000000000E+00 0. -1.
         -5    1    3    3    0  503 -0.22018000707E+02 -0.52836819997E+02 -0.56622491336E+03  0.56913027016E+03  0.47000000000E+01 0.  1.
         11    1    4    4    0    0  0.51585298914E+02  0.15804840092E+02 -0.65722161611E+03  0.65943239889E+03  0.00000000000E+00 0. -1.
        -12    1    4    4    0    0  0.15964236702E+02  0.36678056697E+02 -0.11814151028E+03  0.12472992082E+03  0.00000000000E+00 0.  1.
</event>
<event>
12    1  0.1040325E-001  0.1787785E+03  0.7818608E-02  0.1170066E+00
         21   -1    0    0  501  502  0.00000000000E+00  0.00000000000E+00  0.15314550590E+03  0.15314550590E+03  0.00000000000E+00 0. -1.
         21   -1    0    0  502  503 -0.00000000000E+00 -0.00000000000E+00 -0.36808310469E+03  0.36808310469E+03  0.00000000000E+00 0. -1.
         -6    2    1    2    0  503 -0.12237760028E+02  0.21154367917E+02 -0.28237783193E+03  0.33421398131E+03  0.17710018432E+03 0.  0.
        -24    2    3    3    0    0 -0.75807112467E+02  0.15354863681E+02 -0.14101640568E+03  0.17903718004E+03  0.78652368234E+02 0.  0.
          6    2    1    2  501    0  0.12237760028E+02 -0.21154367917E+02  0.67440233147E+02  0.18701462927E+03  0.17271078849E+03 0.  0.
         24    2    5    5    0    0  0.30158822957E+02  0.42341867907E+02  0.74506406513E+02  0.12049427700E+03  0.79153507808E+02 0.  0.
          5    1    5    5  501    0 -0.17921062930E+02 -0.63496235823E+02 -0.70661733664E+01  0.66520352271E+02  0.47000000000E+01 0. -1.
        -13    1    6    6    0    0  0.53864633435E+02  0.36980876642E+02  0.35028974733E+02  0.74135099941E+02  0.00000000000E+00 0.  1.
         14    1    6    6    0    0 -0.23705810478E+02  0.53609912646E+01  0.39477431780E+02  0.46359177060E+02  0.00000000000E+00 0. -1.
         -5    1    3    3    0  503  0.63569352439E+02  0.57995042354E+01 -0.14136142626E+03  0.15517680127E+03  0.47000000000E+01 0.  1.
         11    1    4    4    0    0 -0.71197242343E+02 -0.58824600399E+01 -0.14012702206E+03  0.15728710362E+03  0.00000000000E+00 0. -1.
        -12    1    4    4    0    0 -0.46098701248E+01  0.21237323721E+02 -0.88938361955E+00  0.21750076428E+02  0.00000000000E+00 0.  1.
</event>
<event>
12    1  0.1040325E-001  0.1900702E+03  0.7818608E-02  0.1158470E+00
         21   -1    0    0  503  502  0.00000000000E+00  0.00000000000E+00  0.16217142829E+03  0.16217142829E+03  0.00000000000E+00 0. -1.
         21   -1    0    0  501  503 -0.00000000000E+00 -0.00000000000E+00 -0.26720885712E+03  0.26720885712E+03  0.00000000000E+00 0.  1.
          6    2    1    2  501    0  0.22496231045E+02  0.76536443416E+02 -0.14040209921E+03  0.23604803479E+03  0.17216857344E+03 0.  0.
         24    2    3    3    0    0 -0.20170571087E+02  0.61217067672E+02 -0.15807720743E+03  0.18716410361E+03  0.76730807757E+02 0.  0.
         -6    2    1    2    0  502 -0.22496231045E+02 -0.76536443416E+02  0.35364670382E+02  0.19333225062E+03  0.17251896022E+03 0.  0.
        -24    2    5    5    0    0 -0.83061722505E-02  0.28082642900E+02  0.77245300898E+01  0.82711604528E+02  0.77413863469E+02 0.  0.
          5    1    3    3  501    0  0.42666802133E+02  0.15319375743E+02  0.17675108212E+02  0.48883931181E+02  0.47000000000E+01 0. -1.
        -11    1    4    4    0    0  0.28294973607E+02  0.18112731190E+02 -0.71370172797E+02  0.78882052000E+02  0.00000000000E+00 0.  1.
         12    1    4    4    0    0 -0.48465544695E+02  0.43104336483E+02 -0.86707034629E+02  0.10828205161E+03  0.00000000000E+00 0. -1.
         -5    1    5    5    0  502 -0.22487924873E+02 -0.10461908632E+03  0.27640140292E+02  0.11062064609E+03  0.47000000000E+01 0.  1.
         13    1    6    6    0    0 -0.23633748449E+02 -0.18238780046E+02  0.72065264747E+01  0.30710603823E+02  0.00000000000E+00 0. -1.
        -14    1    6    6    0    0  0.23625442277E+02  0.46321422946E+02  0.51800361506E+00  0.52001000705E+02  0.00000000000E+00 0.  1.
</event>
<event>
12    1  0.1040325E-001  0.1816471E+03  0.7818608E-02  0.1166312E+00
         21   -1    0    0  503  502  0.00000000000E+00  0.00000000000E+00  0.12793059593E+03  0.12793059593E+03  0.00000000000E+00 0. -1.
         21   -1    0    0  501  503 -0.00000000000E+00 -0.00000000000E+00 -0.26845565799E+03  0.26845565799E+03  0.00000000000E+00 0. -1.
          6    2    1    2  501    0 -0.16601699200E+02  0.56297595637E+02 -0.29900559535E+02  0.18370465729E+03  0.17148854761E+03 0.  0.
         24    2    3    3    0    0  0.27875218242E+01  0.60519589216E+02 -0.81296696545E+02  0.12841071530E+03  0.78802081052E+02 0.  0.
         -6    2    1    2    0  502  0.16601699200E+02 -0.56297595637E+02 -0.11062450253E+03  0.21268159662E+03  0.17190301129E+03 0.  0.
        -24    2    5    5    0    0  0.54892321584E+02 -0.60685627463E+02 -0.12595983106E+03  0.17093607127E+03  0.81592579755E+02 0.  0.
          5    1    3    3  501    0 -0.19389221024E+02 -0.42219935793E+01  0.51396137010E+02  0.55293941994E+02  0.47000000000E+01 0. -1.
        -11    1    4    4    0    0  0.24381792633E+02 -0.22719093748E+01 -0.48545899830E+02  0.54372215097E+02  0.00000000000E+00 0.  1.
         12    1    4    4    0    0 -0.21594270809E+02  0.62791498591E+02 -0.32750796714E+02  0.74038500204E+02  0.00000000000E+00 0. -1.
         -5    1    5    5    0  502 -0.38290622385E+02  0.43880318263E+01  0.15335328531E+02  0.41745525354E+02  0.47000000000E+01 0.  1.
         11    1    6    6    0    0  0.63669535675E+02 -0.53733034419E+02 -0.56699357499E+02  0.10077631617E+03  0.00000000000E+00 0. -1.
        -12    1    6    6    0    0 -0.87772140901E+01 -0.69525930439E+01 -0.69260473560E+02  0.70159755094E+02  0.00000000000E+00 0.  1.
</event>
<event>
12    1  0.1040325E-001  0.1816096E+03  0.7818608E-02  0.1166886E+00
         21   -1    0    0  503  502  0.00000000000E+00  0.00000000000E+00  0.75129540075E+02  0.75129540075E+02  0.00000000000E+00 0.  1.
         21   -1    0    0  501  503 -0.00000000000E+00 -0.00000000000E+00 -0.55264593769E+03  0.55264593769E+03  0.00000000000E+00 0.  1.
          6    2    1    2  501    0 -0.58739036055E+02 -0.10565419272E+02 -0.91161610330E+02  0.20086555455E+03  0.16874427210E+03 0.  0.
         24    2    3    3    0    0 -0.53060905507E+02  0.53058049821E+02 -0.25460583696E+02  0.10911098035E+03  0.75008988570E+02 0.  0.
         -6    2    1    2    0  502  0.58739036055E+02  0.10565419272E+02 -0.38635478728E+03  0.42690992321E+03  0.17152305513E+03 0.  0.
        -24    2    5    5    0    0  0.93987735176E+01 -0.50263375263E+02 -0.26934286572E+03  0.28602527700E+03  0.81548365591E+02 0.  0.
          5    1    3    3  501    0 -0.56781305476E+01 -0.63623469093E+02 -0.65701026634E+02  0.91754574201E+02  0.47000000000E+01 0. -1.
        -13    1    4    4    0    0 -0.32951586211E+01  0.28807280925E+02  0.21836366782E+02  0.36297994695E+02  0.00000000000E+00 0.  1.
         14    1    4    4    0    0 -0.49765746886E+02  0.24250768896E+02 -0.47296950478E+02  0.72812985653E+02  0.00000000000E+00 0. -1.
         -5    1    5    5    0  502  0.49340262537E+02  0.60828794535E+02 -0.11701192156E+03  0.14088464621E+03  0.47000000000E+01 0.  1.
         13    1    6    6    0    0  0.40726972980E+02 -0.45214781206E+02 -0.13658496266E+03  0.14952763889E+03  0.00000000000E+00 0. -1.
        -14    1    6    6    0    0 -0.31328199463E+02 -0.50485940563E+01 -0.13275790306E+03  0.13649763810E+03  0.00000000000E+00 0.  1.
</event>
<event>
12    1  0.1040325E-001  0.2065893E+03  0.7818608E-02  0.1144711E+00
         21   -1    0    0  503  502  0.00000000000E+00  0.00000000000E+00  0.18875132727E+03  0.18875132727E+03  0.00000000000E+00 0.  1.
         21   -1    0    0  501  503 -0.00000000000E+00 -0.00000000000E+00 -0.23019992019E+03  0.23019992019E+03  0.00000000000E+00 0.  1.
          6    2    1    2  501    0 -0.10090263423E+03 -0.48389806795E+02  0.13875815112E+02  0.20705479630E+03  0.17365550791E+03 0.  0.
         24    2    3    3    0    0 -0.57943599663E+02  0.25640229532E+02 -0.34328627524E+02  0.10871008002E+03  0.81391306158E+02 0.  0.
         -6    2    1    2    0  502  0.10090263423E+03  0.48389806795E+02 -0.55324408024E+02  0.21189645116E+03  0.17122032851E+03 0.  0.
        -24    2    5    5    0    0  0.58128048292E+02 -0.38881758145E+02 -0.17499030355E+02  0.10749893948E+03  0.79744246264E+02 0.  0.
          5    1    3    3  501    0 -0.42959034567E+02 -0.74030036327E+02  0.48204442636E+02  0.98344716276E+02  0.47000000000E+01 0. -1.
        -11    1    4    4    0    0 -0.66037185853E+02 -0.53177185272E+01 -0.69816054792E+01  0.66617796878E+02  0.00000000000E+00 0.  1.
         12    1    4    4    0    0  0.80935861903E+01  0.30957948059E+02 -0.27347022045E+02  0.42092283143E+02  0.00000000000E+00 0. -1.
         -5    1    5    5    0  502  0.42774585938E+02  0.87271564940E+02 -0.37825377669E+02  0.10439751168E+03  0.47000000000E+01 0.  1.
         11    1    6    6    0    0  0.48140584746E+02 -0.51537702216E+01  0.23215350733E+02  0.53693852133E+02  0.00000000000E+00 0. -1.
        -12    1    6    6    0    0  0.99874635452E+01 -0.33727987923E+02 -0.40714381088E+02  0.53805087351E+02  0.00000000000E+00 0.  1.
</event>
<event>
12    1  0.1040325E-001  0.1766758E+03  0.7818608E-02  0.1171632E+00
         21   -1    0    0  503  502  0.00000000000E+00  0.00000000000E+00  0.42311850603E+02  0.42311850603E+02  0.00000000000E+00 0. -1.
         21   -1    0    0  501  503 -0.00000000000E+00 -0.00000000000E+00 -0.11679605934E+04  0.11679605934E+04  0.00000000000E+00 0. -1.
          6    2    1    2  501    0 -0.27897145151E+02 -0.39893401986E+02 -0.93185493977E+03  0.94803138769E+03  0.16745193051E+03 0.  0.
         24    2    3    3    0    0 -0.42476630372E+02 -0.84691900462E+02 -0.74141570371E+03  0.75179515380E+03  0.80757200596E+02 0.  0.
         -6    2    1    2    0  502  0.27897145151E+02  0.39893401986E+02 -0.19379380298E+03  0.26224105627E+03  0.16983697858E+03 0.  0.
        -24    2    5    5    0    0  0.61271231858E+02  0.44284468186E+02 -0.52018349900E+02  0.11644846311E+03  0.71687222416E+02 0.  0.
          5    1    3    3  501    0  0.14579485221E+02  0.44798498476E+02 -0.19043923607E+03  0.19623623388E+03  0.47000000000E+01 0. -1.
        -11    1    4    4    0    0  0.17655169611E+02 -0.94898879014E+01 -0.52733072529E+02  0.56414004686E+02  0.00000000000E+00 0.  1.
         12    1    4    4    0    0 -0.60131799983E+02 -0.75202012561E+02 -0.68868263118E+03  0.69538114912E+03  0.00000000000E+00 0. -1.
         -5    1    5    5    0  502 -0.33374086707E+02 -0.43910662005E+01 -0.14177545308E+03  0.14579259316E+03  0.47000000000E+01 0.  1.
         11    1    6    6    0    0 -0.87213159299E+01  0.28838402506E+02 -0.27219317587E+02  0.40603030190E+02  0.00000000000E+00 0. -1.
        -12    1    6    6    0    0  0.69992547788E+02  0.15446065680E+02 -0.24799032313E+02  0.75845432917E+02  0.00000000000E+00 0.  1.
</event>
<event>
12    1  0.1040325E-001  0.2212206E+03  0.7818608E-02  0.1133662E+00
         21   -1    0    0  501  502  0.00000000000E+00  0.00000000000E+00  0.12932110172E+03  0.12932110172E+03  0.00000000000E+00 0. -1.
         21   -1    0    0  502  503 -0.00000000000E+00 -0.00000000000E+00 -0.46232821122E+03  0.46232821122E+03  0.00000000000E+00 0.  1.
         -6    2    1    2    0  503  0.12901677418E+03 -0.51012678075E+02 -0.29825700806E+03  0.37134322591E+03  0.17231055460E+03 0.  0.
        -24    2    3    3    0    0  0.19211696115E+02  0.16472010432E+02 -0.11798838316E+03  0.14968988062E+03  0.88574180244E+02 0.  0.
          6    2    1    2  501    0 -0.12901677418E+03  0.51012678075E+02 -0.34750101432E+02  0.22030608703E+03  0.16756963057E+03 0.  0.
         24    2    5    5    0    0 -0.86480044131E+02 -0.18451644535E+02  0.24407089114E+02  0.11952747465E+03  0.76627997359E+02 0.  0.
          5    1    5    5  501    0 -0.42536730051E+02  0.69464322610E+02 -0.59157190545E+02  0.10077861238E+03  0.47000000000E+01 0. -1.
        -11    1    6    6    0    0 -0.37824693752E+02  0.25441607263E+02 -0.82291251492E+01  0.46321715623E+02  0.00000000000E+00 0.  1.
         12    1    6    6    0    0 -0.48655350379E+02 -0.43893251798E+02  0.32636214263E+02  0.73205759031E+02  0.00000000000E+00 0. -1.
         -5    1    3    3    0  503  0.10980507807E+03 -0.67484688506E+02 -0.18026862490E+03  0.22165334529E+03  0.47000000000E+01 0.  1.
         11    1    4    4    0    0  0.16915447876E+02  0.18637854309E+01  0.10734409115E+02  0.20120477430E+02  0.00000000000E+00 0. -1.
        -12    1    4    4    0    0  0.22962482397E+01  0.14608225001E+02 -0.12872279227E+03  0.12956940319E+03  0.00000000000E+00 0.  1.
</event>
<event>
12    1  0.1040325E-001  0.2103910E+03  0.7818608E-02  0.1141567E+00
         21   -1    0    0  501  502  0.00000000000E+00  0.00000000000E+00  0.31308969030E+04  0.31308969030E+04  0.00000000000E+00 0. -1.
         21   -1    0    0  502  503 -0.00000000000E+00 -0.00000000000E+00 -0.15736879719E+02  0.15736879719E+02  0.00000000000E+00 0. -1.
         -6    2    1    2    0  503 -0.56797253464E+02 -0.10715853028E+03  0.10347103831E+04  0.10555730322E+04  0.16999991401E+03 0.  0.
        -24    2    3    3    0    0 -0.43697823958E+02 -0.92544469159E+02  0.40893042159E+03  0.42946775664E+03  0.82124817815E+02 0.  0.
          6    2    1    2  501    0  0.56797253464E+02  0.10715853028E+03  0.20804496402E+04  0.20910607505E+04  0.17191706863E+03 0.  0.
         24    2    5    5    0    0  0.81379241936E+02  0.32726501688E+02  0.86234890368E+03  0.87043144755E+03  0.79446008568E+02 0.  0.
          5    1    5    5  501    0 -0.24581988472E+02  0.74432028596E+02  0.12181007365E+04  0.12206293030E+04  0.47000000000E+01 0. -1.
        -13    1    6    6    0    0 -0.18489864930E+01 -0.19279643399E+02  0.18471882843E+03  0.18573144315E+03  0.00000000000E+00 0.  1.
         14    1    6    6    0    0  0.83228228429E+02  0.52006145087E+02  0.67763007526E+03  0.68470000440E+03  0.00000000000E+00 0. -1.
         -5    1    3    3    0  503 -0.13099429505E+02 -0.14614061125E+02  0.62577996151E+03  0.62610527555E+03  0.47000000000E+01 0.  1.
         13    1    4    4    0    0 -0.35014836874E+02 -0.64110252395E+02  0.38334783822E+03  0.39024572814E+03  0.00000000000E+00 0. -1.
        -14    1    4    4    0    0 -0.86829870847E+01 -0.28434216763E+02  0.25582583365E+02  0.39222028495E+02  0.00000000000E+00 0.  1.
</event>
<event>
12    1  0.1040325E-001  0.1781659E+03  0.7818608E-02  0.1169958E+00
         21   -1    0    0  503  502  0.00000000000E+00  0.00000000000E+00  0.15063455486E+03  0.15063455486E+03  0.00000000000E+00 0.  1.
         21   -1    0    0  501  503 -0.00000000000E+00 -0.00000000000E+00 -0.22137980707E+03  0.22137980707E+03  0.00000000000E+00 0.  1.
          6    2    1    2  501    0  0.34361524262E+02 -0.24343152417E+02 -0.79557477432E+02  0.19512169419E+03  0.17311782089E+03 0.  0.
         24    2    3    3    0    0  0.70572482319E+02  0.21689854893E+02 -0.81234244985E+02  0.13634097630E+03  0.80863676614E+02 0.  0.
         -6    2    1    2    0  502 -0.34361524262E+02  0.24343152417E+02  0.88122252180E+01  0.17689266775E+03  0.17158105131E+03 0.  0.
        -24    2    5    5    0    0  0.32464543678E+02  0.42638552770E+02  0.35522230462E+02  0.10248863956E+03  0.79812903737E+02 0.  0.
          5    1    3    3  501    0 -0.36210958057E+02 -0.46033007310E+02  0.16767675528E+01  0.58780717883E+02  0.47000000000E+01 0. -1.
        -11    1    4    4    0    0  0.53155820298E+02  0.13493008693E+02 -0.97019741336E+02  0.11144699513E+03  0.00000000000E+00 0.  1.
         12    1    4    4    0    0  0.17416662021E+02  0.81968462005E+01  0.15785496351E+02  0.24893981173E+02  0.00000000000E+00 0. -1.
         -5    1    5    5    0  502 -0.66826067941E+02 -0.18295400353E+02 -0.26710005244E+02  0.74404028188E+02  0.47000000000E+01 0.  1.
         11    1    6    6    0    0  0.20347301546E+02  0.27147320987E+02  0.61301751096E+02  0.70063502656E+02  0.00000000000E+00 0. -1.
        -12    1    6    6    0    0  0.12117242133E+02  0.15491231783E+02 -0.25779520634E+02  0.32425136903E+02  0.00000000000E+00 0.  1.
</event>
<event>
12    1  0.1040325E-001  0.2273702E+03  0.7818608E-02  0.1128595E+00
         21   -1    0    0  501  502  0.00000000000E+00  0.00000000000E+00  0.10151854631E+04  0.10151854631E+04  0.00000000000E+00 0.  1.
         21   -1    0    0  502  503 -0.00000000000E+00 -0.00000000000E+00 -0.74577967923E+02  0.74577967923E+02  0.00000000000E+00 0. -1.
         -6    2    1    2    0  503  0.70008387495E+02  0.13053866550E+03  0.77754860930E+03  0.80996816403E+03  0.17182860475E+03 0.  0.
        -24    2    3    3    0    0  0.74987971326E+02  0.14258538479E+02  0.36814073077E+03  0.38431247548E+03  0.79636545584E+02 0.  0.
          6    2    1    2  501    0 -0.70008387495E+02 -0.13053866550E+03  0.16305888583E+03  0.27979526695E+03  0.17249832940E+03 0.  0.
         24    2    5    5    0    0 -0.54723713007E+02 -0.14303352771E+03  0.18282317182E+03  0.25146754455E+03  0.79739193557E+02 0.  0.
          5    1    5    5  501    0 -0.15284674487E+02  0.12494862212E+02 -0.19764285989E+02  0.28327722403E+02  0.47000000000E+01 0. -1.
        -11    1    6    6    0    0 -0.63627793290E+01 -0.27710457126E+02  0.93666789294E+02  0.97886780576E+02  0.00000000000E+00 0.  1.
         12    1    6    6    0    0 -0.48360933678E+02 -0.11532307059E+03  0.89156382529E+02  0.15358076397E+03  0.00000000000E+00 0. -1.
         -5    1    3    3    0  503 -0.49795838317E+01  0.11628012702E+03  0.40940787853E+03  0.42565568855E+03  0.47000000000E+01 0.  1.
         11    1    4    4    0    0  0.17905702029E+02  0.90566660691E+01  0.11566706986E+02  0.23160873817E+02  0.00000000000E+00 0. -1.
        -12    1    4    4    0    0  0.57082269297E+02  0.52018724102E+01  0.35657402379E+03  0.36115160167E+03  0.00000000000E+00 0.  1.
</event>
<event>
12    1  0.1040325E-001  0.2378689E+03  0.7818608E-02  0.1121309E+00
         21   -1    0    0  501  502  0.00000000000E+00  0.00000000000E+00  0.42022258824E+03  0.42022258824E+03  0.00000000000E+00 0. -1.
         21   -1    0    0  502  503 -0.00000000000E+00 -0.00000000000E+00 -0.16275348095E+03  0.16275348095E+03  0.00000000000E+00 0.  1.
         -6    2    1    2    0  503  0.86886541749E+02  0.13909947293E+03  0.68447846377E+01  0.23744144575E+03  0.17156239266E+03 0.  0.
        -24    2    3    3    0    0  0.11097071118E+03  0.14664441285E+03  0.29845727558E+02  0.20297252191E+03  0.80548088974E+02 0.  0.
          6    2    1    2  501    0 -0.86886541749E+02 -0.13909947293E+03  0.25062432265E+03  0.34553462345E+03  0.17228955392E+03 0.  0.
         24    2    5    5    0    0 -0.54558551951E+01 -0.12457090260E+03  0.12387692925E+03  0.19411128376E+03  0.82377307256E+02 0.  0.
          5    1    5    5  501    0 -0.81430686554E+02 -0.14528570321E+02  0.12674739340E+03  0.15142333969E+03  0.47000000000E+01 0. -1.
        -13    1    6    6    0    0 -0.38542160349E+02 -0.34815474702E+02  0.29497302432E+02  0.59730279205E+02  0.00000000000E+00 0.  1.
         14    1    6    6    0    0  0.33086305154E+02 -0.89755427903E+02  0.94379626822E+02  0.13438100456E+03  0.00000000000E+00 0. -1.
         -5    1    3    3    0  503 -0.24084169429E+02 -0.75449399209E+01 -0.23000942920E+02  0.34468923841E+02  0.47000000000E+01 0.  1.
         11    1    4    4    0    0  0.33788829937E+02  0.10030762658E+03  0.38280285339E+02  0.11255525410E+03  0.00000000000E+00 0. -1.
        -12    1    4    4    0    0  0.77181881241E+02  0.46336786262E+02 -0.84345577810E+01  0.90417267808E+02  0.00000000000E+00 0.  1.
</event>
<event>
12    1  0.1040325E-001  0.3170437E+03  0.7818608E-02  0.1077156E+00
         21   -1    0    0  501  502  0.00000000000E+00  0.00000000000E+00  0.62286477448E+02  0.62286477448E+02  0.00000000000E+00 0.  1.
         21   -1    0    0  502  503 -0.00000000000E+00 -0.00000000000E+00 -0.18350921933E+04  0.18350921933E+04  0.00000000000E+00 0.  1.
         -6    2    1    2    0  503  0.24970720357E+03 -0.92336263566E+02 -0.55102641386E+03  0.63513408390E+03  0.16995741431E+03 0.  0.
        -24    2    3    3    0    0  0.45885016631E+02 -0.52967676162E+00 -0.20136279160E+03  0.22009351721E+03  0.76081976632E+02 0.  0.
          6    2    1    2  501    0 -0.24970720357E+03  0.92336263566E+02 -0.12217793020E+04  0.12622445869E+04  0.17215417846E+03 0.  0.
         24    2    5    5    0    0 -0.12204878938E+03  0.97210088403E+02 -0.51807743758E+03  0.54702515977E+03  0.80539343309E+02 0.  0.
          5    1    5    5  501    0 -0.12765841418E+03 -0.48738248366E+01 -0.70370186444E+03  0.71521942710E+03  0.47000000000E+01 0. -1.
        -13    1    6    6    0    0 -0.77872234063E+02  0.11276820851E+02 -0.21716794481E+03  0.23098304652E+03  0.00000000000E+00 0.  1.
         14    1    6    6    0    0 -0.44176555321E+02  0.85933267552E+02 -0.30090949277E+03  0.31604211325E+03  0.00000000000E+00 0. -1.
         -5    1    3    3    0  503  0.20382218694E+03 -0.91806586805E+02 -0.34966362226E+03  0.41504056669E+03  0.47000000000E+01 0.  1.
         13    1    4    4    0    0  0.20964830355E+02  0.86511961828E+01 -0.67299165422E+01  0.23657114868E+02  0.00000000000E+00 0. -1.
        -14    1    4    4    0    0  0.24920186276E+02 -0.91808729444E+01 -0.19463287506E+03  0.19643640234E+03  0.00000000000E+00 0.  1.
</event>
<event>
12    1  0.1040325E-001  0.3024009E+03  0.7818608E-02  0.1084095E+00
         21   -1    0    0  501  502  0.00000000000E+00  0.00000000000E+00  0.92961021093E+03  0.92961021093E+03  0.00000000000E+00 0. -1.
         21   -1    0    0  502  503 -0.00000000000E+00 -0.00000000000E+00 -0.61164575511E+03  0.61164575511E+03  0.00000000000E+00 0.  1.
         -6    2    1    2    0  503  0.24080250809E+03  0.62402464147E+02 -0.54706479752E+03  0.62489253976E+03  0.17126259993E+03 0.  0.
        -24    2    3    3    0    0  0.21226812595E+03  0.39766070415E+02 -0.31702631957E+03  0.39194102416E+03  0.80454841172E+02 0.  0.
          6    2    1    2  501    0 -0.24080250809E+03 -0.62402464147E+02  0.86502925333E+03  0.91636342628E+03  0.17194884260E+03 0.  0.
         24    2    5    5    0    0 -0.67052104622E+02  0.69977503819E+00  0.24268043296E+03  0.26712445678E+03  0.89248016510E+02 0.  0.
          5    1    5    5  501    0 -0.17375040346E+03 -0.63102239185E+02  0.62234882038E+03  0.64923896950E+03  0.47000000000E+01 0. -1.
        -11    1    6    6    0    0 -0.47052350352E+02  0.40770271992E+02  0.17698726288E+03  0.18761830927E+03  0.00000000000E+00 0.  1.
         12    1    6    6    0    0 -0.19999754269E+02 -0.40070496954E+02  0.65693170072E+02  0.79506147505E+02  0.00000000000E+00 0. -1.
         -5    1    3    3    0  503  0.28534382134E+02  0.22636393733E+02 -0.23003847795E+03  0.23295151560E+03  0.47000000000E+01 0.  1.
         11    1    4    4    0    0  0.15221963569E+03  0.54591269751E+02 -0.18226050832E+03  0.24365942854E+03  0.00000000000E+00 0. -1.
        -12    1    4    4    0    0  0.60048490262E+02 -0.14825199336E+02 -0.13476581125E+03  0.14828159562E+03  0.00000000000E+00 0.  1.
</event>
<event>
12    1  0.1040325E-001  0.1836099E+03  0.7818608E-02  0.1164605E+00
         21   -1    0    0  501  502  0.00000000000E+00  0.00000000000E+00  0.79236674986E+03  0.79236674986E+03  0.00000000000E+00 0.  1.
         21   -1    0    0  502  503 -0.00000000000E+00 -0.00000000000E+00 -0.49794829471E+02  0.49794829471E+02  0.00000000000E+00 0. -1.
         -6    2    1    2    0  503 -0.13601565075E+02 -0.66293928139E+02  0.20885313511E+03  0.27808672752E+03  0.17068306447E+03 0.  0.
        -24    2    3    3    0    0  0.20514048209E+02  0.23344645562E+02  0.11034887818E+03  0.14052173343E+03  0.81263054341E+02 0.  0.
          6    2    1    2  501    0  0.13601565075E+02  0.66293928139E+02  0.53371878528E+03  0.56407485181E+03  0.16954294207E+03 0.  0.
         24    2    5    5    0    0 -0.31451346208E+02  0.87540666977E+02  0.45431209623E+03  0.47022017163E+03  0.77813710065E+02 0.  0.
          5    1    5    5  501    0  0.45052911283E+02 -0.21246738837E+02  0.79406689051E+02  0.93854680183E+02  0.47000000000E+01 0. -1.
        -13    1    6    6    0    0 -0.27206507476E+02 -0.25801565016E+01  0.16241521900E+03  0.16469837467E+03  0.00000000000E+00 0.  1.
         14    1    6    6    0    0 -0.42448387316E+01  0.90120823478E+02  0.29189687723E+03  0.30552179696E+03  0.00000000000E+00 0. -1.
         -5    1    3    3    0  503 -0.34115613284E+02 -0.89638573702E+02  0.98504256931E+02  0.13756499409E+03  0.47000000000E+01 0.  1.
         13    1    4    4    0    0 -0.29913375627E+02  0.20774675710E+02  0.43103074114E+02  0.56429355749E+02  0.00000000000E+00 0. -1.
        -14    1    4    4    0    0  0.50427423836E+02  0.25699698526E+01  0.67245804062E+02  0.84092377680E+02  0.00000000000E+00 0.  1.
</event>
<event>
12    1  0.1040325E-001  0.2449105E+03  0.7818608E-02  0.1116684E+00
         21   -1    0    0  503  502  0.00000000000E+00  0.00000000000E+00  0.19447324738E+04  0.19447324738E+04  0.00000000000E+00 0. -1.
         21   -1    0    0  501  503 -0.00000000000E+00 -0.00000000000E+00 -0.31052119242E+02  0.31052119242E+02  0.00000000000E+00 0.  1.
          6    2    1    2  501    0 -0.16589254359E+03  0.50585151627E+02  0.85795360820E+03  0.89202257792E+03  0.17187405889E+03 0.  0.
         24    2    3    3    0    0 -0.11351517030E+03  0.85348462041E+02  0.43725100611E+03  0.46662318160E+03  0.79866747804E+02 0.  0.
         -6    2    1    2    0  502  0.16589254359E+03 -0.50585151627E+02  0.10557267463E+04  0.10837620151E+04  0.17292179982E+03 0.  0.
        -24    2    5    5    0    0  0.20526521604E+02 -0.35232454293E+02  0.27671302849E+03  0.29113887119E+03  0.80802711943E+02 0.  0.
          5    1    3    3  501    0 -0.52377373290E+02 -0.34763310415E+02  0.42070260209E+03  0.42539939632E+03  0.47000000000E+01 0. -1.
        -13    1    4    4    0    0 -0.34037011436E+02  0.35102621621E+01  0.36846089498E+02  0.50283937786E+02  0.00000000000E+00 0.  1.
         14    1    4    4    0    0 -0.79478158862E+02  0.81838199879E+02  0.40040491661E+03  0.41633924381E+03  0.00000000000E+00 0. -1.
         -5    1    5    5    0  502  0.14536602198E+03 -0.15352697334E+02  0.77901371784E+03  0.79262314390E+03  0.47000000000E+01 0.  1.
         11    1    6    6    0    0 -0.11637473910E+02 -0.30367306807E+02  0.23955994194E+03  0.24175725409E+03  0.00000000000E+00 0. -1.
        -12    1    6    6    0    0  0.32163995514E+02 -0.48651474853E+01  0.37153086548E+02  0.49381617101E+02  0.00000000000E+00 0.  1.
</event>
<event>
12    1  0.1040325E-001  0.1999984E+03  0.7818608E-02  0.1150580E+00
         21   -1    0    0  503  502  0.00000000000E+00  0.00000000000E+00  0.33262558965E+03  0.33262558965E+03  0.00000000000E+00 0.  1.
         21   -1    0    0  501  503 -0.00000000000E+00 -0.00000000000E+00 -0.12152827840E+03  0.12152827840E+03  0.00000000000E+00 0.  1.
          6    2    1    2  501    0 -0.46886427833E+02 -0.84466050988E+02  0.67316744755E+02  0.21102351287E+03  0.17511861116E+03 0.  0.
         24    2    3    3    0    0 -0.65614555020E+02 -0.11830301497E+03  0.33817908739E+02  0.15964311881E+03  0.77726451430E+02 0.  0.
         -6    2    1    2    0  502  0.46886427833E+02  0.84466050988E+02  0.14378056649E+03  0.24313035518E+03  0.17060676255E+03 0.  0.
        -24    2    5    5    0    0  0.46014991189E+02  0.46645578197E+02  0.16861029937E+03  0.19763581486E+03  0.79607115763E+02 0.  0.
          5    1    3    3  501    0  0.18728127187E+02  0.33836963978E+02  0.33498836016E+02  0.51380394058E+02  0.47000000000E+01 0. -1.
        -13    1    4    4    0    0 -0.20985511686E+02 -0.10813887313E+03  0.21386325852E+02  0.11221311205E+03  0.00000000000E+00 0.  1.
         14    1    4    4    0    0 -0.44629043334E+02 -0.10164141834E+02  0.12431582887E+02  0.47430006759E+02  0.00000000000E+00 0. -1.
         -5    1    5    5    0  502  0.87143664475E+00  0.37820472791E+02 -0.24829732887E+02  0.45494540323E+02  0.47000000000E+01 0.  1.
         13    1    6    6    0    0  0.37351281716E+02 -0.14577327470E+02  0.52184091829E+02  0.65808784839E+02  0.00000000000E+00 0. -1.
        -14    1    6    6    0    0  0.86637094723E+01  0.61222905667E+02  0.11642620755E+03  0.13182703002E+03  0.00000000000E+00 0.  1.
</event>
<event>
12    1  0.1040325E-001  0.1893722E+03  0.7818608E-02  0.1159336E+00
         21   -1    0    0  503  502  0.00000000000E+00  0.00000000000E+00  0.10541615160E+03  0.10541615160E+03  0.00000000000E+00 0. -1.
         21   -1    0    0  501  503 -0.00000000000E+00 -0.00000000000E+00 -0.35534464692E+03  0.35534464692E+03  0.00000000000E+00 0.  1.
          6    2    1    2  501    0  0.32821608309E+02 -0.69911355938E+02 -0.17661983970E+03  0.25895252123E+03  0.17290744580E+03 0.  0.
         24    2    3    3    0    0  0.75006057979E+02 -0.87963109821E+01 -0.75646019687E+02  0.13352374127E+03  0.80018656375E+02 0.  0.
         -6    2    1    2    0  502 -0.32821608309E+02  0.69911355938E+02 -0.73308655625E+02  0.20180827729E+03  0.17142802026E+03 0.  0.
        -24    2    5    5    0    0 -0.49298756852E+02  0.11118906578E+03 -0.41065347901E+02  0.14669868968E+03  0.70998358982E+02 0.  0.
          5    1    3    3  501    0 -0.42184449670E+02 -0.61115044956E+02 -0.10097382001E+03  0.12542877996E+03  0.47000000000E+01 0. -1.
        -13    1    4    4    0    0  0.20885210878E+02 -0.82146908837E+01 -0.76159460490E+02  0.79397333720E+02  0.00000000000E+00 0.  1.
         14    1    4    4    0    0  0.54120847101E+02 -0.58162009835E+00  0.51344080294E+00  0.54126407551E+02  0.00000000000E+00 0. -1.
         -5    1    5    5    0  502  0.16477148542E+02 -0.41277709842E+02 -0.32243307724E+02  0.55109587613E+02  0.47000000000E+01 0.  1.
         13    1    6    6    0    0 -0.17100253331E+02  0.10696126155E+03 -0.33046972639E+02  0.11324854320E+03  0.00000000000E+00 0. -1.
        -14    1    6    6    0    0 -0.32198503521E+02  0.42278042343E+01 -0.80183752627E+01  0.33450146480E+02  0.00000000000E+00 0.  1.
</event>
<event>
12    1  0.1040325E-001  0.2423094E+03  0.7818608E-02  0.1118765E+00
         21   -1    0    0  501  502  0.00000000000E+00  0.00000000000E+00  0.23300307981E+03  0.23300307981E+03  0.00000000000E+00 0.  1.
         21   -1    0    0  502  503 -0.00000000000E+00 -0.00000000000E+00 -0.28549577419E+03  0.28549577419E+03  0.00000000000E+00 0.  1.
         -6    2    1    2    0  503  0.14228328098E+03  0.92839307280E+02  0.66774559307E+02  0.24842756564E+03  0.16850443489E+03 0.  0.
        -24    2    3    3    0    0  0.11650311720E+03  0.13175079439E+03  0.61620699792E+02  0.20123251355E+03  0.75935273270E+02 0.  0.
          6    2    1    2  501    0 -0.14228328098E+03 -0.92839307280E+02 -0.11926725369E+03  0.27007128836E+03  0.17277197103E+03 0.  0.
         24    2    5    5    0    0 -0.63758963281E+02  0.39920399011E+01 -0.71396280626E+01  0.10233020009E+03  0.79620058908E+02 0.  0.
          5    1    5    5  501    0 -0.78524317698E+02 -0.96831347181E+02 -0.11212762562E+03  0.16774108827E+03  0.47000000000E+01 0. -1.
        -13    1    6    6    0    0 -0.51225236220E+02  0.28978361600E+02 -0.30147177979E+02  0.66125808932E+02  0.00000000000E+00 0.  1.
         14    1    6    6    0    0 -0.12533727061E+02 -0.24986321699E+02  0.23007549916E+02  0.36204391159E+02  0.00000000000E+00 0. -1.
         -5    1    3    3    0  503  0.25780163779E+02 -0.38911487114E+02  0.51538595159E+01  0.47195052091E+02  0.47000000000E+01 0.  1.
         13    1    4    4    0    0  0.84019308386E+02  0.13033579485E+03  0.65795619572E+02  0.16845096365E+03  0.00000000000E+00 0. -1.
        -14    1    4    4    0    0  0.32483808814E+02  0.14149995486E+01 -0.41749197801E+01  0.32781549902E+02  0.00000000000E+00 0.  1.
</event>
<event>
12    1  0.1040325E-001  0.1885718E+03  0.7818608E-02  0.1160158E+00
         21   -1    0    0  503  502  0.00000000000E+00  0.00000000000E+00  0.63156845407E+03  0.63156845407E+03  0.00000000000E+00 0.  1.
         21   -1    0    0  501  503 -0.00000000000E+00 -0.00000000000E+00 -0.12695808362E+03  0.12695808362E+03  0.00000000000E+00 0.  1.
          6    2    1    2  501    0  0.15990443213E+02 -0.75968652789E+02 -0.31153068218E+02  0.19112782508E+03  0.17184993855E+03 0.  0.
         24    2    3    3    0    0 -0.93720359624E+00 -0.10935559710E+03  0.10286134456E+02  0.13508738616E+03  0.78633786436E+02 0.  0.
         -6    2    1    2    0  502 -0.15990443213E+02  0.75968652789E+02  0.53576343867E+03  0.56739871261E+03  0.16991735159E+03 0.  0.
        -24    2    5    5    0    0 -0.73383201548E+02  0.49493556086E+02  0.39684488413E+03  0.41470518212E+03  0.81607718132E+02 0.  0.
          5    1    3    3  501    0  0.16927646809E+02  0.33386944308E+02 -0.41439202674E+02  0.56040438926E+02  0.47000000000E+01 0. -1.
        -11    1    4    4    0    0 -0.19743135666E+02 -0.22478537989E+02 -0.25455308258E+02  0.39281659774E+02  0.00000000000E+00 0.  1.
         12    1    4    4    0    0  0.18805932070E+02 -0.86877059108E+02  0.35741442714E+02  0.95805726382E+02  0.00000000000E+00 0. -1.
         -5    1    5    5    0  502  0.57392758336E+02  0.26475096703E+02  0.13891855455E+03  0.15269353048E+03  0.47000000000E+01 0.  1.
         13    1    6    6    0    0 -0.37765712178E+02 -0.17815770288E+02  0.10274787135E+03  0.11090886238E+03  0.00000000000E+00 0. -1.
        -14    1    6    6    0    0 -0.35617489371E+02  0.67309326374E+02  0.29409701278E+03  0.30379631975E+03  0.00000000000E+00 0.  1.
</event>
<event>
12    1  0.1040325E-001  0.1811681E+03  0.7818608E-02  0.1166680E+00
         21   -1    0    0  501  502  0.00000000000E+00  0.00000000000E+00  0.80732680169E+02  0.80732680169E+02  0.00000000000E+00 0. -1.
         21   -1    0    0  502  503 -0.00000000000E+00 -0.00000000000E+00 -0.70593454851E+03  0.70593454851E+03  0.00000000000E+00 0. -1.
         -6    2    1    2    0  503 -0.48519082658E+02 -0.29704333954E+02 -0.56875578240E+03  0.59690937834E+03  0.17199191000E+03 0.  0.
        -24    2    3    3    0    0  0.63191522616E+01 -0.73044840166E+02 -0.38866198192E+03  0.40366989361E+03  0.80720297700E+02 0.  0.
          6    2    1    2  501    0  0.48519082658E+02  0.29704333954E+02 -0.56446085941E+02  0.18975785033E+03  0.17200416363E+03 0.  0.
         24    2    5    5    0    0  0.88647384239E+02 -0.14735404795E+02 -0.36423816177E+02  0.12644788071E+03  0.81159603642E+02 0.  0.
          5    1    5    5  501    0 -0.40128301581E+02  0.44439738749E+02 -0.20022269764E+02  0.63309969628E+02  0.47000000000E+01 0. -1.
        -11    1    6    6    0    0  0.26855292371E+01 -0.76146907458E+01 -0.39322486169E+02  0.40142913459E+02  0.00000000000E+00 0.  1.
         12    1    6    6    0    0  0.85961855001E+02 -0.71207140490E+01  0.28986699917E+01  0.86304967247E+02  0.00000000000E+00 0. -1.
         -5    1    3    3    0  503 -0.54838234920E+02  0.43340506212E+02 -0.18009380048E+03  0.19323948473E+03  0.47000000000E+01 0.  1.
         11    1    4    4    0    0  0.36055777739E+02 -0.25423228484E+02 -0.95738054640E+02  0.10541411083E+03  0.00000000000E+00 0. -1.
        -12    1    4    4    0    0 -0.29736625477E+02 -0.47621611682E+02 -0.29292392728E+03  0.29825578279E+03  0.00000000000E+00 0.  1.
</event>
<event>
12    1  0.1040325E-001  0.1865640E+03  0.7818608E-02  0.1161672E+00
         21   -1    0    0  503  502  0.00000000000E+00  0.00000000000E+00  0.72373638064E+03  0.72373638064E+03  0.00000000000E+00 0. -1.
         21   -1    0    0  501  503 -0.00000000000E+00 -0.00000000000E+00 -0.17820301734E+03  0.17820301734E+03  0.00000000000E+00 0.  1.
          6    2    1    2  501    0 -0.70631849072E+02 -0.13450615988E+02 -0.11263514060E+03  0.21792841019E+03  0.17215208363E+03 0.  0.
         24    2    3    3    0    0 -0.74043129768E+02 -0.27737788277E+02 -0.53930403287E+01  0.10958304482E+03  0.75680835505E+02 0.  0.
         -6    2    1    2    0  502  0.70631849072E+02  0.13450615988E+02  0.65816850390E+03  0.68401098780E+03  0.17180068316E+03 0.  0.
        -24    2    5    5    0    0  0.66326950964E+02 -0.49034660409E+02  0.31476117040E+03  0.33490695085E+03  0.79274264372E+02 0.  0.
          5    1    3    3  501    0  0.34112806968E+01  0.14287172288E+02 -0.10724210027E+03  0.10834536537E+03  0.47000000000E+01 0. -1.
        -11    1    4    4    0    0 -0.28348495283E+02  0.42771935628E+01 -0.35940163005E+02  0.45974198051E+02  0.00000000000E+00 0.  1.
         12    1    4    4    0    0 -0.45694634486E+02 -0.32014981839E+02  0.30547122677E+02  0.63608846765E+02  0.00000000000E+00 0. -1.
         -5    1    5    5    0  502  0.43048981076E+01  0.62485276397E+02  0.34340733350E+03  0.34910403695E+03  0.47000000000E+01 0.  1.
         13    1    6    6    0    0  0.50103369350E+02 -0.17946278995E+02  0.28179733183E+03  0.28677892666E+03  0.00000000000E+00 0. -1.
        -14    1    6    6    0    0  0.16223581614E+02 -0.31088381414E+02  0.32963838571E+02  0.48128024192E+02  0.00000000000E+00 0.  1.
</event>
<event>
12    1  0.1040325E-001  0.1963404E+03  0.7818608E-02  0.1153875E+00
         21   -1    0    0  503  502  0.00000000000E+00  0.00000000000E+00  0.70738946469E+03  0.70738946469E+03  0.00000000000E+00 0. -1.
         21   -1    0    0  501  503 -0.00000000000E+00 -0.00000000000E+00 -0.10981007328E+03  0.10981007328E+03  0.00000000000E+00 0.  1.
          6    2    1    2  501    0 -0.11272382069E+02  0.83039274746E+02  0.37554591019E+01  0.19175854876E+03  0.17243737936E+03 0.  0.
         24    2    3    3    0    0 -0.31747903806E+02  0.11899327735E+03 -0.12191077174E+02  0.14716797450E+03  0.79639568713E+02 0.  0.
         -6    2    1    2    0  502  0.11272382069E+02 -0.83039274746E+02  0.59382393232E+03  0.62544098921E+03  0.17755838659E+03 0.  0.
        -24    2    5    5    0    0  0.69723092478E+02 -0.18179220151E+02  0.34292955955E+03  0.35974682572E+03  0.81395958936E+02 0.  0.
          5    1    3    3  501    0  0.20475521737E+02 -0.35954002603E+02  0.15946536276E+02  0.44590574259E+02  0.47000000000E+01 0. -1.
        -11    1    4    4    0    0  0.13276114887E+02  0.94377917380E+02 -0.62533196360E+01  0.95512043858E+02  0.00000000000E+00 0.  1.
         12    1    4    4    0    0 -0.45024018693E+02  0.24615359970E+02 -0.59377575377E+01  0.51655930640E+02  0.00000000000E+00 0. -1.
         -5    1    5    5    0  502 -0.58450710409E+02 -0.64860054595E+02  0.25089437277E+03  0.26569416349E+03  0.47000000000E+01 0.  1.
         11    1    6    6    0    0  0.45591236282E+01 -0.37544209545E+02  0.16485411687E+03  0.16913672909E+03  0.00000000000E+00 0. -1.
        -12    1    6    6    0    0  0.65163968850E+02  0.19364989394E+02  0.17807544268E+03  0.19061009663E+03  0.00000000000E+00 0.  1.
</event>
<event>
12    1  0.1040325E-001  0.1847254E+03  0.7818608E-02  0.1166404E+00
         21   -1    0    0  503  502  0.00000000000E+00  0.00000000000E+00  0.15145016388E+02  0.15145016388E+02  0.00000000000E+00 0. -1.
         21   -1    0    0  501  503 -0.00000000000E+00 -0.00000000000E+00 -0.22005089018E+04  0.22005089018E+04  0.00000000000E+00 0. -1.
          6    2    1    2  501    0  0.29576496040E+01 -0.10445691483E+02 -0.89372801676E+03  0.91261889069E+03  0.18440610496E+03 0.  0.
         24    2    3    3    0    0  0.66600774608E+01 -0.17544972657E+01 -0.14986068438E+03  0.16867672694E+03  0.77111468637E+02 0.  0.
         -6    2    1    2    0  502 -0.29576496040E+01  0.10445691483E+02 -0.12916358686E+04  0.13030350275E+04  0.17163684200E+03 0.  0.
        -24    2    5    5    0    0 -0.21704801386E+02  0.66796426327E+02 -0.65786133928E+03  0.66646680248E+03  0.80396493191E+02 0.  0.
          5    1    3    3  501    0 -0.37024278568E+01 -0.86911942175E+01 -0.74386733237E+03  0.74394216375E+03  0.47000000000E+01 0. -1.
        -11    1    4    4    0    0  0.84914612810E+01 -0.38528839857E+02 -0.62998284164E+02  0.74332766819E+02  0.00000000000E+00 0.  1.
         12    1    4    4    0    0 -0.18313838202E+01  0.36774342591E+02 -0.86862400220E+02  0.94343960123E+02  0.00000000000E+00 0. -1.
         -5    1    5    5    0  502  0.18747151782E+02 -0.56350734844E+02 -0.63377452934E+03  0.63656822498E+03  0.47000000000E+01 0.  1.
         13    1    6    6    0    0 -0.49091395331E+02  0.32933606791E+02 -0.28469360875E+03  0.29076629518E+03  0.00000000000E+00 0. -1.
        -14    1    6    6    0    0  0.27386593945E+02  0.33862819535E+02 -0.37316773053E+03  0.37570050730E+03  0.00000000000E+00 0.  1.
</event>
<event>
12    1  0.1040325E-001  0.2031522E+03  0.7818608E-02  0.1147809E+00
         21   -1    0    0  501  502  0.00000000000E+00  0.00000000000E+00  0.31059314297E+02  0.31059314297E+02  0.00000000000E+00 0.  1.
         21   -1    0    0  502  503 -0.00000000000E+00 -0.00000000000E+00 -0.13484799264E+04  0.13484799264E+04  0.00000000000E+00 0.  1.
         -6    2    1    2    0  503  0.73547131512E+00  0.10372912445E+03 -0.78527926692E+03  0.81113152803E+03  0.17467271260E+03 0.  0.
        -24    2    3    3    0    0  0.13657567921E+02  0.16719315918E+02 -0.60638979770E+03  0.61172937268E+03  0.77705688006E+02 0.  0.
          6    2    1    2  501    0 -0.73547131512E+00 -0.10372912445E+03 -0.53214134516E+03  0.56840771265E+03  0.17074145481E+03 0.  0.
         24    2    5    5    0    0  0.43115124640E+02 -0.52739175094E+02 -0.45112401312E+03  0.46300966811E+03  0.78897040432E+02 0.  0.
          5    1    5    5  501    0 -0.43850595955E+02 -0.50989949361E+02 -0.81017332043E+02  0.10539804454E+03  0.47000000000E+01 0. -1.
        -11    1    6    6    0    0  0.74412789988E+01 -0.36093690778E+02 -0.63711169789E+02  0.73601904207E+02  0.00000000000E+00 0.  1.
         12    1    6    6    0    0  0.35673845641E+02 -0.16645484316E+02 -0.38741284333E+03  0.38940776390E+03  0.00000000000E+00 0. -1.
         -5    1    3    3    0  503 -0.12922096605E+02  0.87009808536E+02 -0.17888946922E+03  0.19940215535E+03  0.47000000000E+01 0.  1.
         11    1    4    4    0    0  0.22774970717E+02  0.42411720508E+02 -0.48139800400E+03  0.48379901983E+03  0.00000000000E+00 0. -1.
        -12    1    4    4    0    0 -0.91174027965E+01 -0.25692404590E+02 -0.12499179370E+03  0.12793035285E+03  0.00000000000E+00 0.  1.
</event>
<event>
12    1  0.1040325E-001  0.2216214E+03  0.7818608E-02  0.1132711E+00
         21   -1    0    0  503  502  0.00000000000E+00  0.00000000000E+00  0.81906689210E+03  0.81906689210E+03  0.00000000000E+00 0. -1.
         21   -1    0    0  501  503 -0.00000000000E+00 -0.00000000000E+00 -0.16720889689E+03  0.16720889689E+03  0.00000000000E+00 0. -1.
          6    2    1    2  501    0  0.65982620054E+01  0.13905510085E+03 -0.69132392914E+02  0.23199255931E+03  0.17222485793E+03 0.  0.
         24    2    3    3    0    0 -0.12003441529E+02  0.12872084317E+03  0.79602040311E+01  0.15187902262E+03  0.79314151256E+02 0.  0.
         -6    2    1    2    0  502 -0.65982620054E+01 -0.13905510085E+03  0.72099038813E+03  0.75428322968E+03  0.17244185303E+03 0.  0.
        -24    2    5    5    0    0 -0.16091435155E+02 -0.15931174649E+03  0.70299388949E+03  0.72519000037E+03  0.77852174704E+02 0.  0.
          5    1    3    3  501    0  0.18601703534E+02  0.10334257681E+02 -0.77092596945E+02  0.80113536684E+02  0.47000000000E+01 0. -1.
        -13    1    4    4    0    0  0.11886998476E+02  0.10286869420E+03 -0.21754101191E+02  0.10581356197E+03  0.00000000000E+00 0.  1.
         14    1    4    4    0    0 -0.23890440005E+02  0.25852148974E+02  0.29714305222E+02  0.46065460651E+02  0.00000000000E+00 0. -1.
         -5    1    5    5    0  502  0.94931731493E+01  0.20256645642E+02  0.17996498632E+02  0.29093229317E+02  0.47000000000E+01 0.  1.
         13    1    6    6    0    0 -0.26072839008E+02 -0.69571075680E+02  0.18458312362E+03  0.19897451352E+03  0.00000000000E+00 0. -1.
        -14    1    6    6    0    0  0.99814038530E+01 -0.89740670815E+02  0.51841076587E+03  0.52621548684E+03  0.00000000000E+00 0.  1.
</event>
<event>
12    1  0.1040325E-001  0.2239457E+03  0.7818608E-02  0.1131368E+00
         21   -1    0    0  503  502  0.00000000000E+00  0.00000000000E+00  0.25686335845E+03  0.25686335845E+03  0.00000000000E+00 0.  1.
         21   -1    0    0  501  503 -0.00000000000E+00 -0.00000000000E+00 -0.61124354341E+03  0.61124354341E+03  0.00000000000E+00 0.  1.
          6    2    1    2  501    0  0.11546178384E+03  0.80609766405E+02 -0.53634161480E+03  0.58121767980E+03  0.17413301117E+03 0.  0.
         24    2    3    3    0    0  0.99235369557E+02  0.10667908818E+03 -0.30115695890E+03  0.34399032381E+03  0.80035882920E+02 0.  0.
         -6    2    1    2    0  502 -0.11546178384E+03 -0.80609766405E+02  0.18196142984E+03  0.28688922205E+03  0.17136541603E+03 0.  0.
        -24    2    5    5    0    0 -0.12509600625E+03 -0.19998830084E+02  0.86231467199E+02  0.17307876739E+03  0.80445197494E+02 0.  0.
          5    1    3    3  501    0  0.16226414286E+02 -0.26069321779E+02 -0.23518465590E+03  0.23722735599E+03  0.47000000000E+01 0. -1.
        -13    1    4    4    0    0  0.10515283466E+03  0.63926831088E+02 -0.22095951083E+03  0.25291671316E+03  0.00000000000E+00 0.  1.
         14    1    4    4    0    0 -0.59174651004E+01  0.42752257097E+02 -0.80197448069E+02  0.91073610651E+02  0.00000000000E+00 0. -1.
         -5    1    5    5    0  502  0.96342224114E+01 -0.60610936321E+02  0.95729962641E+02  0.11381045466E+03  0.47000000000E+01 0.  1.
         13    1    6    6    0    0 -0.89627117731E+02  0.36119807891E+01  0.16270040980E+02  0.91163484310E+02  0.00000000000E+00 0. -1.
        -14    1    6    6    0    0 -0.35468888523E+02 -0.23610810873E+02  0.69961426219E+02  0.81915283078E+02  0.00000000000E+00 0.  1.
</event>
<event>
12    1  0.1040325E-001  0.1833519E+03  0.7818608E-02  0.1164731E+00
         21   -1    0    0  501  502  0.00000000000E+00  0.00000000000E+00  0.13968899267E+04  0.13968899267E+04  0.00000000000E+00 0.  1.
         21   -1    0    0  502  503 -0.00000000000E+00 -0.00000000000E+00 -0.26846070668E+02  0.26846070668E+02  0.00000000000E+00 0.  1.
         -6    2    1    2    0  503 -0.53544226630E+02 -0.31706592344E+02  0.45199048872E+03  0.48755231149E+03  0.17187077221E+03 0.  0.
        -24    2    3    3    0    0 -0.77540770319E+00 -0.74356973251E+02  0.22125967142E+03  0.24700625915E+03  0.80787926912E+02 0.  0.
          6    2    1    2  501    0  0.53544226630E+02  0.31706592344E+02  0.91805336731E+03  0.93618368588E+03  0.17246917484E+03 0.  0.
         24    2    5    5    0    0 -0.10192825044E+02  0.31133431789E+02  0.76994697721E+03  0.77487549310E+03  0.80873344389E+02 0.  0.
          5    1    5    5  501    0  0.63737051675E+02  0.57316055497E+00  0.14810639009E+03  0.16130819277E+03  0.47000000000E+01 0. -1.
        -11    1    6    6    0    0  0.74691289406E+00  0.55803966849E+02  0.39021311232E+03  0.39418385763E+03  0.00000000000E+00 0.  1.
         12    1    6    6    0    0 -0.10939737938E+02 -0.24670535060E+02  0.37973386490E+03  0.38069163547E+03  0.00000000000E+00 0. -1.
         -5    1    3    3    0  503 -0.52768818927E+02  0.42650380908E+02  0.23073081730E+03  0.24054605234E+03  0.47000000000E+01 0.  1.
         11    1    4    4    0    0  0.12699362366E+02  0.10095397800E+02  0.81953328062E+02  0.83543634358E+02  0.00000000000E+00 0. -1.
        -12    1    4    4    0    0 -0.13474770069E+02 -0.84452371051E+02  0.13930634336E+03  0.16346262479E+03  0.00000000000E+00 0.  1.
</event>
<event>
12    1  0.1040325E-001  0.1778520E+03  0.7818608E-02  0.1170673E+00
         21   -1    0    0  501  502  0.00000000000E+00  0.00000000000E+00  0.69735371666E+02  0.69735371666E+02  0.00000000000E+00 0. -1.
         21   -1    0    0  502  503 -0.00000000000E+00 -0.00000000000E+00 -0.11087283201E+04  0.11087283201E+04  0.00000000000E+00 0. -1.
         -6    2    1    2    0  503 -0.33934477737E+01  0.29426506508E+02 -0.97331155697E+03  0.98887106195E+03  0.17220091599E+03 0.  0.
        -24    2    3    3    0    0 -0.60939293806E+02  0.49703926969E+02 -0.69617283180E+03  0.70505657824E+03  0.79145997373E+02 0.  0.
          6    2    1    2  501    0  0.33934477737E+01 -0.29426506508E+02 -0.65681391465E+02  0.18959262981E+03  0.17536785715E+03 0.  0.
         24    2    5    5    0    0 -0.53453807163E+02  0.12420259375E+02 -0.65639756688E+02  0.11884763747E+03  0.82490065645E+02 0.  0.
          5    1    5    5  501    0  0.56847254936E+02 -0.41846765883E+02 -0.41634777112E-01  0.70744992346E+02  0.47000000000E+01 0. -1.
        -11    1    6    6    0    0  0.18749419764E+01  0.17418183025E+02 -0.60581656481E+02  0.63063821715E+02  0.00000000000E+00 0.  1.
         12    1    6    6    0    0 -0.55328749139E+02 -0.49979236506E+01 -0.50581002073E+01  0.55783815752E+02  0.00000000000E+00 0. -1.
         -5    1    3    3    0  503  0.57545846032E+02 -0.20277420461E+02 -0.27713872517E+03  0.28381448371E+03  0.47000000000E+01 0.  1.
         13    1    4    4    0    0 -0.13326254168E+02  0.72551132282E+01 -0.46491878507E+03  0.46516631695E+03  0.00000000000E+00 0. -1.
        -14    1    4    4    0    0 -0.47613039638E+02  0.42448813740E+02 -0.23125404673E+03  0.23989026129E+03  0.00000000000E+00 0.  1.
</event>
<event>
12    1  0.1040325E-001  0.2092759E+03  0.7818608E-02  0.1142257E+00
         21   -1    0    0  503  502  0.00000000000E+00  0.00000000000E+00  0.67224893204E+03  0.67224893204E+03  0.00000000000E+00 0. -1.
         21   -1    0    0  501  503 -0.00000000000E+00 -0.00000000000E+00 -0.13961701197E+03  0.13961701197E+03  0.00000000000E+00 0. -1.
          6    2    1    2  501    0 -0.81968186116E+02 -0.86536570993E+02 -0.30679998026E+02  0.21093607046E+03  0.17130499668E+03 0.  0.
         24    2    3    3    0    0 -0.10161204670E+03 -0.47046896518E+02  0.24513334109E+02  0.14012851746E+03  0.80601981057E+02 0.  0.
         -6    2    1    2    0  502  0.81968186116E+02  0.86536570993E+02  0.56331191810E+03  0.60092987354E+03  0.17201463366E+03 0.  0.
        -24    2    5    5    0    0  0.54178875595E+02  0.94278388644E+01  0.45220118361E+03  0.46277891384E+03  0.81573144644E+02 0.  0.
          5    1    3    3  501    0  0.19643860587E+02 -0.39489674475E+02 -0.55193332134E+02  0.70807552994E+02  0.47000000000E+01 0. -1.
        -13    1    4    4    0    0 -0.41428977245E+02 -0.13782657957E+02 -0.29495073615E+02  0.52690427816E+02  0.00000000000E+00 0.  1.
         14    1    4    4    0    0 -0.60183069457E+02 -0.33264238561E+02  0.54008407723E+02  0.87438089647E+02  0.00000000000E+00 0. -1.
         -5    1    5    5    0  502  0.27789310521E+02  0.77108732129E+02  0.11111073448E+03  0.13815095970E+03  0.47000000000E+01 0.  1.
         11    1    6    6    0    0  0.37885281462E+01  0.17124058671E+02  0.32875217139E+03  0.32921964784E+03  0.00000000000E+00 0. -1.
        -12    1    6    6    0    0  0.50390347449E+02 -0.76962198066E+01  0.12344901223E+03  0.13355926600E+03  0.00000000000E+00 0.  1.
</event>
<event>
12    1  0.1040325E-001  0.1933414E+03  0.7818608E-02  0.1155843E+00
         21   -1    0    0  503  502  0.00000000000E+00  0.00000000000E+00  0.71557511440E+02  0.71557511440E+02  0.00000000000E+00 0.  1.
         21   -1    0    0  501  503 -0.00000000000E+00 -0.00000000000E+00 -0.59555542064E+03  0.59555542064E+03  0.00000000000E+00 0.  1.
          6    2    1    2  501    0  0.77743498403E+02 -0.35946611189E+02 -0.38333908721E+03  0.42933638955E+03  0.17333398170E+03 0.  0.
         24    2    3    3    0    0  0.11852148056E+03 -0.42000099036E+02 -0.32931759155E+03  0.36121957417E+03  0.78855278773E+02 0.  0.
         -6    2    1    2    0  502 -0.77743498403E+02  0.35946611189E+02 -0.14065882199E+03  0.23777654253E+03  0.17151259305E+03 0.  0.
        -24    2    5    5    0    0 -0.37143521387E+02 -0.29846488238E+02 -0.12700111686E+03  0.15912723881E+03  0.83196997587E+02 0.  0.
          5    1    3    3  501    0 -0.40777982156E+02  0.60534878473E+01 -0.54021495661E+02  0.68116815378E+02  0.47000000000E+01 0. -1.
        -13    1    4    4    0    0  0.89487251177E+02 -0.33118312756E+02 -0.31200177063E+03  0.32626660209E+03  0.00000000000E+00 0.  1.
         14    1    4    4    0    0  0.29034229381E+02 -0.88817862799E+01 -0.17315820914E+02  0.34952972080E+02  0.00000000000E+00 0. -1.
         -5    1    5    5    0  502 -0.40599977015E+02  0.65793099426E+02 -0.13657705133E+02  0.78649303718E+02  0.47000000000E+01 0.  1.
         13    1    6    6    0    0 -0.44288203183E+02  0.12588092575E+02 -0.94771901846E+02  0.10536421781E+03  0.00000000000E+00 0. -1.
        -14    1    6    6    0    0  0.71446817960E+01 -0.42434580812E+02 -0.32229215015E+02  0.53763021001E+02  0.00000000000E+00 0.  1.
</event>
<event>
12    1  0.1040325E-001  0.1754367E+03  0.7818608E-02  0.1172350E+00
         21   -1    0    0  503  502  0.00000000000E+00  0.00000000000E+00  0.33200687178E+02  0.33200687178E+02  0.00000000000E+00 0.  1.
         21   -1    0    0  501  503 -0.00000000000E+00 -0.00000000000E+00 -0.10275579514E+04  0.10275579514E+04  0.00000000000E+00 0.  1.
          6    2    1    2  501    0  0.13428813236E+02  0.31760828400E+02 -0.66375934583E+03  0.68649535373E+03  0.17178567539E+03 0.  0.
         24    2    3    3    0    0 -0.28338871523E+02 -0.54547233500E+00 -0.16985075658E+03  0.18974992487E+03  0.79701727074E+02 0.  0.
         -6    2    1    2    0  502 -0.13428813236E+02 -0.31760828400E+02 -0.33059791835E+03  0.37426328481E+03  0.17201435839E+03 0.  0.
        -24    2    5    5    0    0 -0.26900506397E+02 -0.77597706063E+01 -0.65779854067E+02  0.10797728356E+03  0.80921278281E+02 0.  0.
          5    1    3    3  501    0  0.41767684759E+02  0.32306300735E+02 -0.49390858925E+03  0.49674542886E+03  0.47000000000E+01 0. -1.
        -13    1    4    4    0    0 -0.17406187155E+02 -0.38487286752E+02 -0.63124284744E+02  0.75953419391E+02  0.00000000000E+00 0.  1.
         14    1    4    4    0    0 -0.10932684368E+02  0.37941814417E+02 -0.10672647184E+03  0.11379650548E+03  0.00000000000E+00 0. -1.
         -5    1    5    5    0  502  0.13471693161E+02 -0.24001057793E+02 -0.26481806429E+03  0.26628600125E+03  0.47000000000E+01 0.  1.
         13    1    6    6    0    0 -0.37354010193E+02  0.28765397498E+02 -0.42119513340E+02  0.63220436370E+02  0.00000000000E+00 0. -1.
        -14    1    6    6    0    0  0.10453503797E+02 -0.36525168105E+02 -0.23660340727E+02  0.44756847186E+02  0.00000000000E+00 0.  1.
</event>
<event>
12    1  0.1040325E-001  0.2397247E+03  0.7818608E-02  0.1119998E+00
         21   -1    0    0  501  502  0.00000000000E+00  0.00000000000E+00  0.13370720502E+04  0.13370720502E+04  0.00000000000E+00 0.  1.
         21   -1    0    0  502  503 -0.00000000000E+00 -0.00000000000E+00 -0.49471527640E+02  0.49471527640E+02  0.00000000000E+00 0.  1.
         -6    2    1    2    0  503  0.65495710433E+02  0.15257307932E+03  0.39238236493E+03  0.45981718648E+03  0.17291527421E+03 0.  0.
        -24    2    3    3    0    0  0.97508885794E+02  0.58214185657E+02  0.21665023176E+03  0.25774710745E+03  0.81236532775E+02 0.  0.
          6    2    1    2  501    0 -0.65495710433E+02 -0.15257307932E+03  0.89521815764E+03  0.92672639137E+03  0.17273685790E+03 0.  0.
         24    2    5    5    0    0 -0.81440951904E+02 -0.16470666867E+03  0.87578573893E+03  0.89842120433E+03  0.79994278148E+02 0.  0.
          5    1    5    5  501    0  0.15945241471E+02  0.12133589352E+02  0.19432418709E+02  0.28305187034E+02  0.47000000000E+01 0. -1.
        -13    1    6    6    0    0 -0.38564365707E+02 -0.14942761763E+03  0.70312036591E+03  0.71985698036E+03  0.00000000000E+00 0.  1.
         14    1    6    6    0    0 -0.42876586197E+02 -0.15279051037E+02  0.17266537302E+03  0.17856422397E+03  0.00000000000E+00 0. -1.
         -5    1    3    3    0  503 -0.32013175361E+02  0.94358893660E+02  0.17573213317E+03  0.20207007903E+03  0.47000000000E+01 0.  1.
         13    1    4    4    0    0  0.64239700403E+02  0.57145071209E+02  0.20530350766E+03  0.22257993739E+03  0.00000000000E+00 0. -1.
        -14    1    4    4    0    0  0.33269185391E+02  0.10691144477E+01  0.11346724100E+02  0.35167170061E+02  0.00000000000E+00 0.  1.
</event>
<event>
12    1  0.1040325E-001  0.3484172E+03  0.7818608E-02  0.1063497E+00
         21   -1    0    0  501  502  0.00000000000E+00  0.00000000000E+00  0.28661719540E+03  0.28661719540E+03  0.00000000000E+00 0.  1.
         21   -1    0    0  502  503 -0.00000000000E+00 -0.00000000000E+00 -0.42778498664E+03  0.42778498664E+03  0.00000000000E+00 0. -1.
         -6    2    1    2    0  503 -0.18195198218E+03  0.24158140736E+03 -0.25284617653E+02  0.34933345503E+03  0.17299263195E+03 0.  0.
        -24    2    3    3    0    0 -0.18032224357E+03  0.24486404475E+03  0.90687209569E+01  0.31446694345E+03  0.79578294038E+02 0.  0.
          6    2    1    2  501    0  0.18195198218E+03 -0.24158140736E+03 -0.11588317358E+03  0.36506872701E+03  0.16845820051E+03 0.  0.
         24    2    5    5    0    0  0.18289207310E+03 -0.17822572703E+03 -0.47341047915E+02  0.27160783149E+03  0.79471498854E+02 0.  0.
          5    1    5    5  501    0 -0.94009091175E+00 -0.63355680324E+02 -0.68542125670E+02  0.93460895521E+02  0.47000000000E+01 0. -1.
        -11    1    6    6    0    0  0.15127677296E+03 -0.15630151184E+03 -0.68048986497E+02  0.22791553086E+03  0.00000000000E+00 0.  1.
         12    1    6    6    0    0  0.31615300131E+02 -0.21924215193E+02  0.20707938582E+02  0.43692300632E+02  0.00000000000E+00 0. -1.
         -5    1    3    3    0  503 -0.16297386157E+01 -0.32826373965E+01 -0.34353338610E+02  0.34866511582E+02  0.47000000000E+01 0.  1.
         11    1    4    4    0    0 -0.49612831188E+02  0.39578185845E+02 -0.26003940758E+02  0.68586228561E+02  0.00000000000E+00 0. -1.
        -12    1    4    4    0    0 -0.13070941238E+03  0.20528585891E+03  0.35072661715E+02  0.24588071488E+03  0.00000000000E+00 0.  1.
</event>
<event>
12    1  0.1040325E-001  0.1933144E+03  0.7818608E-02  0.1157082E+00
         21   -1    0    0  503  502  0.00000000000E+00  0.00000000000E+00  0.28623494762E+03  0.28623494762E+03  0.00000000000E+00 0. -1.
         21   -1    0    0  501  503 -0.00000000000E+00 -0.00000000000E+00 -0.28108165901E+03  0.28108165901E+03  0.00000000000E+00 0. -1.
          6    2    1    2  501    0 -0.20714978803E+02 -0.71479983480E+02 -0.20817314059E+03  0.28408894404E+03  0.17841517109E+03 0.  0.
         24    2    3    3    0    0 -0.29794828044E+02 -0.11497455175E+03 -0.18457295258E+03  0.23355895289E+03  0.79848170449E+02 0.  0.
         -6    2    1    2    0  502  0.20714978803E+02  0.71479983480E+02  0.21332642920E+03  0.28322766259E+03  0.17079591646E+03 0.  0.
        -24    2    5    5    0    0 -0.32925468408E+02 -0.12750421030E+02  0.13016786361E+03  0.15319114598E+03  0.72644303188E+02 0.  0.
          5    1    3    3  501    0  0.90798492405E+01  0.43494568267E+02 -0.23600188014E+02  0.50529991146E+02  0.47000000000E+01 0. -1.
        -13    1    4    4    0    0  0.16334681754E+02 -0.17410938408E+02 -0.55293461104E+01  0.24505841602E+02  0.00000000000E+00 0.  1.
         14    1    4    4    0    0 -0.46129509797E+02 -0.97563613340E+02 -0.17904360647E+03  0.20905311129E+03  0.00000000000E+00 0. -1.
         -5    1    5    5    0  502  0.53640447211E+02  0.84230404510E+02  0.83158565591E+02  0.13003651661E+03  0.47000000000E+01 0.  1.
         11    1    6    6    0    0 -0.50549290671E+02 -0.32359664000E+01  0.12098056203E+03  0.13115639007E+03  0.00000000000E+00 0. -1.
        -12    1    6    6    0    0  0.17623822263E+02 -0.95144546300E+01  0.91873015729E+01  0.22034755915E+02  0.00000000000E+00 0.  1.
</event>
<event>
12    1  0.1040325E-001  0.2623585E+03  0.7818608E-02  0.1105823E+00
         21   -1    0    0  503  502  0.00000000000E+00  0.00000000000E+00  0.57459508488E+02  0.57459508488E+02  0.00000000000E+00 0. -1.
         21   -1    0    0  501  503 -0.00000000000E+00 -0.00000000000E+00 -0.17273248414E+04  0.17273248414E+04  0.00000000000E+00 0. -1.
          6    2    1    2  501    0 -0.67850083586E+02 -0.18593682356E+03 -0.13295819532E+04  0.13551045000E+04  0.17130061153E+03 0.  0.
         24    2    3    3    0    0  0.25888788028E+01 -0.27191248200E+02 -0.50326224743E+03  0.51071824288E+03  0.82547971779E+02 0.  0.
         -6    2    1    2    0  502  0.67850083586E+02  0.18593682356E+03 -0.34028337975E+03  0.42967984991E+03  0.17220876483E+03 0.  0.
        -24    2    5    5    0    0  0.82711129891E+02  0.15412994555E+03 -0.17312922198E+03  0.25881402347E+03  0.80086204271E+02 0.  0.
          5    1    3    3  501    0 -0.70438962389E+02 -0.15874557536E+03 -0.82631970576E+03  0.84438625714E+03  0.47000000000E+01 0. -1.
        -11    1    4    4    0    0  0.96605734303E+01 -0.26435367465E+02 -0.49822269148E+02  0.57222494135E+02  0.00000000000E+00 0.  1.
         12    1    4    4    0    0 -0.70716946275E+01 -0.75588073548E+00 -0.45343997829E+03  0.45349574874E+03  0.00000000000E+00 0. -1.
         -5    1    5    5    0  502 -0.14861046305E+02  0.31806878006E+02 -0.16715415777E+03  0.17086582644E+03  0.47000000000E+01 0.  1.
         11    1    6    6    0    0  0.76840573116E+02  0.16275332376E+03 -0.15334658637E+03  0.23644934684E+03  0.00000000000E+00 0. -1.
        -12    1    6    6    0    0  0.58705567747E+01 -0.86233782082E+01 -0.19782635616E+02  0.22364676623E+02  0.00000000000E+00 0.  1.
</event>
<event>
12    1  0.1040325E-001  0.2251447E+03  0.7818608E-02  0.1130984E+00
         21   -1    0    0  503  502  0.00000000000E+00  0.00000000000E+00  0.39389199367E+03  0.39389199367E+03  0.00000000000E+00 0.  1.
         21   -1    0    0  501  503 -0.00000000000E+00 -0.00000000000E+00 -0.16967687286E+03  0.16967687286E+03  0.00000000000E+00 0.  1.
          6    2    1    2  501    0  0.10576028450E+03  0.94840746224E+02  0.25423641646E+03  0.33643140879E+03  0.16843376279E+03 0.  0.
         24    2    3    3    0    0  0.69432961839E+02  0.10108401903E+03  0.26098475719E+03  0.29866524762E+03  0.77775134599E+02 0.  0.
         -6    2    1    2    0  502 -0.10576028450E+03 -0.94840746224E+02 -0.30021295649E+02  0.22713745774E+03  0.17467152486E+03 0.  0.
        -24    2    5    5    0    0  0.71195384058E+01 -0.15238534753E+02  0.15848291950E+02  0.81519891648E+02  0.78175594708E+02 0.  0.
          5    1    3    3  501    0  0.36327322656E+02 -0.62432728039E+01 -0.67483407310E+01  0.37766161167E+02  0.47000000000E+01 0. -1.
        -11    1    4    4    0    0  0.84904319940E+02  0.76197919450E+02  0.18652429711E+03  0.21864624371E+03  0.00000000000E+00 0.  1.
         12    1    4    4    0    0 -0.15471358101E+02  0.24886099578E+02  0.74460460073E+02  0.80019003918E+02  0.00000000000E+00 0. -1.
         -5    1    5    5    0  502 -0.11287982290E+03 -0.79602211471E+02 -0.45869587599E+02  0.14561756610E+03  0.47000000000E+01 0.  1.
         13    1    6    6    0    0 -0.12191090152E+02  0.13092477673E+02  0.37095530758E+02  0.41183905266E+02  0.00000000000E+00 0. -1.
        -14    1    6    6    0    0  0.19310628558E+02 -0.28331012426E+02 -0.21247238808E+02  0.40335986382E+02  0.00000000000E+00 0.  1.
</event>
<event>
12    1  0.1040325E-001  0.3005046E+03  0.7818608E-02  0.1084998E+00
         21   -1    0    0  501  502  0.00000000000E+00  0.00000000000E+00  0.41019592873E+03  0.41019592873E+03  0.00000000000E+00 0.  1.
         21   -1    0    0  502  503 -0.00000000000E+00 -0.00000000000E+00 -0.22584639592E+03  0.22584639592E+03  0.00000000000E+00 0. -1.
         -6    2    1    2    0  503  0.19770589773E+03  0.14634103136E+03  0.41390962273E+02  0.30326584953E+03  0.17249244702E+03 0.  0.
        -24    2    3    3    0    0  0.49875346840E+02  0.39043662644E+01  0.42926177784E+01  0.94602358466E+02  0.80177212234E+02 0.  0.
          6    2    1    2  501    0 -0.19770589773E+03 -0.14634103136E+03  0.14295857054E+03  0.33277647513E+03  0.17262592520E+03 0.  0.
         24    2    5    5    0    0 -0.20257765328E+03 -0.10713479495E+03  0.75735385468E+02  0.25466175445E+03  0.81247711800E+02 0.  0.
          5    1    5    5  501    0  0.48717555482E+01 -0.39206236407E+02  0.67223185067E+02  0.78114720674E+02  0.47000000000E+01 0. -1.
        -11    1    6    6    0    0 -0.61660521088E+02 -0.56772091107E+02  0.62260236595E+02  0.10440990015E+03  0.00000000000E+00 0.  1.
         12    1    6    6    0    0 -0.14091713219E+03 -0.50362703844E+02  0.13475148874E+02  0.15025185430E+03  0.00000000000E+00 0. -1.
         -5    1    3    3    0  503  0.14783055089E+03  0.14243666509E+03  0.37098344494E+02  0.20866349106E+03  0.47000000000E+01 0.  1.
         13    1    4    4    0    0  0.32975010257E+02  0.41221607541E+02  0.83177041894E+01  0.53439277996E+02  0.00000000000E+00 0. -1.
        -14    1    4    4    0    0  0.16900336582E+02 -0.37317241277E+02 -0.40250864111E+01  0.41163080469E+02  0.00000000000E+00 0.  1.
</event>
<event>
12    1  0.1040325E-001  0.2502324E+03  0.7818608E-02  0.1113202E+00
         21   -1    0    0  501  502  0.00000000000E+00  0.00000000000E+00  0.21125354585E+03  0.21125354585E+03  0.00000000000E+00 0.  1.
         21   -1    0    0  502  503 -0.00000000000E+00 -0.00000000000E+00 -0.49596505891E+03  0.49596505891E+03  0.00000000000E+00 0. -1.
         -6    2    1    2    0  503  0.10084670579E+03  0.15053988996E+03 -0.36689356871E+03  0.44410262603E+03  0.17258022815E+03 0.  0.
        -24    2    3    3    0    0  0.69513315352E+02  0.17789769269E+03 -0.32000870718E+03  0.38124953567E+03  0.80411104373E+02 0.  0.
          6    2    1    2  501    0 -0.10084670579E+03 -0.15053988996E+03  0.82182055657E+02  0.26311597873E+03  0.17217378272E+03 0.  0.
         24    2    5    5    0    0 -0.18528307899E+02 -0.60925478305E+02 -0.18779552741E+02  0.10493128359E+03  0.81256941701E+02 0.  0.
          5    1    5    5  501    0 -0.82318397886E+02 -0.89614411654E+02  0.10096160840E+03  0.15818469514E+03  0.47000000000E+01 0. -1.
        -13    1    6    6    0    0  0.18856589380E+02 -0.32275930334E+02  0.21355183924E+02  0.43050557748E+02  0.00000000000E+00 0.  1.
         14    1    6    6    0    0 -0.37384897280E+02 -0.28649547971E+02 -0.40134736666E+02  0.61880725842E+02  0.00000000000E+00 0. -1.
         -5    1    3    3    0  503  0.31333390434E+02 -0.27357802729E+02 -0.46884861536E+02  0.62853090358E+02  0.47000000000E+01 0.  1.
         11    1    4    4    0    0 -0.18150123094E+02  0.26759860072E+02 -0.55894267203E+02  0.64573107294E+02  0.00000000000E+00 0. -1.
        -12    1    4    4    0    0  0.87663438446E+02  0.15113783262E+03 -0.26411443997E+03  0.31667642838E+03  0.00000000000E+00 0.  1.
</event>
<event>
12    1  0.1040325E-001  0.1741809E+03  0.7818608E-02  0.1173885E+00
         21   -1    0    0  503  502  0.00000000000E+00  0.00000000000E+00  0.41353088458E+02  0.41353088458E+02  0.00000000000E+00 0.  1.
         21   -1    0    0  501  503 -0.00000000000E+00 -0.00000000000E+00 -0.73073142185E+03  0.73073142185E+03  0.00000000000E+00 0. -1.
          6    2    1    2  501    0 -0.19539160545E+02 -0.15497359650E+01 -0.36606161869E+03  0.40483433562E+03  0.17177179670E+03 0.  0.
         24    2    3    3    0    0 -0.46714279990E+02  0.57683035470E+02 -0.22784817537E+03  0.25195512107E+03  0.77826958535E+02 0.  0.
         -6    2    1    2    0  502  0.19539160545E+02  0.15497359650E+01 -0.32331671471E+03  0.36725017469E+03  0.17307458602E+03 0.  0.
        -24    2    5    5    0    0 -0.28606801343E+02 -0.53807667560E+02 -0.18894676087E+03  0.21408408750E+03  0.80109324717E+02 0.  0.
          5    1    3    3  501    0  0.27175119445E+02 -0.59232771435E+02 -0.13821344331E+03  0.15287921455E+03  0.47000000000E+01 0. -1.
        -13    1    4    4    0    0 -0.23829701926E+01  0.55659971700E+02 -0.79253308514E+02  0.96875166617E+02  0.00000000000E+00 0.  1.
         14    1    4    4    0    0 -0.44331309797E+02  0.20230637705E+01 -0.14859486686E+03  0.15507995445E+03  0.00000000000E+00 0. -1.
         -5    1    5    5    0  502  0.48145961888E+02  0.55357403525E+02 -0.13436995383E+03  0.15316608719E+03  0.47000000000E+01 0.  1.
         11    1    6    6    0    0 -0.41038475906E+02 -0.30086164398E+02 -0.17803603369E+03  0.18516523185E+03  0.00000000000E+00 0. -1.
        -12    1    6    6    0    0  0.12431674563E+02 -0.23721503162E+02 -0.10910727179E+02  0.28918855654E+02  0.00000000000E+00 0.  1.
</event>
<event>
12    1  0.1040325E-001  0.1874391E+03  0.7818608E-02  0.1161987E+00
         21   -1    0    0  503  502  0.00000000000E+00  0.00000000000E+00  0.12748125906E+04  0.12748125906E+04  0.00000000000E+00 0.  1.
         21   -1    0    0  501  503 -0.00000000000E+00 -0.00000000000E+00 -0.52755107783E+02  0.52755107783E+02  0.00000000000E+00 0.  1.
          6    2    1    2  501    0 -0.19763724481E+02 -0.56074508424E+02  0.14123828519E+03  0.23061576736E+03  0.17233810852E+03 0.  0.
         24    2    3    3    0    0  0.13634445918E+02  0.22083470235E+02  0.27718636239E+02  0.88725288067E+02  0.80189002828E+02 0.  0.
         -6    2    1    2    0  502  0.19763724481E+02  0.56074508424E+02  0.10808191976E+04  0.10969519310E+04  0.17775951657E+03 0.  0.
        -24    2    5    5    0    0  0.42409051028E+02  0.57238845799E+02  0.35581520843E+03  0.37157820608E+03  0.79944278136E+02 0.  0.
          5    1    3    3  501    0 -0.33398170399E+02 -0.78157978659E+02  0.11351964895E+03  0.14189047929E+03  0.47000000000E+01 0. -1.
        -11    1    4    4    0    0  0.97106029547E+01 -0.27785325833E+02  0.25018407998E+02  0.38629533781E+02  0.00000000000E+00 0.  1.
         12    1    4    4    0    0  0.39238429635E+01  0.49868796068E+02  0.27002282407E+01  0.50095754286E+02  0.00000000000E+00 0. -1.
         -5    1    5    5    0  502 -0.22645326547E+02 -0.11643373749E+01  0.72500398919E+03  0.72537372494E+03  0.47000000000E+01 0.  1.
         11    1    6    6    0    0  0.46527600332E+02  0.33021207259E+01  0.10343392825E+03  0.11346496864E+03  0.00000000000E+00 0. -1.
        -12    1    6    6    0    0 -0.41185493044E+01  0.53936725073E+02  0.25238128018E+03  0.25811323744E+03  0.00000000000E+00 0.  1.
</event>
<event>
12    1  0.1040325E-001  0.2529009E+03  0.7818608E-02  0.1113213E+00
         21   -1    0    0  503  502  0.00000000000E+00  0.00000000000E+00  0.35101550356E+03  0.35101550356E+03  0.00000000000E+00 0. -1.
         21   -1    0    0  501  503 -0.00000000000E+00 -0.00000000000E+00 -0.26301636590E+03  0.26301636590E+03  0.00000000000E+00 0. -1.
          6    2    1    2  501    0 -0.16635792055E+03  0.37139425784E+02 -0.13473752836E+03  0.27702966562E+03  0.17186314151E+03 0.  0.
         24    2    3    3    0    0 -0.64407908416E+02  0.46748871702E+02 -0.54705795963E+01  0.11205033217E+03  0.78686174303E+02 0.  0.
         -6    2    1    2    0  502  0.16635792055E+03 -0.37139425784E+02  0.22273666601E+03  0.33700220384E+03  0.18682764338E+03 0.  0.
        -24    2    5    5    0    0  0.46915794432E+02  0.25498174549E+02  0.26711308170E+02  0.99014974386E+02  0.78988749174E+02 0.  0.
          5    1    3    3  501    0 -0.10195001213E+03 -0.96094459171E+01 -0.12926694876E+03  0.16497933345E+03  0.47000000000E+01 0. -1.
        -13    1    4    4    0    0  0.17845778865E+02  0.15165977565E+02  0.26456018509E+01  0.23568578828E+02  0.00000000000E+00 0.  1.
         14    1    4    4    0    0 -0.82253687281E+02  0.31582894136E+02 -0.81161814472E+01  0.88481753343E+02  0.00000000000E+00 0. -1.
         -5    1    5    5    0  502  0.11944212612E+03 -0.62637600333E+02  0.19602535784E+03  0.23798722945E+03  0.47000000000E+01 0.  1.
         13    1    6    6    0    0  0.39445692242E+02 -0.73111998509E+01  0.45350668956E+02  0.60548323301E+02  0.00000000000E+00 0. -1.
        -14    1    6    6    0    0  0.74701021898E+01  0.32809374400E+02 -0.18639360786E+02  0.38466651085E+02  0.00000000000E+00 0.  1.
</event>
<event>
12    1  0.1040325E-001  0.1912996E+03  0.7818608E-02  0.1157752E+00
         21   -1    0    0  501  502  0.00000000000E+00  0.00000000000E+00  0.44116239537E+03  0.44116239537E+03  0.00000000000E+00 0.  1.
         21   -1    0    0  502  503 -0.00000000000E+00 -0.00000000000E+00 -0.17158921524E+03  0.17158921524E+03  0.00000000000E+00 0.  1.
         -6    2    1    2    0  503  0.54747757883E+02  0.60389367278E+02 -0.86156974816E+02  0.20980602832E+03  0.17306459065E+03 0.  0.
        -24    2    3    3    0    0  0.62706843626E+02  0.66476549777E+02  0.17993680810E+01  0.12115610394E+03  0.79525366325E+02 0.  0.
          6    2    1    2  501    0 -0.54747757883E+02 -0.60389367278E+02  0.35573015495E+03  0.40294558230E+03  0.17081278195E+03 0.  0.
         24    2    5    5    0    0 -0.18939024667E+02 -0.34926880295E+02  0.34572307876E+03  0.35763735797E+03  0.82470958545E+02 0.  0.
          5    1    5    5  501    0 -0.35808733216E+02 -0.25462486984E+02  0.10007076186E+02  0.45308224328E+02  0.47000000000E+01 0. -1.
        -13    1    6    6    0    0 -0.36398937660E+01 -0.61102913841E+02  0.22844204707E+03  0.23650070566E+03  0.00000000000E+00 0.  1.
         14    1    6    6    0    0 -0.15299130901E+02  0.26176033546E+02  0.11728103169E+03  0.12113665231E+03  0.00000000000E+00 0. -1.
         -5    1    3    3    0  503 -0.79590857431E+01 -0.60871824983E+01 -0.87956342897E+02  0.88649924379E+02  0.47000000000E+01 0.  1.
         11    1    4    4    0    0 -0.18140544964E+02  0.10285654990E+02  0.83921864950E+01  0.22478942687E+02  0.00000000000E+00 0. -1.
        -12    1    4    4    0    0  0.80847388590E+02  0.56190894787E+02 -0.65928184141E+01  0.98677161255E+02  0.00000000000E+00 0.  1.
</event>
<event>
12    1  0.1040325E-001  0.1885943E+03  0.7818608E-02  0.1159996E+00
         21   -1    0    0  501  502  0.00000000000E+00  0.00000000000E+00  0.26627666492E+03  0.26627666492E+03  0.00000000000E+00 0. -1.
         21   -1    0    0  502  503 -0.00000000000E+00 -0.00000000000E+00 -0.16647713428E+03  0.16647713428E+03  0.00000000000E+00 0. -1.
         -6    2    1    2    0  503  0.66014104166E+02 -0.38011523931E+02 -0.47347458042E+02  0.19444691647E+03  0.17252560286E+03 0.  0.
        -24    2    3    3    0    0 -0.12069392641E+01 -0.17848284205E+02 -0.81623713657E+02  0.11620257729E+03  0.80750172663E+02 0.  0.
          6    2    1    2  501    0 -0.66014104166E+02  0.38011523931E+02  0.14714698868E+03  0.23830688272E+03  0.17127520596E+03 0.  0.
         24    2    5    5    0    0 -0.10558343366E+02 -0.97036294305E+01  0.85665398663E+01  0.81530902233E+02  0.79801399580E+02 0.  0.
          5    1    5    5  501    0 -0.55455760799E+02  0.47715153361E+02  0.13858044881E+03  0.15677598049E+03  0.47000000000E+01 0. -1.
        -11    1    6    6    0    0  0.29850904011E+02  0.98083573174E+01 -0.99915546973E+01  0.32971374081E+02  0.00000000000E+00 0.  1.
         12    1    6    6    0    0 -0.40409247378E+02 -0.19511986748E+02  0.18558094564E+02  0.48559528152E+02  0.00000000000E+00 0. -1.
         -5    1    3    3    0  503  0.67221043430E+02 -0.20163239726E+02  0.34276255615E+02  0.78244339189E+02  0.47000000000E+01 0.  1.
         13    1    4    4    0    0  0.24307659014E+02  0.21660386544E+02 -0.18379022644E+02  0.37387472572E+02  0.00000000000E+00 0. -1.
        -14    1    4    4    0    0 -0.25514598278E+02 -0.39508670749E+02 -0.63244691013E+02  0.78815104713E+02  0.00000000000E+00 0.  1.
</event>
<event>
12    1  0.1040325E-001  0.2900792E+03  0.7818608E-02  0.1090463E+00
         21   -1    0    0  501  502  0.00000000000E+00  0.00000000000E+00  0.10291263473E+03  0.10291263473E+03  0.00000000000E+00 0.  1.
         21   -1    0    0  502  503 -0.00000000000E+00 -0.00000000000E+00 -0.10381369239E+04  0.10381369239E+04  0.00000000000E+00 0.  1.
         -6    2    1    2    0  503  0.35390695342E+02 -0.22854167869E+03 -0.20194964498E+03  0.35248274517E+03  0.17313759362E+03 0.  0.
        -24    2    3    3    0    0  0.45518363140E+02 -0.50948491090E+02 -0.91911900927E+02  0.14326442606E+03  0.86076873289E+02 0.  0.
          6    2    1    2  501    0 -0.35390695342E+02  0.22854167869E+03 -0.73327464422E+03  0.78856681349E+03  0.17510601150E+03 0.  0.
         24    2    5    5    0    0  0.64632320926E+00  0.26099994461E+02 -0.16496051699E+03  0.18417923964E+03  0.77642724720E+02 0.  0.
          5    1    5    5  501    0 -0.36037018551E+02  0.20244168423E+03 -0.56831412723E+03  0.60438757385E+03  0.47000000000E+01 0. -1.
        -13    1    6    6    0    0 -0.13766198578E+01  0.43192975612E+02 -0.16075272064E+03  0.16646010158E+03  0.00000000000E+00 0.  1.
         14    1    6    6    0    0  0.20229430671E+01 -0.17092981152E+02 -0.42077963507E+01  0.17719138056E+02  0.00000000000E+00 0. -1.
         -5    1    3    3    0  503 -0.10127667798E+02 -0.17759318760E+03 -0.11003774405E+03  0.20921831911E+03  0.47000000000E+01 0.  1.
         13    1    4    4    0    0 -0.24624129589E+02 -0.22546711060E+02 -0.20279680660E+02  0.39063632516E+02  0.00000000000E+00 0. -1.
        -14    1    4    4    0    0  0.70142492729E+02 -0.28401780030E+02 -0.71632220267E+02  0.10420079355E+03  0.00000000000E+00 0.  1.
</event>
<event>
12    1  0.1040325E-001  0.1916327E+03  0.7818608E-02  0.1157080E+00
         21   -1    0    0  501  502  0.00000000000E+00  0.00000000000E+00  0.10602061243E+03  0.10602061243E+03  0.00000000000E+00 0.  1.
         21   -1    0    0  502  503 -0.00000000000E+00 -0.00000000000E+00 -0.45589942027E+03  0.45589942027E+03  0.00000000000E+00 0.  1.
         -6    2    1    2    0  503 -0.67120075624E+01 -0.85138226135E+02 -0.31319873621E+03  0.36717370684E+03  0.17155032508E+03 0.  0.
        -24    2    3    3    0    0  0.31434918336E+02  0.50576139499E+01 -0.93095999175E+02  0.12622188100E+03  0.79065571721E+02 0.  0.
          6    2    1    2  501    0  0.67120075624E+01  0.85138226135E+02 -0.36680071624E+02  0.19474632586E+03  0.17113484504E+03 0.  0.
         24    2    5    5    0    0  0.37125469286E+02  0.11305525775E+03 -0.46544321275E+02  0.15204114199E+03  0.82403539000E+02 0.  0.
          5    1    5    5  501    0 -0.30413461724E+02 -0.27917031618E+02  0.98642496505E+01  0.42705183872E+02  0.47000000000E+01 0. -1.
        -13    1    6    6    0    0 -0.12906725264E+02  0.73388759238E+02 -0.26545061977E+01  0.74562322541E+02  0.00000000000E+00 0.  1.
         14    1    6    6    0    0  0.50032194550E+02  0.39666498515E+02 -0.43889815077E+02  0.77478819450E+02  0.00000000000E+00 0. -1.
         -5    1    3    3    0  503 -0.38146925898E+02 -0.90195840085E+02 -0.22010273703E+03  0.24095182584E+03  0.47000000000E+01 0.  1.
         13    1    4    4    0    0 -0.36190243343E+01  0.37220419062E+02 -0.36058761146E+02  0.51948928648E+02  0.00000000000E+00 0. -1.
        -14    1    4    4    0    0  0.35053942670E+02 -0.32162805112E+02 -0.57037238029E+02  0.74272952354E+02  0.00000000000E+00 0.  1.
</event>
<event>
12    1  0.1040325E-001  0.2115727E+03  0.7818608E-02  0.1140447E+00
         21   -1    0    0  501  502  0.00000000000E+00  0.00000000000E+00  0.11857581036E+03  0.11857581036E+03  0.00000000000E+00 0.  1.
         21   -1    0    0  502  503 -0.00000000000E+00 -0.00000000000E+00 -0.41671124974E+03  0.41671124974E+03  0.00000000000E+00 0.  1.
         -6    2    1    2    0  503 -0.92542920656E+02 -0.82794586153E+02 -0.66030638847E+02  0.22163717107E+03  0.17130048066E+03 0.  0.
        -24    2    3    3    0    0 -0.55740249217E+02 -0.67801928698E+02 -0.10910386546E+03  0.16284423567E+03  0.83129505676E+02 0.  0.
          6    2    1    2  501    0  0.92542920656E+02  0.82794586153E+02 -0.23210480054E+03  0.31364988903E+03  0.17054172156E+03 0.  0.
         24    2    5    5    0    0 -0.36461811310E+01  0.56943618585E+02 -0.68244706224E+02  0.12183530059E+03  0.83250406657E+02 0.  0.
          5    1    5    5  501    0  0.96189101787E+02  0.25850967568E+02 -0.16386009432E+03  0.19181458843E+03  0.47000000000E+01 0. -1.
        -11    1    6    6    0    0  0.36318031017E+02  0.32161196344E+02 -0.54241520584E+02  0.72770079583E+02  0.00000000000E+00 0.  1.
         12    1    6    6    0    0 -0.39964212148E+02  0.24782422241E+02 -0.14003185639E+02  0.49065221010E+02  0.00000000000E+00 0. -1.
         -5    1    3    3    0  503 -0.36802671438E+02 -0.14992657455E+02  0.43073226614E+02  0.58792935405E+02  0.47000000000E+01 0.  1.
         13    1    4    4    0    0  0.10158378530E+02 -0.49174714449E+02 -0.31183055252E+02  0.59107767090E+02  0.00000000000E+00 0. -1.
        -14    1    4    4    0    0 -0.65898627747E+02 -0.18627214250E+02 -0.77920810209E+02  0.10373646858E+03  0.00000000000E+00 0.  1.
</event>
<event>
12    1  0.1040325E-001  0.1745600E+03  0.7818608E-02  0.1173375E+00
         21   -1    0    0  501  502  0.00000000000E+00  0.00000000000E+00  0.90166562487E+03  0.90166562487E+03  0.00000000000E+00 0. -1.
         21   -1    0    0  502  503 -0.00000000000E+00 -0.00000000000E+00 -0.33970999691E+02  0.33970999691E+02  0.00000000000E+00 0. -1.
         -6    2    1    2    0  503  0.22614751038E+02 -0.11960839641E+02  0.47901739785E+03  0.50956012967E+03  0.17187021165E+03 0.  0.
        -24    2    3    3    0    0 -0.17560085438E+02 -0.66171386059E+02  0.25973484101E+03  0.28008304897E+03  0.79355640971E+02 0.  0.
          6    2    1    2  501    0 -0.22614751038E+02  0.11960839641E+02  0.38867722732E+03  0.42607649489E+03  0.17267513952E+03 0.  0.
         24    2    5    5    0    0 -0.71632986218E+02  0.47374795689E+02  0.27476746149E+03  0.29702433329E+03  0.73148073708E+02 0.  0.
          5    1    5    5  501    0  0.49018235179E+02 -0.35413956048E+02  0.11390976583E+03  0.12905216160E+03  0.47000000000E+01 0. -1.
        -13    1    6    6    0    0  0.12132986840E+00 -0.16596033041E+02  0.36521521818E+02  0.40115640211E+02  0.00000000000E+00 0.  1.
         14    1    6    6    0    0 -0.71754316086E+02  0.63970828730E+02  0.23824593968E+03  0.25690869308E+03  0.00000000000E+00 0. -1.
         -5    1    3    3    0  503  0.40174836476E+02  0.54210546419E+02  0.21928255685E+03  0.22947708070E+03  0.47000000000E+01 0.  1.
         13    1    4    4    0    0  0.30405983099E+02 -0.24068187013E+02  0.71746611030E+02  0.81555978497E+02  0.00000000000E+00 0. -1.
        -14    1    4    4    0    0 -0.47966068537E+02 -0.42103199046E+02  0.18798822998E+03  0.19852707047E+03  0.00000000000E+00 0.  1.
</event>
<event>
12    1  0.1040325E-001  0.1792778E+03  0.7818608E-02  0.1169575E+00
         21   -1    0    0  503  502  0.00000000000E+00  0.00000000000E+00  0.47009462209E+02  0.47009462209E+02  0.00000000000E+00 0. -1.
         21   -1    0    0  501  503 -0.00000000000E+00 -0.00000000000E+00 -0.16363829440E+04  0.16363829440E+04  0.00000000000E+00 0. -1.
          6    2    1    2  501    0  0.21071188275E+01 -0.43296784263E+02 -0.14384435177E+04  0.14490413901E+04  0.16947608958E+03 0.  0.
         24    2    3    3    0    0 -0.18344667189E+02 -0.22451527409E+01 -0.13111753681E+04  0.13136797119E+04  0.78942840430E+02 0.  0.
         -6    2    1    2    0  502 -0.21071188275E+01  0.43296784263E+02 -0.15092996406E+03  0.23435101614E+03  0.17395830891E+03 0.  0.
        -24    2    5    5    0    0 -0.18337092650E+02  0.76878559318E+02 -0.16029968494E+03  0.19560789629E+03  0.79497787702E+02 0.  0.
          5    1    3    3  501    0  0.20451786016E+02 -0.41051631522E+02 -0.12726814966E+03  0.13536167818E+03  0.47000000000E+01 0. -1.
        -11    1    4    4    0    0 -0.15122752570E+02  0.30222056607E+02 -0.28669052338E+03  0.28867546925E+03  0.00000000000E+00 0.  1.
         12    1    4    4    0    0 -0.32219146193E+01 -0.32467209348E+02 -0.10244848447E+04  0.10250042426E+04  0.00000000000E+00 0. -1.
         -5    1    5    5    0  502  0.16229973823E+02 -0.33581775055E+02  0.93697208870E+01  0.38743119849E+02  0.47000000000E+01 0.  1.
         13    1    6    6    0    0 -0.41994903606E+02  0.31760133734E+02 -0.43917939910E+02  0.68564301715E+02  0.00000000000E+00 0. -1.
        -14    1    6    6    0    0  0.23657810956E+02  0.45118425584E+02 -0.11638174503E+03  0.12704359458E+03  0.00000000000E+00 0.  1.
</event>
<event>
12    1  0.1040325E-001  0.2065119E+03  0.7818608E-02  0.1144930E+00
         21   -1    0    0  503  502  0.00000000000E+00  0.00000000000E+00  0.66590471524E+03  0.66590471524E+03  0.00000000000E+00 0.  1.
         21   -1    0    0  501  503 -0.00000000000E+00 -0.00000000000E+00 -0.69333068502E+02  0.69333068502E+02  0.00000000000E+00 0. -1.
          6    2    1    2  501    0 -0.29890166018E+02  0.10526829050E+03  0.18688392809E+03  0.27644459473E+03  0.17181727611E+03 0.  0.
         24    2    3    3    0    0 -0.73247086996E+02  0.21204214129E+02  0.11166638421E+03  0.15550510391E+03  0.76796494254E+02 0.  0.
         -6    2    1    2    0  502  0.29890166018E+02 -0.10526829050E+03  0.40968771865E+03  0.45879318900E+03  0.17513517196E+03 0.  0.
        -24    2    5    5    0    0  0.53960812195E+02 -0.74787648626E+02  0.40057149587E+03  0.41862278878E+03  0.79262565814E+02 0.  0.
          5    1    3    3  501    0  0.43356920979E+02  0.84064076375E+02  0.75217543882E+02  0.12093949083E+03  0.47000000000E+01 0. -1.
        -11    1    4    4    0    0 -0.78520349626E+02  0.28955150242E+02  0.59949852855E+02  0.10294576673E+03  0.00000000000E+00 0.  1.
         12    1    4    4    0    0  0.52732626298E+01 -0.77509361127E+01  0.51716531350E+02  0.52559337175E+02  0.00000000000E+00 0. -1.
         -5    1    5    5    0  502 -0.24070646177E+02 -0.30480641878E+02  0.91162227750E+01  0.40170400227E+02  0.47000000000E+01 0.  1.
         11    1    6    6    0    0 -0.16131428857E+02 -0.10227026065E+02  0.13756559127E+03  0.13888522945E+03  0.00000000000E+00 0. -1.
        -12    1    6    6    0    0  0.70092241052E+02 -0.64560622561E+02  0.26300590461E+03  0.27973755933E+03  0.00000000000E+00 0.  1.
</event>
<event>
12    1  0.1040325E-001  0.2548821E+03  0.7818608E-02  0.1110349E+00
         21   -1    0    0  503  502  0.00000000000E+00  0.00000000000E+00  0.78866780416E+02  0.78866780416E+02  0.00000000000E+00 0. -1.
         21   -1    0    0  501  503 -0.00000000000E+00 -0.00000000000E+00 -0.15291364887E+04  0.15291364887E+04  0.00000000000E+00 0. -1.
          6    2    1    2  501    0  0.17152234843E+03  0.77779841610E+02 -0.12714965891E+04  0.12966758940E+04  0.17086596559E+03 0.  0.
         24    2    3    3    0    0  0.34136819977E+02  0.72637643567E+02 -0.45931739614E+03  0.47292935706E+03  0.79045282162E+02 0.  0.
         -6    2    1    2    0  502 -0.17152234843E+03 -0.77779841610E+02 -0.17877311919E+03  0.31132737513E+03  0.17174191855E+03 0.  0.
        -24    2    5    5    0    0 -0.60477067050E+02 -0.97447376494E+02 -0.79090752346E+02  0.16074008913E+03  0.80178315781E+02 0.  0.
          5    1    3    3  501    0  0.13738552846E+03  0.51421980433E+01 -0.81217919293E+03  0.82374653690E+03  0.47000000000E+01 0. -1.
        -11    1    4    4    0    0  0.35562432655E+02  0.69134762151E+02 -0.21571023797E+03  0.22929284489E+03  0.00000000000E+00 0.  1.
         12    1    4    4    0    0 -0.14256126782E+01  0.35028814156E+01 -0.24360715817E+03  0.24363651216E+03  0.00000000000E+00 0. -1.
         -5    1    5    5    0  502 -0.11104528138E+03  0.19667534884E+02 -0.99682366845E+02  0.15058728600E+03  0.47000000000E+01 0.  1.
         13    1    6    6    0    0 -0.63769328204E+02 -0.59771138853E+02 -0.85630650018E+02  0.12235899837E+03  0.00000000000E+00 0. -1.
        -14    1    6    6    0    0  0.32922611538E+01 -0.37676237641E+02  0.65398976715E+01  0.38381090759E+02  0.00000000000E+00 0.  1.
</event>
<event>
12    1  0.1040325E-001  0.2196886E+03  0.7818608E-02  0.1134590E+00
         21   -1    0    0  503  502  0.00000000000E+00  0.00000000000E+00  0.96765471140E+03  0.96765471140E+03  0.00000000000E+00 0. -1.
         21   -1    0    0  501  503 -0.00000000000E+00 -0.00000000000E+00 -0.57993297323E+02  0.57993297323E+02  0.00000000000E+00 0. -1.
          6    2    1    2  501    0  0.13327505364E+03  0.31962055093E+02  0.25857382273E+03  0.33929856614E+03  0.17169531820E+03 0.  0.
         24    2    3    3    0    0  0.12246224170E+03 -0.21226864326E+02  0.23986811629E+03  0.28169673019E+03  0.79804474675E+02 0.  0.
         -6    2    1    2    0  502 -0.13327505364E+03 -0.31962055093E+02  0.65108759135E+03  0.68634944258E+03  0.16845383000E+03 0.  0.
        -24    2    5    5    0    0 -0.56158368243E+01 -0.39647479540E+02  0.29410370239E+03  0.30711926398E+03  0.78878351228E+02 0.  0.
          5    1    3    3  501    0  0.10812811947E+02  0.53188919419E+02  0.18705706443E+02  0.57601835949E+02  0.47000000000E+01 0. -1.
        -13    1    4    4    0    0  0.91847837606E+02  0.22260792782E+02  0.15532670129E+03  0.18181845974E+03  0.00000000000E+00 0.  1.
         14    1    4    4    0    0  0.30614404090E+02 -0.43487657108E+02  0.84541414998E+02  0.99878270451E+02  0.00000000000E+00 0. -1.
         -5    1    5    5    0  502 -0.12765921682E+03  0.76854244476E+01  0.35698388895E+03  0.37923017860E+03  0.47000000000E+01 0.  1.
         13    1    6    6    0    0 -0.27407061097E+02  0.13680240371E+02  0.11264260841E+03  0.11673325663E+03  0.00000000000E+00 0. -1.
        -14    1    6    6    0    0  0.21791224273E+02 -0.53327719911E+02  0.18146109398E+03  0.19038600735E+03  0.00000000000E+00 0.  1.
</event>
<event>
12    1  0.1040325E-001  0.2049808E+03  0.7818608E-02  0.1146056E+00
         21   -1    0    0  503  502  0.00000000000E+00  0.00000000000E+00  0.10643363808E+03  0.10643363808E+03  0.00000000000E+00 0.  1.
         21   -1    0    0  501  503 -0.00000000000E+00 -0.00000000000E+00 -0.42328527736E+03  0.42328527736E+03  0.00000000000E+00 0.  1.
          6    2    1    2  501    0  0.10109910767E+03 -0.46474434263E+02 -0.23129957949E+03  0.30760119288E+03  0.16952314229E+03 0.  0.
         24    2    3    3    0    0  0.84171892544E+02  0.13792854281E+02 -0.74779292278E+02  0.13896143780E+03  0.80269473149E+02 0.  0.
         -6    2    1    2    0  502 -0.10109910767E+03  0.46474434263E+02 -0.85552059794E+02  0.22211772256E+03  0.17215175029E+03 0.  0.
        -24    2    5    5    0    0 -0.40122160243E+02  0.60538565923E+02 -0.11144861672E+03  0.15423024524E+03  0.78047861414E+02 0.  0.
          5    1    3    3  501    0  0.16927215128E+02 -0.60267288544E+02 -0.15652028722E+03  0.16863975507E+03  0.47000000000E+01 0. -1.
        -13    1    4    4    0    0  0.61101721887E+02  0.33622312708E+02 -0.82048477861E+02  0.10768394982E+03  0.00000000000E+00 0.  1.
         14    1    4    4    0    0  0.23070170656E+02 -0.19829458427E+02  0.72691855830E+01  0.31277487985E+02  0.00000000000E+00 0. -1.
         -5    1    5    5    0  502 -0.60976947429E+02 -0.14064131660E+02  0.25896556924E+02  0.67887477326E+02  0.47000000000E+01 0.  1.
         11    1    6    6    0    0 -0.24846346209E+01  0.60054388652E+01  0.12270126805E+02  0.13885053726E+02  0.00000000000E+00 0. -1.
        -12    1    6    6    0    0 -0.37637525622E+02  0.54533127058E+02 -0.12371874352E+03  0.14034519151E+03  0.00000000000E+00 0.  1.
</event>
<event>
12    1  0.1040325E-001  0.1914077E+03  0.7818608E-02  0.1157237E+00
         21   -1    0    0  503  502  0.00000000000E+00  0.00000000000E+00  0.28833858261E+03  0.28833858261E+03  0.00000000000E+00 0. -1.
         21   -1    0    0  501  503 -0.00000000000E+00 -0.00000000000E+00 -0.17047777672E+03  0.17047777672E+03  0.00000000000E+00 0. -1.
          6    2    1    2  501    0 -0.64142306082E+02 -0.51796644982E+02 -0.57013726657E+02  0.19955197982E+03  0.17254941252E+03 0.  0.
         24    2    3    3    0    0 -0.22872132644E+02 -0.72662201354E+02 -0.86479294196E+02  0.14451646103E+03  0.87197529932E+02 0.  0.
         -6    2    1    2    0  502  0.64142306082E+02  0.51796644982E+02  0.17487453254E+03  0.25926437951E+03  0.17274197084E+03 0.  0.
        -24    2    5    5    0    0 -0.29828951707E+02  0.42459534818E+02  0.80614625828E+02  0.12575483329E+03  0.81381703979E+02 0.  0.
          5    1    3    3  501    0 -0.41270173438E+02  0.20865556372E+02  0.29465567539E+02  0.55035518792E+02  0.47000000000E+01 0. -1.
        -11    1    4    4    0    0  0.17992105009E+02 -0.24347800976E+02  0.75277779275E+01  0.31196132702E+02  0.00000000000E+00 0.  1.
         12    1    4    4    0    0 -0.40864237653E+02 -0.48314400378E+02 -0.94007072123E+02  0.11332032833E+03  0.00000000000E+00 0. -1.
         -5    1    5    5    0  502  0.93971257789E+02  0.93371101643E+01  0.94259906716E+02  0.13350954622E+03  0.47000000000E+01 0.  1.
         11    1    6    6    0    0 -0.96671830113E+01  0.30835398787E+02  0.93658018100E+02  0.99076236304E+02  0.00000000000E+00 0. -1.
        -12    1    6    6    0    0 -0.20161768696E+02  0.11624136030E+02 -0.13043392272E+02  0.26678596990E+02  0.00000000000E+00 0.  1.
</event>
<event>
12    1  0.1040325E-001  0.2005263E+03  0.7818608E-02  0.1149810E+00
         21   -1    0    0  503  502  0.00000000000E+00  0.00000000000E+00  0.88397856353E+02  0.88397856353E+02  0.00000000000E+00 0.  1.
         21   -1    0    0  501  503 -0.00000000000E+00 -0.00000000000E+00 -0.51605662957E+03  0.51605662957E+03  0.00000000000E+00 0. -1.
          6    2    1    2  501    0 -0.52920942102E+02 -0.87955223913E+02 -0.32132271502E+03  0.37747838557E+03  0.16942519545E+03 0.  0.
         24    2    3    3    0    0  0.21025713104E+02 -0.93220316929E+02 -0.18522921804E+03  0.22243207332E+03  0.77679185921E+02 0.  0.
         -6    2    1    2    0  502  0.52920942102E+02  0.87955223913E+02 -0.10633605820E+03  0.22697610036E+03  0.17226156082E+03 0.  0.
        -24    2    5    5    0    0  0.63229380175E+02  0.89094910416E+02 -0.13846053366E+03  0.19289333778E+03  0.78106739775E+02 0.  0.
          5    1    3    3  501    0 -0.73946655206E+02  0.52650930163E+01 -0.13609349698E+03  0.15504631225E+03  0.47000000000E+01 0. -1.
        -13    1    4    4    0    0  0.44685374327E+02 -0.61440013082E+02 -0.15492962770E+03  0.17255389717E+03  0.00000000000E+00 0.  1.
         14    1    4    4    0    0 -0.23659661223E+02 -0.31780303847E+02 -0.30299590332E+02  0.49878176150E+02  0.00000000000E+00 0. -1.
         -5    1    5    5    0  502 -0.10308438073E+02 -0.11396865029E+01  0.32124475468E+02  0.34082762577E+02  0.47000000000E+01 0.  1.
         13    1    6    6    0    0  0.64982859770E+02  0.53810396398E+02 -0.51047467314E+02  0.98611230311E+02  0.00000000000E+00 0. -1.
        -14    1    6    6    0    0 -0.17534795945E+01  0.35284514018E+02 -0.87413066350E+02  0.94282107469E+02  0.00000000000E+00 0.  1.
</event>
<event>
12    1  0.1040325E-001  0.1815300E+03  0.7818608E-02  0.1166498E+00
         21   -1    0    0  501  502  0.00000000000E+00  0.00000000000E+00  0.35062096679E+03  0.35062096679E+03  0.00000000000E+00 0.  1.
         21   -1    0    0  502  503 -0.00000000000E+00 -0.00000000000E+00 -0.99542167007E+02  0.99542167007E+02  0.00000000000E+00 0.  1.
         -6    2    1    2    0  503 -0.35380334699E+02 -0.49123420231E+02  0.70884775685E+02  0.19487892901E+03  0.17113815193E+03 0.  0.
        -24    2    3    3    0    0 -0.36487286922E+02  0.14552709543E+02  0.92124557148E+02  0.12758039141E+03  0.79036186522E+02 0.  0.
          6    2    1    2  501    0  0.35380334699E+02  0.49123420231E+02  0.18019402410E+03  0.25528420479E+03  0.17039736030E+03 0.  0.
         24    2    5    5    0    0  0.37453791410E+02  0.96031682938E+02  0.10953391224E+03  0.17031582396E+03  0.79905765392E+02 0.  0.
          5    1    5    5  501    0 -0.20734567110E+01 -0.46908262707E+02  0.70660111856E+02  0.84968380827E+02  0.47000000000E+01 0. -1.
        -11    1    6    6    0    0 -0.45819035288E+01  0.55362628164E+02  0.94996755501E+02  0.11004725345E+03  0.00000000000E+00 0.  1.
         12    1    6    6    0    0  0.42035694939E+02  0.40669054774E+02  0.14537156741E+02  0.60268570510E+02  0.00000000000E+00 0. -1.
         -5    1    3    3    0  503  0.11069522233E+01 -0.63676129774E+02 -0.21239781463E+02  0.67298537598E+02  0.47000000000E+01 0.  1.
         11    1    4    4    0    0 -0.34269192476E+02  0.16425764586E+02  0.26886776407E+01  0.38097405195E+02  0.00000000000E+00 0. -1.
        -12    1    4    4    0    0 -0.22180944468E+01 -0.18730550431E+01  0.89435879507E+02  0.89482986212E+02  0.00000000000E+00 0.  1.
</event>
<event>
12    1  0.1040325E-001  0.1987321E+03  0.7818608E-02  0.1151213E+00
         21   -1    0    0  501  502  0.00000000000E+00  0.00000000000E+00  0.24696347065E+04  0.24696347065E+04  0.00000000000E+00 0.  1.
         21   -1    0    0  502  503 -0.00000000000E+00 -0.00000000000E+00 -0.18105352928E+02  0.18105352928E+02  0.00000000000E+00 0.  1.
         -6    2    1    2    0  503 -0.96108862336E+02  0.38773731516E+01  0.78087906359E+03  0.80531120500E+03  0.17176168810E+03 0.  0.
        -24    2    3    3    0    0 -0.44101390746E+02  0.57505002413E+02  0.59752829838E+03  0.60727006577E+03  0.80530164863E+02 0.  0.
          6    2    1    2  501    0  0.96108862336E+02 -0.38773731516E+01  0.16706502900E+04  0.16824288544E+04  0.17390374165E+03 0.  0.
         24    2    5    5    0    0  0.14181517906E+02  0.46667493401E+02  0.72241847566E+03  0.72931158096E+03  0.87338180387E+02 0.  0.
          5    1    5    5  501    0  0.81927344430E+02 -0.50544866552E+02  0.94823181430E+03  0.95311727345E+03  0.47000000000E+01 0. -1.
        -11    1    6    6    0    0  0.44131080080E+02  0.53308726934E+02  0.51867811839E+03  0.52327465360E+03  0.00000000000E+00 0.  1.
         12    1    6    6    0    0 -0.29949562174E+02 -0.66412335335E+01  0.20374035727E+03  0.20603692736E+03  0.00000000000E+00 0. -1.
         -5    1    3    3    0  503 -0.52007471590E+02 -0.53627629262E+02  0.18335076521E+03  0.19804113923E+03  0.47000000000E+01 0.  1.
         13    1    4    4    0    0 -0.31202350472E+02  0.74515669608E+02  0.53796038757E+03  0.54399223366E+03  0.00000000000E+00 0. -1.
        -14    1    4    4    0    0 -0.12899040274E+02 -0.17010667195E+02  0.59567910810E+02  0.63277832111E+02  0.00000000000E+00 0.  1.
</event>
<event>
12    1  0.1040325E-001  0.2127286E+03  0.7818608E-02  0.1139626E+00
         21   -1    0    0  501  502  0.00000000000E+00  0.00000000000E+00  0.15542822946E+03  0.15542822946E+03  0.00000000000E+00 0. -1.
         21   -1    0    0  502  503 -0.00000000000E+00 -0.00000000000E+00 -0.57532108614E+03  0.57532108614E+03  0.00000000000E+00 0. -1.
         -6    2    1    2    0  503  0.67452720220E+02  0.10205482026E+03 -0.46763290147E+03  0.51374505468E+03  0.17403561380E+03 0.  0.
        -24    2    3    3    0    0  0.72624495510E+02  0.78084105009E+02 -0.16994051364E+03  0.21500739348E+03  0.77310777200E+02 0.  0.
          6    2    1    2  501    0 -0.67452720220E+02 -0.10205482026E+03  0.47740044790E+02  0.21700426092E+03  0.17276192166E+03 0.  0.
         24    2    5    5    0    0 -0.62394821349E+02 -0.20883340477E+01  0.58711470865E+02  0.11620077439E+03  0.78473615230E+02 0.  0.
          5    1    5    5  501    0 -0.50578988708E+01 -0.99966486207E+02 -0.10971426075E+02  0.10080348653E+03  0.47000000000E+01 0. -1.
        -11    1    6    6    0    0 -0.29408485312E+02 -0.39657927781E+02  0.36982707406E+02  0.61687364114E+02  0.00000000000E+00 0.  1.
         12    1    6    6    0    0 -0.32986336037E+02  0.37569593733E+02  0.21728763459E+02  0.54513410276E+02  0.00000000000E+00 0. -1.
         -5    1    3    3    0  503 -0.51717752906E+01  0.23970715246E+02 -0.29769238783E+03  0.29873766120E+03  0.47000000000E+01 0.  1.
         11    1    4    4    0    0  0.40579653699E+02  0.62371382116E+02 -0.49452215108E+02  0.89344385277E+02  0.00000000000E+00 0. -1.
        -12    1    4    4    0    0  0.32044841811E+02  0.15712722893E+02 -0.12048829853E+03  0.12566300820E+03  0.00000000000E+00 0.  1.
</event>
<event>
12    1  0.1040325E-001  0.1792528E+03  0.7818608E-02  0.1170173E+00
         21   -1    0    0  501  502  0.00000000000E+00  0.00000000000E+00  0.68868921960E+03  0.68868921960E+03  0.00000000000E+00 0. -1.
         21   -1    0    0  502  503 -0.00000000000E+00 -0.00000000000E+00 -0.76331718519E+02  0.76331718519E+02  0.00000000000E+00 0. -1.
         -6    2    1    2    0  503 -0.55899822863E+01  0.50147940232E+02  0.64327484068E+02  0.19044575268E+03  0.17200434789E+03 0.  0.
        -24    2    3    3    0    0  0.15972203841E+02  0.97142393149E+02  0.35818303572E+02  0.13121510311E+03  0.79010737061E+02 0.  0.
          6    2    1    2  501    0  0.55899822863E+01 -0.50147940232E+02  0.54803001702E+03  0.57457518545E+03  0.16508688733E+03 0.  0.
         24    2    5    5    0    0  0.24180565555E+02 -0.88526623447E+02  0.47152834802E+03  0.48686470449E+03  0.79224962447E+02 0.  0.
          5    1    5    5  501    0 -0.18590583268E+02  0.38378683215E+02  0.76501668992E+02  0.87710480959E+02  0.47000000000E+01 0. -1.
        -13    1    6    6    0    0 -0.28489588236E+02 -0.28778657995E+02  0.19116272463E+03  0.19540484918E+03  0.00000000000E+00 0.  1.
         14    1    6    6    0    0  0.52670153790E+02 -0.59747965452E+02  0.28036562340E+03  0.29145985531E+03  0.00000000000E+00 0. -1.
         -5    1    3    3    0  503 -0.21562186127E+02 -0.46994452918E+02  0.28509180497E+02  0.59230649568E+02  0.47000000000E+01 0.  1.
         13    1    4    4    0    0 -0.13211430801E+02 -0.87153183102E+01  0.88964997843E+01  0.18156166596E+02  0.00000000000E+00 0. -1.
        -14    1    4    4    0    0  0.29183634642E+02  0.10585771146E+03  0.26921803787E+02  0.11305893651E+03  0.00000000000E+00 0.  1.
</event>
<event>
12    1  0.1040325E-001  0.2498923E+03  0.7818608E-02  0.1114809E+00
         21   -1    0    0  503  502  0.00000000000E+00  0.00000000000E+00  0.41297808849E+03  0.41297808849E+03  0.00000000000E+00 0. -1.
         21   -1    0    0  501  503 -0.00000000000E+00 -0.00000000000E+00 -0.20643963658E+03  0.20643963658E+03  0.00000000000E+00 0.  1.
          6    2    1    2  501    0  0.86430372891E+02  0.14413946974E+03  0.27233655619E+03  0.36961247302E+03  0.18493183686E+03 0.  0.
         24    2    3    3    0    0  0.69267990470E+01  0.99878485306E+01  0.32578887841E+02  0.83564740544E+02  0.75986474230E+02 0.  0.
         -6    2    1    2    0  502 -0.86430372891E+02 -0.14413946974E+03 -0.65798104280E+02  0.24980525205E+03  0.17270459557E+03 0.  0.
        -24    2    5    5    0    0 -0.48291612909E+02 -0.15903444713E+03 -0.87185063298E+02  0.20337339466E+03  0.78329222784E+02 0.  0.
          5    1    3    3  501    0  0.79503573844E+02  0.13415162121E+03  0.23975766835E+03  0.28604773248E+03  0.47000000000E+01 0. -1.
        -13    1    4    4    0    0 -0.21798506864E+02  0.24925728969E+02 -0.55165100707E+01  0.33569312615E+02  0.00000000000E+00 0.  1.
         14    1    4    4    0    0  0.28725305911E+02 -0.14937880438E+02  0.38095397912E+02  0.49995427928E+02  0.00000000000E+00 0. -1.
         -5    1    5    5    0  502 -0.38138759982E+02  0.14894977395E+02  0.21386959018E+02  0.46431857389E+02  0.47000000000E+01 0.  1.
         13    1    6    6    0    0 -0.15324310690E+02  0.18323490893E+01 -0.21607315698E+02  0.26553118329E+02  0.00000000000E+00 0. -1.
        -14    1    6    6    0    0 -0.32967302219E+02 -0.16086679622E+03 -0.65577747600E+02  0.17682027633E+03  0.00000000000E+00 0.  1.
</event>
<event>
12    1  0.1040325E-001  0.1755054E+03  0.7818608E-02  0.1172296E+00
         21   -1    0    0  501  502  0.00000000000E+00  0.00000000000E+00  0.30176028800E+02  0.30176028800E+02  0.00000000000E+00 0. -1.
         21   -1    0    0  502  503 -0.00000000000E+00 -0.00000000000E+00 -0.19548509672E+04  0.19548509672E+04  0.00000000000E+00 0. -1.
         -6    2    1    2    0  503 -0.31770655695E+02 -0.11770831474E+02 -0.16486207010E+04  0.16579061093E+04  0.17191429426E+03 0.  0.
        -24    2    3    3    0    0 -0.18688730668E+02 -0.74392737387E+02 -0.97882595594E+03  0.98504674040E+03  0.79581911955E+02 0.  0.
          6    2    1    2  501    0  0.31770655695E+02  0.11770831474E+02 -0.27605423746E+03  0.32712088673E+03  0.17220396475E+03 0.  0.
         24    2    5    5    0    0  0.39245767973E+02 -0.44894420747E+02 -0.24039906884E+03  0.25959156597E+03  0.77719556764E+02 0.  0.
          5    1    5    5  501    0 -0.74751122777E+01  0.56665252221E+02 -0.35655168621E+02  0.67529320759E+02  0.47000000000E+01 0. -1.
        -11    1    6    6    0    0 -0.80713768258E+00  0.80012762874E+01 -0.13372733233E+03  0.13396891918E+03  0.00000000000E+00 0.  1.
         12    1    6    6    0    0  0.40052905656E+02 -0.52895697034E+02 -0.10667173651E+03  0.12562264679E+03  0.00000000000E+00 0. -1.
         -5    1    3    3    0  503 -0.13081925027E+02  0.62621905913E+02 -0.66979474503E+03  0.67285936892E+03  0.47000000000E+01 0.  1.
         13    1    4    4    0    0 -0.17417233648E+02 -0.56791443369E+02 -0.94525878138E+03  0.94712343010E+03  0.00000000000E+00 0. -1.
        -14    1    4    4    0    0 -0.12714970197E+01 -0.17601294018E+02 -0.33567174560E+02  0.37923310295E+02  0.00000000000E+00 0.  1.
</event>
<event>
12    1  0.1040325E-001  0.1731348E+03  0.7818608E-02  0.1175380E+00
         21   -1    0    0  503  502  0.00000000000E+00  0.00000000000E+00  0.52564433440E+02  0.52564433440E+02  0.00000000000E+00 0. -1.
         21   -1    0    0  501  503 -0.00000000000E+00 -0.00000000000E+00 -0.67930878464E+03  0.67930878464E+03  0.00000000000E+00 0. -1.
          6    2    1    2  501    0 -0.15562479351E+02 -0.68289107230E+01 -0.46861276085E+03  0.49957340162E+03  0.17229869179E+03 0.  0.
         24    2    3    3    0    0 -0.10247531698E+02 -0.16968298253E+02 -0.47527051978E+03  0.48552094269E+03  0.97239826044E+02 0.  0.
         -6    2    1    2    0  502  0.15562479351E+02  0.68289107230E+01 -0.15813159035E+03  0.23229981645E+03  0.16931857569E+03 0.  0.
        -24    2    5    5    0    0  0.52283296211E+02  0.59627002591E+01 -0.16876797975E+03  0.19377201492E+03  0.79346492801E+02 0.  0.
          5    1    3    3  501    0 -0.53149476528E+01  0.10139387530E+02  0.66577589294E+01  0.14052458931E+02  0.47000000000E+01 0. -1.
        -13    1    4    4    0    0  0.13648291660E+02  0.33702457408E+02 -0.10690010513E+03  0.11291485278E+03  0.00000000000E+00 0.  1.
         14    1    4    4    0    0 -0.23895823358E+02 -0.50670755662E+02 -0.36837041465E+03  0.37260608991E+03  0.00000000000E+00 0. -1.
         -5    1    5    5    0  502 -0.36720816860E+02  0.86621046392E+00  0.10636389404E+02  0.38527801534E+02  0.47000000000E+01 0.  1.
         13    1    6    6    0    0  0.47168979278E+01  0.34486456901E+02 -0.97094036728E+02  0.10314464021E+03  0.00000000000E+00 0. -1.
        -14    1    6    6    0    0  0.47566398283E+02 -0.28523756642E+02 -0.71673943023E+02  0.90627374711E+02  0.00000000000E+00 0.  1.
</event>
<event>
12    1  0.1040325E-001  0.2051728E+03  0.7818608E-02  0.1146970E+00
         21   -1    0    0  501  502  0.00000000000E+00  0.00000000000E+00  0.27709697730E+03  0.27709697730E+03  0.00000000000E+00 0.  1.
         21   -1    0    0  502  503 -0.00000000000E+00 -0.00000000000E+00 -0.27580219087E+03  0.27580219087E+03  0.00000000000E+00 0.  1.
         -6    2    1    2    0  503 -0.73473160035E+02  0.69295993121E+02 -0.18859518415E+03  0.27333864541E+03  0.17013415790E+03 0.  0.
        -24    2    3    3    0    0 -0.81175645612E+02  0.10427336369E+03 -0.17948632792E+03  0.23608537713E+03  0.77836646698E+02 0.  0.
          6    2    1    2  501    0  0.73473160035E+02 -0.69295993121E+02  0.18988997058E+03  0.27956052277E+03  0.17859351908E+03 0.  0.
         24    2    5    5    0    0  0.57007961889E+02 -0.11275061656E+03  0.17852904429E+03  0.23149215797E+03  0.75851106065E+02 0.  0.
          5    1    5    5  501    0  0.16465198146E+02  0.43454623443E+02  0.11360926286E+02  0.48068364801E+02  0.47000000000E+01 0. -1.
        -11    1    6    6    0    0  0.58046804734E+02 -0.83866978645E+02  0.82428429511E+02  0.13113942061E+03  0.00000000000E+00 0.  1.
         12    1    6    6    0    0 -0.10388428449E+01 -0.28883637919E+02  0.96100614780E+02  0.10035273736E+03  0.00000000000E+00 0. -1.
         -5    1    3    3    0  503  0.77024855774E+01 -0.34977370567E+02 -0.91088562298E+01  0.37253268282E+02  0.47000000000E+01 0.  1.
         11    1    4    4    0    0 -0.44035262139E+01  0.68516480977E+02 -0.82106493262E+02  0.10702978765E+03  0.00000000000E+00 0. -1.
        -12    1    4    4    0    0 -0.76772119398E+02  0.35756882710E+02 -0.97379834654E+02  0.12905558948E+03  0.00000000000E+00 0.  1.
</event>
<event>
12    1  0.1040325E-001  0.2001973E+03  0.7818608E-02  0.1149623E+00
         21   -1    0    0  501  502  0.00000000000E+00  0.00000000000E+00  0.90152718120E+03  0.90152718120E+03  0.00000000000E+00 0. -1.
         21   -1    0    0  502  503 -0.00000000000E+00 -0.00000000000E+00 -0.69290322397E+02  0.69290322397E+02  0.00000000000E+00 0.  1.
         -6    2    1    2    0  503 -0.31270254608E+02 -0.98963743798E+02  0.12505053266E+03  0.23584032608E+03  0.17091334728E+03 0.  0.
        -24    2    3    3    0    0  0.24967505113E+02 -0.35230125349E+02  0.11438614905E+03  0.15004709315E+03  0.86979313777E+02 0.  0.
          6    2    1    2  501    0  0.31270254608E+02  0.98963743798E+02  0.70718632614E+03  0.73497717752E+03  0.17119375040E+03 0.  0.
         24    2    5    5    0    0  0.23044803054E+02  0.13742319557E+03  0.57106908322E+03  0.59321406065E+03  0.79792395064E+02 0.  0.
          5    1    5    5  501    0  0.82254515539E+01 -0.38459451771E+02  0.13611724292E+03  0.14176311687E+03  0.47000000000E+01 0. -1.
        -11    1    6    6    0    0  0.48287248656E+02  0.12014042344E+03  0.44245471863E+03  0.46101145079E+03  0.00000000000E+00 0.  1.
         12    1    6    6    0    0 -0.25242445602E+02  0.17282772134E+02  0.12861436459E+03  0.13220260985E+03  0.00000000000E+00 0. -1.
         -5    1    3    3    0  503 -0.56237759721E+02 -0.63733618449E+02  0.10664383615E+02  0.85793232933E+02  0.47000000000E+01 0.  1.
         11    1    4    4    0    0 -0.73660541342E+01  0.28922957495E+01  0.96699265418E+02  0.97022533777E+02  0.00000000000E+00 0. -1.
        -12    1    4    4    0    0  0.32333559248E+02 -0.38122421098E+02  0.17686883628E+02  0.53024559371E+02  0.00000000000E+00 0.  1.
</event>
<event>
12    1  0.1040325E-001  0.1772705E+03  0.7818608E-02  0.1170841E+00
         21   -1    0    0  503  502  0.00000000000E+00  0.00000000000E+00  0.68487852364E+02  0.68487852364E+02  0.00000000000E+00 0. -1.
         21   -1    0    0  501  503 -0.00000000000E+00 -0.00000000000E+00 -0.55624108647E+03  0.55624108647E+03  0.00000000000E+00 0. -1.
          6    2    1    2  501    0 -0.29381893977E+02  0.15273540440E+02 -0.37798992981E+03  0.41749396650E+03  0.17415007407E+03 0.  0.
         24    2    3    3    0    0  0.46077740059E+02  0.37569027080E+02 -0.23436402360E+03  0.25365948897E+03  0.76694529546E+02 0.  0.
         -6    2    1    2    0  502  0.29381893977E+02 -0.15273540440E+02 -0.10976330430E+03  0.20723497233E+03  0.17263190335E+03 0.  0.
        -24    2    5    5    0    0  0.80347049787E+02 -0.15772627173E+02 -0.10630870726E+03  0.15593467570E+03  0.79433353616E+02 0.  0.
          5    1    3    3  501    0 -0.75459634036E+02 -0.22295486640E+02 -0.14362590620E+03  0.16383447753E+03  0.47000000000E+01 0. -1.
        -11    1    4    4    0    0  0.55399539542E+02 -0.28451398207E+01 -0.13951829969E+03  0.15014179881E+03  0.00000000000E+00 0.  1.
         12    1    4    4    0    0 -0.93217994829E+01  0.40414166901E+02 -0.94845723911E+02  0.10351769016E+03  0.00000000000E+00 0. -1.
         -5    1    5    5    0  502 -0.50965155810E+02  0.49908673335E+00 -0.34545970323E+01  0.51300296636E+02  0.47000000000E+01 0.  1.
         11    1    6    6    0    0  0.54727543233E+02 -0.12285606441E+02 -0.10970145406E+02  0.57152289579E+02  0.00000000000E+00 0. -1.
        -12    1    6    6    0    0  0.25619506554E+02 -0.34870207325E+01 -0.95338561858E+02  0.98782386117E+02  0.00000000000E+00 0.  1.
</event>
<event>
12    1  0.1040325E-001  0.2219491E+03  0.7818608E-02  0.1132460E+00
         21   -1    0    0  501  502  0.00000000000E+00  0.00000000000E+00  0.47450310054E+02  0.47450310054E+02  0.00000000000E+00 0. -1.
         21   -1    0    0  502  503 -0.00000000000E+00 -0.00000000000E+00 -0.14186225459E+04  0.14186225459E+04  0.00000000000E+00 0. -1.
         -6    2    1    2    0  503 -0.92943632818E+02 -0.10402782892E+03 -0.10656028947E+04  0.10884718302E+04  0.17262991599E+03 0.  0.
        -24    2    3    3    0    0 -0.98940554464E+02 -0.13385012057E+03 -0.99521273516E+03  0.10116460747E+04  0.72624404659E+02 0.  0.
          6    2    1    2  501    0  0.92943632818E+02  0.10402782892E+03 -0.30556934115E+03  0.37760102575E+03  0.17248073609E+03 0.  0.
         24    2    5    5    0    0  0.66323627423E+01  0.14044545615E+02 -0.58915286990E+02  0.10118297451E+03  0.80782088313E+02 0.  0.
          5    1    5    5  501    0  0.86311270075E+02  0.89983283309E+02 -0.24665405416E+03  0.27641805124E+03  0.47000000000E+01 0. -1.
        -11    1    6    6    0    0 -0.34381179915E+02 -0.26684465639E+01 -0.40569783220E+02  0.53245595592E+02  0.00000000000E+00 0.  1.
         12    1    6    6    0    0  0.41013542657E+02  0.16712992179E+02 -0.18345503769E+02  0.47937378917E+02  0.00000000000E+00 0. -1.
         -5    1    3    3    0  503  0.59969216463E+01  0.29822291647E+02 -0.70390159527E+02  0.76825755489E+02  0.47000000000E+01 0.  1.
         11    1    4    4    0    0 -0.59569951446E+02 -0.39890905373E+02 -0.27183883634E+03  0.28113380513E+03  0.00000000000E+00 0. -1.
        -12    1    4    4    0    0 -0.39370603018E+02 -0.93959215198E+02 -0.72337389882E+03  0.73051226957E+03  0.00000000000E+00 0.  1.
</event>
<event>
12    1  0.1040325E-001  0.1775980E+03  0.7818608E-02  0.1170176E+00
         21   -1    0    0  501  502  0.00000000000E+00  0.00000000000E+00  0.21751492822E+03  0.21751492822E+03  0.00000000000E+00 0.  1.
         21   -1    0    0  502  503 -0.00000000000E+00 -0.00000000000E+00 -0.15327229102E+03  0.15327229102E+03  0.00000000000E+00 0.  1.
         -6    2    1    2    0  503 -0.17625639749E+02 -0.39787041012E+02  0.75426937109E+02  0.19295145170E+03  0.17218411094E+03 0.  0.
        -24    2    3    3    0    0 -0.36487211475E+02  0.39297014873E+02  0.45657030022E+02  0.10624283534E+03  0.79544979043E+02 0.  0.
          6    2    1    2  501    0  0.17625639749E+02  0.39787041012E+02 -0.11184299903E+02  0.17783576755E+03  0.17206626585E+03 0.  0.
         24    2    5    5    0    0  0.38711713895E+02  0.75508581979E+02  0.38040182226E+02  0.11329283104E+03  0.64715279153E+02 0.  0.
          5    1    5    5  501    0 -0.21086074146E+02 -0.35721540967E+02 -0.49224482129E+02  0.64542936506E+02  0.47000000000E+01 0. -1.
        -13    1    6    6    0    0 -0.41282276722E+01  0.42871612847E+02 -0.63056425842E+01  0.43529054437E+02  0.00000000000E+00 0.  1.
         14    1    6    6    0    0  0.42839941567E+02  0.32636969133E+02  0.44345824810E+02  0.69763776602E+02  0.00000000000E+00 0. -1.
         -5    1    3    3    0  503  0.18861571726E+02 -0.79084055885E+02  0.29769907087E+02  0.86708616361E+02  0.47000000000E+01 0.  1.
         13    1    4    4    0    0 -0.63501487730E+01  0.55748398753E+02  0.10465746224E+02  0.57076616902E+02  0.00000000000E+00 0. -1.
        -14    1    4    4    0    0 -0.30137062702E+02 -0.16451383880E+02  0.35191283798E+02  0.49166218435E+02  0.00000000000E+00 0.  1.
</event>
<event>
12    1  0.1040325E-001  0.2289952E+03  0.7818608E-02  0.1127589E+00
         21   -1    0    0  503  502  0.00000000000E+00  0.00000000000E+00  0.64777525578E+03  0.64777525578E+03  0.00000000000E+00 0. -1.
         21   -1    0    0  501  503 -0.00000000000E+00 -0.00000000000E+00 -0.30739998454E+03  0.30739998454E+03  0.00000000000E+00 0.  1.
          6    2    1    2  501    0  0.14999129425E+03 -0.11352794274E+02 -0.24001858105E+03  0.33173438544E+03  0.17266299241E+03 0.  0.
         24    2    3    3    0    0  0.11376222693E+03 -0.40959866967E+02 -0.24299044255E+03  0.28461702099E+03  0.85690947538E+02 0.  0.
         -6    2    1    2    0  502 -0.14999129425E+03  0.11352794274E+02  0.58039385229E+03  0.62344085488E+03  0.17086603370E+03 0.  0.
        -24    2    5    5    0    0 -0.10653554202E+03 -0.12772790738E+02  0.20328675221E+03  0.24304329812E+03  0.78940327106E+02 0.  0.
          5    1    3    3  501    0  0.36229067319E+02  0.29607072693E+02  0.29718614994E+01  0.47117364454E+02  0.47000000000E+01 0. -1.
        -11    1    4    4    0    0  0.11576946077E+03 -0.18895081345E+02 -0.23181242153E+03  0.25980106028E+03  0.00000000000E+00 0.  1.
         12    1    4    4    0    0 -0.20072338355E+01 -0.22064785622E+02 -0.11178021013E+02  0.24815960710E+02  0.00000000000E+00 0. -1.
         -5    1    5    5    0  502 -0.43455752231E+02  0.24125585012E+02  0.37710710008E+03  0.38039755676E+03  0.47000000000E+01 0.  1.
         13    1    6    6    0    0 -0.11915619186E+03 -0.11315622846E+02  0.19076265826E+03  0.22520353719E+03  0.00000000000E+00 0. -1.
        -14    1    6    6    0    0  0.12620649844E+02 -0.14571678923E+01  0.12524093952E+02  0.17839760931E+02  0.00000000000E+00 0.  1.
</event>
<event>
12    1  0.1040325E-001  0.2168868E+03  0.7818608E-02  0.1136620E+00
         21   -1    0    0  501  502  0.00000000000E+00  0.00000000000E+00  0.31887846489E+02  0.31887846489E+02  0.00000000000E+00 0.  1.
         21   -1    0    0  502  503 -0.00000000000E+00 -0.00000000000E+00 -0.18170128055E+04  0.18170128055E+04  0.00000000000E+00 0. -1.
         -6    2    1    2    0  503  0.12928887737E+03  0.17361830206E+01 -0.12982373314E+04  0.13158908677E+04  0.17155167974E+03 0.  0.
        -24    2    3    3    0    0  0.10665922921E+03 -0.57227779935E+02 -0.10084478151E+04  0.10192616316E+04  0.85299871022E+02 0.  0.
          6    2    1    2  501    0 -0.12928887737E+03 -0.17361830206E+01 -0.48688762761E+03  0.53300978432E+03  0.17412995182E+03 0.  0.
         24    2    5    5    0    0 -0.91576328245E+02 -0.15245235836E+02 -0.15506037355E+03  0.19874021137E+03  0.82675940012E+02 0.  0.
          5    1    5    5  501    0 -0.37712549127E+02  0.13509052815E+02 -0.33182725406E+03  0.33426957296E+03  0.47000000000E+01 0. -1.
        -11    1    6    6    0    0 -0.17246707657E+02 -0.35814728984E+02 -0.23323387183E+02  0.46088221130E+02  0.00000000000E+00 0.  1.
         12    1    6    6    0    0 -0.74329620588E+02  0.20569493149E+02 -0.13173698637E+03  0.15265199024E+03  0.00000000000E+00 0. -1.
         -5    1    3    3    0  503  0.22629648166E+02  0.58963962956E+02 -0.28978951632E+03  0.29662923603E+03  0.47000000000E+01 0.  1.
         11    1    4    4    0    0 -0.66269693485E+01 -0.47038508513E+01 -0.28503723479E+03  0.28515306093E+03  0.00000000000E+00 0. -1.
        -12    1    4    4    0    0  0.11328619855E+03 -0.52523929084E+02 -0.72341058028E+03  0.73410857070E+03  0.00000000000E+00 0.  1.
</event>
<event>
12    1  0.1040325E-001  0.2318992E+03  0.7818608E-02  0.1127275E+00
         21   -1    0    0  501  502  0.00000000000E+00  0.00000000000E+00  0.98508335527E+02  0.98508335527E+02  0.00000000000E+00 0. -1.
         21   -1    0    0  502  503 -0.00000000000E+00 -0.00000000000E+00 -0.54773492537E+03  0.54773492537E+03  0.00000000000E+00 0.  1.
         -6    2    1    2    0  503 -0.12071929423E+03 -0.97075066724E+02 -0.29168092886E+03  0.36589010771E+03  0.15748361844E+03 0.  0.
        -24    2    3    3    0    0 -0.12759667635E+03 -0.41621732431E+02 -0.16220534446E+03  0.22479302189E+03  0.78791170150E+02 0.  0.
          6    2    1    2  501    0  0.12071929423E+03  0.97075066724E+02 -0.15754566098E+03  0.28035315319E+03  0.17257038747E+03 0.  0.
         24    2    5    5    0    0  0.11772588092E+03  0.69255291101E+02 -0.46998533147E+02  0.16622314876E+03  0.82253235080E+02 0.  0.
          5    1    5    5  501    0  0.29934133046E+01  0.27819775624E+02 -0.11054712783E+03  0.11413000443E+03  0.47000000000E+01 0. -1.
        -11    1    6    6    0    0  0.83773374901E+02  0.31787301249E+02 -0.66965369897E+02  0.11186050075E+03  0.00000000000E+00 0.  1.
         12    1    6    6    0    0  0.33952506022E+02  0.37467989852E+02  0.19966836750E+02  0.54362648008E+02  0.00000000000E+00 0. -1.
         -5    1    3    3    0  503  0.68773821257E+01 -0.55453334294E+02 -0.12947558440E+03  0.14109708582E+03  0.47000000000E+01 0.  1.
         13    1    4    4    0    0 -0.23521202413E+02 -0.32981134483E+01  0.48814686003E+01  0.24247747338E+02  0.00000000000E+00 0. -1.
        -14    1    4    4    0    0 -0.10407547394E+03 -0.38323618982E+02 -0.16708681306E+03  0.20054527456E+03  0.00000000000E+00 0.  1.
</event>
<event>
12    1  0.1040325E-001  0.1922172E+03  0.7818608E-02  0.1156634E+00
         21   -1    0    0  503  502  0.00000000000E+00  0.00000000000E+00  0.31473627269E+03  0.31473627269E+03  0.00000000000E+00 0.  1.
         21   -1    0    0  501  503 -0.00000000000E+00 -0.00000000000E+00 -0.15945867970E+03  0.15945867970E+03  0.00000000000E+00 0.  1.
          6    2    1    2  501    0 -0.83591567236E+02  0.17514923546E+02 -0.44867031981E+02  0.19669659126E+03  0.17141229768E+03 0.  0.
         24    2    3    3    0    0 -0.11322647530E+03 -0.19958269626E+02 -0.51386905856E+02  0.14825005642E+03  0.78223384615E+02 0.  0.
         -6    2    1    2    0  502  0.83591567236E+02 -0.17514923546E+02  0.20014462497E+03  0.27749836112E+03  0.17220089101E+03 0.  0.
        -24    2    5    5    0    0  0.80764256269E+02  0.35423162487E+02  0.74060940196E+02  0.14064215847E+03  0.80731210471E+02 0.  0.
          5    1    3    3  501    0  0.29634908065E+02  0.37473193171E+02  0.65198738755E+01  0.48446534838E+02  0.47000000000E+01 0. -1.
        -13    1    4    4    0    0  0.69347443694E+01  0.12027838064E+02 -0.49383194622E+00  0.13892567723E+02  0.00000000000E+00 0.  1.
         14    1    4    4    0    0 -0.12016121967E+03 -0.31986107689E+02 -0.50893073910E+02  0.13435748870E+03  0.00000000000E+00 0. -1.
         -5    1    5    5    0  502  0.28273109670E+01 -0.52938086033E+02  0.12608368477E+03  0.13685620266E+03  0.47000000000E+01 0.  1.
         11    1    6    6    0    0  0.62070924290E+02 -0.15732208600E+02  0.30632809726E+02  0.70983597129E+02  0.00000000000E+00 0. -1.
        -12    1    6    6    0    0  0.18693331979E+02  0.51155371087E+02  0.43428130470E+02  0.69658561338E+02  0.00000000000E+00 0.  1.
</event>
<event>
12    1  0.1040325E-001  0.2019976E+03  0.7818608E-02  0.1148190E+00
         21   -1    0    0  501  502  0.00000000000E+00  0.00000000000E+00  0.37053550166E+03  0.37053550166E+03  0.00000000000E+00 0. -1.
         21   -1    0    0  502  503 -0.00000000000E+00 -0.00000000000E+00 -0.24247214384E+03  0.24247214384E+03  0.00000000000E+00 0. -1.
         -6    2    1    2    0  503 -0.10456847903E+03  0.83306969262E+01 -0.16274194356E+03  0.25893029063E+03  0.17191855017E+03 0.  0.
        -24    2    3    3    0    0  0.10403983779E+02  0.23824186177E+02 -0.85021794192E+02  0.11921190590E+03  0.79416234449E+02 0.  0.
          6    2    1    2  501    0  0.10456847903E+03 -0.83306969262E+01  0.29080530138E+03  0.35407735487E+03  0.17262410783E+03 0.  0.
         24    2    5    5    0    0 -0.11507139191E+02 -0.21995264049E+02  0.14814820671E+03  0.16959590269E+03  0.78731652871E+02 0.  0.
          5    1    5    5  501    0  0.11607561822E+03  0.13664567122E+02  0.14265709467E+03  0.18448145219E+03  0.47000000000E+01 0. -1.
        -13    1    6    6    0    0 -0.28848655092E+02  0.20156130121E+02  0.47577651405E+02  0.59178943851E+02  0.00000000000E+00 0.  1.
         14    1    6    6    0    0  0.17341515901E+02 -0.42151394170E+02  0.10057055531E+03  0.11041695884E+03  0.00000000000E+00 0. -1.
         -5    1    3    3    0  503 -0.11497246281E+03 -0.15493489251E+02 -0.77720149369E+02  0.13971838473E+03  0.47000000000E+01 0.  1.
         13    1    4    4    0    0 -0.34686688040E+02  0.80561677929E+01 -0.40259785420E+02  0.53748660344E+02  0.00000000000E+00 0. -1.
        -14    1    4    4    0    0  0.45090671819E+02  0.15768018384E+02 -0.44762008772E+02  0.65463245552E+02  0.00000000000E+00 0.  1.
</event>
<event>
12    1  0.1040325E-001  0.1883457E+03  0.7818608E-02  0.1160089E+00
         21   -1    0    0  501  502  0.00000000000E+00  0.00000000000E+00  0.10600454543E+03  0.10600454543E+03  0.00000000000E+00 0. -1.
         21   -1    0    0  502  503 -0.00000000000E+00 -0.00000000000E+00 -0.45104633735E+03  0.45104633735E+03  0.00000000000E+00 0. -1.
         -6    2    1    2    0  503  0.59701349390E+02 -0.47484761609E+02 -0.31480230492E+03  0.36684408569E+03  0.17220638293E+03 0.  0.
        -24    2    3    3    0    0  0.16134841223E+02 -0.33642579924E+02 -0.30791622269E+03  0.32037737981E+03  0.80231596100E+02 0.  0.
          6    2    1    2  501    0 -0.59701349390E+02  0.47484761609E+02 -0.30239486997E+02  0.19020679708E+03  0.17159587809E+03 0.  0.
         24    2    5    5    0    0 -0.18601514112E+02 -0.91093451308E+00 -0.76481692452E+02  0.11151898717E+03  0.78994867495E+02 0.  0.
          5    1    5    5  501    0 -0.41099835278E+02  0.48395696122E+02  0.46242205455E+02  0.78687809910E+02  0.47000000000E+01 0. -1.
        -13    1    6    6    0    0  0.22519066924E+02 -0.18827934087E+02 -0.93973629601E+01  0.30820608490E+02  0.00000000000E+00 0.  1.
         14    1    6    6    0    0 -0.41120581036E+02  0.17916999574E+02 -0.67084329492E+02  0.80698378681E+02  0.00000000000E+00 0. -1.
         -5    1    3    3    0  503  0.43566508167E+02 -0.13842181685E+02 -0.68860822335E+01  0.46466705889E+02  0.47000000000E+01 0.  1.
         11    1    4    4    0    0  0.13188668771E+02 -0.42965807539E+02 -0.76288789787E+02  0.88543667468E+02  0.00000000000E+00 0. -1.
        -12    1    4    4    0    0  0.29461724526E+01  0.93232276148E+01 -0.23162743290E+03  0.23183371234E+03  0.00000000000E+00 0.  1.
</event>
<event>
12    1  0.1040325E-001  0.1743581E+03  0.7818608E-02  0.1173848E+00
         21   -1    0    0  501  502  0.00000000000E+00  0.00000000000E+00  0.52852669806E+03  0.52852669806E+03  0.00000000000E+00 0. -1.
         21   -1    0    0  502  503 -0.00000000000E+00 -0.00000000000E+00 -0.60384196305E+02  0.60384196305E+02  0.00000000000E+00 0. -1.
         -6    2    1    2    0  503 -0.39156965068E+01 -0.24239572561E+02  0.30587933272E+03  0.35208365804E+03  0.17262052751E+03 0.  0.
        -24    2    3    3    0    0 -0.40739300767E+02 -0.56978943746E+02  0.27226345901E+03  0.29225088089E+03  0.79855467026E+02 0.  0.
          6    2    1    2  501    0  0.39156965068E+01  0.24239572561E+02  0.16226316904E+03  0.23682723632E+03  0.17074810184E+03 0.  0.
         24    2    5    5    0    0 -0.46116372422E+02  0.40427463875E+02  0.50813311887E+02  0.11350482796E+03  0.80871834799E+02 0.  0.
          5    1    5    5  501    0  0.50032068929E+02 -0.16187891315E+02  0.11144985715E+03  0.12332240837E+03  0.47000000000E+01 0. -1.
        -11    1    6    6    0    0 -0.84658533923E+01 -0.24648766158E+02  0.16628271371E+02  0.30914911540E+02  0.00000000000E+00 0.  1.
         12    1    6    6    0    0 -0.37650519030E+02  0.65076230033E+02  0.34185040516E+02  0.82589916416E+02  0.00000000000E+00 0. -1.
         -5    1    3    3    0  503  0.36823604260E+02  0.32739371185E+02  0.33615873713E+02  0.59832777152E+02  0.47000000000E+01 0.  1.
         11    1    4    4    0    0  0.16226389510E+02 -0.43106742720E+02  0.14481044875E+03  0.15195905058E+03  0.00000000000E+00 0. -1.
        -12    1    4    4    0    0 -0.56965690276E+02 -0.13872201026E+02  0.12745301026E+03  0.14029183032E+03  0.00000000000E+00 0.  1.
</event>
<event>
12    1  0.1040325E-001  0.2061190E+03  0.7818608E-02  0.1144801E+00
         21   -1    0    0  501  502  0.00000000000E+00  0.00000000000E+00  0.15019493197E+03  0.15019493197E+03  0.00000000000E+00 0.  1.
         21   -1    0    0  502  503 -0.00000000000E+00 -0.00000000000E+00 -0.28394663206E+03  0.28394663206E+03  0.00000000000E+00 0.  1.
         -6    2    1    2    0  503 -0.11240647752E+03 -0.11550790106E+01 -0.48914376846E+02  0.21124607134E+03  0.17203411289E+03 0.  0.
        -24    2    3    3    0    0 -0.94451092962E+02 -0.54399398409E+02  0.36158871708E+01  0.13418199397E+03  0.78175631482E+02 0.  0.
          6    2    1    2  501    0  0.11240647752E+03  0.11550790106E+01 -0.84837323248E+02  0.22289549269E+03  0.17276712318E+03 0.  0.
         24    2    5    5    0    0  0.12829901093E+03  0.12077622606E+02 -0.11286028247E+03  0.18855527109E+03  0.78798107353E+02 0.  0.
          5    1    5    5  501    0 -0.15892533409E+02 -0.10922543596E+02  0.28022959219E+02  0.34340221609E+02  0.47000000000E+01 0. -1.
        -13    1    6    6    0    0  0.10762189755E+01  0.16060329571E+02  0.30725476094E+01  0.16386975988E+02  0.00000000000E+00 0.  1.
         14    1    6    6    0    0  0.12722279195E+03 -0.39827069648E+01 -0.11593283008E+03  0.17216829510E+03  0.00000000000E+00 0. -1.
         -5    1    3    3    0  503 -0.17955384559E+02  0.53244319398E+02 -0.52530264016E+02  0.77064077367E+02  0.47000000000E+01 0.  1.
         11    1    4    4    0    0  0.79856092072E+01  0.58456056099E+00 -0.14455901479E+02  0.16525276186E+02  0.00000000000E+00 0. -1.
        -12    1    4    4    0    0 -0.10243670217E+03 -0.54983958970E+02  0.18071788650E+02  0.11765671779E+03  0.00000000000E+00 0.  1.
</event>
<event>
12    1  0.1209822E-001  0.2421994E+03  0.7818608E-02  0.1118504E+00
         21   -1    0    0  503  502  0.00000000000E+00  0.00000000000E+00  0.31493348869E+03  0.31493348869E+03  0.00000000000E+00 0.  1.
         21   -1    0    0  501  503 -0.00000000000E+00 -0.00000000000E+00 -0.21078771630E+03  0.21078771630E+03  0.00000000000E+00 0.  1.
          6    2    1    2  501    0  0.12120966932E+03  0.95278789938E+02 -0.38909714782E+02  0.24530497525E+03  0.18679061334E+03 0.  0.
         24    2    3    3    0    0  0.67677404357E+02  0.13793538064E+03 -0.27690133347E+02  0.17578334459E+03  0.80787625654E+02 0.  0.
         -6    2    1    2    0  502 -0.12120966932E+03 -0.95278789938E+02  0.14305548718E+03  0.28041622974E+03  0.18546848181E+03 0.  0.
        -24    2    5    5    0    0 -0.40936874485E+02 -0.70122933134E+01  0.13353876271E+03  0.16063578868E+03  0.79033255715E+02 0.  0.
          5    1    3    3  501    0  0.53532264960E+02 -0.42656590700E+02 -0.11219581435E+02  0.69521630659E+02  0.47000000000E+01 0. -1.
        -11    1    4    4    0    0  0.54937716096E+02  0.25798774277E+02 -0.11416671938E+02  0.61758155755E+02  0.00000000000E+00 0.  1.
         12    1    4    4    0    0  0.12739688261E+02  0.11213660636E+03 -0.16273461409E+02  0.11402518884E+03  0.00000000000E+00 0. -1.
         -5    1    5    5    0  502 -0.80272794833E+02 -0.88266496624E+02  0.95167244684E+01  0.11978044106E+03  0.47000000000E+01 0.  1.
         13    1    6    6    0    0  0.21626155990E+02 -0.71961297462E+01  0.17243617283E+02  0.28580014752E+02  0.00000000000E+00 0. -1.
        -14    1    6    6    0    0 -0.62563030475E+02  0.18383643279E+00  0.11629514543E+03  0.13205577393E+03  0.00000000000E+00 0.  1.
</event>
<event>
12    1  0.1040325E-001  0.2649100E+03  0.7818608E-02  0.1104236E+00
         21   -1    0    0  501  502  0.00000000000E+00  0.00000000000E+00  0.29686674614E+03  0.29686674614E+03  0.00000000000E+00 0.  1.
         21   -1    0    0  502  503 -0.00000000000E+00 -0.00000000000E+00 -0.48204749462E+03  0.48204749462E+03  0.00000000000E+00 0. -1.
         -6    2    1    2    0  503 -0.41251909212E+02 -0.19802978255E+03 -0.37064147545E+03  0.45557920971E+03  0.17105495669E+03 0.  0.
        -24    2    3    3    0    0 -0.10043982297E+02 -0.16657378071E+03 -0.17421739776E+03  0.25416440625E+03  0.80000860791E+02 0.  0.
          6    2    1    2  501    0  0.41251909212E+02  0.19802978255E+03  0.18546072697E+03  0.32333503105E+03  0.17097469481E+03 0.  0.
         24    2    5    5    0    0  0.24852746848E+02  0.18212438445E+02  0.32021084765E+02  0.86334981330E+02  0.74020451171E+02 0.  0.
          5    1    5    5  501    0  0.16399162363E+02  0.17981734411E+03  0.15343964220E+03  0.23700004972E+03  0.47000000000E+01 0. -1.
        -11    1    6    6    0    0  0.43255050504E+02  0.14737070481E+02  0.44537009604E+02  0.63810076515E+02  0.00000000000E+00 0.  1.
         12    1    6    6    0    0 -0.18402303656E+02  0.34753679640E+01 -0.12515924839E+02  0.22524904814E+02  0.00000000000E+00 0. -1.
         -5    1    3    3    0  503 -0.31207926914E+02 -0.31456001845E+02 -0.19642407769E+03  0.20141480346E+03  0.47000000000E+01 0.  1.
         13    1    4    4    0    0 -0.38281530536E+02 -0.12968709630E+03 -0.14936627848E+03  0.20148077743E+03  0.00000000000E+00 0. -1.
        -14    1    4    4    0    0  0.28237548239E+02 -0.36886684401E+02 -0.24851119279E+02  0.52683628824E+02  0.00000000000E+00 0.  1.
</event>
<event>
12    1  0.1040325E-001  0.1804816E+03  0.7818608E-02  0.1167647E+00
         21   -1    0    0  503  502  0.00000000000E+00  0.00000000000E+00  0.67178907654E+02  0.67178907654E+02  0.00000000000E+00 0.  1.
         21   -1    0    0  501  503 -0.00000000000E+00 -0.00000000000E+00 -0.57591213121E+03  0.57591213121E+03  0.00000000000E+00 0. -1.
          6    2    1    2  501    0 -0.23582586027E+02  0.46053244779E+02 -0.38534339229E+03  0.42551512835E+03  0.17290620219E+03 0.  0.
         24    2    3    3    0    0 -0.33303442779E+02  0.42131415856E+02 -0.39742482416E+03  0.40884399179E+03  0.79515679376E+02 0.  0.
         -6    2    1    2    0  502  0.23582586027E+02 -0.46053244779E+02 -0.12338983127E+03  0.21757591051E+03  0.17157268622E+03 0.  0.
        -24    2    5    5    0    0  0.34133979505E+02 -0.28797312925E+01 -0.17922131497E+02  0.10302980684E+03  0.95501397327E+02 0.  0.
          5    1    3    3  501    0  0.97208567520E+01  0.39218289234E+01  0.12081431869E+02  0.16671136557E+02  0.47000000000E+01 0. -1.
        -13    1    4    4    0    0 -0.39711125970E+02  0.10046220427E+02 -0.34228675662E+03  0.34472905858E+03  0.00000000000E+00 0.  1.
         14    1    4    4    0    0  0.64076831905E+01  0.32085195428E+02 -0.55138067537E+02  0.64114933215E+02  0.00000000000E+00 0. -1.
         -5    1    5    5    0  502 -0.10551393478E+02 -0.43173513487E+02 -0.10546769977E+03  0.11454610367E+03  0.47000000000E+01 0.  1.
         13    1    6    6    0    0 -0.14336655047E+02 -0.19159611528E+02 -0.40574291806E+02  0.47105239066E+02  0.00000000000E+00 0. -1.
        -14    1    6    6    0    0  0.48470634552E+02  0.16279880236E+02  0.22652160309E+02  0.55924567777E+02  0.00000000000E+00 0.  1.
</event>
<event>
12    1  0.1040325E-001  0.2090935E+03  0.7818608E-02  0.1142365E+00
         21   -1    0    0  501  502  0.00000000000E+00  0.00000000000E+00  0.69561068053E+03  0.69561068053E+03  0.00000000000E+00 0.  1.
         21   -1    0    0  502  503 -0.00000000000E+00 -0.00000000000E+00 -0.21105475327E+03  0.21105475327E+03  0.00000000000E+00 0.  1.
         -6    2    1    2    0  503 -0.10742544115E+03  0.49304103484E+02 -0.13768845538E+03  0.25035616627E+03  0.17247892399E+03 0.  0.
        -24    2    3    3    0    0 -0.14465253572E+03  0.35694883727E+02 -0.10990804241E+03  0.20172583852E+03  0.80094040529E+02 0.  0.
          6    2    1    2  501    0  0.10742544115E+03 -0.49304103484E+02  0.62224438264E+03  0.65630926752E+03  0.17199611299E+03 0.  0.
         24    2    5    5    0    0  0.10535929127E+02 -0.34684508707E+02  0.44815001192E+03  0.45647871429E+03  0.78869274532E+02 0.  0.
          5    1    5    5  501    0  0.96889512020E+02 -0.14619594777E+02  0.17409437071E+03  0.19983055323E+03  0.47000000000E+01 0. -1.
        -11    1    6    6    0    0  0.35263629554E+02 -0.46971737214E+02  0.28226039783E+03  0.28830678079E+03  0.00000000000E+00 0.  1.
         12    1    6    6    0    0 -0.24727700427E+02  0.12287228507E+02  0.16588961409E+03  0.16817193350E+03  0.00000000000E+00 0. -1.
         -5    1    3    3    0  503  0.37227094568E+02  0.13609219757E+02 -0.27780412970E+02  0.48630327751E+02  0.47000000000E+01 0.  1.
         11    1    4    4    0    0 -0.68522052702E+02 -0.23638167508E+02 -0.51353909115E+02  0.88832756633E+02  0.00000000000E+00 0. -1.
        -12    1    4    4    0    0 -0.76130483014E+02  0.59333051235E+02 -0.58554133292E+02  0.11289308189E+03  0.00000000000E+00 0.  1.
</event>
<event>
12    1  0.1040325E-001  0.1817061E+03  0.7818608E-02  0.1166379E+00
         21   -1    0    0  501  502  0.00000000000E+00  0.00000000000E+00  0.42907068743E+03  0.42907068743E+03  0.00000000000E+00 0. -1.
         21   -1    0    0  502  503 -0.00000000000E+00 -0.00000000000E+00 -0.89080649269E+02  0.89080649269E+02  0.00000000000E+00 0.  1.
         -6    2    1    2    0  503  0.43513391813E+02 -0.38347691680E+02  0.73257844460E+02  0.19591788052E+03  0.17220088098E+03 0.  0.
        -24    2    3    3    0    0  0.48377524925E+02 -0.89436646811E+02  0.44012323777E+02  0.13666307812E+03  0.80002584753E+02 0.  0.
          6    2    1    2  501    0 -0.43513391813E+02  0.38347691680E+02  0.26673219370E+03  0.32223345618E+03  0.17124361710E+03 0.  0.
         24    2    5    5    0    0 -0.94080665055E+02  0.42518434477E+02  0.20989846324E+03  0.24590124058E+03  0.75835786046E+02 0.  0.
          5    1    5    5  501    0  0.50567273241E+02 -0.41707427965E+01  0.56833730464E+02  0.76332215591E+02  0.47000000000E+01 0. -1.
        -13    1    6    6    0    0 -0.33411449929E+02  0.43765092253E+02  0.15342661838E+03  0.16300747073E+03  0.00000000000E+00 0.  1.
         14    1    6    6    0    0 -0.60669215125E+02 -0.12466577758E+01  0.56471844858E+02  0.82893769857E+02  0.00000000000E+00 0. -1.
         -5    1    3    3    0  503 -0.48641331121E+01  0.51088955131E+02  0.29245520683E+02  0.59254802399E+02  0.47000000000E+01 0.  1.
         11    1    4    4    0    0 -0.20686838731E+01 -0.65390533070E+02 -0.16964776514E+00  0.65423467109E+02  0.00000000000E+00 0. -1.
        -12    1    4    4    0    0  0.50446208799E+02 -0.24046113741E+02  0.44181971542E+02  0.71239611015E+02  0.00000000000E+00 0.  1.
</event>
<event>
12    1  0.1040325E-001  0.1925895E+03  0.7818608E-02  0.1156239E+00
         21   -1    0    0  501  502  0.00000000000E+00  0.00000000000E+00  0.28353275829E+03  0.28353275829E+03  0.00000000000E+00 0. -1.
         21   -1    0    0  502  503 -0.00000000000E+00 -0.00000000000E+00 -0.13895309654E+03  0.13895309654E+03  0.00000000000E+00 0.  1.
         -6    2    1    2    0  503 -0.84182983490E+02  0.22964561114E+02  0.20359396394E+02  0.19366261382E+03  0.17168738216E+03 0.  0.
        -24    2    3    3    0    0 -0.80905847407E+02  0.23004059117E+02  0.75397201768E+02  0.13832735200E+03  0.79842190573E+02 0.  0.
          6    2    1    2  501    0  0.84182983490E+02 -0.22964561114E+02  0.12422026535E+03  0.22882324100E+03  0.17121698374E+03 0.  0.
         24    2    5    5    0    0  0.21088921064E+02  0.48846956823E+02  0.48649367993E+02  0.10687732943E+03  0.78900156886E+02 0.  0.
          5    1    5    5  501    0  0.63094062426E+02 -0.71811517937E+02  0.75570897360E+02  0.12194591157E+03  0.47000000000E+01 0. -1.
        -13    1    6    6    0    0 -0.84624033663E+01  0.52791827039E+02  0.54663143999E+02  0.76463380678E+02  0.00000000000E+00 0.  1.
         14    1    6    6    0    0  0.29551324430E+02 -0.39448702159E+01 -0.60137760057E+01  0.30413948748E+02  0.00000000000E+00 0. -1.
         -5    1    3    3    0  503 -0.32771360832E+01 -0.39498003519E-01 -0.55037805374E+02  0.55335261826E+02  0.47000000000E+01 0.  1.
         11    1    4    4    0    0 -0.59783280422E+02  0.52585101460E+02  0.51150927190E+02  0.94634300684E+02  0.00000000000E+00 0. -1.
        -12    1    4    4    0    0 -0.21122566985E+02 -0.29581042342E+02  0.24246274578E+02  0.43693051313E+02  0.00000000000E+00 0.  1.
</event>
<event>
12    1  0.1040325E-001  0.2074357E+03  0.7818608E-02  0.1143687E+00
         21   -1    0    0  501  502  0.00000000000E+00  0.00000000000E+00  0.13771708942E+03  0.13771708942E+03  0.00000000000E+00 0.  1.
         21   -1    0    0  502  503 -0.00000000000E+00 -0.00000000000E+00 -0.42228442976E+03  0.42228442976E+03  0.00000000000E+00 0.  1.
         -6    2    1    2    0  503 -0.36007883739E+02 -0.11153791987E+03 -0.28535104384E+03  0.35256435782E+03  0.17070188320E+03 0.  0.
        -24    2    3    3    0    0 -0.39219540307E+02 -0.13967916311E+03 -0.18474577657E+03  0.24794239976E+03  0.79347279001E+02 0.  0.
          6    2    1    2  501    0  0.36007883739E+02  0.11153791987E+03  0.78370349402E+00  0.20743716136E+03  0.17114989472E+03 0.  0.
         24    2    5    5    0    0  0.85771721986E+02  0.10456622919E+03  0.12590845145E+01  0.15696578279E+03  0.79660448735E+02 0.  0.
          5    1    5    5  501    0 -0.49763838247E+02  0.69716906794E+01 -0.47538102050E+00  0.50471378574E+02  0.47000000000E+01 0. -1.
        -11    1    6    6    0    0  0.76363952581E+02  0.92042702377E+02  0.30826762119E+02  0.12350547185E+03  0.00000000000E+00 0.  1.
         12    1    6    6    0    0  0.94077694058E+01  0.12523526816E+02 -0.29567677605E+02  0.33460310937E+02  0.00000000000E+00 0. -1.
         -5    1    3    3    0  503  0.32116565679E+01  0.28141243242E+02 -0.10060526726E+03  0.10462195807E+03  0.47000000000E+01 0.  1.
         13    1    4    4    0    0 -0.28519208994E+02 -0.71687499619E+02 -0.38315252689E+02  0.86142332635E+02  0.00000000000E+00 0. -1.
        -14    1    4    4    0    0 -0.10700331313E+02 -0.67991663495E+02 -0.14643052389E+03  0.16180006712E+03  0.00000000000E+00 0.  1.
</event>
<event>
12    1  0.1040325E-001  0.3304952E+03  0.7818608E-02  0.1070956E+00
         21   -1    0    0  501  502  0.00000000000E+00  0.00000000000E+00  0.12028788536E+03  0.12028788536E+03  0.00000000000E+00 0. -1.
         21   -1    0    0  502  503 -0.00000000000E+00 -0.00000000000E+00 -0.94560025673E+03  0.94560025673E+03  0.00000000000E+00 0. -1.
         -6    2    1    2    0  503  0.29504970755E+02  0.28012460071E+03 -0.30533310525E+03  0.44995041762E+03  0.17287781215E+03 0.  0.
        -24    2    3    3    0    0 -0.84472593805E+01  0.27846574621E+03 -0.28588329517E+03  0.40701431763E+03  0.79478728554E+02 0.  0.
          6    2    1    2  501    0 -0.29504970755E+02 -0.28012460071E+03 -0.51997926612E+03  0.61593772447E+03  0.17222226338E+03 0.  0.
         24    2    5    5    0    0  0.45445469022E+02 -0.12530725903E+03 -0.19595972275E+03  0.24906345146E+03  0.76584529069E+02 0.  0.
          5    1    5    5  501    0 -0.74950439778E+02 -0.15481734168E+03 -0.32401954337E+03  0.36687427300E+03  0.47000000000E+01 0. -1.
        -13    1    6    6    0    0  0.50427912075E+02 -0.72166085724E+02 -0.16588378071E+03  0.18779868729E+03  0.00000000000E+00 0.  1.
         14    1    6    6    0    0 -0.49824430526E+01 -0.53141173311E+02 -0.30075942040E+02  0.61264764173E+02  0.00000000000E+00 0. -1.
         -5    1    3    3    0  503  0.37952230136E+02  0.16588544996E+01 -0.19449810077E+02  0.42936099993E+02  0.47000000000E+01 0.  1.
         11    1    4    4    0    0  0.56210265926E+01  0.13616729157E+03 -0.85641566850E+02  0.16095839589E+03  0.00000000000E+00 0. -1.
        -12    1    4    4    0    0 -0.14068285973E+02  0.14229845464E+03 -0.20024172832E+03  0.24605592174E+03  0.00000000000E+00 0.  1.
</event>
<event>
12    1  0.1040325E-001  0.2342979E+03  0.7818608E-02  0.1123880E+00
         21   -1    0    0  501  502  0.00000000000E+00  0.00000000000E+00  0.10135591918E+03  0.10135591918E+03  0.00000000000E+00 0. -1.
         21   -1    0    0  502  503 -0.00000000000E+00 -0.00000000000E+00 -0.57148593720E+03  0.57148593720E+03  0.00000000000E+00 0. -1.
         -6    2    1    2    0  503 -0.10544934358E+03 -0.11922891073E+03 -0.31521187485E+03  0.39195907802E+03  0.17011259677E+03 0.  0.
        -24    2    3    3    0    0 -0.42372597079E+02 -0.86004699516E+02 -0.29363769196E+03  0.31732624659E+03  0.72667787303E+02 0.  0.
          6    2    1    2  501    0  0.10544934358E+03  0.11922891073E+03 -0.15491814317E+03  0.28088277836E+03  0.17193140167E+03 0.  0.
         24    2    5    5    0    0  0.13455263606E+03  0.62584940859E+02 -0.12822343025E+03  0.21167122836E+03  0.79637768411E+02 0.  0.
          5    1    5    5  501    0 -0.29103292477E+02  0.56643969868E+02 -0.26694712915E+02  0.69211549997E+02  0.47000000000E+01 0. -1.
        -11    1    6    6    0    0  0.87369708073E+02  0.77237343240E+01 -0.36902535326E+02  0.95157338520E+02  0.00000000000E+00 0.  1.
         12    1    6    6    0    0  0.47182927986E+02  0.54861206535E+02 -0.91320894926E+02  0.11651388984E+03  0.00000000000E+00 0. -1.
         -5    1    3    3    0  503 -0.63076746503E+02 -0.33224211211E+02 -0.21574182886E+02  0.74632831430E+02  0.47000000000E+01 0.  1.
         13    1    4    4    0    0 -0.43586697062E+02 -0.43323413327E+02 -0.24507020743E+03  0.25265811855E+03  0.00000000000E+00 0. -1.
        -14    1    4    4    0    0  0.12140999824E+01 -0.42681286189E+02 -0.48567484536E+02  0.64668128036E+02  0.00000000000E+00 0.  1.
</event>
<event>
12    1  0.1040325E-001  0.2977618E+03  0.7818608E-02  0.1086493E+00
         21   -1    0    0  501  502  0.00000000000E+00  0.00000000000E+00  0.23728956337E+03  0.23728956337E+03  0.00000000000E+00 0. -1.
         21   -1    0    0  502  503 -0.00000000000E+00 -0.00000000000E+00 -0.38381178731E+03  0.38381178731E+03  0.00000000000E+00 0. -1.
         -6    2    1    2    0  503 -0.23674150505E+03 -0.53672852706E+02 -0.19530854728E+02  0.29739021818E+03  0.17068149358E+03 0.  0.
        -24    2    3    3    0    0 -0.15617690803E+03 -0.99182884786E+02 -0.32555839549E+02  0.20382976957E+03  0.79108918841E+02 0.  0.
          6    2    1    2  501    0  0.23674150505E+03  0.53672852706E+02 -0.12699136921E+03  0.32371113250E+03  0.17243773983E+03 0.  0.
         24    2    5    5    0    0  0.13217887374E+03  0.37067726975E+02 -0.14703631043E+03  0.21585491462E+03  0.78284075855E+02 0.  0.
          5    1    5    5  501    0  0.10456263131E+03  0.16605125732E+02  0.20044941223E+02  0.10785621788E+03  0.47000000000E+01 0. -1.
        -13    1    6    6    0    0  0.47385693045E+02 -0.21387445424E+02 -0.70229534408E+02  0.87378568484E+02  0.00000000000E+00 0.  1.
         14    1    6    6    0    0  0.84793180696E+02  0.58455172398E+02 -0.76806776025E+02  0.12847634613E+03  0.00000000000E+00 0. -1.
         -5    1    3    3    0  503 -0.80564597023E+02  0.45510032079E+02  0.13024984821E+02  0.93560448604E+02  0.47000000000E+01 0.  1.
         13    1    4    4    0    0  0.48371468419E+00  0.19919413970E+01  0.11931219837E+02  0.12106024006E+02  0.00000000000E+00 0. -1.
        -14    1    4    4    0    0 -0.15666062271E+03 -0.10117482618E+03 -0.44487059386E+02  0.19172374557E+03  0.00000000000E+00 0.  1.
</event>
<event>
12    1  0.1040325E-001  0.3054116E+03  0.7818608E-02  0.1082736E+00
         21   -1    0    0  501  502  0.00000000000E+00  0.00000000000E+00  0.67095786532E+03  0.67095786532E+03  0.00000000000E+00 0.  1.
         21   -1    0    0  502  503 -0.00000000000E+00 -0.00000000000E+00 -0.14593972993E+03  0.14593972993E+03  0.00000000000E+00 0. -1.
         -6    2    1    2    0  503  0.98140582272E+02  0.23100630378E+03  0.17016357621E+03  0.34961678235E+03  0.17401369360E+03 0.  0.
        -24    2    3    3    0    0  0.50646957509E+02  0.72003956071E+02  0.13444495370E+03  0.17980718026E+03  0.80656633343E+02 0.  0.
          6    2    1    2  501    0 -0.98140582272E+02 -0.23100630378E+03  0.35485455918E+03  0.46728081290E+03  0.17156373059E+03 0.  0.
         24    2    5    5    0    0 -0.92837886993E+02 -0.71277754870E+02  0.19144559185E+03  0.23866342835E+03  0.81298375084E+02 0.  0.
          5    1    5    5  501    0 -0.53026952798E+01 -0.15972854891E+03  0.16340896733E+03  0.22861738455E+03  0.47000000000E+01 0. -1.
        -13    1    6    6    0    0 -0.89111999898E+02 -0.55786786393E+02  0.19571776510E+03  0.22216785915E+03  0.00000000000E+00 0.  1.
         14    1    6    6    0    0 -0.37258870948E+01 -0.15490968477E+02 -0.42721732502E+01  0.16495569202E+02  0.00000000000E+00 0. -1.
         -5    1    3    3    0  503  0.47493624763E+02  0.15900234771E+03  0.35718622509E+02  0.16980960209E+03  0.47000000000E+01 0.  1.
         11    1    4    4    0    0  0.27640835505E+02  0.20761859998E+02  0.51303536700E+00  0.34573600092E+02  0.00000000000E+00 0. -1.
        -12    1    4    4    0    0  0.23006122004E+02  0.51242096073E+02  0.13393191833E+03  0.14523358017E+03  0.00000000000E+00 0.  1.
</event>
<event>
12    1  0.1040325E-001  0.1811264E+03  0.7818608E-02  0.1166899E+00
         21   -1    0    0  503  502  0.00000000000E+00  0.00000000000E+00  0.59597011689E+02  0.59597011689E+02  0.00000000000E+00 0.  1.
         21   -1    0    0  501  503 -0.00000000000E+00 -0.00000000000E+00 -0.22541263424E+04  0.22541263424E+04  0.00000000000E+00 0.  1.
          6    2    1    2  501    0  0.14339149723E+02  0.53436784107E+02 -0.21042303087E+04  0.21120113522E+04  0.17246929858E+03 0.  0.
         24    2    3    3    0    0  0.65603876832E+01  0.33777953298E+02 -0.48041806223E+03  0.48805467780E+03  0.78815386759E+02 0.  0.
         -6    2    1    2    0  502 -0.14339149723E+02 -0.53436784107E+02 -0.90299022018E+02  0.20171200183E+03  0.17167619868E+03 0.  0.
        -24    2    5    5    0    0 -0.45814824085E+02 -0.84988458771E+02 -0.95926404040E+02  0.15654582334E+03  0.77347809168E+02 0.  0.
          5    1    3    3  501    0  0.77787620400E+01  0.19658830809E+02 -0.16238122464E+04  0.16239566744E+04  0.47000000000E+01 0. -1.
        -11    1    4    4    0    0 -0.60578072763E+01  0.16420780937E+02 -0.45251924387E+03  0.45285759920E+03  0.00000000000E+00 0.  1.
         12    1    4    4    0    0  0.12618194960E+02  0.17357172361E+02 -0.27898818356E+02  0.35197078602E+02  0.00000000000E+00 0. -1.
         -5    1    5    5    0  502  0.31475674362E+02  0.31551674664E+02  0.56273820223E+01  0.45166178486E+02  0.47000000000E+01 0.  1.
         13    1    6    6    0    0 -0.65955248759E+02 -0.52390000391E+02 -0.75539733907E+02  0.11314176231E+03  0.00000000000E+00 0. -1.
        -14    1    6    6    0    0  0.20140424674E+02 -0.32598458380E+02 -0.20386670133E+02  0.43404061030E+02  0.00000000000E+00 0.  1.
</event>
<event>
12    1  0.1040325E-001  0.1718733E+03  0.7818608E-02  0.1175937E+00
         21   -1    0    0  501  502  0.00000000000E+00  0.00000000000E+00  0.11932712820E+03  0.11932712820E+03  0.00000000000E+00 0.  1.
         21   -1    0    0  502  503 -0.00000000000E+00 -0.00000000000E+00 -0.29231465358E+03  0.29231465358E+03  0.00000000000E+00 0.  1.
         -6    2    1    2    0  503  0.45451226068E+01  0.71068547415E+01 -0.16715169683E+03  0.23966948165E+03  0.17155350524E+03 0.  0.
        -24    2    3    3    0    0  0.38950379626E+02  0.58088123137E+02 -0.13222442766E+03  0.16878354815E+03  0.78187113595E+02 0.  0.
          6    2    1    2  501    0 -0.45451226068E+01 -0.71068547415E+01 -0.58358285571E+01  0.17197230013E+03  0.17166609914E+03 0.  0.
         24    2    5    5    0    0 -0.57886853446E+01  0.25263218012E+02 -0.62866441256E+02  0.10621556022E+03  0.81595445554E+02 0.  0.
          5    1    5    5  501    0  0.12435627377E+01 -0.32370072754E+02  0.57030612699E+02  0.65756739907E+02  0.47000000000E+01 0. -1.
        -13    1    6    6    0    0 -0.12493483083E+02  0.37586529657E+02  0.21847932259E+01  0.39668723859E+02  0.00000000000E+00 0.  1.
         14    1    6    6    0    0  0.67047977382E+01 -0.12323311644E+02 -0.65051234482E+02  0.66546836365E+02  0.00000000000E+00 0. -1.
         -5    1    3    3    0  503 -0.34405257019E+02 -0.50981268396E+02 -0.34927269167E+02  0.70885933507E+02  0.47000000000E+01 0.  1.
         13    1    4    4    0    0 -0.15120916185E+02  0.40428288629E+02 -0.32702749793E+02  0.54153102144E+02  0.00000000000E+00 0. -1.
        -14    1    4    4    0    0  0.54071295810E+02  0.17659834508E+02 -0.99521677866E+02  0.11463044600E+03  0.00000000000E+00 0.  1.
</event>
<event>
12    1  0.1040325E-001  0.2630905E+03  0.7818608E-02  0.1105389E+00
         21   -1    0    0  501  502  0.00000000000E+00  0.00000000000E+00  0.11875591152E+04  0.11875591152E+04  0.00000000000E+00 0.  1.
         21   -1    0    0  502  503 -0.00000000000E+00 -0.00000000000E+00 -0.13271675799E+03  0.13271675799E+03  0.00000000000E+00 0.  1.
         -6    2    1    2    0  503 -0.70112998368E+02  0.18572615682E+03  0.32875237940E+02  0.26513655396E+03  0.17264580247E+03 0.  0.
        -24    2    3    3    0    0  0.21749532415E+02  0.82377542962E+02 -0.18367409017E+02  0.11759822194E+03  0.78948580384E+02 0.  0.
          6    2    1    2  501    0  0.70112998368E+02 -0.18572615682E+03  0.10219671192E+04  0.10551393192E+04  0.17173279313E+03 0.  0.
         24    2    5    5    0    0  0.98445780167E+02 -0.18888249295E+03  0.81696709664E+03  0.84811321396E+03  0.80576789008E+02 0.  0.
          5    1    5    5  501    0 -0.28332781799E+02  0.31563361320E+01  0.20500002259E+03  0.20702610522E+03  0.47000000000E+01 0. -1.
        -13    1    6    6    0    0  0.82999301727E+02 -0.79095683296E+02  0.35628033754E+03  0.37427354986E+03  0.00000000000E+00 0.  1.
         14    1    6    6    0    0  0.15446478440E+02 -0.10978680965E+03  0.46068675910E+03  0.47383966411E+03  0.00000000000E+00 0. -1.
         -5    1    3    3    0  503 -0.91862530783E+02  0.10334861386E+03  0.51242646957E+02  0.14753833202E+03  0.47000000000E+01 0.  1.
         13    1    4    4    0    0  0.26023264690E+02 -0.64446840649E+01 -0.66001424323E-01  0.26809487388E+02  0.00000000000E+00 0. -1.
        -14    1    4    4    0    0 -0.42737322749E+01  0.88822227026E+02 -0.18301407592E+02  0.90788734551E+02  0.00000000000E+00 0.  1.
</event>
<event>
12    1  0.1040325E-001  0.1833423E+03  0.7818608E-02  0.1164796E+00
         21   -1    0    0  503  502  0.00000000000E+00  0.00000000000E+00  0.38583527079E+03  0.38583527079E+03  0.00000000000E+00 0.  1.
         21   -1    0    0  501  503 -0.00000000000E+00 -0.00000000000E+00 -0.14773744367E+03  0.14773744367E+03  0.00000000000E+00 0.  1.
          6    2    1    2  501    0  0.31544543549E+02 -0.53080038434E+02 -0.52525823263E+02  0.18995010809E+03  0.17178338903E+03 0.  0.
         24    2    3    3    0    0 -0.26372090613E+02 -0.48581309900E+02 -0.79233272541E+02  0.12584119360E+03  0.80637855215E+02 0.  0.
         -6    2    1    2    0  502 -0.31544543549E+02  0.53080038434E+02  0.29062365038E+03  0.34362260637E+03  0.17263209650E+03 0.  0.
        -24    2    5    5    0    0  0.72633389001E+01 -0.26013027592E+02  0.86748308613E+02  0.12147623612E+03  0.80633573645E+02 0.  0.
          5    1    3    3  501    0  0.57916634162E+02 -0.44987285337E+01  0.26707449278E+02  0.64108914497E+02  0.47000000000E+01 0. -1.
        -11    1    4    4    0    0 -0.41148694457E+02  0.54856809805E+01 -0.29731522863E+02  0.51061445369E+02  0.00000000000E+00 0.  1.
         12    1    4    4    0    0  0.14776603844E+02 -0.54066990881E+02 -0.49501749678E+02  0.74779748229E+02  0.00000000000E+00 0. -1.
         -5    1    5    5    0  502 -0.38807882449E+02  0.79093066026E+02  0.20387534177E+03  0.22214637025E+03  0.47000000000E+01 0.  1.
         11    1    6    6    0    0  0.43432210610E+02 -0.20214282479E+02  0.55609243989E+02  0.73398652247E+02  0.00000000000E+00 0. -1.
        -12    1    6    6    0    0 -0.36168871710E+02 -0.57987451129E+01  0.31139064624E+02  0.48077583876E+02  0.00000000000E+00 0.  1.
</event>
<event>
12    1  0.1040325E-001  0.1793310E+03  0.7818608E-02  0.1168841E+00
         21   -1    0    0  501  502  0.00000000000E+00  0.00000000000E+00  0.10366171728E+04  0.10366171728E+04  0.00000000000E+00 0.  1.
         21   -1    0    0  502  503 -0.00000000000E+00 -0.00000000000E+00 -0.34597008265E+02  0.34597008265E+02  0.00000000000E+00 0.  1.
         -6    2    1    2    0  503 -0.49630626114E+02  0.13219400493E+01  0.67765911794E+03  0.70058002036E+03  0.17066205855E+03 0.  0.
        -24    2    3    3    0    0 -0.14483389641E+02 -0.60979954047E+02  0.30387434028E+03  0.31998311516E+03  0.78238455605E+02 0.  0.
          6    2    1    2  501    0  0.49630626114E+02 -0.13219400493E+01  0.32436104658E+03  0.37063416069E+03  0.17232134504E+03 0.  0.
         24    2    5    5    0    0  0.47853517186E+02 -0.55267377999E+02  0.12953242331E+03  0.16841262168E+03  0.78991900067E+02 0.  0.
          5    1    5    5  501    0  0.17771089278E+01  0.53945437949E+02  0.19482862327E+03  0.20222153901E+03  0.47000000000E+01 0. -1.
        -11    1    6    6    0    0  0.24896407302E+02  0.16694514440E+02  0.52954680481E+02  0.60850111699E+02  0.00000000000E+00 0.  1.
         12    1    6    6    0    0  0.22957109884E+02 -0.71961892438E+02  0.76577742826E+02  0.10756250998E+03  0.00000000000E+00 0. -1.
         -5    1    3    3    0  503 -0.35147236472E+02  0.62301894096E+02  0.37378477766E+03  0.38059690520E+03  0.47000000000E+01 0.  1.
         11    1    4    4    0    0  0.27298846151E+02 -0.17595997479E+01  0.96834768577E+02  0.10062452781E+03  0.00000000000E+00 0. -1.
        -12    1    4    4    0    0 -0.41782235793E+02 -0.59220354299E+02  0.20703957170E+03  0.21935858734E+03  0.00000000000E+00 0.  1.
</event>
<event>
12    1  0.1040325E-001  0.2808823E+03  0.7818608E-02  0.1095566E+00
         21   -1    0    0  503  502  0.00000000000E+00  0.00000000000E+00  0.26731293774E+03  0.26731293774E+03  0.00000000000E+00 0. -1.
         21   -1    0    0  501  503 -0.00000000000E+00 -0.00000000000E+00 -0.31649989139E+03  0.31649989139E+03  0.00000000000E+00 0.  1.
          6    2    1    2  501    0  0.21803284739E+03  0.92343392947E+01  0.55859933336E+02  0.28638296313E+03  0.17683685661E+03 0.  0.
         24    2    3    3    0    0  0.74549412535E+02  0.55196759860E+02 -0.10135896660E+02  0.12183029752E+03  0.78329992881E+02 0.  0.
         -6    2    1    2    0  502 -0.21803284739E+03 -0.92343392947E+01 -0.10504688699E+03  0.29742986600E+03  0.17264437773E+03 0.  0.
        -24    2    5    5    0    0 -0.45188462535E+02  0.32051656730E+02 -0.13573015040E+02  0.97506695527E+02  0.79082381666E+02 0.  0.
          5    1    3    3  501    0  0.14348343486E+03 -0.45962420565E+02  0.65995829996E+02  0.16455266561E+03  0.47000000000E+01 0. -1.
        -11    1    4    4    0    0  0.77425713546E+02  0.16321262672E+02  0.66120609777E+01  0.79403048328E+02  0.00000000000E+00 0.  1.
         12    1    4    4    0    0 -0.28763010113E+01  0.38875497189E+02 -0.16747957638E+02  0.42427249194E+02  0.00000000000E+00 0. -1.
         -5    1    5    5    0  502 -0.17284438486E+03 -0.41285996025E+02 -0.91473871947E+02  0.19992317048E+03  0.47000000000E+01 0.  1.
         13    1    6    6    0    0 -0.27844550578E+02  0.18431345914E+02  0.32394183598E+02  0.46523291372E+02  0.00000000000E+00 0. -1.
        -14    1    6    6    0    0 -0.17343911957E+02  0.13620310816E+02 -0.45967198638E+02  0.50983404156E+02  0.00000000000E+00 0.  1.
</event>
<event>
12    1  0.1040325E-001  0.2930827E+03  0.7818608E-02  0.1088849E+00
         21   -1    0    0  501  502  0.00000000000E+00  0.00000000000E+00  0.29256640691E+03  0.29256640691E+03  0.00000000000E+00 0.  1.
         21   -1    0    0  502  503 -0.00000000000E+00 -0.00000000000E+00 -0.55297416026E+03  0.55297416026E+03  0.00000000000E+00 0.  1.
         -6    2    1    2    0  503  0.22551612007E+03 -0.68875601179E+02 -0.42026355928E+03  0.51236599975E+03  0.17405771912E+03 0.  0.
        -24    2    3    3    0    0  0.11550629558E+03 -0.93365125621E+02 -0.31915109722E+03  0.36088095667E+03  0.79491452547E+02 0.  0.
          6    2    1    2  501    0 -0.22551612007E+03  0.68875601179E+02  0.15985580593E+03  0.33317456743E+03  0.17277165520E+03 0.  0.
         24    2    5    5    0    0 -0.12218335310E+03  0.81012828551E+02  0.33978449309E+02  0.16979717631E+03  0.78642837566E+02 0.  0.
          5    1    5    5  501    0 -0.10333276697E+03 -0.12137227372E+02  0.12587735662E+03  0.16337739112E+03  0.47000000000E+01 0. -1.
        -13    1    6    6    0    0 -0.49244389157E+02  0.71192094799E+02  0.41158460667E+02  0.95850629157E+02  0.00000000000E+00 0.  1.
         14    1    6    6    0    0 -0.72938963945E+02  0.98207337517E+01 -0.71800113575E+01  0.73946547153E+02  0.00000000000E+00 0. -1.
         -5    1    3    3    0  503  0.11000982449E+03  0.24489524442E+02 -0.10111246206E+03  0.15148504308E+03  0.47000000000E+01 0.  1.
         13    1    4    4    0    0  0.38157611756E+02 -0.16802030802E+02 -0.28449677439E+02  0.50474703767E+02  0.00000000000E+00 0. -1.
        -14    1    4    4    0    0  0.77348683828E+02 -0.76563094819E+02 -0.29070141978E+03  0.31040625290E+03  0.00000000000E+00 0.  1.
</event>
<event>
12    1  0.1040325E-001  0.1759690E+03  0.7818608E-02  0.1172231E+00
         21   -1    0    0  503  502  0.00000000000E+00  0.00000000000E+00  0.19130217500E+03  0.19130217500E+03  0.00000000000E+00 0. -1.
         21   -1    0    0  501  503 -0.00000000000E+00 -0.00000000000E+00 -0.16021497955E+03  0.16021497955E+03  0.00000000000E+00 0. -1.
          6    2    1    2  501    0  0.17938810524E+01 -0.26645851511E+02  0.19153816270E+02  0.17700837102E+03  0.17393066239E+03 0.  0.
         24    2    3    3    0    0 -0.28461177330E+02 -0.16026056654E+02  0.73948882288E+02  0.11334725368E+03  0.79449918930E+02 0.  0.
         -6    2    1    2    0  502 -0.17938810524E+01  0.26645851511E+02  0.11933379187E+02  0.17450878353E+03  0.17203979359E+03 0.  0.
        -24    2    5    5    0    0 -0.30832833487E+02  0.14641434372E+02 -0.54507478133E+02  0.10086202997E+03  0.77698447188E+02 0.  0.
          5    1    3    3  501    0  0.30255058383E+02 -0.10619794858E+02 -0.54795066018E+02  0.63661117336E+02  0.47000000000E+01 0. -1.
        -11    1    4    4    0    0  0.17503965966E+02 -0.28773630426E+02  0.13354334987E+02  0.36230496758E+02  0.00000000000E+00 0.  1.
         12    1    4    4    0    0 -0.45965143296E+02  0.12747573772E+02  0.60594547302E+02  0.77116756921E+02  0.00000000000E+00 0. -1.
         -5    1    5    5    0  502  0.29038952435E+02  0.12004417139E+02  0.66440857320E+02  0.73646753566E+02  0.47000000000E+01 0.  1.
         13    1    6    6    0    0  0.83687213422E+01  0.29199641379E+02 -0.50396841686E+02  0.58842979237E+02  0.00000000000E+00 0. -1.
        -14    1    6    6    0    0 -0.39201554829E+02 -0.14558207007E+02 -0.41106364465E+01  0.42019050730E+02  0.00000000000E+00 0.  1.
</event>
<event>
12    1  0.1040325E-001  0.2486497E+03  0.7818608E-02  0.1114550E+00
         21   -1    0    0  503  502  0.00000000000E+00  0.00000000000E+00  0.15941158244E+03  0.15941158244E+03  0.00000000000E+00 0.  1.
         21   -1    0    0  501  503 -0.00000000000E+00 -0.00000000000E+00 -0.55217966113E+03  0.55217966113E+03  0.00000000000E+00 0.  1.
          6    2    1    2  501    0 -0.12772792366E+03 -0.12372342697E+03 -0.39337690582E+03  0.46537305269E+03  0.17379522225E+03 0.  0.
         24    2    3    3    0    0 -0.33301591576E+02 -0.10652765568E+03 -0.14654850205E+03  0.20049878507E+03  0.79159092563E+02 0.  0.
         -6    2    1    2    0  502  0.12772792366E+03  0.12372342697E+03  0.60882712454E+00  0.24621819087E+03  0.17029714614E+03 0.  0.
        -24    2    5    5    0    0  0.79917111199E+02 -0.16678817128E+00  0.46778963670E+01  0.11327720201E+03  0.80144053431E+02 0.  0.
          5    1    3    3  501    0 -0.94426332087E+02 -0.17195771289E+02 -0.24682840377E+03  0.26487426762E+03  0.47000000000E+01 0. -1.
        -13    1    4    4    0    0 -0.33271670298E+02 -0.88762970026E+02 -0.15431950723E+03  0.18110874966E+03  0.00000000000E+00 0.  1.
         14    1    4    4    0    0 -0.29921277938E-01 -0.17764685650E+02  0.77710051810E+01  0.19390035406E+02  0.00000000000E+00 0. -1.
         -5    1    5    5    0  502  0.47810812464E+02  0.12389021514E+03 -0.40690692425E+01  0.13294098886E+03  0.47000000000E+01 0.  1.
         13    1    6    6    0    0  0.73433029342E+02  0.50347376021E+01 -0.28607681600E+02  0.78969347393E+02  0.00000000000E+00 0. -1.
        -14    1    6    6    0    0  0.64840818566E+01 -0.52015257734E+01  0.33285577967E+02  0.34307854618E+02  0.00000000000E+00 0.  1.
</event>
<event>
12    1  0.1040325E-001  0.1725697E+03  0.7818608E-02  0.1175691E+00
         21   -1    0    0  503  502  0.00000000000E+00  0.00000000000E+00  0.10460921685E+04  0.10460921685E+04  0.00000000000E+00 0.  1.
         21   -1    0    0  501  503 -0.00000000000E+00 -0.00000000000E+00 -0.52683039381E+02  0.52683039381E+02  0.00000000000E+00 0.  1.
          6    2    1    2  501    0 -0.28846550433E+01 -0.12060850867E+02  0.12031781966E+03  0.20879277909E+03  0.17018889950E+03 0.  0.
         24    2    3    3    0    0  0.20369268944E+02 -0.18842736191E+02 -0.14741382959E+01  0.84526492545E+02  0.79828560264E+02 0.  0.
         -6    2    1    2    0  502  0.28846550433E+01  0.12060850867E+02  0.87309130945E+03  0.88998242878E+03  0.17212351246E+03 0.  0.
        -24    2    5    5    0    0 -0.42972076452E+02  0.29312581431E+02  0.32996627220E+03  0.34463175434E+03  0.84778998112E+02 0.  0.
          5    1    3    3  501    0 -0.23253923988E+02  0.67818853236E+01  0.12179195795E+03  0.12426628654E+03  0.47000000000E+01 0. -1.
        -11    1    4    4    0    0  0.11875561136E+02  0.30979873009E+02 -0.62440874965E+01  0.33760481522E+02  0.00000000000E+00 0.  1.
         12    1    4    4    0    0  0.84937078079E+01 -0.49822609200E+02  0.47699492006E+01  0.50766011023E+02  0.00000000000E+00 0. -1.
         -5    1    5    5    0  502  0.45856731495E+02 -0.17251730564E+02  0.54312503725E+03  0.54535067445E+03  0.47000000000E+01 0.  1.
         11    1    6    6    0    0 -0.81756731885E+01 -0.29215221739E+02  0.80053441214E+02  0.85609136565E+02  0.00000000000E+00 0. -1.
        -12    1    6    6    0    0 -0.34796403264E+02  0.58527803170E+02  0.24991283099E+03  0.25902261777E+03  0.00000000000E+00 0.  1.
</event>
<event>
12    1  0.1040325E-001  0.1916087E+03  0.7818608E-02  0.1157079E+00
         21   -1    0    0  501  502  0.00000000000E+00  0.00000000000E+00  0.14720346200E+04  0.14720346200E+04  0.00000000000E+00 0. -1.
         21   -1    0    0  502  503 -0.00000000000E+00 -0.00000000000E+00 -0.42888791300E+02  0.42888791300E+02  0.00000000000E+00 0. -1.
         -6    2    1    2    0  503 -0.76917245992E+02  0.35854786713E+02  0.22379870790E+03  0.29444170793E+03  0.17148827731E+03 0.  0.
        -24    2    3    3    0    0 -0.19396154117E+02  0.79350902474E+02  0.10198335139E+03  0.15280252135E+03  0.79216349644E+02 0.  0.
          6    2    1    2  501    0  0.76917245992E+02 -0.35854786713E+02  0.12053471208E+04  0.12204817034E+04  0.17179079766E+03 0.  0.
         24    2    5    5    0    0 -0.20005564303E+02  0.12757096677E+02  0.50057561805E+03  0.50740238979E+03  0.79487544031E+02 0.  0.
          5    1    5    5  501    0  0.96922810295E+02 -0.48611883390E+02  0.70477150278E+03  0.71307931360E+03  0.47000000000E+01 0. -1.
        -11    1    6    6    0    0  0.29187428927E+02  0.96684323695E+01  0.13131641780E+03  0.13486803244E+03  0.00000000000E+00 0.  1.
         12    1    6    6    0    0 -0.49192993231E+02  0.30886643078E+01  0.36925920026E+03  0.37253435735E+03  0.00000000000E+00 0. -1.
         -5    1    3    3    0  503 -0.57521091875E+02 -0.43496115760E+02  0.12181535651E+03  0.14163918659E+03  0.47000000000E+01 0.  1.
         13    1    4    4    0    0 -0.10632514237E+02  0.77640266582E+02  0.11368869184E+03  0.13808033896E+03  0.00000000000E+00 0. -1.
        -14    1    4    4    0    0 -0.87636398802E+01  0.17106358918E+01 -0.11705340453E+02  0.14722182387E+02  0.00000000000E+00 0.  1.
</event>
<event>
12    1  0.1040325E-001  0.1943694E+03  0.7818608E-02  0.1155075E+00
         21   -1    0    0  501  502  0.00000000000E+00  0.00000000000E+00  0.21578063329E+03  0.21578063329E+03  0.00000000000E+00 0. -1.
         21   -1    0    0  502  503 -0.00000000000E+00 -0.00000000000E+00 -0.21024219359E+03  0.21024219359E+03  0.00000000000E+00 0. -1.
         -6    2    1    2    0  503 -0.41445872235E+02 -0.79934593889E+02  0.92335921109E+02  0.21315374249E+03  0.16970944578E+03 0.  0.
        -24    2    3    3    0    0 -0.65006368599E+02 -0.35314309974E+02  0.10274800119E+03  0.16141818280E+03  0.10012866494E+03 0.  0.
          6    2    1    2  501    0  0.41445872235E+02  0.79934593889E+02 -0.86797481410E+02  0.21286908438E+03  0.17225604396E+03 0.  0.
         24    2    5    5    0    0  0.89812841888E+01  0.84630604499E+02  0.81020811139E+01  0.11235033509E+03  0.72896854477E+02 0.  0.
          5    1    5    5  501    0  0.32464588046E+02 -0.46960106100E+01 -0.94899562524E+02  0.10051874930E+03  0.47000000000E+01 0. -1.
        -11    1    6    6    0    0  0.42613510090E+01 -0.13121727104E+02  0.41393484413E+01  0.14403924470E+02  0.00000000000E+00 0.  1.
         12    1    6    6    0    0  0.47199331798E+01  0.97752331603E+02  0.39627326726E+01  0.97946410620E+02  0.00000000000E+00 0. -1.
         -5    1    3    3    0  503  0.23560496364E+02 -0.44620283915E+02 -0.10412080079E+02  0.51735559697E+02  0.47000000000E+01 0.  1.
         13    1    4    4    0    0 -0.88249099031E+02 -0.14544412344E+02  0.56994316043E+02  0.10605562442E+03  0.00000000000E+00 0. -1.
        -14    1    4    4    0    0  0.23242730432E+02 -0.20769897630E+02  0.45753685145E+02  0.55362558375E+02  0.00000000000E+00 0.  1.
</event>
<event>
12    1  0.1040325E-001  0.2237418E+03  0.7818608E-02  0.1131357E+00
         21   -1    0    0  501  502  0.00000000000E+00  0.00000000000E+00  0.31204330549E+03  0.31204330549E+03  0.00000000000E+00 0.  1.
         21   -1    0    0  502  503 -0.00000000000E+00 -0.00000000000E+00 -0.47286963913E+03  0.47286963913E+03  0.00000000000E+00 0. -1.
         -6    2    1    2    0  503  0.83187013801E+02  0.11560746006E+03 -0.39996642699E+03  0.45829418085E+03  0.17255506192E+03 0.  0.
        -24    2    3    3    0    0 -0.25517818394E+02  0.44151937131E+02 -0.17864553619E+03  0.20153036134E+03  0.78100616748E+02 0.  0.
          6    2    1    2  501    0 -0.83187013801E+02 -0.11560746006E+03  0.23914009335E+03  0.32661876378E+03  0.17089958606E+03 0.  0.
         24    2    5    5    0    0 -0.85293388914E+02 -0.96204688591E+02  0.87992046890E+02  0.17414343362E+03  0.77801226586E+02 0.  0.
          5    1    5    5  501    0  0.21063751134E+01 -0.19402771471E+02  0.15114804646E+03  0.15247533016E+03  0.47000000000E+01 0. -1.
        -11    1    6    6    0    0 -0.59208533452E+01 -0.61676263579E+02  0.23770655127E+02  0.66363107511E+02  0.00000000000E+00 0.  1.
         12    1    6    6    0    0 -0.79372535569E+02 -0.34528425012E+02  0.64221391763E+02  0.10778032611E+03  0.00000000000E+00 0. -1.
         -5    1    3    3    0  503  0.10870483220E+03  0.71455522931E+02 -0.22132089081E+03  0.25676381951E+03  0.47000000000E+01 0.  1.
         13    1    4    4    0    0  0.21293706278E+02  0.33363023056E+02 -0.11612936422E+03  0.12268880335E+03  0.00000000000E+00 0. -1.
        -14    1    4    4    0    0 -0.46811524672E+02  0.10788914075E+02 -0.62516171969E+02  0.78841557993E+02  0.00000000000E+00 0.  1.
</event>
<event>
12    1  0.1040325E-001  0.2236401E+03  0.7818608E-02  0.1131282E+00
         21   -1    0    0  501  502  0.00000000000E+00  0.00000000000E+00  0.19727311309E+03  0.19727311309E+03  0.00000000000E+00 0. -1.
         21   -1    0    0  502  503 -0.00000000000E+00 -0.00000000000E+00 -0.53321436212E+03  0.53321436212E+03  0.00000000000E+00 0.  1.
         -6    2    1    2    0  503 -0.11643482227E+03  0.80478254821E+02 -0.43265906787E+03  0.48682944967E+03  0.17255499622E+03 0.  0.
        -24    2    3    3    0    0 -0.15269201789E+02  0.16949880655E+00 -0.10132646006E+03  0.13117882608E+03  0.81900278699E+02 0.  0.
          6    2    1    2  501    0  0.11643482227E+03 -0.80478254821E+02  0.96717818851E+02  0.24365802554E+03  0.17315045362E+03 0.  0.
         24    2    5    5    0    0  0.27938229435E+02 -0.25051881482E+02 -0.18259419350E+02  0.88269528184E+02  0.77781500249E+02 0.  0.
          5    1    5    5  501    0  0.88496592836E+02 -0.55426373338E+02  0.11497723820E+03  0.15538849735E+03  0.47000000000E+01 0. -1.
        -11    1    6    6    0    0  0.37386150178E+01  0.21574218334E+02  0.14590780876E+02  0.26311879932E+02  0.00000000000E+00 0.  1.
         12    1    6    6    0    0  0.24199614417E+02 -0.46626099816E+02 -0.32850200226E+02  0.61957648252E+02  0.00000000000E+00 0. -1.
         -5    1    3    3    0  503 -0.10116562048E+03  0.80308756014E+02 -0.33133260781E+03  0.35565062359E+03  0.47000000000E+01 0.  1.
         13    1    4    4    0    0 -0.48571616893E+02 -0.74405249920E+01 -0.58647313394E+02  0.76511899389E+02  0.00000000000E+00 0. -1.
        -14    1    4    4    0    0  0.33302415104E+02  0.76100237985E+01 -0.42679146668E+02  0.54666926695E+02  0.00000000000E+00 0.  1.
</event>
<event>
12    1  0.1040325E-001  0.1730043E+03  0.7818608E-02  0.1175173E+00
         21   -1    0    0  501  502  0.00000000000E+00  0.00000000000E+00  0.16352818997E+03  0.16352818997E+03  0.00000000000E+00 0.  1.
         21   -1    0    0  502  503 -0.00000000000E+00 -0.00000000000E+00 -0.42566589326E+03  0.42566589326E+03  0.00000000000E+00 0.  1.
         -6    2    1    2    0  503  0.14834791961E+02 -0.17825623728E+01 -0.35401520610E+03  0.39330649458E+03  0.17070437590E+03 0.  0.
        -24    2    3    3    0    0  0.14811234630E+02  0.60722743633E+02 -0.26491404582E+03  0.28436604940E+03  0.82328452638E+02 0.  0.
          6    2    1    2  501    0 -0.14834791961E+02  0.17825623728E+01  0.91877502801E+02  0.19588758865E+03  0.17235783499E+03 0.  0.
         24    2    5    5    0    0 -0.71947933402E+02 -0.21341552786E+02  0.71327425828E+02  0.13076438778E+03  0.79873377548E+02 0.  0.
          5    1    5    5  501    0  0.57113141441E+02  0.23124115159E+02  0.20550076973E+02  0.65123200863E+02  0.47000000000E+01 0. -1.
        -11    1    6    6    0    0 -0.23821198489E+02  0.30359063634E+02  0.30440072788E+02  0.49149977350E+02  0.00000000000E+00 0.  1.
         12    1    6    6    0    0 -0.48126734913E+02 -0.51700616421E+02  0.40887353040E+02  0.81614410433E+02  0.00000000000E+00 0. -1.
         -5    1    3    3    0  503  0.23557331339E-01 -0.62505306006E+02 -0.89101160279E+02  0.10894044518E+03  0.47000000000E+01 0.  1.
         11    1    4    4    0    0  0.94206076446E+01 -0.20104430546E+02 -0.50766370484E+02  0.55409027677E+02  0.00000000000E+00 0. -1.
        -12    1    4    4    0    0  0.53906269854E+01  0.80827174179E+02 -0.21414767533E+03  0.22895702172E+03  0.00000000000E+00 0.  1.
</event>
<event>
12    1  0.1040325E-001  0.2555426E+03  0.7818608E-02  0.1110016E+00
         21   -1    0    0  501  502  0.00000000000E+00  0.00000000000E+00  0.75657034971E+03  0.75657034971E+03  0.00000000000E+00 0.  1.
         21   -1    0    0  502  503 -0.00000000000E+00 -0.00000000000E+00 -0.10048909434E+03  0.10048909434E+03  0.00000000000E+00 0.  1.
         -6    2    1    2    0  503  0.79943858699E+02  0.17054008397E+03  0.16447137240E+03  0.30299961994E+03  0.17112275290E+03 0.  0.
        -24    2    3    3    0    0  0.22404381439E+02  0.87634671114E+02  0.16461047594E+03  0.20197383970E+03  0.74263256347E+02 0.  0.
          6    2    1    2  501    0 -0.79943858699E+02 -0.17054008397E+03  0.49160988297E+03  0.55405982411E+03  0.17270515589E+03 0.  0.
         24    2    5    5    0    0 -0.57560183524E+02 -0.29356979396E+02  0.27817851045E+03  0.29713816541E+03  0.82053633082E+02 0.  0.
          5    1    5    5  501    0 -0.22383675175E+02 -0.14118310457E+03  0.21343137253E+03  0.25692165870E+03  0.47000000000E+01 0. -1.
        -13    1    6    6    0    0 -0.52278329495E+02 -0.51743899947E+02  0.15178483059E+03  0.16866857951E+03  0.00000000000E+00 0.  1.
         14    1    6    6    0    0 -0.52818540293E+01  0.22386920550E+02  0.12639367985E+03  0.12846958589E+03  0.00000000000E+00 0. -1.
         -5    1    3    3    0  503  0.57539477260E+02  0.82905412851E+02 -0.13910354576E+00  0.10102578024E+03  0.47000000000E+01 0.  1.
         13    1    4    4    0    0 -0.24607266566E+02  0.11878290853E+02  0.30711737076E+02  0.41107446475E+02  0.00000000000E+00 0. -1.
        -14    1    4    4    0    0  0.47011648006E+02  0.75756380261E+02  0.13389873887E+03  0.16086639322E+03  0.00000000000E+00 0.  1.
</event>
<event>
12    1  0.1040325E-001  0.1859282E+03  0.7818608E-02  0.1162214E+00
         21   -1    0    0  503  502  0.00000000000E+00  0.00000000000E+00  0.11453898723E+03  0.11453898723E+03  0.00000000000E+00 0.  1.
         21   -1    0    0  501  503 -0.00000000000E+00 -0.00000000000E+00 -0.77016812301E+03  0.77016812301E+03  0.00000000000E+00 0.  1.
          6    2    1    2  501    0  0.33214278360E+02 -0.61812434167E+02 -0.67288513835E+03  0.69810006360E+03  0.17217817540E+03 0.  0.
         24    2    3    3    0    0 -0.30801073005E+02  0.13064586719E+02 -0.28215301630E+03  0.29511344512E+03  0.79763596736E+02 0.  0.
         -6    2    1    2    0  502 -0.33214278360E+02  0.61812434167E+02  0.17256002564E+02  0.18660704664E+03  0.17204782743E+03 0.  0.
        -24    2    5    5    0    0 -0.51854036199E+01  0.11099936158E+03  0.23011198016E+02  0.12950902634E+03  0.62412546712E+02 0.  0.
          5    1    3    3  501    0  0.64015351365E+02 -0.74877020886E+02 -0.39073212205E+03  0.40298661848E+03  0.47000000000E+01 0. -1.
        -13    1    4    4    0    0  0.16204084147E+02 -0.22336381934E+02 -0.85168877251E+02  0.89527783136E+02  0.00000000000E+00 0.  1.
         14    1    4    4    0    0 -0.47005157152E+02  0.35400968653E+02 -0.19698413904E+03  0.20558566199E+03  0.00000000000E+00 0. -1.
         -5    1    5    5    0  502 -0.28028874740E+02 -0.49186927411E+02 -0.57551954526E+01  0.57098020298E+02  0.47000000000E+01 0.  1.
         11    1    6    6    0    0  0.10912786481E+01 -0.47023615055E+01  0.12216222206E+02  0.13135416925E+02  0.00000000000E+00 0. -1.
        -12    1    6    6    0    0 -0.62766822679E+01  0.11570172308E+03  0.10794975811E+02  0.11637360941E+03  0.00000000000E+00 0.  1.
</event>
<event>
12    1  0.1040325E-001  0.1844048E+03  0.7818608E-02  0.1163717E+00
         21   -1    0    0  501  502  0.00000000000E+00  0.00000000000E+00  0.77229778971E+02  0.77229778971E+02  0.00000000000E+00 0.  1.
         21   -1    0    0  502  503 -0.00000000000E+00 -0.00000000000E+00 -0.10894568084E+04  0.10894568084E+04  0.00000000000E+00 0.  1.
         -6    2    1    2    0  503  0.44867186187E+01 -0.66048141846E+02 -0.95652935557E+03  0.97405387392E+03  0.17161017904E+03 0.  0.
        -24    2    3    3    0    0  0.19202180454E+02  0.28809249044E+02 -0.36120956900E+03  0.37102633914E+03  0.77391827949E+02 0.  0.
          6    2    1    2  501    0 -0.44867186187E+01  0.66048141846E+02 -0.55697673905E+02  0.19263271350E+03  0.17211229981E+03 0.  0.
         24    2    5    5    0    0 -0.53290908701E+02  0.70861691770E+02 -0.71280104306E+02  0.14096143163E+03  0.83234437743E+02 0.  0.
          5    1    5    5  501    0  0.48804190082E+02 -0.48135499236E+01  0.15582430402E+02  0.51671281866E+02  0.47000000000E+01 0. -1.
        -13    1    6    6    0    0 -0.28405866377E+02  0.57735503099E+02 -0.16424270574E-01  0.64345021816E+02  0.00000000000E+00 0.  1.
         14    1    6    6    0    0 -0.24885042324E+02  0.13126188671E+02 -0.71263680036E+02  0.76616409813E+02  0.00000000000E+00 0. -1.
         -5    1    3    3    0  503 -0.14715461836E+02 -0.94857390890E+02 -0.59531978656E+03  0.60302753478E+03  0.47000000000E+01 0.  1.
         13    1    4    4    0    0  0.49359005593E+02  0.19109001442E+02 -0.21421877316E+03  0.22066070820E+03  0.00000000000E+00 0. -1.
        -14    1    4    4    0    0 -0.30156825139E+02  0.97002476024E+01 -0.14699079585E+03  0.15036563095E+03  0.00000000000E+00 0.  1.
</event>
<event>
12    1  0.1040325E-001  0.1965828E+03  0.7818608E-02  0.1153861E+00
         21   -1    0    0  503  502  0.00000000000E+00  0.00000000000E+00  0.25293008290E+03  0.25293008290E+03  0.00000000000E+00 0.  1.
         21   -1    0    0  501  503 -0.00000000000E+00 -0.00000000000E+00 -0.16688178007E+03  0.16688178007E+03  0.00000000000E+00 0. -1.
          6    2    1    2  501    0  0.67107339032E+02 -0.60250473855E+02 -0.26022626296E+02  0.19829769528E+03  0.17467479590E+03 0.  0.
         24    2    3    3    0    0  0.62277470905E+02 -0.34509080025E+01  0.42046832676E+02  0.10938729346E+03  0.79418207509E+02 0.  0.
         -6    2    1    2    0  502 -0.67107339032E+02  0.60250473855E+02  0.11207092913E+03  0.22151416768E+03  0.16844915784E+03 0.  0.
        -24    2    5    5    0    0 -0.85425452543E+02  0.56076015025E+02  0.13823908220E+03  0.18895895882E+03  0.78443717834E+02 0.  0.
          5    1    3    3  501    0  0.48298681265E+01 -0.56799565853E+02 -0.68069458972E+02  0.88910401821E+02  0.47000000000E+01 0. -1.
        -13    1    4    4    0    0  0.67262813858E+02  0.19421993338E+02  0.11574691260E+02  0.70961069828E+02  0.00000000000E+00 0.  1.
         14    1    4    4    0    0 -0.49853429531E+01 -0.22872901341E+02  0.30472141416E+02  0.38426223631E+02  0.00000000000E+00 0. -1.
         -5    1    5    5    0  502  0.18318113511E+02  0.41744588299E+01 -0.26168153069E+02  0.32555208864E+02  0.47000000000E+01 0.  1.
         11    1    6    6    0    0 -0.42397413534E+02  0.43710804507E+02  0.22595254902E+02  0.64951679340E+02  0.00000000000E+00 0. -1.
        -12    1    6    6    0    0 -0.43028039009E+02  0.12365210519E+02  0.11564382729E+03  0.12400727948E+03  0.00000000000E+00 0.  1.
</event>
<event>
12    1  0.1040325E-001  0.1865909E+03  0.7818608E-02  0.1162817E+00
         21   -1    0    0  503  502  0.00000000000E+00  0.00000000000E+00  0.11132470539E+03  0.11132470539E+03  0.00000000000E+00 0. -1.
         21   -1    0    0  501  503 -0.00000000000E+00 -0.00000000000E+00 -0.30533300144E+03  0.30533300144E+03  0.00000000000E+00 0.  1.
          6    2    1    2  501    0 -0.35689286764E+02  0.46657242788E+02 -0.84169361740E+02  0.20469650163E+03  0.17710322648E+03 0.  0.
         24    2    3    3    0    0  0.20373593609E+02  0.16694390286E+02 -0.10746670341E+03  0.13683137646E+03  0.80498119589E+02 0.  0.
         -6    2    1    2    0  502  0.35689286764E+02 -0.46657242788E+02 -0.10983893430E+03  0.21196120520E+03  0.17150025518E+03 0.  0.
        -24    2    5    5    0    0 -0.21871985208E+02 -0.15194729879E+02 -0.11895986811E+03  0.14556488615E+03  0.79551381556E+02 0.  0.
          5    1    3    3  501    0 -0.56062880373E+02  0.29962852502E+02  0.23297341672E+02  0.67865125173E+02  0.47000000000E+01 0. -1.
        -11    1    4    4    0    0 -0.13792005372E+02 -0.11409541658E+02 -0.85658647051E+02  0.87508861652E+02  0.00000000000E+00 0.  1.
         12    1    4    4    0    0  0.34165598981E+02  0.28103931944E+02 -0.21808056360E+02  0.49322514804E+02  0.00000000000E+00 0. -1.
         -5    1    5    5    0  502  0.57561271973E+02 -0.31462512909E+02  0.91209338029E+01  0.66396319048E+02  0.47000000000E+01 0.  1.
         13    1    6    6    0    0  0.29057586250E+02  0.31065299417E+01 -0.34000850867E+02  0.44833600197E+02  0.00000000000E+00 0. -1.
        -14    1    6    6    0    0 -0.50929571458E+02 -0.18301259821E+02 -0.84959017240E+02  0.10073128596E+03  0.00000000000E+00 0.  1.
</event>
<event>
12    1  0.1040325E-001  0.2102064E+03  0.7818608E-02  0.1141579E+00
         21   -1    0    0  503  502  0.00000000000E+00  0.00000000000E+00  0.89973179183E+03  0.89973179183E+03  0.00000000000E+00 0. -1.
         21   -1    0    0  501  503 -0.00000000000E+00 -0.00000000000E+00 -0.69715466242E+02  0.69715466242E+02  0.00000000000E+00 0.  1.
          6    2    1    2  501    0 -0.67674941630E+02 -0.99562347555E+02  0.15078399919E+03  0.25869388855E+03  0.17231991988E+03 0.  0.
         24    2    3    3    0    0 -0.82734331569E+01 -0.17404859126E+02  0.48907705957E+01  0.80971306240E+02  0.78492381668E+02 0.  0.
         -6    2    1    2    0  502  0.67674941630E+02  0.99562347555E+02  0.67923232641E+03  0.71075336953E+03  0.17123445998E+03 0.  0.
        -24    2    5    5    0    0  0.45958899368E+02  0.32969665860E+02  0.58384977376E+03  0.59232156174E+03  0.82249953710E+02 0.  0.
          5    1    3    3  501    0 -0.59401508473E+02 -0.82157488429E+02  0.14589322859E+03  0.17772258231E+03  0.47000000000E+01 0. -1.
        -11    1    4    4    0    0 -0.35972122301E+02 -0.21827123671E+02 -0.17009999315E+02  0.45384545688E+02  0.00000000000E+00 0.  1.
         12    1    4    4    0    0  0.27698689144E+02  0.44222645452E+01  0.21900769910E+02  0.35586760553E+02  0.00000000000E+00 0. -1.
         -5    1    5    5    0  502  0.21716042262E+02  0.66592681694E+02  0.95382552652E+02  0.11843180779E+03  0.47000000000E+01 0.  1.
         13    1    6    6    0    0  0.34445908803E+02  0.60635759930E+02  0.39486689035E+03  0.40097765164E+03  0.00000000000E+00 0. -1.
        -14    1    6    6    0    0  0.11512990565E+02 -0.27666094070E+02  0.18898288340E+03  0.19134391010E+03  0.00000000000E+00 0.  1.
</event>
<event>
12    1  0.1040325E-001  0.2480145E+03  0.7818608E-02  0.1114953E+00
         21   -1    0    0  503  502  0.00000000000E+00  0.00000000000E+00  0.13461930051E+03  0.13461930051E+03  0.00000000000E+00 0. -1.
         21   -1    0    0  501  503 -0.00000000000E+00 -0.00000000000E+00 -0.49319459699E+03  0.49319459699E+03  0.00000000000E+00 0. -1.
          6    2    1    2  501    0  0.17558954406E+03 -0.94264135089E+01 -0.27027158054E+03  0.36682135003E+03  0.17490177339E+03 0.  0.
         24    2    3    3    0    0  0.13868875516E+03  0.28389570391E+02 -0.11113103531E+03  0.19907296704E+03  0.85084667728E+02 0.  0.
         -6    2    1    2    0  502 -0.17558954406E+03  0.94264135089E+01 -0.88303715938E+02  0.26099254746E+03  0.17146141935E+03 0.  0.
        -24    2    5    5    0    0 -0.43460132048E+02  0.38393514482E+02 -0.78029709290E+02  0.12525412376E+03  0.78975407274E+02 0.  0.
          5    1    3    3  501    0  0.36900788901E+02 -0.37815983900E+02 -0.15914054523E+03  0.16774838299E+03  0.47000000000E+01 0. -1.
        -13    1    4    4    0    0  0.37647437910E+02  0.48403159045E+02 -0.31902833288E+02  0.69122978513E+02  0.00000000000E+00 0.  1.
         14    1    4    4    0    0  0.10104131725E+03 -0.20013588654E+02 -0.79228202026E+02  0.12994998853E+03  0.00000000000E+00 0. -1.
         -5    1    5    5    0  502 -0.13212941202E+03 -0.28967100973E+02 -0.10274006649E+02  0.13573842371E+03  0.47000000000E+01 0.  1.
         13    1    6    6    0    0 -0.44423968505E+02  0.59434789462E+02 -0.47290744968E+02  0.87990895754E+02  0.00000000000E+00 0. -1.
        -14    1    6    6    0    0  0.96383645643E+00 -0.21041274980E+02 -0.30738964322E+02  0.37263228001E+02  0.00000000000E+00 0.  1.
</event>
<event>
12    1  0.1040325E-001  0.2317054E+03  0.7818608E-02  0.1125810E+00
         21   -1    0    0  501  502  0.00000000000E+00  0.00000000000E+00  0.14520942295E+03  0.14520942295E+03  0.00000000000E+00 0.  1.
         21   -1    0    0  502  503 -0.00000000000E+00 -0.00000000000E+00 -0.36989380327E+03  0.36989380327E+03  0.00000000000E+00 0. -1.
         -6    2    1    2    0  503 -0.70672879295E+02 -0.13634277841E+03 -0.87824891433E+02  0.24779144144E+03  0.17350325013E+03 0.  0.
        -24    2    3    3    0    0 -0.10345196640E+03 -0.14619849206E+03 -0.82349905304E+02  0.21281045923E+03  0.80190250158E+02 0.  0.
          6    2    1    2  501    0  0.70672879295E+02  0.13634277841E+03 -0.13685948888E+03  0.26731178478E+03  0.17070753204E+03 0.  0.
         24    2    5    5    0    0  0.91843557784E+02  0.15675014677E+03 -0.10520580034E+03  0.22385255895E+03  0.77690798065E+02 0.  0.
          5    1    5    5  501    0 -0.21170678489E+02 -0.20407368368E+02 -0.31653688543E+02  0.43459225830E+02  0.47000000000E+01 0. -1.
        -13    1    6    6    0    0  0.18595353403E+02  0.10126398229E+03 -0.74058078304E+02  0.12682578696E+03  0.00000000000E+00 0.  1.
         14    1    6    6    0    0  0.73248204382E+02  0.55486164489E+02 -0.31147722037E+02  0.97026771991E+02  0.00000000000E+00 0. -1.
         -5    1    3    3    0  503  0.32779087109E+02  0.98557136537E+01 -0.54749861291E+01  0.34980982211E+02  0.47000000000E+01 0.  1.
         13    1    4    4    0    0 -0.26156577118E+02 -0.10337266015E+03 -0.33118403869E+02  0.11165528231E+03  0.00000000000E+00 0. -1.
        -14    1    4    4    0    0 -0.77295389287E+02 -0.42825831908E+02 -0.49231501434E+02  0.10115517692E+03  0.00000000000E+00 0.  1.
</event>
<event>
12    1  0.1040325E-001  0.2196294E+03  0.7818608E-02  0.1134189E+00
         21   -1    0    0  501  502  0.00000000000E+00  0.00000000000E+00  0.16802056675E+03  0.16802056675E+03  0.00000000000E+00 0. -1.
         21   -1    0    0  502  503 -0.00000000000E+00 -0.00000000000E+00 -0.19215253578E+04  0.19215253578E+04  0.00000000000E+00 0. -1.
         -6    2    1    2    0  503 -0.10308929054E+03 -0.90148476026E+02 -0.18403347850E+04  0.18533753642E+04  0.17150501469E+03 0.  0.
        -24    2    3    3    0    0 -0.11638322579E+03 -0.23002123095E+02 -0.14549031186E+04  0.14618845969E+04  0.79305340897E+02 0.  0.
          6    2    1    2  501    0  0.10308929054E+03  0.90148476026E+02  0.86829993947E+02  0.23617056038E+03  0.17170595851E+03 0.  0.
         24    2    5    5    0    0 -0.12150191718E+02  0.46041210814E+02  0.15325710905E+02  0.93480190669E+02  0.78969920733E+02 0.  0.
          5    1    5    5  501    0  0.11523948226E+03  0.44107265212E+02  0.71504283043E+02  0.14269036972E+03  0.47000000000E+01 0. -1.
        -11    1    6    6    0    0 -0.93473617584E+01 -0.18478134026E+02  0.19924132650E+02  0.28736486751E+02  0.00000000000E+00 0.  1.
         12    1    6    6    0    0 -0.28028299599E+01  0.64519344840E+02 -0.45984217455E+01  0.64743703917E+02  0.00000000000E+00 0. -1.
         -5    1    3    3    0  503  0.13293935249E+02 -0.67146352931E+02 -0.38543166637E+03  0.39149076728E+03  0.47000000000E+01 0.  1.
         11    1    4    4    0    0 -0.10315724136E+02  0.19663273251E+02 -0.44049446631E+03  0.44105377600E+03  0.00000000000E+00 0. -1.
        -12    1    4    4    0    0 -0.10606750166E+03 -0.42665396346E+02 -0.10144086523E+04  0.10208308209E+04  0.00000000000E+00 0.  1.
</event>
<event>
12    1  0.1040325E-001  0.2802121E+03  0.7818608E-02  0.1095628E+00
         21   -1    0    0  503  502  0.00000000000E+00  0.00000000000E+00  0.89367844368E+03  0.89367844368E+03  0.00000000000E+00 0.  1.
         21   -1    0    0  501  503 -0.00000000000E+00 -0.00000000000E+00 -0.10310016162E+03  0.10310016162E+03  0.00000000000E+00 0.  1.
          6    2    1    2  501    0 -0.20163988816E+03 -0.90463825295E+02  0.20312599011E+03  0.34609102435E+03  0.17226863061E+03 0.  0.
         24    2    3    3    0    0 -0.15706624888E+03 -0.44746753788E+02  0.62724255778E+02  0.19178095679E+03  0.78571780018E+02 0.  0.
         -6    2    1    2    0  502  0.20163988816E+03  0.90463825295E+02  0.58745229195E+03  0.65068758096E+03  0.17161522225E+03 0.  0.
        -24    2    5    5    0    0  0.56298067450E+02  0.82495154252E+01  0.12231239073E+03  0.15646024935E+03  0.79258827889E+02 0.  0.
          5    1    3    3  501    0 -0.44573639286E+02 -0.45717071507E+02  0.14040173433E+03  0.15431006756E+03  0.47000000000E+01 0. -1.
        -13    1    4    4    0    0 -0.13384036035E+03 -0.56787131762E+01  0.58360756214E+02  0.14612141427E+03  0.00000000000E+00 0.  1.
         14    1    4    4    0    0 -0.23225888523E+02 -0.39068040612E+02  0.43634995639E+01  0.45659542523E+02  0.00000000000E+00 0. -1.
         -5    1    5    5    0  502  0.14534182071E+03  0.82214309870E+02  0.46513990122E+03  0.49422733160E+03  0.47000000000E+01 0.  1.
         11    1    6    6    0    0  0.14023383919E+02  0.74816428567E+01 -0.91677765414E+01  0.18348798410E+02  0.00000000000E+00 0. -1.
        -12    1    6    6    0    0  0.42274683531E+02  0.76787256847E+00  0.13148016727E+03  0.13811145094E+03  0.00000000000E+00 0.  1.
</event>
<event>
12    1  0.1040325E-001  0.1960388E+03  0.7818608E-02  0.1153307E+00
         21   -1    0    0  503  502  0.00000000000E+00  0.00000000000E+00  0.67851715128E+02  0.67851715128E+02  0.00000000000E+00 0.  1.
         21   -1    0    0  501  503 -0.00000000000E+00 -0.00000000000E+00 -0.59362394810E+03  0.59362394810E+03  0.00000000000E+00 0.  1.
          6    2    1    2  501    0  0.26226058041E+02  0.89286206553E+02 -0.33733861040E+03  0.39016479336E+03  0.17254389329E+03 0.  0.
         24    2    3    3    0    0 -0.64314893958E+01  0.12190994385E+03 -0.27473214787E+03  0.31223865660E+03  0.84331649678E+02 0.  0.
         -6    2    1    2    0  502 -0.26226058041E+02 -0.89286206553E+02 -0.18843362257E+03  0.27131086986E+03  0.17158824316E+03 0.  0.
        -24    2    5    5    0    0  0.35213827572E+02 -0.37171532473E+02 -0.42055859179E+02  0.10416022399E+03  0.80367409394E+02 0.  0.
          5    1    3    3  501    0  0.32657547436E+02 -0.32623737300E+02 -0.62606462524E+02  0.77926136756E+02  0.47000000000E+01 0. -1.
        -11    1    4    4    0    0  0.27890158711E+02  0.42997382333E+02 -0.16507349011E+03  0.17284644335E+03  0.00000000000E+00 0.  1.
         12    1    4    4    0    0 -0.34321648107E+02  0.78912561520E+02 -0.10965865776E+03  0.13939221325E+03  0.00000000000E+00 0. -1.
         -5    1    5    5    0  502 -0.61439885613E+02 -0.52114674080E+02 -0.14637776339E+03  0.16715064587E+03  0.47000000000E+01 0.  1.
         11    1    6    6    0    0  0.46840542496E+02  0.89111689669E+01 -0.23261464904E+02  0.53052248804E+02  0.00000000000E+00 0. -1.
        -12    1    6    6    0    0 -0.11626714924E+02 -0.46082701440E+02 -0.18794394275E+02  0.51107975191E+02  0.00000000000E+00 0.  1.
</event>
<event>
12    1  0.1040325E-001  0.1738175E+03  0.7818608E-02  0.1174772E+00
         21   -1    0    0  503  502  0.00000000000E+00  0.00000000000E+00  0.75322161028E+02  0.75322161028E+02  0.00000000000E+00 0. -1.
         21   -1    0    0  501  503 -0.00000000000E+00 -0.00000000000E+00 -0.39643979258E+03  0.39643979258E+03  0.00000000000E+00 0. -1.
          6    2    1    2  501    0  0.23212017312E+01 -0.18210966473E+02 -0.17933676314E+03  0.24745340053E+03  0.16951248787E+03 0.  0.
         24    2    3    3    0    0  0.57604598439E+02 -0.29687542647E+02 -0.66235586027E+02  0.12095465739E+03  0.77738255307E+02 0.  0.
         -6    2    1    2    0  502 -0.23212017312E+01  0.18210966473E+02 -0.14178086841E+03  0.22430855308E+03  0.17284526334E+03 0.  0.
        -24    2    5    5    0    0 -0.30445264420E+02 -0.11727475478E+01 -0.69357007047E+01  0.85125218852E+02  0.79182759979E+02 0.  0.
          5    1    3    3  501    0 -0.55283396708E+02  0.11476576174E+02 -0.11310117711E+03  0.12649874314E+03  0.47000000000E+01 0. -1.
        -11    1    4    4    0    0  0.28463628843E+02  0.17230376367E+01 -0.72263443374E+02  0.77686242501E+02  0.00000000000E+00 0.  1.
         12    1    4    4    0    0  0.29140969597E+02 -0.31410580283E+02  0.60278573477E+01  0.43268414889E+02  0.00000000000E+00 0. -1.
         -5    1    5    5    0  502  0.28124062689E+02  0.19383714021E+02 -0.13484516771E+03  0.13918333422E+03  0.47000000000E+01 0.  1.
         13    1    6    6    0    0  0.26534232966E+02 -0.36142858185E+01 -0.84271802255E+01  0.28073937160E+02  0.00000000000E+00 0. -1.
        -14    1    6    6    0    0 -0.56979497387E+02  0.24415382707E+01  0.14914795208E+01  0.57051281692E+02  0.00000000000E+00 0.  1.
</event>
<event>
12    1  0.1040325E-001  0.2502370E+03  0.7818608E-02  0.1113155E+00
         21   -1    0    0  503  502  0.00000000000E+00  0.00000000000E+00  0.13948047384E+03  0.13948047384E+03  0.00000000000E+00 0.  1.
         21   -1    0    0  501  503 -0.00000000000E+00 -0.00000000000E+00 -0.88653118040E+03  0.88653118040E+03  0.00000000000E+00 0.  1.
          6    2    1    2  501    0  0.17962323871E+03 -0.22818004606E+02 -0.73394604187E+03  0.77543236322E+03  0.17272344466E+03 0.  0.
         24    2    3    3    0    0  0.15579530493E+03  0.32709425480E+02 -0.63358194808E+03  0.65818856918E+03  0.80274679105E+02 0.  0.
         -6    2    1    2    0  502 -0.17962323871E+03  0.22818004606E+02 -0.13104664694E+02  0.25057929102E+03  0.17272255102E+03 0.  0.
        -24    2    5    5    0    0 -0.17946363852E+03  0.63754622556E+02  0.14276196222E+01  0.20688593399E+03  0.80795433875E+02 0.  0.
          5    1    3    3  501    0  0.23827933787E+02 -0.55527430085E+02 -0.10036409379E+03  0.11724379404E+03  0.47000000000E+01 0. -1.
        -11    1    4    4    0    0  0.49803864917E+02 -0.10791658896E+02 -0.97652484317E+02  0.11014941015E+03  0.00000000000E+00 0.  1.
         12    1    4    4    0    0  0.10599144001E+03  0.43501084376E+02 -0.53592946377E+03  0.54803915903E+03  0.00000000000E+00 0. -1.
         -5    1    5    5    0  502 -0.15960018897E+00 -0.40936617950E+02 -0.14532284316E+02  0.43693357033E+02  0.47000000000E+01 0.  1.
         13    1    6    6    0    0  0.80123269870E+01  0.41377585425E+01  0.46221854512E+01  0.10133263435E+02  0.00000000000E+00 0. -1.
        -14    1    6    6    0    0 -0.18747596551E+03  0.59616864013E+02 -0.31945658291E+01  0.19675267055E+03  0.00000000000E+00 0.  1.
</event>
<event>
12    1  0.1040325E-001  0.3451332E+03  0.7818608E-02  0.1064783E+00
         21   -1    0    0  501  502  0.00000000000E+00  0.00000000000E+00  0.35410093188E+03  0.35410093188E+03  0.00000000000E+00 0. -1.
         21   -1    0    0  502  503 -0.00000000000E+00 -0.00000000000E+00 -0.36544638179E+03  0.36544638179E+03  0.00000000000E+00 0.  1.
         -6    2    1    2    0  503  0.29581506284E+03  0.42851872253E+02 -0.10954673055E+03  0.36071530973E+03  0.16962374285E+03 0.  0.
        -24    2    3    3    0    0  0.24434912787E+03  0.59518037948E+02 -0.31222259654E+02  0.26540887614E+03  0.78855240172E+02 0.  0.
          6    2    1    2  501    0 -0.29581506284E+03 -0.42851872253E+02  0.98201280638E+02  0.35883200395E+03  0.17255167684E+03 0.  0.
         24    2    5    5    0    0 -0.73834090109E+02 -0.57671191271E+02  0.36671681372E+02  0.12795726289E+03  0.79062062635E+02 0.  0.
          5    1    5    5  501    0 -0.22198097273E+03  0.14819319018E+02  0.61529599265E+02  0.23087474105E+03  0.47000000000E+01 0. -1.
        -13    1    6    6    0    0 -0.25939342615E+02  0.83163341687E+01 -0.15322176751E+02  0.31253479961E+02  0.00000000000E+00 0.  1.
         14    1    6    6    0    0 -0.47894747495E+02 -0.65987525439E+02  0.51993858123E+02  0.96703782934E+02  0.00000000000E+00 0. -1.
         -5    1    3    3    0  503  0.51465934963E+02 -0.16666165696E+02 -0.78324470901E+02  0.95306433584E+02  0.47000000000E+01 0.  1.
         11    1    4    4    0    0  0.17185314895E+02 -0.13496557263E+02  0.86302550968E+01  0.23494114349E+02  0.00000000000E+00 0. -1.
        -12    1    4    4    0    0  0.22716381298E+03  0.73014595212E+02 -0.39852514751E+02  0.24191476179E+03  0.00000000000E+00 0.  1.
</event>
<event>
12    1  0.1040325E-001  0.1931241E+03  0.7818608E-02  0.1155993E+00
         21   -1    0    0  501  502  0.00000000000E+00  0.00000000000E+00  0.16503643396E+03  0.16503643396E+03  0.00000000000E+00 0.  1.
         21   -1    0    0  502  503 -0.00000000000E+00 -0.00000000000E+00 -0.31028627112E+03  0.31028627112E+03  0.00000000000E+00 0.  1.
         -6    2    1    2    0  503 -0.34090532355E+02 -0.78335530773E+02 -0.19753325207E+03  0.27524652712E+03  0.17158859299E+03 0.  0.
        -24    2    3    3    0    0  0.29148706967E+02 -0.89995952539E+02 -0.15319365128E+03  0.19699528417E+03  0.79937028977E+02 0.  0.
          6    2    1    2  501    0  0.34090532355E+02  0.78335530773E+02  0.52283414907E+02  0.20007617795E+03  0.17320017821E+03 0.  0.
         24    2    5    5    0    0 -0.84063013223E+01  0.70834895934E+02  0.90780425575E+02  0.14205592092E+03  0.82768053117E+02 0.  0.
          5    1    5    5  501    0  0.42496833677E+02  0.75006348390E+01 -0.38497010669E+02  0.58020257031E+02  0.47000000000E+01 0. -1.
        -11    1    6    6    0    0  0.13077435506E+02 -0.15337966171E+02  0.21026586817E+02  0.29127133035E+02  0.00000000000E+00 0.  1.
         12    1    6    6    0    0 -0.21483736828E+02  0.86172862106E+02  0.69753838758E+02  0.11292878788E+03  0.00000000000E+00 0. -1.
         -5    1    3    3    0  503 -0.63239239321E+02  0.11660421765E+02 -0.44339600782E+02  0.78251242950E+02  0.47000000000E+01 0.  1.
         11    1    4    4    0    0 -0.22025029935E+02 -0.78621711467E+01 -0.13333874725E+02  0.26920399216E+02  0.00000000000E+00 0. -1.
        -12    1    4    4    0    0  0.51173736901E+02 -0.82133781392E+02 -0.13985977656E+03  0.17007488496E+03  0.00000000000E+00 0.  1.
</event>
<event>
12    1  0.1040325E-001  0.1775604E+03  0.7818608E-02  0.1170463E+00
         21   -1    0    0  501  502  0.00000000000E+00  0.00000000000E+00  0.16281848005E+04  0.16281848005E+04  0.00000000000E+00 0.  1.
         21   -1    0    0  502  503 -0.00000000000E+00 -0.00000000000E+00 -0.19320214964E+02  0.19320214964E+02  0.00000000000E+00 0.  1.
         -6    2    1    2    0  503 -0.27982972995E+02  0.26973774293E+02  0.75430451459E+03  0.77492129160E+03  0.17325436842E+03 0.  0.
        -24    2    3    3    0    0 -0.84948463785E+02  0.22211622034E+02  0.44785610169E+03  0.46315140049E+03  0.78895717920E+02 0.  0.
          6    2    1    2  501    0  0.27982972995E+02 -0.26973774293E+02  0.85456007097E+03  0.87258372389E+03  0.17210115923E+03 0.  0.
         24    2    5    5    0    0  0.72915896718E+02  0.18113672437E+02  0.61620844073E+03  0.62583398199E+03  0.79438639585E+02 0.  0.
          5    1    5    5  501    0 -0.44932923723E+02 -0.45087446730E+02  0.23835163025E+03  0.24674974190E+03  0.47000000000E+01 0. -1.
        -13    1    6    6    0    0 -0.15470884458E+02 -0.22942907250E+01  0.15516723477E+03  0.15595346351E+03  0.00000000000E+00 0.  1.
         14    1    6    6    0    0  0.88386781177E+02  0.20407963162E+02  0.46104120596E+03  0.46988051847E+03  0.00000000000E+00 0. -1.
         -5    1    3    3    0  503  0.56965490790E+02  0.47621522592E+01  0.30644841290E+03  0.31176989111E+03  0.47000000000E+01 0.  1.
         13    1    4    4    0    0 -0.10720099465E+02 -0.20640028242E+02  0.39002893193E+02  0.45410978582E+02  0.00000000000E+00 0. -1.
        -14    1    4    4    0    0 -0.74228364321E+02  0.42851650276E+02  0.40885320849E+03  0.41774042191E+03  0.00000000000E+00 0.  1.
</event>
<event>
12    1  0.1040325E-001  0.1755275E+03  0.7818608E-02  0.1172284E+00
         21   -1    0    0  501  502  0.00000000000E+00  0.00000000000E+00  0.52125926936E+03  0.52125926936E+03  0.00000000000E+00 0. -1.
         21   -1    0    0  502  503 -0.00000000000E+00 -0.00000000000E+00 -0.11276519262E+03  0.11276519262E+03  0.00000000000E+00 0. -1.
         -6    2    1    2    0  503  0.36549576570E+01  0.35078925517E+02 -0.14750396057E+02  0.17582605986E+03  0.17161975239E+03 0.  0.
        -24    2    3    3    0    0  0.41087186297E+02  0.75777328007E+02 -0.17433993197E+02  0.12026687160E+03  0.82035455561E+02 0.  0.
          6    2    1    2  501    0 -0.36549576570E+01 -0.35078925517E+02  0.42324447280E+03  0.45819840212E+03  0.17194767291E+03 0.  0.
         24    2    5    5    0    0 -0.52967761105E+02 -0.78618329961E+01  0.36729704420E+03  0.37867024688E+03  0.74944279696E+02 0.  0.
          5    1    5    5  501    0  0.49312803448E+02 -0.27217092521E+02  0.55947428602E+02  0.79528155243E+02  0.47000000000E+01 0. -1.
        -13    1    6    6    0    0 -0.61161213580E+02 -0.24021674291E+01  0.16263822237E+03  0.17377472725E+03  0.00000000000E+00 0.  1.
         14    1    6    6    0    0  0.81934524757E+01 -0.54596655670E+01  0.20465882183E+03  0.20489551963E+03  0.00000000000E+00 0. -1.
         -5    1    3    3    0  503 -0.37432228640E+02 -0.40698402490E+02  0.26835971405E+01  0.55559188258E+02  0.47000000000E+01 0.  1.
         13    1    4    4    0    0  0.63781307583E+02  0.37674706063E+02 -0.16578060590E+02  0.75909622360E+02  0.00000000000E+00 0. -1.
        -14    1    4    4    0    0 -0.22694121286E+02  0.38102621944E+02 -0.85593260724E+00  0.44357249244E+02  0.00000000000E+00 0.  1.
</event>
<event>
12    1  0.1040325E-001  0.2304839E+03  0.7818608E-02  0.1126491E+00
         21   -1    0    0  503  502  0.00000000000E+00  0.00000000000E+00  0.25866558311E+03  0.25866558311E+03  0.00000000000E+00 0.  1.
         21   -1    0    0  501  503 -0.00000000000E+00 -0.00000000000E+00 -0.24010047427E+03  0.24010047427E+03  0.00000000000E+00 0. -1.
          6    2    1    2  501    0  0.86258192371E+02  0.12547085967E+03  0.10545532980E+03  0.25346333820E+03  0.17303012700E+03 0.  0.
         24    2    3    3    0    0  0.10631362830E+03  0.10882772123E+03  0.13141532693E+03  0.21637929826E+03  0.80024696758E+02 0.  0.
         -6    2    1    2    0  502 -0.86258192371E+02 -0.12547085967E+03 -0.86890220957E+02  0.24530271919E+03  0.17158117952E+03 0.  0.
        -24    2    5    5    0    0 -0.88159951197E+02 -0.12432666657E+03 -0.12140803175E+03  0.21039576965E+03  0.79354726990E+02 0.  0.
          5    1    3    3  501    0 -0.20055435927E+02  0.16643138439E+02 -0.25959997133E+02  0.37084039943E+02  0.47000000000E+01 0. -1.
        -13    1    4    4    0    0  0.77483949097E+02  0.11561759227E+03  0.91064013605E+02  0.16632451588E+03  0.00000000000E+00 0.  1.
         14    1    4    4    0    0  0.28829679200E+02 -0.67898710359E+01  0.40351313325E+02  0.50054782374E+02  0.00000000000E+00 0. -1.
         -5    1    5    5    0  502  0.19017588258E+01 -0.11441930967E+01  0.34517810791E+02  0.34906949541E+02  0.47000000000E+01 0.  1.
         11    1    6    6    0    0 -0.15119154204E+02  0.82408297552E+01 -0.26952768007E+02  0.31983617715E+02  0.00000000000E+00 0. -1.
        -12    1    6    6    0    0 -0.73040796992E+02 -0.13256749633E+03 -0.94455263741E+02  0.17841215193E+03  0.00000000000E+00 0.  1.
</event>
<event>
12    1  0.1040325E-001  0.2116547E+03  0.7818608E-02  0.1140535E+00
         21   -1    0    0  503  502  0.00000000000E+00  0.00000000000E+00  0.51462619958E+02  0.51462619958E+02  0.00000000000E+00 0. -1.
         21   -1    0    0  501  503 -0.00000000000E+00 -0.00000000000E+00 -0.86498308416E+03  0.86498308416E+03  0.00000000000E+00 0. -1.
          6    2    1    2  501    0 -0.22613183580E+02  0.11721035818E+03 -0.41477645202E+03  0.46565781849E+03  0.17478007503E+03 0.  0.
         24    2    3    3    0    0  0.54290797511E+02  0.80325090868E+02 -0.23172837280E+03  0.26365921809E+03  0.80115751313E+02 0.  0.
         -6    2    1    2    0  502  0.22613183580E+02 -0.11721035818E+03 -0.39874401218E+03  0.45078788563E+03  0.17309912319E+03 0.  0.
        -24    2    5    5    0    0  0.41660681784E+02 -0.11980510660E+03 -0.19512628152E+03  0.24621073601E+03  0.80352876837E+02 0.  0.
          5    1    3    3  501    0 -0.76903981090E+02  0.36885267316E+02 -0.18304807922E+03  0.20199860039E+03  0.47000000000E+01 0. -1.
        -13    1    4    4    0    0  0.36161281470E+02  0.15575139500E+02 -0.25904127157E+02  0.47130107699E+02  0.00000000000E+00 0.  1.
         14    1    4    4    0    0  0.18129516041E+02  0.64749951368E+02 -0.20582424564E+03  0.21652911040E+03  0.00000000000E+00 0. -1.
         -5    1    5    5    0  502 -0.19047498204E+02  0.25947484119E+01 -0.20361773066E+03  0.20457714962E+03  0.47000000000E+01 0.  1.
         13    1    6    6    0    0  0.20031448388E+02 -0.42904092698E+01 -0.26007207057E+01  0.20650188484E+02  0.00000000000E+00 0. -1.
        -14    1    6    6    0    0  0.21629233395E+02 -0.11551469733E+03 -0.19252556081E+03  0.22556054753E+03  0.00000000000E+00 0.  1.
</event>
<event>
12    1  0.1040325E-001  0.2382526E+03  0.7818608E-02  0.1121002E+00
         21   -1    0    0  503  502  0.00000000000E+00  0.00000000000E+00  0.19540796062E+03  0.19540796062E+03  0.00000000000E+00 0.  1.
         21   -1    0    0  501  503 -0.00000000000E+00 -0.00000000000E+00 -0.33460459510E+03  0.33460459510E+03  0.00000000000E+00 0. -1.
          6    2    1    2  501    0 -0.57988688103E+02  0.15340293120E+03 -0.16616518995E+03  0.29047403954E+03  0.17282693669E+03 0.  0.
         24    2    3    3    0    0 -0.29842081913E+02  0.14425816551E+03 -0.54923297068E+02  0.17526680491E+03  0.77465580576E+02 0.  0.
         -6    2    1    2    0  502  0.57988688103E+02 -0.15340293120E+03  0.26968555467E+02  0.23953851619E+03  0.17250000146E+03 0.  0.
        -24    2    5    5    0    0  0.92872626043E+02 -0.16043252182E+03  0.27459075538E+02  0.20364095526E+03  0.79697673146E+02 0.  0.
          5    1    3    3  501    0 -0.28146606191E+02  0.91447656937E+01 -0.11124189288E+03  0.11520723463E+03  0.47000000000E+01 0. -1.
        -11    1    4    4    0    0 -0.30531487556E+02  0.13041433780E+02 -0.48413572247E+00  0.33203691283E+02  0.00000000000E+00 0.  1.
         12    1    4    4    0    0  0.68940564313E+00  0.13121673173E+03 -0.54439161346E+02  0.14206311363E+03  0.00000000000E+00 0. -1.
         -5    1    5    5    0  502 -0.34883937940E+02  0.70295906193E+01 -0.49052007110E+00  0.35897560926E+02  0.47000000000E+01 0.  1.
         11    1    6    6    0    0 -0.19113671559E+00 -0.46065490566E+02 -0.17828478337E+02  0.49395552372E+02  0.00000000000E+00 0. -1.
        -12    1    6    6    0    0  0.93063762759E+02 -0.11436703126E+03  0.45287553875E+02  0.15424540289E+03  0.00000000000E+00 0.  1.
</event>
<event>
12    1  0.1040325E-001  0.2607259E+03  0.7818608E-02  0.1106852E+00
         21   -1    0    0  501  502  0.00000000000E+00  0.00000000000E+00  0.19671735264E+03  0.19671735264E+03  0.00000000000E+00 0. -1.
         21   -1    0    0  502  503 -0.00000000000E+00 -0.00000000000E+00 -0.55443432505E+03  0.55443432505E+03  0.00000000000E+00 0. -1.
         -6    2    1    2    0  503  0.16518985940E+03 -0.10336788277E+03 -0.41028446400E+03  0.48611866309E+03  0.17322068113E+03 0.  0.
        -24    2    3    3    0    0  0.97756564009E+02 -0.91672832150E+01 -0.30259877962E+03  0.32788055483E+03  0.79367826757E+02 0.  0.
          6    2    1    2  501    0 -0.16518985940E+03  0.10336788277E+03  0.52567491595E+02  0.26503301459E+03  0.17177470365E+03 0.  0.
         24    2    5    5    0    0 -0.83068362995E+02 -0.79957182551E+01 -0.61093160432E+01  0.11466397004E+03  0.78397817832E+02 0.  0.
          5    1    5    5  501    0 -0.82121496402E+02  0.11136360103E+03  0.58676807638E+02  0.15036904455E+03  0.47000000000E+01 0. -1.
        -13    1    6    6    0    0  0.54742014899E+01 -0.57220779550E+01  0.20667899335E+02  0.22133032349E+02  0.00000000000E+00 0.  1.
         14    1    6    6    0    0 -0.88542564485E+02 -0.22736403001E+01 -0.26777215378E+02  0.92530937687E+02  0.00000000000E+00 0. -1.
         -5    1    3    3    0  503  0.67433295388E+02 -0.94200599560E+02 -0.10768568439E+03  0.15823810826E+03  0.47000000000E+01 0.  1.
         13    1    4    4    0    0  0.92423918583E+02 -0.34975923983E+02 -0.25490633313E+03  0.27339117516E+03  0.00000000000E+00 0. -1.
        -14    1    4    4    0    0  0.53326454262E+01  0.25808640768E+02 -0.47692446490E+02  0.54489379678E+02  0.00000000000E+00 0.  1.
</event>
<event>
12    1  0.1040325E-001  0.2155228E+03  0.7818608E-02  0.1137455E+00
         21   -1    0    0  501  502  0.00000000000E+00  0.00000000000E+00  0.92135987553E+03  0.92135987553E+03  0.00000000000E+00 0.  1.
         21   -1    0    0  502  503 -0.00000000000E+00 -0.00000000000E+00 -0.12653386620E+03  0.12653386620E+03  0.00000000000E+00 0.  1.
         -6    2    1    2    0  503 -0.25062728047E+02 -0.12731616514E+03 -0.92185402728E+01  0.21571987993E+03  0.17208294183E+03 0.  0.
        -24    2    3    3    0    0  0.52670376316E+02 -0.62709255774E+02 -0.77851216346E+01  0.11452386745E+03  0.79677404556E+02 0.  0.
          6    2    1    2  501    0  0.25062728047E+02  0.12731616514E+03  0.80404454961E+03  0.83217386181E+03  0.17084540463E+03 0.  0.
         24    2    5    5    0    0  0.16331318100E+02  0.14271266407E+03  0.79345217063E+03  0.81101781796E+03  0.86890376478E+02 0.  0.
          5    1    5    5  501    0  0.87314099468E+01 -0.15396498935E+02  0.10592378975E+02  0.21156043852E+02  0.47000000000E+01 0. -1.
        -13    1    6    6    0    0 -0.32795912771E+02  0.31612584710E+02  0.25458044416E+03  0.25862352939E+03  0.00000000000E+00 0.  1.
         14    1    6    6    0    0  0.49127230871E+02  0.11110007936E+03  0.53887172647E+03  0.55239428856E+03  0.00000000000E+00 0. -1.
         -5    1    3    3    0  503 -0.77733104363E+02 -0.64606909363E+02 -0.14334186382E+01  0.10119601247E+03  0.47000000000E+01 0.  1.
         13    1    4    4    0    0  0.25623319854E+02  0.77532266335E+01  0.20712538691E+02  0.33847840443E+02  0.00000000000E+00 0. -1.
        -14    1    4    4    0    0  0.27047056462E+02 -0.70462482408E+02 -0.28497660326E+02  0.80676027012E+02  0.00000000000E+00 0.  1.
</event>
<event>
12    1  0.1040325E-001  0.2154448E+03  0.7818608E-02  0.1137360E+00
         21   -1    0    0  503  502  0.00000000000E+00  0.00000000000E+00  0.12590256061E+04  0.12590256061E+04  0.00000000000E+00 0. -1.
         21   -1    0    0  501  503 -0.00000000000E+00 -0.00000000000E+00 -0.44003161532E+02  0.44003161532E+02  0.00000000000E+00 0. -1.
          6    2    1    2  501    0  0.12929103514E+03  0.10470351581E+02  0.34478277634E+03  0.40656071482E+03  0.17201933596E+03 0.  0.
         24    2    3    3    0    0  0.13200099349E+02  0.29249128496E+02  0.21135116237E+03  0.22863985195E+03  0.81099407680E+02 0.  0.
         -6    2    1    2    0  502 -0.12929103514E+03 -0.10470351581E+02  0.87023966827E+03  0.89646805285E+03  0.17179083074E+03 0.  0.
        -24    2    5    5    0    0 -0.93240780725E+02  0.54848401012E+02  0.65647965772E+03  0.67001365922E+03  0.79060560735E+02 0.  0.
          5    1    3    3  501    0  0.11609093579E+03 -0.18778776915E+02  0.13343161397E+03  0.17792086287E+03  0.47000000000E+01 0. -1.
        -11    1    4    4    0    0  0.11932711442E+02  0.56646384467E+02  0.16402551203E+03  0.17394128628E+03  0.00000000000E+00 0.  1.
         12    1    4    4    0    0  0.12673879069E+01 -0.27397255972E+02  0.47325650337E+02  0.54698565673E+02  0.00000000000E+00 0. -1.
         -5    1    5    5    0  502 -0.36050254417E+02 -0.65318752592E+02  0.21376001055E+03  0.22645439363E+03  0.47000000000E+01 0.  1.
         13    1    6    6    0    0 -0.93073742235E+02  0.15634118790E+02  0.48642066321E+03  0.49549188566E+03  0.00000000000E+00 0. -1.
        -14    1    6    6    0    0 -0.16703848958E+00  0.39214282221E+02  0.17005899451E+03  0.17452177356E+03  0.00000000000E+00 0.  1.
</event>
<event>
12    1  0.1040325E-001  0.1909603E+03  0.7818608E-02  0.1157679E+00
         21   -1    0    0  501  502  0.00000000000E+00  0.00000000000E+00  0.47580862304E+03  0.47580862304E+03  0.00000000000E+00 0. -1.
         21   -1    0    0  502  503 -0.00000000000E+00 -0.00000000000E+00 -0.11361074415E+03  0.11361074415E+03  0.00000000000E+00 0. -1.
         -6    2    1    2    0  503 -0.57866140918E+02 -0.59506811189E+02  0.12536704509E+02  0.19101156607E+03  0.17157709220E+03 0.  0.
        -24    2    3    3    0    0 -0.99325052510E+02 -0.60669370567E+02  0.31945128537E+02  0.14497929675E+03  0.80326002445E+02 0.  0.
          6    2    1    2  501    0  0.57866140918E+02  0.59506811189E+02  0.34966117438E+03  0.39840780112E+03  0.17197758077E+03 0.  0.
         24    2    5    5    0    0  0.58985552279E+02  0.88754641648E+02  0.34324687542E+03  0.36807758682E+03  0.79410393820E+02 0.  0.
          5    1    5    5  501    0 -0.11194113608E+01 -0.29247830459E+02  0.64142989615E+01  0.30330214301E+02  0.47000000000E+01 0. -1.
        -13    1    6    6    0    0  0.69928949566E+02  0.36281889387E+02  0.18806693987E+03  0.20390097439E+03  0.00000000000E+00 0.  1.
         14    1    6    6    0    0 -0.10943397287E+02  0.52472752261E+02  0.15517993555E+03  0.16417661244E+03  0.00000000000E+00 0. -1.
         -5    1    3    3    0  503  0.41458911592E+02  0.11625593778E+01 -0.19408424029E+02  0.46032269312E+02  0.47000000000E+01 0.  1.
         13    1    4    4    0    0 -0.33668942591E+02  0.25043264986E+01 -0.20844164409E+02  0.39678061146E+02  0.00000000000E+00 0. -1.
        -14    1    4    4    0    0 -0.65656109920E+02 -0.63173697065E+02  0.52789292947E+02  0.10530123561E+03  0.00000000000E+00 0.  1.
</event>
<event>
12    1  0.1040325E-001  0.2331161E+03  0.7818608E-02  0.1124618E+00
         21   -1    0    0  503  502  0.00000000000E+00  0.00000000000E+00  0.13904922777E+04  0.13904922777E+04  0.00000000000E+00 0.  1.
         21   -1    0    0  501  503 -0.00000000000E+00 -0.00000000000E+00 -0.39338887816E+02  0.39338887816E+02  0.00000000000E+00 0.  1.
          6    2    1    2  501    0  0.11775038583E+03  0.99727307196E+02  0.60182981314E+03  0.64508346819E+03  0.17355940710E+03 0.  0.
         24    2    3    3    0    0  0.80598053251E+02  0.51195790845E+01  0.20404493215E+03  0.23449143274E+03  0.82641644558E+02 0.  0.
         -6    2    1    2    0  502 -0.11775038583E+03 -0.99727307196E+02  0.74932357677E+03  0.78474769735E+03  0.17473533307E+03 0.  0.
        -24    2    5    5    0    0 -0.13511178559E+03 -0.11693419062E+03  0.54912880732E+03  0.58301140722E+03  0.80193854997E+02 0.  0.
          5    1    3    3  501    0  0.37152332579E+02  0.94607728111E+02  0.39778488099E+03  0.41059203545E+03  0.47000000000E+01 0. -1.
        -13    1    4    4    0    0  0.17629922116E+02 -0.23914500620E+02  0.12874677167E+03  0.13213042310E+03  0.00000000000E+00 0.  1.
         14    1    4    4    0    0  0.62968131135E+02  0.29034079705E+02  0.75298160485E+02  0.10236100964E+03  0.00000000000E+00 0. -1.
         -5    1    5    5    0  502  0.17361399759E+02  0.17206883421E+02  0.20019476945E+03  0.20173629013E+03  0.47000000000E+01 0.  1.
         11    1    6    6    0    0 -0.12037596901E+02 -0.56846525186E+02  0.14051950646E+03  0.15205973451E+03  0.00000000000E+00 0. -1.
        -12    1    6    6    0    0 -0.12307418869E+03 -0.60087665431E+02  0.40860930086E+03  0.43095167271E+03  0.00000000000E+00 0.  1.
</event>
<event>
12    1  0.1040325E-001  0.1861521E+03  0.7818608E-02  0.1162601E+00
         21   -1    0    0  501  502  0.00000000000E+00  0.00000000000E+00  0.13850848267E+03  0.13850848267E+03  0.00000000000E+00 0.  1.
         21   -1    0    0  502  503 -0.00000000000E+00 -0.00000000000E+00 -0.28909134013E+03  0.28909134013E+03  0.00000000000E+00 0.  1.
         -6    2    1    2    0  503 -0.92172749822E+01 -0.62817395254E+02 -0.15678379849E+03  0.24134445191E+03  0.17214819689E+03 0.  0.
        -24    2    3    3    0    0 -0.39778271947E+02  0.36563374629E+01 -0.29848479864E+02  0.94758651805E+02  0.80576613350E+02 0.  0.
          6    2    1    2  501    0  0.92172749822E+01  0.62817395254E+02  0.62009410314E+01  0.18625537089E+03  0.17499036606E+03 0.  0.
         24    2    5    5    0    0  0.69756392015E+02  0.47965334519E+02  0.26981105505E+02  0.12038068961E+03  0.81221320065E+02 0.  0.
          5    1    5    5  501    0 -0.60539117033E+02  0.14852060735E+02 -0.20780164473E+02  0.65874681288E+02  0.47000000000E+01 0. -1.
        -13    1    6    6    0    0 -0.49718739812E+01  0.22457575793E+02 -0.18267660460E+02  0.29372940950E+02  0.00000000000E+00 0.  1.
         14    1    6    6    0    0  0.74728265996E+02  0.25507758726E+02  0.45248765964E+02  0.91007748656E+02  0.00000000000E+00 0. -1.
         -5    1    3    3    0  503  0.30560996965E+02 -0.66473732717E+02 -0.12693531863E+03  0.14658580011E+03  0.47000000000E+01 0.  1.
         11    1    4    4    0    0  0.21090641286E+02 -0.65644031421E+01  0.66319147493E+01  0.23062715185E+02  0.00000000000E+00 0. -1.
        -12    1    4    4    0    0 -0.60868913233E+02  0.10220740605E+02 -0.36480394613E+02  0.71695936620E+02  0.00000000000E+00 0.  1.
</event>
<event>
12    1  0.1040325E-001  0.2760826E+03  0.7818608E-02  0.1097912E+00
         21   -1    0    0  503  502  0.00000000000E+00  0.00000000000E+00  0.75813998209E+03  0.75813998209E+03  0.00000000000E+00 0.  1.
         21   -1    0    0  501  503 -0.00000000000E+00 -0.00000000000E+00 -0.11429470114E+03  0.11429470114E+03  0.00000000000E+00 0. -1.
          6    2    1    2  501    0  0.16529489628E+03 -0.13837085111E+03  0.16943412603E+03  0.32353802270E+03  0.17175573905E+03 0.  0.
         24    2    3    3    0    0  0.16103958170E+03 -0.73022651471E+02  0.16983688491E+03  0.25788174263E+03  0.79952305814E+02 0.  0.
         -6    2    1    2    0  502 -0.16529489628E+03  0.13837085111E+03  0.47441115492E+03  0.54889666052E+03  0.17248972389E+03 0.  0.
        -24    2    5    5    0    0 -0.19063588201E+03  0.13246922946E+03  0.40174742351E+03  0.47157200366E+03  0.84196354324E+02 0.  0.
          5    1    3    3  501    0  0.42553145839E+01 -0.65348199638E+02 -0.40275887385E+00  0.65656280072E+02  0.47000000000E+01 0. -1.
        -13    1    4    4    0    0  0.14889268407E+03 -0.80318402733E+02  0.17442293826E+03  0.24298855648E+03  0.00000000000E+00 0.  1.
         14    1    4    4    0    0  0.12146897626E+02  0.72957512616E+01 -0.45860533519E+01  0.14893186152E+02  0.00000000000E+00 0. -1.
         -5    1    5    5    0  502  0.25340985725E+02  0.59016216473E+01  0.72663731414E+02  0.77324656860E+02  0.47000000000E+01 0.  1.
         11    1    6    6    0    0 -0.95488146125E+02  0.19568834040E+02  0.13238178288E+03  0.16439544323E+03  0.00000000000E+00 0. -1.
        -12    1    6    6    0    0 -0.95147735886E+02  0.11290039542E+03  0.26936564063E+03  0.30717656043E+03  0.00000000000E+00 0.  1.
</event>
<event>
12    1  0.1040325E-001  0.1827046E+03  0.7818608E-02  0.1165596E+00
         21   -1    0    0  501  502  0.00000000000E+00  0.00000000000E+00  0.57473280095E+02  0.57473280095E+02  0.00000000000E+00 0.  1.
         21   -1    0    0  502  503 -0.00000000000E+00 -0.00000000000E+00 -0.65400949658E+03  0.65400949658E+03  0.00000000000E+00 0.  1.
         -6    2    1    2    0  503 -0.57370808137E+01 -0.54210985314E+02 -0.17399512290E+03  0.25113298406E+03  0.17268968662E+03 0.  0.
        -24    2    3    3    0    0 -0.60634038314E+02 -0.95029894765E+01 -0.13915659583E+03  0.17208683423E+03  0.80514141244E+02 0.  0.
          6    2    1    2  501    0  0.57370808137E+01  0.54210985314E+02 -0.42254109358E+03  0.46034979261E+03  0.17438236943E+03 0.  0.
         24    2    5    5    0    0 -0.55569967202E+02 -0.48700557238E+00 -0.26871681749E+03  0.28589515020E+03  0.80243694314E+02 0.  0.
          5    1    5    5  501    0  0.61307048016E+02  0.54697990886E+02 -0.15382427610E+03  0.17445464242E+03  0.47000000000E+01 0. -1.
        -13    1    6    6    0    0 -0.56104244967E+02  0.31249286143E+02 -0.15365161245E+03  0.16653234579E+03  0.00000000000E+00 0.  1.
         14    1    6    6    0    0  0.53427776500E+00 -0.31736291715E+02 -0.11506520504E+03  0.11936280441E+03  0.00000000000E+00 0. -1.
         -5    1    3    3    0  503  0.54896957501E+02 -0.44707995837E+02 -0.34838527066E+02  0.79046149828E+02  0.47000000000E+01 0.  1.
         13    1    4    4    0    0 -0.56172395108E+01  0.28787773540E+02 -0.69406491290E+02  0.75349521023E+02  0.00000000000E+00 0. -1.
        -14    1    4    4    0    0 -0.55016798803E+02 -0.38290763016E+02 -0.69750104543E+02  0.96737313208E+02  0.00000000000E+00 0.  1.
</event>
<event>
12    1  0.1040325E-001  0.2122174E+03  0.7818608E-02  0.1141270E+00
         21   -1    0    0  501  502  0.00000000000E+00  0.00000000000E+00  0.18916803077E+03  0.18916803077E+03  0.00000000000E+00 0.  1.
         21   -1    0    0  502  503 -0.00000000000E+00 -0.00000000000E+00 -0.26075289267E+03  0.26075289267E+03  0.00000000000E+00 0.  1.
         -6    2    1    2    0  503 -0.10431018782E+03 -0.33123399766E+02 -0.11360931293E+03  0.24071418526E+03  0.18181987819E+03 0.  0.
        -24    2    3    3    0    0 -0.11377620953E+03 -0.72045468930E+02 -0.48436215925E+02  0.16407114508E+03  0.80235267716E+02 0.  0.
          6    2    1    2  501    0  0.10431018782E+03  0.33123399766E+02  0.42024451021E+02  0.20920673819E+03  0.17327328104E+03 0.  0.
         24    2    5    5    0    0  0.89878731075E+02 -0.42501274278E+02  0.23609837981E+02  0.12990638357E+03  0.80210344899E+02 0.  0.
          5    1    5    5  501    0  0.14431456750E+02  0.75624674044E+02  0.18414613040E+02  0.79300354612E+02  0.47000000000E+01 0. -1.
        -13    1    6    6    0    0  0.32782140973E+02 -0.18543335713E+02  0.49999743463E+02  0.62597910608E+02  0.00000000000E+00 0.  1.
         14    1    6    6    0    0  0.57096590102E+02 -0.23957938565E+02 -0.26389905482E+02  0.67308472966E+02  0.00000000000E+00 0. -1.
         -5    1    3    3    0  503  0.94660217084E+01  0.38922069165E+02 -0.65173097001E+02  0.76643040178E+02  0.47000000000E+01 0.  1.
         11    1    4    4    0    0 -0.42347558244E+02 -0.14553283947E+02  0.20605893409E+02  0.49292155624E+02  0.00000000000E+00 0. -1.
        -12    1    4    4    0    0 -0.71428651289E+02 -0.57492184983E+02 -0.69042109334E+02  0.11477898946E+03  0.00000000000E+00 0.  1.
</event>
<event>
12    1  0.1040325E-001  0.2535780E+03  0.7818608E-02  0.1111209E+00
         21   -1    0    0  501  502  0.00000000000E+00  0.00000000000E+00  0.17554207073E+03  0.17554207073E+03  0.00000000000E+00 0.  1.
         21   -1    0    0  502  503 -0.00000000000E+00 -0.00000000000E+00 -0.44359556461E+03  0.44359556461E+03  0.00000000000E+00 0.  1.
         -6    2    1    2    0  503  0.18229490800E+03 -0.30603330028E+02 -0.34874522454E+01  0.25267210594E+03  0.17222959532E+03 0.  0.
        -24    2    3    3    0    0  0.44733814076E+02  0.42982610084E+01 -0.47480253349E+02  0.10401601905E+03  0.80903452287E+02 0.  0.
          6    2    1    2  501    0 -0.18229490800E+03  0.30603330028E+02 -0.26456604164E+03  0.36646552940E+03  0.17359088847E+03 0.  0.
         24    2    5    5    0    0 -0.19034209279E+03  0.63796456117E+02 -0.24553096215E+03  0.32708323575E+03  0.79986809113E+02 0.  0.
          5    1    5    5  501    0  0.80471847839E+01 -0.33193126089E+02 -0.19035079487E+02  0.39382293656E+02  0.47000000000E+01 0. -1.
        -11    1    6    6    0    0 -0.11404318063E+03  0.62205656027E+02 -0.10446914570E+03  0.16670090910E+03  0.00000000000E+00 0.  1.
         12    1    6    6    0    0 -0.76298912152E+02  0.15908000899E+01 -0.14106181645E+03  0.16038232665E+03  0.00000000000E+00 0. -1.
         -5    1    3    3    0  503  0.13756109393E+03 -0.34901591036E+02  0.43992801104E+02  0.14865608688E+03  0.47000000000E+01 0.  1.
         13    1    4    4    0    0 -0.15868083620E+02  0.80231803158E+01  0.10005906546E+02  0.20403079816E+02  0.00000000000E+00 0. -1.
        -14    1    4    4    0    0  0.60601897697E+02 -0.37249193074E+01 -0.57486159895E+02  0.83612939237E+02  0.00000000000E+00 0.  1.
</event>
<event>
12    1  0.1040325E-001  0.2291505E+03  0.7818608E-02  0.1127430E+00
         21   -1    0    0  503  502  0.00000000000E+00  0.00000000000E+00  0.56954948562E+03  0.56954948562E+03  0.00000000000E+00 0.  1.
         21   -1    0    0  501  503 -0.00000000000E+00 -0.00000000000E+00 -0.92907377907E+02  0.92907377907E+02  0.00000000000E+00 0. -1.
          6    2    1    2  501    0  0.76824355621E+01 -0.15117947933E+03  0.20212346567E+03  0.30555497767E+03  0.17203399146E+03 0.  0.
         24    2    3    3    0    0  0.57189628295E+02 -0.37206634267E+02  0.10752968598E+03  0.14931527497E+03  0.77957878071E+02 0.  0.
         -6    2    1    2    0  502 -0.76824355621E+01  0.15117947933E+03  0.27451864204E+03  0.35690188586E+03  0.17059957947E+03 0.  0.
        -24    2    5    5    0    0 -0.37420983559E+02  0.86746680050E+02  0.25421767495E+03  0.28294117923E+03  0.80645943095E+02 0.  0.
          5    1    3    3  501    0 -0.49507192733E+02 -0.11397284506E+03  0.94593779696E+02  0.15623970271E+03  0.47000000000E+01 0. -1.
        -13    1    4    4    0    0  0.27555670867E+02 -0.57333311976E+02  0.87791403638E+02  0.10841473245E+03  0.00000000000E+00 0.  1.
         14    1    4    4    0    0  0.29633957428E+02  0.20126677709E+02  0.19738282340E+02  0.40900542517E+02  0.00000000000E+00 0. -1.
         -5    1    5    5    0  502  0.29738547997E+02  0.64432799282E+02  0.20300967094E+02  0.73960706630E+02  0.47000000000E+01 0.  1.
         11    1    6    6    0    0  0.23060700645E+02  0.34981401520E+02  0.61378761735E+02  0.74315858057E+02  0.00000000000E+00 0. -1.
        -12    1    6    6    0    0 -0.60481684204E+02  0.51765278529E+02  0.19283891321E+03  0.20862532117E+03  0.00000000000E+00 0.  1.
</event>
<event>
12    1  0.1040325E-001  0.2391118E+03  0.7818608E-02  0.1120482E+00
         21   -1    0    0  503  502  0.00000000000E+00  0.00000000000E+00  0.97519198239E+02  0.97519198239E+02  0.00000000000E+00 0. -1.
         21   -1    0    0  501  503 -0.00000000000E+00 -0.00000000000E+00 -0.70920601687E+03  0.70920601687E+03  0.00000000000E+00 0. -1.
          6    2    1    2  501    0  0.91393387177E+02 -0.13854131193E+03 -0.47502568456E+03  0.53181185018E+03  0.17212784978E+03 0.  0.
         24    2    3    3    0    0 -0.15323864481E+01 -0.11853100623E+02 -0.18629708164E+03  0.20306970437E+03  0.79924076491E+02 0.  0.
         -6    2    1    2    0  502 -0.91393387177E+02  0.13854131193E+03 -0.13666113407E+03  0.27491336492E+03  0.17133197692E+03 0.  0.
        -24    2    5    5    0    0 -0.10804097194E+03  0.49288329473E+02 -0.63618889261E+02  0.15829219839E+03  0.83107556589E+02 0.  0.
          5    1    3    3  501    0  0.92925773625E+02 -0.12668821131E+03 -0.28872860292E+03  0.32874214581E+03  0.47000000000E+01 0. -1.
        -13    1    4    4    0    0 -0.29689968849E+02 -0.10101431158E+02 -0.27269633717E+02  0.41559187730E+02  0.00000000000E+00 0.  1.
         14    1    4    4    0    0  0.28157582401E+02 -0.17516694655E+01 -0.15902744793E+03  0.16151051664E+03  0.00000000000E+00 0. -1.
         -5    1    5    5    0  502  0.16647584759E+02  0.89252982460E+02 -0.73042244807E+02  0.11662116653E+03  0.47000000000E+01 0.  1.
         11    1    6    6    0    0 -0.81807243452E+02  0.67785377816E+02 -0.67633997613E+02  0.12594300362E+03  0.00000000000E+00 0. -1.
        -12    1    6    6    0    0 -0.26233728484E+02 -0.18497048343E+02  0.40151083516E+01  0.32349194776E+02  0.00000000000E+00 0.  1.
</event>
<event>
12    1  0.1040325E-001  0.2088716E+03  0.7818608E-02  0.1142828E+00
         21   -1    0    0  503  502  0.00000000000E+00  0.00000000000E+00  0.77288487623E+03  0.77288487623E+03  0.00000000000E+00 0. -1.
         21   -1    0    0  501  503 -0.00000000000E+00 -0.00000000000E+00 -0.13276715492E+03  0.13276715492E+03  0.00000000000E+00 0.  1.
          6    2    1    2  501    0 -0.11428537553E+03 -0.27847935504E+02 -0.24960452155E+02  0.20854634223E+03  0.17038749401E+03 0.  0.
         24    2    3    3    0    0 -0.10204523423E+03 -0.88329060479E+01  0.43142305903E+02  0.13663342226E+03  0.79474420163E+02 0.  0.
         -6    2    1    2    0  502  0.11428537553E+03  0.27847935504E+02  0.66507817346E+03  0.69710568891E+03  0.17259985552E+03 0.  0.
        -24    2    5    5    0    0  0.13366871602E+03  0.63153166552E+02  0.54256159743E+03  0.56805308479E+03  0.80346574581E+02 0.  0.
          5    1    3    3  501    0 -0.12240141295E+02 -0.19015029456E+02 -0.68102758058E+02  0.71912919975E+02  0.47000000000E+01 0. -1.
        -13    1    4    4    0    0 -0.11386452197E+03 -0.11061616794E+02  0.28904963967E+02  0.11799570192E+03  0.00000000000E+00 0.  1.
         14    1    4    4    0    0  0.11819287733E+02  0.22287107462E+01  0.14237341937E+02  0.18637720341E+02  0.00000000000E+00 0. -1.
         -5    1    5    5    0  502 -0.19383340491E+02 -0.35305231048E+02  0.12251657603E+03  0.12905260412E+03  0.47000000000E+01 0.  1.
         11    1    6    6    0    0  0.20000064212E+02  0.36901406270E+02  0.24260200526E+03  0.24620611144E+03  0.00000000000E+00 0. -1.
        -12    1    6    6    0    0  0.11366865181E+03  0.26251760282E+02  0.29995959217E+03  0.32184697335E+03  0.00000000000E+00 0.  1.
</event>
<event>
12    1  0.1040325E-001  0.1731256E+03  0.7818608E-02  0.1175283E+00
         21   -1    0    0  501  502  0.00000000000E+00  0.00000000000E+00  0.22066250879E+02  0.22066250879E+02  0.00000000000E+00 0.  1.
         21   -1    0    0  502  503 -0.00000000000E+00 -0.00000000000E+00 -0.24149235865E+04  0.24149235865E+04  0.00000000000E+00 0.  1.
         -6    2    1    2    0  503  0.46450670618E+01 -0.12852771345E+01 -0.20050675804E+04  0.20123095339E+04  0.17050052683E+03 0.  0.
        -24    2    3    3    0    0  0.22759154674E+02 -0.53389336333E+02 -0.82257037385E+03  0.82851703238E+03  0.80312219782E+02 0.  0.
          6    2    1    2  501    0 -0.46450670618E+01  0.12852771345E+01 -0.38778975527E+03  0.42468030353E+03  0.17305847951E+03 0.  0.
         24    2    5    5    0    0  0.47366588181E+02 -0.79225605900E+01 -0.34195668957E+03  0.35458924512E+03  0.80577878953E+02 0.  0.
          5    1    5    5  501    0 -0.52011655243E+02  0.92078377246E+01 -0.45833065701E+02  0.70091058404E+02  0.47000000000E+01 0. -1.
        -13    1    6    6    0    0  0.83311648293E+01 -0.34647780558E+02 -0.69999718180E+02  0.78548313479E+02  0.00000000000E+00 0.  1.
         14    1    6    6    0    0  0.39035423352E+02  0.26725219968E+02 -0.27195697138E+03  0.27604093164E+03  0.00000000000E+00 0. -1.
         -5    1    3    3    0  503 -0.18114087612E+02  0.52104059199E+02 -0.11824972065E+04  0.11837925015E+04  0.47000000000E+01 0.  1.
         13    1    4    4    0    0  0.43242518410E+02 -0.38028302468E+02 -0.30971338399E+03  0.31502134437E+03  0.00000000000E+00 0. -1.
        -14    1    4    4    0    0 -0.20483363736E+02 -0.15361033865E+02 -0.51285698986E+03  0.51349568800E+03  0.00000000000E+00 0.  1.
</event>
<event>
12    1  0.1040325E-001  0.1819784E+03  0.7818608E-02  0.1166309E+00
         21   -1    0    0  503  502  0.00000000000E+00  0.00000000000E+00  0.88339312608E+02  0.88339312608E+02  0.00000000000E+00 0. -1.
         21   -1    0    0  501  503 -0.00000000000E+00 -0.00000000000E+00 -0.37237859696E+03  0.37237859696E+03  0.00000000000E+00 0. -1.
          6    2    1    2  501    0  0.44525553605E+00  0.65491709381E+02 -0.12943567061E+03  0.22193261154E+03  0.16796168905E+03 0.  0.
         24    2    3    3    0    0 -0.96183530147E+01 -0.41362976387E+02 -0.44195738545E+02  0.84793499303E+02  0.58594075538E+02 0.  0.
         -6    2    1    2    0  502 -0.44525553605E+00 -0.65491709381E+02 -0.15460361374E+03  0.23878529803E+03  0.16978450731E+03 0.  0.
        -24    2    5    5    0    0 -0.34312076284E+02  0.70535336040E+01 -0.42103447579E+02  0.10062542247E+03  0.84413887683E+02 0.  0.
          5    1    3    3  501    0  0.10063608551E+02  0.10685468577E+03 -0.85239932067E+02  0.13713911224E+03  0.47000000000E+01 0. -1.
        -13    1    4    4    0    0  0.13445507594E+02 -0.29860509007E+02  0.10025846417E+01  0.32763346114E+02  0.00000000000E+00 0.  1.
         14    1    4    4    0    0 -0.23063860608E+02 -0.11502467380E+02 -0.45198323187E+02  0.52030153189E+02  0.00000000000E+00 0. -1.
         -5    1    5    5    0  502  0.33866820747E+02 -0.72545242985E+02 -0.11250016617E+03  0.13815987556E+03  0.47000000000E+01 0.  1.
         13    1    6    6    0    0  0.13867435159E+02  0.78936655883E+01  0.17695698255E+02  0.23827577532E+02  0.00000000000E+00 0. -1.
        -14    1    6    6    0    0 -0.48179511442E+02 -0.84013198428E+00 -0.59799145834E+02  0.76797844937E+02  0.00000000000E+00 0.  1.
</event>
<event>
12    1  0.1040325E-001  0.1723859E+03  0.7818608E-02  0.1175524E+00
         21   -1    0    0  503  502  0.00000000000E+00  0.00000000000E+00  0.41582358117E+03  0.41582358117E+03  0.00000000000E+00 0.  1.
         21   -1    0    0  501  503 -0.00000000000E+00 -0.00000000000E+00 -0.10290117683E+03  0.10290117683E+03  0.00000000000E+00 0.  1.
          6    2    1    2  501    0 -0.27305335101E+01  0.58053160877E+01  0.12413786597E+02  0.17228238189E+03  0.17171476205E+03 0.  0.
         24    2    3    3    0    0 -0.37028118315E+02 -0.51640544717E+02 -0.81498984043E+01  0.10213035849E+03  0.79538430186E+02 0.  0.
         -6    2    1    2    0  502  0.27305335101E+01 -0.58053160877E+01  0.30050861774E+03  0.34644237610E+03  0.17226645964E+03 0.  0.
        -24    2    5    5    0    0 -0.64001366271E+02  0.19639767580E+02  0.18495824150E+03  0.21052115561E+03  0.75018067858E+02 0.  0.
          5    1    3    3  501    0  0.34297584805E+02  0.57445860805E+02  0.20563685001E+02  0.70152023406E+02  0.47000000000E+01 0. -1.
        -13    1    4    4    0    0 -0.13291977728E+02 -0.19102816913E+02 -0.42984716421E+02  0.48880263213E+02  0.00000000000E+00 0.  1.
         14    1    4    4    0    0 -0.23736140587E+02 -0.32537727804E+02  0.34834818017E+02  0.53250095276E+02  0.00000000000E+00 0. -1.
         -5    1    5    5    0  502  0.66731899781E+02 -0.25445083667E+02  0.11555037624E+03  0.13592122050E+03  0.47000000000E+01 0.  1.
         13    1    6    6    0    0 -0.39928627397E+02 -0.19771619297E+02  0.45788055913E+02  0.63888639676E+02  0.00000000000E+00 0. -1.
        -14    1    6    6    0    0 -0.24072738874E+02  0.39411386877E+02  0.13917018558E+03  0.14663251593E+03  0.00000000000E+00 0.  1.
</event>
<event>
12    1  0.1040325E-001  0.1749579E+03  0.7818608E-02  0.1173067E+00
         21   -1    0    0  501  502  0.00000000000E+00  0.00000000000E+00  0.79905827656E+02  0.79905827656E+02  0.00000000000E+00 0.  1.
         21   -1    0    0  502  503 -0.00000000000E+00 -0.00000000000E+00 -0.11508043161E+04  0.11508043161E+04  0.00000000000E+00 0.  1.
         -6    2    1    2    0  503  0.22109814799E+02  0.23264008707E+02 -0.10382957015E+04  0.10527404757E+04  0.17080540773E+03 0.  0.
        -24    2    3    3    0    0  0.74659175139E+02  0.43740852837E+02 -0.82595044827E+03  0.83298303440E+03  0.64647799301E+02 0.  0.
          6    2    1    2  501    0 -0.22109814799E+02 -0.23264008707E+02 -0.32602786975E+02  0.17796966813E+03  0.17198896199E+03 0.  0.
         24    2    5    5    0    0  0.53305047372E+02 -0.43738857834E+00 -0.52305597267E+01  0.94424561472E+02  0.77762585284E+02 0.  0.
          5    1    5    5  501    0 -0.75414862171E+02 -0.22826620129E+02 -0.27372227248E+02  0.83545106662E+02  0.47000000000E+01 0. -1.
        -11    1    6    6    0    0 -0.14399306673E+02  0.18409520279E+02  0.33998783601E+01  0.23617994039E+02  0.00000000000E+00 0.  1.
         12    1    6    6    0    0  0.67704354045E+02 -0.18846908857E+02 -0.86304380868E+01  0.70806567433E+02  0.00000000000E+00 0. -1.
         -5    1    3    3    0  503 -0.52549360341E+02 -0.20476844129E+02 -0.21234525323E+03  0.21975744126E+03  0.47000000000E+01 0.  1.
         13    1    4    4    0    0  0.73720605931E+01  0.38006207661E+02 -0.37689488626E+03  0.37887804685E+03  0.00000000000E+00 0. -1.
        -14    1    4    4    0    0  0.67287114546E+02  0.57346451758E+01 -0.44905556201E+03  0.45410498754E+03  0.00000000000E+00 0.  1.
</event>
<event>
12    1  0.1040325E-001  0.1825566E+03  0.7818608E-02  0.1165545E+00
         21   -1    0    0  503  502  0.00000000000E+00  0.00000000000E+00  0.33607509291E+02  0.33607509291E+02  0.00000000000E+00 0.  1.
         21   -1    0    0  501  503 -0.00000000000E+00 -0.00000000000E+00 -0.11967694774E+04  0.11967694774E+04  0.00000000000E+00 0. -1.
          6    2    1    2  501    0  0.12247253203E+02 -0.57057283610E+02 -0.32310703123E+03  0.37071471864E+03  0.17212123682E+03 0.  0.
         24    2    3    3    0    0  0.55327528748E+02 -0.71023141140E+02 -0.29186103643E+03  0.31549373071E+03  0.79044338919E+02 0.  0.
         -6    2    1    2    0  502 -0.12247253203E+02  0.57057283610E+02 -0.84005493686E+03  0.85966226803E+03  0.17297800236E+03 0.  0.
        -24    2    5    5    0    0 -0.31596020765E+02  0.91663856440E+02 -0.75755931432E+03  0.76801289581E+03  0.80914289913E+02 0.  0.
          5    1    3    3  501    0 -0.43080275545E+02  0.13965857530E+02 -0.31245994797E+02  0.55220987934E+02  0.47000000000E+01 0. -1.
        -13    1    4    4    0    0  0.15334512410E+02 -0.60450672549E+02 -0.90372874719E+02  0.10980294881E+03  0.00000000000E+00 0.  1.
         14    1    4    4    0    0  0.39993016337E+02 -0.10572468591E+02 -0.20148816171E+03  0.20569078190E+03  0.00000000000E+00 0. -1.
         -5    1    5    5    0  502  0.19348767562E+02 -0.34606572830E+02 -0.82495622536E+02  0.91649372211E+02  0.47000000000E+01 0.  1.
         11    1    6    6    0    0  0.25965301503E+02  0.29346676670E+02 -0.31183919601E+03  0.31429143877E+03  0.00000000000E+00 0. -1.
        -12    1    6    6    0    0 -0.57561322267E+02  0.62317179770E+02 -0.44572011831E+03  0.45372145704E+03  0.00000000000E+00 0.  1.
</event>
<event>
12    1  0.1040325E-001  0.2309908E+03  0.7818608E-02  0.1125976E+00
         21   -1    0    0  503  502  0.00000000000E+00  0.00000000000E+00  0.10432655639E+03  0.10432655639E+03  0.00000000000E+00 0. -1.
         21   -1    0    0  501  503 -0.00000000000E+00 -0.00000000000E+00 -0.51255343065E+03  0.51255343065E+03  0.00000000000E+00 0. -1.
          6    2    1    2  501    0 -0.15078256460E+03  0.28299153506E+02 -0.18729650590E+03  0.29724427423E+03  0.17244695870E+03 0.  0.
         24    2    3    3    0    0 -0.56344360314E+02  0.64367378843E+02 -0.14732066216E+03  0.18843412126E+03  0.80536911764E+02 0.  0.
         -6    2    1    2    0  502  0.15078256460E+03 -0.28299153506E+02 -0.22093036836E+03  0.31963571281E+03  0.17268623964E+03 0.  0.
        -24    2    5    5    0    0  0.15113696264E+03 -0.47716047536E+02 -0.23579469020E+03  0.29473231072E+03  0.78414261381E+02 0.  0.
          5    1    3    3  501    0 -0.94438204282E+02 -0.36068225337E+02 -0.39975843735E+02  0.10881015297E+03  0.47000000000E+01 0. -1.
        -13    1    4    4    0    0  0.13261837342E+02 -0.13733979183E+01 -0.73803814148E+00  0.13353173849E+02  0.00000000000E+00 0.  1.
         14    1    4    4    0    0 -0.69606197656E+02  0.65740776761E+02 -0.14658262402E+03  0.17508094741E+03  0.00000000000E+00 0. -1.
         -5    1    5    5    0  502 -0.35439804342E+00  0.19416894030E+02  0.14864321839E+02  0.24903402086E+02  0.47000000000E+01 0.  1.
         13    1    6    6    0    0  0.51592067950E+02  0.58450668600E+01 -0.30080244673E+02  0.60006061374E+02  0.00000000000E+00 0. -1.
        -14    1    6    6    0    0  0.99544894688E+02 -0.53561114396E+02 -0.20571444553E+03  0.23472624935E+03  0.00000000000E+00 0.  1.
</event>
<event>
12    1  0.1040325E-001  0.2485294E+03  0.7818608E-02  0.1114270E+00
         21   -1    0    0  501  502  0.00000000000E+00  0.00000000000E+00  0.44899791958E+02  0.44899791958E+02  0.00000000000E+00 0.  1.
         21   -1    0    0  502  503 -0.00000000000E+00 -0.00000000000E+00 -0.13794827329E+04  0.13794827329E+04  0.00000000000E+00 0.  1.
         -6    2    1    2    0  503  0.71843737634E+02  0.16337408297E+03 -0.70971848143E+03  0.75190764757E+03  0.17266202238E+03 0.  0.
        -24    2    3    3    0    0  0.36921860093E+02  0.15047568050E+03 -0.35677952726E+03  0.39697962433E+03  0.79341268464E+02 0.  0.
          6    2    1    2  501    0 -0.71843737634E+02 -0.16337408297E+03 -0.62486445947E+03  0.67247487724E+03  0.17295737681E+03 0.  0.
         24    2    5    5    0    0 -0.90230036338E+02 -0.13583120321E+03 -0.33975097796E+03  0.38540615108E+03  0.80719260648E+02 0.  0.
          5    1    5    5  501    0  0.18386298705E+02 -0.27542879762E+02 -0.28511348151E+03  0.28706872617E+03  0.47000000000E+01 0. -1.
        -13    1    6    6    0    0 -0.45051434909E+02 -0.10992052990E+03 -0.28996916939E+03  0.31335965579E+03  0.00000000000E+00 0.  1.
         14    1    6    6    0    0 -0.45178601430E+02 -0.25910673305E+02 -0.49781808575E+02  0.72046495288E+02  0.00000000000E+00 0. -1.
         -5    1    3    3    0  503  0.34921877540E+02  0.12898402469E+02 -0.35293895417E+03  0.35492802325E+03  0.47000000000E+01 0.  1.
         13    1    4    4    0    0  0.13452102749E+02 -0.61623503751E+01 -0.43318273651E+02  0.45775609910E+02  0.00000000000E+00 0. -1.
        -14    1    4    4    0    0  0.23469757345E+02  0.15663803087E+03 -0.31346125361E+03  0.35120401442E+03  0.00000000000E+00 0.  1.
</event>
<event>
12    1  0.1040325E-001  0.1794909E+03  0.7818608E-02  0.1168605E+00
         21   -1    0    0  503  502  0.00000000000E+00  0.00000000000E+00  0.10334882134E+03  0.10334882134E+03  0.00000000000E+00 0.  1.
         21   -1    0    0  501  503 -0.00000000000E+00 -0.00000000000E+00 -0.30960550154E+03  0.30960550154E+03  0.00000000000E+00 0.  1.
          6    2    1    2  501    0 -0.11832435671E+02  0.45890986586E+02 -0.99691127498E+02  0.20421237106E+03  0.17180914530E+03 0.  0.
         24    2    3    3    0    0  0.94973633943E+01  0.59776244709E+02 -0.12987771215E+03  0.16444956665E+03  0.80697215030E+02 0.  0.
         -6    2    1    2    0  502  0.11832435671E+02 -0.45890986586E+02 -0.10656555270E+03  0.20874195183E+03  0.17312133389E+03 0.  0.
        -24    2    5    5    0    0  0.75575063475E+01  0.21192415066E+02 -0.63038037788E+00  0.83191927802E+02  0.80089107334E+02 0.  0.
          5    1    3    3  501    0 -0.21329799065E+02 -0.13885258123E+02  0.30186584657E+02  0.39762804410E+02  0.47000000000E+01 0. -1.
        -13    1    4    4    0    0 -0.17430148113E+02  0.33948737480E+02 -0.10796344545E+02  0.39659650720E+02  0.00000000000E+00 0.  1.
         14    1    4    4    0    0  0.26927511508E+02  0.25827507229E+02 -0.11908136761E+03  0.12478991593E+03  0.00000000000E+00 0. -1.
         -5    1    5    5    0  502  0.42749293235E+01 -0.67083401651E+02 -0.10593517232E+03  0.12555002403E+03  0.47000000000E+01 0.  1.
         13    1    6    6    0    0  0.15944693775E+02 -0.11026249169E+02 -0.32022497313E+02  0.37433297537E+02  0.00000000000E+00 0. -1.
        -14    1    6    6    0    0 -0.83871874280E+01  0.32218664235E+02  0.31392116935E+02  0.45758630265E+02  0.00000000000E+00 0.  1.
</event>
<event>
12    1  0.1040325E-001  0.1741178E+03  0.7818608E-02  0.1173868E+00
         21   -1    0    0  501  502  0.00000000000E+00  0.00000000000E+00  0.25993977367E+03  0.25993977367E+03  0.00000000000E+00 0.  1.
         21   -1    0    0  502  503 -0.00000000000E+00 -0.00000000000E+00 -0.12244869193E+03  0.12244869193E+03  0.00000000000E+00 0.  1.
         -6    2    1    2    0  503  0.17978564686E+02  0.83399010501E+00  0.11288055543E+03  0.20750669665E+03  0.17318511782E+03 0.  0.
        -24    2    3    3    0    0 -0.23894805922E+02  0.26062412480E+02  0.12860833435E+03  0.15593824223E+03  0.80786265120E+02 0.  0.
          6    2    1    2  501    0 -0.17978564686E+02 -0.83399010501E+00  0.24610526308E+02  0.17488176895E+03  0.17220345751E+03 0.  0.
         24    2    5    5    0    0 -0.39773768508E+01 -0.60558097094E+02 -0.22310950278E+02  0.97507889758E+02  0.72985665801E+02 0.  0.
          5    1    5    5  501    0 -0.14001187835E+02  0.59724106989E+02  0.46921476586E+02  0.77373879194E+02  0.47000000000E+01 0. -1.
        -11    1    6    6    0    0 -0.20758627341E+02 -0.22440299825E+02  0.21258512935E+02  0.37234554348E+02  0.00000000000E+00 0.  1.
         12    1    6    6    0    0  0.16781250491E+02 -0.38117797270E+02 -0.43569463213E+02  0.60273335410E+02  0.00000000000E+00 0. -1.
         -5    1    3    3    0  503  0.41873370608E+02 -0.25228422375E+02 -0.15727778921E+02  0.51568454421E+02  0.47000000000E+01 0.  1.
         11    1    4    4    0    0 -0.26284646285E+02 -0.24703367697E+02  0.40595796230E+02  0.54306147695E+02  0.00000000000E+00 0. -1.
        -12    1    4    4    0    0  0.23898403624E+01  0.50765780176E+02  0.88012538121E+02  0.10163209454E+03  0.00000000000E+00 0.  1.
</event>
<event>
12    1  0.1040325E-001  0.2093292E+03  0.7818608E-02  0.1142235E+00
         21   -1    0    0  503  502  0.00000000000E+00  0.00000000000E+00  0.11218531742E+03  0.11218531742E+03  0.00000000000E+00 0.  1.
         21   -1    0    0  501  503 -0.00000000000E+00 -0.00000000000E+00 -0.46827653538E+03  0.46827653538E+03  0.00000000000E+00 0.  1.
          6    2    1    2  501    0  0.35681855493E+02 -0.11182939172E+03 -0.29747399630E+03  0.36374372660E+03  0.17331968296E+03 0.  0.
         24    2    3    3    0    0  0.81123571208E+02 -0.86317828207E+02 -0.26932714994E+03  0.30432887694E+03  0.77763425673E+02 0.  0.
         -6    2    1    2    0  502 -0.35681855493E+02  0.11182939172E+03 -0.58617221650E+02  0.21671812620E+03  0.17248698468E+03 0.  0.
        -24    2    5    5    0    0 -0.56120659560E+02  0.12925938859E+03 -0.17679809333E+02  0.16752959878E+03  0.88859849435E+02 0.  0.
          5    1    3    3  501    0 -0.45441715716E+02 -0.25511563518E+02 -0.28146846366E+02  0.59414849665E+02  0.47000000000E+01 0. -1.
        -13    1    4    4    0    0  0.49308692802E+02 -0.92305665326E+02 -0.16773750811E+03  0.19770572745E+03  0.00000000000E+00 0.  1.
         14    1    4    4    0    0  0.31814878406E+02  0.59878371190E+01 -0.10158964182E+03  0.10662314949E+03  0.00000000000E+00 0. -1.
         -5    1    5    5    0  502  0.20438804067E+02 -0.17429996862E+02 -0.40937412317E+02  0.49188527418E+02  0.47000000000E+01 0.  1.
         13    1    6    6    0    0 -0.20455536273E+02  0.94818582733E+02 -0.49214537453E+02  0.10877069133E+03  0.00000000000E+00 0. -1.
        -14    1    6    6    0    0 -0.35665123287E+02  0.34440805854E+02  0.31534728120E+02  0.58758907449E+02  0.00000000000E+00 0.  1.
</event>
<event>
12    1  0.1040325E-001  0.1939836E+03  0.7818608E-02  0.1156112E+00
         21   -1    0    0  501  502  0.00000000000E+00  0.00000000000E+00  0.37617888631E+03  0.37617888631E+03  0.00000000000E+00 0.  1.
         21   -1    0    0  502  503 -0.00000000000E+00 -0.00000000000E+00 -0.14391527460E+03  0.14391527460E+03  0.00000000000E+00 0.  1.
         -6    2    1    2    0  503 -0.26448221366E+02 -0.72359122782E+02 -0.32986236130E+02  0.19148024733E+03  0.17216632157E+03 0.  0.
        -24    2    3    3    0    0 -0.21909473556E+02 -0.37076594679E+02  0.48795358982E+02  0.10217304538E+03  0.78763222637E+02 0.  0.
          6    2    1    2  501    0  0.26448221366E+02  0.72359122782E+02  0.26524984784E+03  0.32861391358E+03  0.17802884978E+03 0.  0.
         24    2    5    5    0    0  0.51175626679E+01  0.38934507197E+02  0.38903327048E+02  0.98772578298E+02  0.81856386861E+02 0.  0.
          5    1    5    5  501    0  0.21330658698E+02  0.33424615585E+02  0.22634652080E+03  0.22984133528E+03  0.47000000000E+01 0. -1.
        -13    1    6    6    0    0  0.40400341068E+02  0.29892731077E+02  0.36798726992E+02  0.62288917457E+02  0.00000000000E+00 0.  1.
         14    1    6    6    0    0 -0.35282778400E+02  0.90417761200E+01  0.21046000557E+01  0.36483660842E+02  0.00000000000E+00 0. -1.
         -5    1    3    3    0  503 -0.45387478101E+01 -0.35282528103E+02 -0.81781595112E+02  0.89307201950E+02  0.47000000000E+01 0.  1.
         13    1    4    4    0    0  0.13176097151E+02  0.47688885010E+01  0.45339785000E+02  0.47455747150E+02  0.00000000000E+00 0. -1.
        -14    1    4    4    0    0 -0.35085570707E+02 -0.41845483180E+02  0.34555739817E+01  0.54717298233E+02  0.00000000000E+00 0.  1.
</event>
<event>
12    1  0.1040325E-001  0.2324188E+03  0.7818608E-02  0.1125238E+00
         21   -1    0    0  501  502  0.00000000000E+00  0.00000000000E+00  0.91728699245E+02  0.91728699245E+02  0.00000000000E+00 0.  1.
         21   -1    0    0  502  503 -0.00000000000E+00 -0.00000000000E+00 -0.75754334506E+03  0.75754334506E+03  0.00000000000E+00 0. -1.
         -6    2    1    2    0  503  0.96947392835E+02 -0.12155223470E+03 -0.53481993268E+03  0.58247976229E+03  0.17051853372E+03 0.  0.
        -24    2    3    3    0    0  0.58253460827E+02  0.12771918380E+01 -0.18814732724E+03  0.21263077451E+03  0.80108255523E+02 0.  0.
          6    2    1    2  501    0 -0.96947392835E+02  0.12155223470E+03 -0.13099471313E+03  0.26679228202E+03  0.17275637220E+03 0.  0.
         24    2    5    5    0    0 -0.76925938888E+01 -0.23642389810E+00 -0.52133182731E+02  0.96380640756E+02  0.80697752595E+02 0.  0.
          5    1    5    5  501    0 -0.89254798946E+02  0.12178865860E+03 -0.78861530403E+02  0.17041164126E+03  0.47000000000E+01 0. -1.
        -13    1    6    6    0    0  0.84538972108E+01  0.37618642770E+02 -0.16484115363E+02  0.41932764292E+02  0.00000000000E+00 0.  1.
         14    1    6    6    0    0 -0.16146491100E+02 -0.37855066668E+02 -0.35649067368E+02  0.54447876464E+02  0.00000000000E+00 0. -1.
         -5    1    3    3    0  503  0.38693932008E+02 -0.12282942654E+03 -0.34667260544E+03  0.36984898778E+03  0.47000000000E+01 0.  1.
         13    1    4    4    0    0  0.71745584152E+02 -0.18747316816E+02 -0.15253029506E+03  0.16960065343E+03  0.00000000000E+00 0. -1.
        -14    1    4    4    0    0 -0.13492123324E+02  0.20024508654E+02 -0.35617032182E+02  0.43030121079E+02  0.00000000000E+00 0.  1.
</event>
<event>
12    1  0.1040325E-001  0.1875488E+03  0.7818608E-02  0.1163426E+00
         21   -1    0    0  503  502  0.00000000000E+00  0.00000000000E+00  0.47862594064E+03  0.47862594064E+03  0.00000000000E+00 0.  1.
         21   -1    0    0  501  503 -0.00000000000E+00 -0.00000000000E+00 -0.16763107025E+03  0.16763107025E+03  0.00000000000E+00 0.  1.
          6    2    1    2  501    0  0.62709647416E+02  0.40699117920E+02 -0.94287187438E+02  0.19968327349E+03  0.15935626100E+03 0.  0.
         24    2    3    3    0    0  0.42873817815E+01  0.72195358592E+01 -0.10423875947E+03  0.13145448688E+03  0.79649606427E+02 0.  0.
         -6    2    1    2    0  502 -0.62709647416E+02 -0.40699117920E+02  0.40528205782E+03  0.44657373739E+03  0.17200476289E+03 0.  0.
        -24    2    5    5    0    0 -0.72748183524E+02 -0.20447322489E+02  0.12995541035E+03  0.17028084889E+03  0.79979795060E+02 0.  0.
          5    1    3    3  501    0  0.58422265634E+02  0.33479582061E+02  0.99515720328E+01  0.68228786613E+02  0.47000000000E+01 0. -1.
        -11    1    4    4    0    0  0.29869359851E+02 -0.18746189026E+02 -0.22168850716E+02  0.41654005846E+02  0.00000000000E+00 0.  1.
         12    1    4    4    0    0 -0.25581978070E+02  0.25965724885E+02 -0.82069908754E+02  0.89800481032E+02  0.00000000000E+00 0. -1.
         -5    1    5    5    0  502  0.10038536109E+02 -0.20251795431E+02  0.27532664748E+03  0.27629288850E+03  0.47000000000E+01 0.  1.
         13    1    6    6    0    0 -0.21984640669E+02  0.26372258671E+02  0.73350916147E+02  0.80988748307E+02  0.00000000000E+00 0. -1.
        -14    1    6    6    0    0 -0.50763542855E+02 -0.46819581161E+02  0.56604494202E+02  0.89292100586E+02  0.00000000000E+00 0.  1.
</event>
<event>
12    1  0.1040325E-001  0.1803507E+03  0.7818608E-02  0.1167615E+00
         21   -1    0    0  501  502  0.00000000000E+00  0.00000000000E+00  0.12417818656E+03  0.12417818656E+03  0.00000000000E+00 0.  1.
         21   -1    0    0  502  503 -0.00000000000E+00 -0.00000000000E+00 -0.39835772198E+03  0.39835772198E+03  0.00000000000E+00 0.  1.
         -6    2    1    2    0  503 -0.22671738144E+02  0.47539015383E+02 -0.29033584334E+03  0.34146298689E+03  0.17183743419E+03 0.  0.
        -24    2    3    3    0    0 -0.45356095546E+02  0.55298786778E+02 -0.11765090791E+03  0.16705836811E+03  0.94613059368E+02 0.  0.
          6    2    1    2  501    0  0.22671738144E+02 -0.47539015383E+02  0.16156307929E+02  0.18107292165E+03  0.17248887203E+03 0.  0.
         24    2    5    5    0    0 -0.23412294212E+02 -0.85119799806E+02  0.23619641937E+02  0.12095765944E+03  0.79242362739E+02 0.  0.
          5    1    5    5  501    0  0.46084032357E+02  0.37580784423E+02 -0.74633340077E+01  0.60115262210E+02  0.47000000000E+01 0. -1.
        -13    1    6    6    0    0 -0.48854477230E+01  0.13033273723E+02 -0.81641067766E+01  0.16136494751E+02  0.00000000000E+00 0.  1.
         14    1    6    6    0    0 -0.18526846489E+02 -0.98153073530E+02  0.31783748713E+02  0.10482116469E+03  0.00000000000E+00 0. -1.
         -5    1    3    3    0  503  0.22684357402E+02 -0.77597713946E+01 -0.17268493544E+03  0.17440461877E+03  0.47000000000E+01 0.  1.
         13    1    4    4    0    0 -0.59024779117E+02  0.83185558353E+01 -0.30132273934E+02  0.66791293246E+02  0.00000000000E+00 0. -1.
        -14    1    4    4    0    0  0.13668683571E+02  0.46980230943E+02 -0.87518633972E+02  0.10026707487E+03  0.00000000000E+00 0.  1.
</event>
<event>
12    1  0.1040325E-001  0.1965347E+03  0.7818608E-02  0.1152776E+00
         21   -1    0    0  503  502  0.00000000000E+00  0.00000000000E+00  0.56300337923E+02  0.56300337923E+02  0.00000000000E+00 0. -1.
         21   -1    0    0  501  503 -0.00000000000E+00 -0.00000000000E+00 -0.16909108719E+04  0.16909108719E+04  0.00000000000E+00 0.  1.
          6    2    1    2  501    0  0.48196775593E+01 -0.94663916249E+02 -0.14915008488E+04  0.15043937875E+04  0.17216677827E+03 0.  0.
         24    2    3    3    0    0 -0.27426329485E+02 -0.92207115586E+02 -0.64101862436E+03  0.65328395620E+03  0.81367652869E+02 0.  0.
         -6    2    1    2    0  502 -0.48196775593E+01  0.94663916249E+02 -0.14310968518E+03  0.24281742234E+03  0.17174234267E+03 0.  0.
        -24    2    5    5    0    0  0.11748245793E+02  0.12871545861E+03 -0.93938501713E+02  0.18057676918E+03  0.84129881129E+02 0.  0.
          5    1    3    3  501    0  0.32246007044E+02 -0.24568006625E+01 -0.85048222441E+03  0.85110983127E+03  0.47000000000E+01 0. -1.
        -13    1    4    4    0    0  0.37500928037E+01 -0.23646965447E+02 -0.40126898208E+03  0.40198263414E+03  0.00000000000E+00 0.  1.
         14    1    4    4    0    0 -0.31176422289E+02 -0.68560150139E+02 -0.23974964229E+03  0.25130132206E+03  0.00000000000E+00 0. -1.
         -5    1    5    5    0  502 -0.16567923353E+02 -0.34051542363E+02 -0.49171183467E+02  0.62240653154E+02  0.47000000000E+01 0.  1.
         11    1    6    6    0    0 -0.17797865213E+02  0.32038719240E+02  0.74524931604E+01  0.37400310038E+02  0.00000000000E+00 0. -1.
        -12    1    6    6    0    0  0.29546111006E+02  0.96676739372E+02 -0.10139099487E+03  0.14317645914E+03  0.00000000000E+00 0.  1.
</event>
<event>
12    1  0.1040325E-001  0.1750259E+03  0.7818608E-02  0.1173480E+00
         21   -1    0    0  501  502  0.00000000000E+00  0.00000000000E+00  0.26086026315E+02  0.26086026315E+02  0.00000000000E+00 0.  1.
         21   -1    0    0  502  503 -0.00000000000E+00 -0.00000000000E+00 -0.20345201198E+04  0.20345201198E+04  0.00000000000E+00 0.  1.
         -6    2    1    2    0  503  0.29542499917E+01 -0.39806854121E+02 -0.16870425665E+04  0.16960974833E+04  0.17041343412E+03 0.  0.
        -24    2    3    3    0    0  0.24743272351E+02  0.63694579539E+01 -0.43796250967E+03  0.44596545363E+03  0.80132555404E+02 0.  0.
          6    2    1    2  501    0 -0.29542499917E+01  0.39806854121E+02 -0.32139152703E+03  0.36450866284E+03  0.16727444039E+03 0.  0.
         24    2    5    5    0    0 -0.62102957086E+00 -0.24069750204E+00 -0.10403387129E+03  0.14343019075E+03  0.98735655321E+02 0.  0.
          5    1    5    5  501    0 -0.23332204208E+01  0.40047551623E+02 -0.21735765575E+03  0.22107847209E+03  0.47000000000E+01 0. -1.
        -11    1    6    6    0    0  0.24633708610E+02  0.40028843471E+02 -0.31047791914E+02  0.56330216511E+02  0.00000000000E+00 0.  1.
         12    1    6    6    0    0 -0.25254738181E+02 -0.40269540973E+02 -0.72986079374E+02  0.87099974243E+02  0.00000000000E+00 0. -1.
         -5    1    3    3    0  503 -0.21789022359E+02 -0.46176312075E+02 -0.12490800568E+04  0.12501320297E+04  0.47000000000E+01 0.  1.
         13    1    4    4    0    0 -0.71525318213E+01  0.28793731855E+02 -0.32717254613E+03  0.32851501130E+03  0.00000000000E+00 0. -1.
        -14    1    4    4    0    0  0.31895804172E+02 -0.22424273901E+02 -0.11078996354E+03  0.11745044234E+03  0.00000000000E+00 0.  1.
</event>
<event>
12    1  0.1040325E-001  0.2143933E+03  0.7818608E-02  0.1138259E+00
         21   -1    0    0  503  502  0.00000000000E+00  0.00000000000E+00  0.64042048061E+03  0.64042048061E+03  0.00000000000E+00 0. -1.
         21   -1    0    0  501  503 -0.00000000000E+00 -0.00000000000E+00 -0.13647502205E+03  0.13647502205E+03  0.00000000000E+00 0. -1.
          6    2    1    2  501    0  0.82864705595E+02  0.97177048735E+02 -0.16141271272E+02  0.21435245437E+03  0.17139572871E+03 0.  0.
         24    2    3    3    0    0  0.88748922684E+02  0.12422896930E+02 -0.70994101036E+01  0.12878531399E+03  0.92220148724E+02 0.  0.
         -6    2    1    2    0  502 -0.82864705595E+02 -0.97177048735E+02  0.52008672983E+03  0.56254304829E+03  0.17220492559E+03 0.  0.
        -24    2    5    5    0    0 -0.81826873759E+02 -0.97872710145E+02  0.24857470073E+03  0.29098746837E+03  0.81299570992E+02 0.  0.
          5    1    3    3  501    0 -0.58842170884E+01  0.84754151804E+02 -0.90418611683E+01  0.85567140377E+02  0.47000000000E+01 0. -1.
        -13    1    4    4    0    0  0.17463268628E+02 -0.37560157551E+02  0.14367181708E+00  0.41421634782E+02  0.00000000000E+00 0.  1.
         14    1    4    4    0    0  0.71285654056E+02  0.49983054481E+02 -0.72430819207E+01  0.87363679210E+02  0.00000000000E+00 0. -1.
         -5    1    5    5    0  502 -0.10378318365E+01  0.69566141015E+00  0.27151202910E+03  0.27155557992E+03  0.47000000000E+01 0.  1.
         11    1    6    6    0    0  0.74409606589E+00 -0.53250123660E+02  0.12450236324E+03  0.13541406057E+03  0.00000000000E+00 0. -1.
        -12    1    6    6    0    0 -0.82570969824E+02 -0.44622586484E+02  0.12407233749E+03  0.15557340780E+03  0.00000000000E+00 0.  1.
</event>
<event>
12    1  0.1040325E-001  0.2378467E+03  0.7818608E-02  0.1121319E+00
         21   -1    0    0  501  502  0.00000000000E+00  0.00000000000E+00  0.71917240956E+03  0.71917240956E+03  0.00000000000E+00 0.  1.
         21   -1    0    0  502  503 -0.00000000000E+00 -0.00000000000E+00 -0.90096540689E+02  0.90096540689E+02  0.00000000000E+00 0.  1.
         -6    2    1    2    0  503 -0.12546871522E+03 -0.10527573423E+03  0.16907077825E+03  0.29141210322E+03  0.17178680721E+03 0.  0.
        -24    2    3    3    0    0 -0.11601606808E+03 -0.12363701125E+03  0.18621726509E+03  0.26416176299E+03  0.79741636588E+02 0.  0.
          6    2    1    2  501    0  0.12546871522E+03  0.10527573423E+03  0.46000509062E+03  0.51785684702E+03  0.17246927812E+03 0.  0.
         24    2    5    5    0    0  0.12362166446E+03  0.13994799736E+03  0.36899720523E+03  0.42033709195E+03  0.75210208806E+02 0.  0.
          5    1    5    5  501    0  0.18470507621E+01 -0.34672263130E+02  0.91007885386E+02  0.97519755073E+02  0.47000000000E+01 0. -1.
        -13    1    6    6    0    0  0.51157259392E+02  0.10950976868E+03  0.19517253226E+03  0.22956866505E+03  0.00000000000E+00 0.  1.
         14    1    6    6    0    0  0.72464405068E+02  0.30438228686E+02  0.17382467297E+03  0.19076842690E+03  0.00000000000E+00 0. -1.
         -5    1    3    3    0  503 -0.94526471385E+01  0.18361277022E+02 -0.17146486838E+02  0.27250340231E+02  0.47000000000E+01 0.  1.
         13    1    4    4    0    0 -0.10618013634E+02 -0.24715494427E+02  0.81068294712E+02  0.85414672544E+02  0.00000000000E+00 0. -1.
        -14    1    4    4    0    0 -0.10539805445E+03 -0.98921516827E+02  0.10514897038E+03  0.17874709045E+03  0.00000000000E+00 0.  1.
</event>
<event>
12    1  0.1040325E-001  0.1812769E+03  0.7818608E-02  0.1167070E+00
         21   -1    0    0  503  502  0.00000000000E+00  0.00000000000E+00  0.22879694959E+02  0.22879694959E+02  0.00000000000E+00 0. -1.
         21   -1    0    0  501  503 -0.00000000000E+00 -0.00000000000E+00 -0.15614226224E+04  0.15614226224E+04  0.00000000000E+00 0. -1.
          6    2    1    2  501    0 -0.11868782655E+02 -0.48647006536E+02 -0.10116923853E+04  0.10278048437E+04  0.17422375028E+03 0.  0.
         24    2    3    3    0    0  0.42491388488E+02  0.11321690569E+02 -0.25990708658E+03  0.27166034819E+03  0.65680684734E+02 0.  0.
         -6    2    1    2    0  502  0.11868782655E+02  0.48647006536E+02 -0.52685054213E+03  0.55649747358E+03  0.17207714871E+03 0.  0.
        -24    2    5    5    0    0 -0.54107898178E+02  0.56614803825E+02 -0.35815391453E+03  0.37512203320E+03  0.79431811277E+02 0.  0.
          5    1    3    3  501    0 -0.54360171143E+02 -0.59968697105E+02 -0.75178529869E+03  0.75614449556E+03  0.47000000000E+01 0. -1.
        -13    1    4    4    0    0  0.90211472354E+01  0.84415212307E+01 -0.31972997368E+01  0.12761782937E+02  0.00000000000E+00 0.  1.
         14    1    4    4    0    0  0.33470241253E+02  0.28801693386E+01 -0.25670978685E+03  0.25889856525E+03  0.00000000000E+00 0. -1.
         -5    1    5    5    0  502  0.65976680832E+02 -0.79677972894E+01 -0.16869662761E+03  0.18137544038E+03  0.47000000000E+01 0.  1.
         13    1    6    6    0    0 -0.32105843034E+02  0.66785126081E+02 -0.32883547711E+03  0.33708130952E+03  0.00000000000E+00 0. -1.
        -14    1    6    6    0    0 -0.22002055144E+02 -0.10170322255E+02 -0.29318437419E+02  0.38040723679E+02  0.00000000000E+00 0.  1.
</event>
<event>
12    1  0.1040325E-001  0.1831484E+03  0.7818608E-02  0.1164941E+00
         21   -1    0    0  501  502  0.00000000000E+00  0.00000000000E+00  0.62966744474E+03  0.62966744474E+03  0.00000000000E+00 0. -1.
         21   -1    0    0  502  503 -0.00000000000E+00 -0.00000000000E+00 -0.53835567817E+02  0.53835567817E+02  0.00000000000E+00 0. -1.
         -6    2    1    2    0  503 -0.36475320846E+02  0.48692463419E+02  0.32871010051E+03  0.37628932980E+03  0.17274815345E+03 0.  0.
        -24    2    3    3    0    0 -0.37575149511E+02  0.83905836032E+02  0.31570681481E+03  0.33844270944E+03  0.80128605824E+02 0.  0.
          6    2    1    2  501    0  0.36475320846E+02 -0.48692463419E+02  0.24712177642E+03  0.30721368276E+03  0.17207460437E+03 0.  0.
         24    2    5    5    0    0  0.17175765656E+02  0.10450195372E+02  0.10691643387E+03  0.15375373685E+03  0.10865023817E+03 0.  0.
          5    1    5    5  501    0  0.19299555190E+02 -0.59142658791E+02  0.14020534255E+03  0.15345994591E+03  0.47000000000E+01 0. -1.
        -13    1    6    6    0    0 -0.39466252755E+02 -0.10399286047E+02  0.75221789326E+02  0.85580651120E+02  0.00000000000E+00 0.  1.
         14    1    6    6    0    0  0.56642018410E+02  0.20849481420E+02  0.31694644542E+02  0.68173085728E+02  0.00000000000E+00 0. -1.
         -5    1    3    3    0  503  0.10998286653E+01 -0.35213372613E+02  0.13003285692E+02  0.37846620360E+02  0.47000000000E+01 0.  1.
         11    1    4    4    0    0  0.17532818625E+02  0.25717241720E+02  0.16339577205E+03  0.16633386478E+03  0.00000000000E+00 0. -1.
        -12    1    4    4    0    0 -0.55107968136E+02  0.58188594311E+02  0.15231104277E+03  0.17210884465E+03  0.00000000000E+00 0.  1.
</event>
<event>
12    1  0.1040325E-001  0.1839533E+03  0.7818608E-02  0.1164074E+00
         21   -1    0    0  503  502  0.00000000000E+00  0.00000000000E+00  0.57337226027E+02  0.57337226027E+02  0.00000000000E+00 0.  1.
         21   -1    0    0  501  503 -0.00000000000E+00 -0.00000000000E+00 -0.83181974215E+03  0.83181974215E+03  0.00000000000E+00 0.  1.
          6    2    1    2  501    0 -0.23318048176E+02  0.59358193704E+02 -0.62729445601E+03  0.65371028494E+03  0.17254470598E+03 0.  0.
         24    2    3    3    0    0  0.29892912056E+01 -0.22727254738E+02 -0.44013335998E+03  0.44759996783E+03  0.78121012948E+02 0.  0.
         -6    2    1    2    0  502  0.23318048176E+02 -0.59358193704E+02 -0.14718806011E+03  0.23544668324E+03  0.17234758216E+03 0.  0.
        -24    2    5    5    0    0  0.67141522078E+02 -0.32798589782E+01 -0.54086230828E+02  0.11816361922E+03  0.80737717822E+02 0.  0.
          5    1    3    3  501    0 -0.26307339382E+02  0.82085448442E+02 -0.18716109603E+03  0.20611031711E+03  0.47000000000E+01 0. -1.
        -13    1    4    4    0    0 -0.28399497427E+02 -0.15806144948E+02 -0.35688332209E+03  0.35836025346E+03  0.00000000000E+00 0.  1.
         14    1    4    4    0    0  0.31388788633E+02 -0.69211097897E+01 -0.83250037895E+02  0.89239714377E+02  0.00000000000E+00 0. -1.
         -5    1    5    5    0  502 -0.43823473901E+02 -0.56078334726E+02 -0.93101829285E+02  0.11728306402E+03  0.47000000000E+01 0.  1.
         11    1    6    6    0    0 -0.12663489814E+01 -0.19956070782E+02  0.10527915427E+02  0.22598349587E+02  0.00000000000E+00 0. -1.
        -12    1    6    6    0    0  0.68407871059E+02  0.16676211804E+02 -0.64614146255E+02  0.95565269629E+02  0.00000000000E+00 0.  1.
</event>
<event>
12    1  0.1040325E-001  0.2388283E+03  0.7818608E-02  0.1120615E+00
         21   -1    0    0  501  502  0.00000000000E+00  0.00000000000E+00  0.21972042621E+03  0.21972042621E+03  0.00000000000E+00 0. -1.
         21   -1    0    0  502  503 -0.00000000000E+00 -0.00000000000E+00 -0.36368753077E+03  0.36368753077E+03  0.00000000000E+00 0.  1.
         -6    2    1    2    0  503 -0.16186522476E+03  0.33845567983E+02 -0.22825316131E+03  0.33036113396E+03  0.17231685851E+03 0.  0.
        -24    2    3    3    0    0 -0.85754974445E+02  0.86774296273E+02 -0.15420593012E+03  0.21162064833E+03  0.78231296677E+02 0.  0.
          6    2    1    2  501    0  0.16186522476E+03 -0.33845567983E+02  0.84286056740E+02  0.25304682302E+03  0.17199616804E+03 0.  0.
         24    2    5    5    0    0  0.15993318693E+03  0.31934202943E+01  0.10837071901E+03  0.20857458023E+03  0.78551388035E+02 0.  0.
          5    1    5    5  501    0  0.19320378287E+01 -0.37038988277E+02 -0.24084662266E+02  0.44472242795E+02  0.47000000000E+01 0. -1.
        -13    1    6    6    0    0  0.36674748982E+02  0.30443501709E+02  0.10406669714E+02  0.48786707039E+02  0.00000000000E+00 0.  1.
         14    1    6    6    0    0  0.12325843795E+03 -0.27250081415E+02  0.97964049292E+02  0.15978787319E+03  0.00000000000E+00 0. -1.
         -5    1    3    3    0  503 -0.76110250317E+02 -0.52928728290E+02 -0.74047231188E+02  0.11874048563E+03  0.47000000000E+01 0.  1.
         13    1    4    4    0    0 -0.74673755208E+02  0.20207681008E+02 -0.85962196262E+02  0.11564609494E+03  0.00000000000E+00 0. -1.
        -14    1    4    4    0    0 -0.11081219237E+02  0.66566615265E+02 -0.68243733855E+02  0.95974553388E+02  0.00000000000E+00 0.  1.
</event>
<event>
12    1  0.1040325E-001  0.1755600E+03  0.7818608E-02  0.1172188E+00
         21   -1    0    0  503  502  0.00000000000E+00  0.00000000000E+00  0.52017612544E+03  0.52017612544E+03  0.00000000000E+00 0.  1.
         21   -1    0    0  501  503 -0.00000000000E+00 -0.00000000000E+00 -0.76506366111E+02  0.76506366111E+02  0.00000000000E+00 0.  1.
          6    2    1    2  501    0  0.26383510891E+01 -0.34120067441E+02  0.80020141402E+02  0.19287270566E+03  0.17212064855E+03 0.  0.
         24    2    3    3    0    0  0.28763308892E+01 -0.83244359895E+02  0.22652017027E+02  0.11719943139E+03  0.79276075266E+02 0.  0.
         -6    2    1    2    0  502 -0.26383510891E+01  0.34120067441E+02  0.36364961792E+03  0.40380978589E+03  0.17219221430E+03 0.  0.
        -24    2    5    5    0    0 -0.63004794097E+02  0.48992482917E+02  0.23791449788E+03  0.26346483017E+03  0.80252981095E+02 0.  0.
          5    1    3    3  501    0 -0.23797980003E+00  0.49124292454E+02  0.57368124375E+02  0.75673274264E+02  0.47000000000E+01 0. -1.
        -11    1    4    4    0    0 -0.31536748178E+02 -0.59320507375E+02  0.31756641306E+02  0.74309981483E+02  0.00000000000E+00 0.  1.
         12    1    4    4    0    0  0.34413079068E+02 -0.23923852521E+02 -0.91046242792E+01  0.42889449910E+02  0.00000000000E+00 0. -1.
         -5    1    5    5    0  502  0.60366443007E+02 -0.14872415476E+02  0.12573512004E+03  0.14034495572E+03  0.47000000000E+01 0.  1.
         13    1    6    6    0    0 -0.25937630649E+02 -0.50733406768E+01  0.13510180631E+02  0.29682056028E+02  0.00000000000E+00 0. -1.
        -14    1    6    6    0    0 -0.37067163447E+02  0.54065823594E+02  0.22440431725E+03  0.23378277415E+03  0.00000000000E+00 0.  1.
</event>
<event>
12    1  0.1040325E-001  0.2256870E+03  0.7818608E-02  0.1130003E+00
         21   -1    0    0  503  502  0.00000000000E+00  0.00000000000E+00  0.42635718707E+03  0.42635718707E+03  0.00000000000E+00 0. -1.
         21   -1    0    0  501  503 -0.00000000000E+00 -0.00000000000E+00 -0.16963459460E+03  0.16963459460E+03  0.00000000000E+00 0.  1.
          6    2    1    2  501    0  0.99317595812E+02  0.10341564139E+03 -0.34739066556E+02  0.22834493272E+03  0.17428661978E+03 0.  0.
         24    2    3    3    0    0 -0.13983465717E+02  0.25617825222E+02  0.11607628091E+01  0.86216404649E+02  0.81117881985E+02 0.  0.
         -6    2    1    2    0  502 -0.99317595812E+02 -0.10341564139E+03  0.29146165902E+03  0.36764684895E+03  0.17220780221E+03 0.  0.
        -24    2    5    5    0    0 -0.98411137184E+02 -0.44945420999E+02  0.27591173600E+03  0.30695518193E+03  0.79933440203E+02 0.  0.
          5    1    3    3  501    0  0.11330106153E+03  0.77797816166E+02 -0.35899829365E+02  0.14212852807E+03  0.47000000000E+01 0. -1.
        -13    1    4    4    0    0  0.21388354357E+00  0.27116481036E+02 -0.36770056807E+02  0.45687923651E+02  0.00000000000E+00 0.  1.
         14    1    4    4    0    0 -0.14197349260E+02 -0.14986558146E+01  0.37930819616E+02  0.40528480998E+02  0.00000000000E+00 0. -1.
         -5    1    5    5    0  502 -0.90645862731E+00 -0.58470220389E+02  0.15549923025E+02  0.60691667020E+02  0.47000000000E+01 0.  1.
         13    1    6    6    0    0 -0.90688294800E+02 -0.64488948907E+02  0.24959403569E+03  0.27327710112E+03  0.00000000000E+00 0. -1.
        -14    1    6    6    0    0 -0.77228423848E+01  0.19543527909E+02  0.26317700306E+02  0.33678080810E+02  0.00000000000E+00 0.  1.
</event>
<event>
12    1  0.1040325E-001  0.1896500E+03  0.7818608E-02  0.1158815E+00
         21   -1    0    0  503  502  0.00000000000E+00  0.00000000000E+00  0.13785806633E+04  0.13785806633E+04  0.00000000000E+00 0.  1.
         21   -1    0    0  501  503 -0.00000000000E+00 -0.00000000000E+00 -0.86656547623E+02  0.86656547623E+02  0.00000000000E+00 0.  1.
          6    2    1    2  501    0 -0.79069273057E+02  0.29051726563E+01  0.33280062325E+02  0.19238531062E+03  0.17217478103E+03 0.  0.
         24    2    3    3    0    0 -0.21163119537E+02 -0.57740034988E+02 -0.63357147564E+01  0.99528088931E+02  0.77999422664E+02 0.  0.
         -6    2    1    2    0  502  0.79069273057E+02 -0.29051726563E+01  0.12586440533E+04  0.12728519003E+04  0.17235636658E+03 0.  0.
        -24    2    5    5    0    0  0.31696475617E+02  0.23454430823E+02  0.30109716323E+03  0.31376006559E+03  0.78937317932E+02 0.  0.
          5    1    3    3  501    0 -0.57906153520E+02  0.60645207644E+02  0.39615777082E+02  0.92857221687E+02  0.47000000000E+01 0. -1.
        -11    1    4    4    0    0 -0.40497850173E+02 -0.70755040994E+01  0.11068419339E+02  0.42575210317E+02  0.00000000000E+00 0.  1.
         12    1    4    4    0    0  0.19334730636E+02 -0.50664530888E+02 -0.17404134095E+02  0.56952878615E+02  0.00000000000E+00 0. -1.
         -5    1    5    5    0  502  0.47372797440E+02 -0.26359603479E+02  0.95754689008E+03  0.95909183468E+03  0.47000000000E+01 0.  1.
         13    1    6    6    0    0 -0.22925538187E+02  0.43067239104E+01  0.15275277691E+03  0.15452358728E+03  0.00000000000E+00 0. -1.
        -14    1    6    6    0    0  0.54622013804E+02  0.19147706912E+02  0.14834438631E+03  0.15923647830E+03  0.00000000000E+00 0.  1.
</event>
<event>
12    1  0.1040325E-001  0.1924076E+03  0.7818608E-02  0.1157152E+00
         21   -1    0    0  501  502  0.00000000000E+00  0.00000000000E+00  0.16076219772E+02  0.16076219772E+02  0.00000000000E+00 0.  1.
         21   -1    0    0  502  503 -0.00000000000E+00 -0.00000000000E+00 -0.28425522051E+04  0.28425522051E+04  0.00000000000E+00 0.  1.
         -6    2    1    2    0  503 -0.77805803710E+02 -0.11127965059E+02 -0.75396147515E+03  0.77720172726E+03  0.17148482192E+03 0.  0.
        -24    2    3    3    0    0 -0.10889556294E+03  0.29463907868E+02 -0.50548550039E+03  0.52347614063E+03  0.76061246463E+02 0.  0.
          6    2    1    2  501    0  0.77805803710E+02  0.11127965059E+02 -0.20725145101E+04  0.20814266976E+04  0.17562211687E+03 0.  0.
         24    2    5    5    0    0 -0.17980970412E+02 -0.15921828390E+02 -0.12600216066E+04  0.12628464598E+04  0.80931526210E+02 0.  0.
          5    1    5    5  501    0  0.95786774122E+02  0.27049793448E+02 -0.81249290353E+03  0.81858023780E+03  0.47000000000E+01 0. -1.
        -11    1    6    6    0    0  0.74073503386E+01  0.25417996598E+02 -0.76387461638E+03  0.76433328656E+03  0.00000000000E+00 0.  1.
         12    1    6    6    0    0 -0.25388320751E+02 -0.41339824987E+02 -0.49614699023E+03  0.49851317322E+03  0.00000000000E+00 0. -1.
         -5    1    3    3    0  503  0.31089759229E+02 -0.40591872927E+02 -0.24847597476E+03  0.25372558663E+03  0.47000000000E+01 0.  1.
         13    1    4    4    0    0 -0.79850348780E+02 -0.87602208929E+01 -0.22494938825E+03  0.23886198305E+03  0.00000000000E+00 0. -1.
        -14    1    4    4    0    0 -0.29045214159E+02  0.38224128761E+02 -0.28053611213E+03  0.28461415758E+03  0.00000000000E+00 0.  1.
</event>
<event>
12    1  0.1040325E-001  0.2016657E+03  0.7818608E-02  0.1148412E+00
         21   -1    0    0  503  502  0.00000000000E+00  0.00000000000E+00  0.10293568089E+03  0.10293568089E+03  0.00000000000E+00 0.  1.
         21   -1    0    0  501  503 -0.00000000000E+00 -0.00000000000E+00 -0.47112976902E+03  0.47112976902E+03  0.00000000000E+00 0. -1.
          6    2    1    2  501    0 -0.76430858531E+02  0.71497045127E+02 -0.30003837294E+03  0.36151361988E+03  0.17238204236E+03 0.  0.
         24    2    3    3    0    0 -0.11674358698E+03  0.36034446507E+02 -0.19427274565E+03  0.24280738630E+03  0.79284176875E+02 0.  0.
         -6    2    1    2    0  502  0.76430858531E+02 -0.71497045127E+02 -0.68155715195E+02  0.21255183003E+03  0.17198713713E+03 0.  0.
        -24    2    5    5    0    0 -0.22315086003E+02 -0.28951081822E+02 -0.58342565995E+02  0.10448098080E+03  0.78589389494E+02 0.  0.
          5    1    3    3  501    0  0.40312728448E+02  0.35462598620E+02 -0.10576562729E+03  0.11870623358E+03  0.47000000000E+01 0. -1.
        -11    1    4    4    0    0 -0.28666892721E+02  0.21700644469E+02 -0.88469529105E+01  0.37026710419E+02  0.00000000000E+00 0.  1.
         12    1    4    4    0    0 -0.88076694258E+02  0.14333802039E+02 -0.18542579274E+03  0.20578067588E+03  0.00000000000E+00 0. -1.
         -5    1    5    5    0  502  0.98745944534E+02 -0.42545963305E+02 -0.98131492003E+01  0.10807084923E+03  0.47000000000E+01 0.  1.
         13    1    6    6    0    0  0.13573175542E+02  0.16548767677E+02 -0.36963902582E+02  0.42713263748E+02  0.00000000000E+00 0. -1.
        -14    1    6    6    0    0 -0.35888261545E+02 -0.45499849499E+02 -0.21378663413E+02  0.61767717057E+02  0.00000000000E+00 0.  1.
</event>
<event>
12    1  0.1040325E-001  0.3476039E+03  0.7818608E-02  0.1063648E+00
         21   -1    0    0  503  502  0.00000000000E+00  0.00000000000E+00  0.12926319046E+04  0.12926319046E+04  0.00000000000E+00 0.  1.
         21   -1    0    0  501  503 -0.00000000000E+00 -0.00000000000E+00 -0.10496618759E+03  0.10496618759E+03  0.00000000000E+00 0. -1.
          6    2    1    2  501    0 -0.28150514778E+03 -0.10943641151E+03  0.82654487874E+03  0.89666320977E+03  0.17206684394E+03 0.  0.
         24    2    3    3    0    0 -0.24913966797E+03 -0.13922745084E+03  0.76899782265E+03  0.82407682005E+03  0.79310130986E+02 0.  0.
         -6    2    1    2    0  502  0.28150514778E+03  0.10943641151E+03  0.36112083824E+03  0.50093488240E+03  0.17119001199E+03 0.  0.
        -24    2    5    5    0    0  0.18396839834E+03  0.79332394935E+02  0.32945660240E+03  0.39395645871E+03  0.80759135821E+02 0.  0.
          5    1    3    3  501    0 -0.32365479808E+02  0.29791039330E+02  0.57547056096E+02  0.72586389722E+02  0.47000000000E+01 0. -1.
        -13    1    4    4    0    0 -0.72522313253E+02 -0.25886197785E+02  0.30933069815E+03  0.31877117494E+03  0.00000000000E+00 0.  1.
         14    1    4    4    0    0 -0.17661735472E+03 -0.11334125305E+03  0.45966712450E+03  0.50530564511E+03  0.00000000000E+00 0. -1.
         -5    1    5    5    0  502  0.97536749437E+02  0.30104016575E+02  0.31664235840E+02  0.10697842369E+03  0.47000000000E+01 0.  1.
         11    1    6    6    0    0  0.15210101100E+03  0.59642399812E+02  0.19508137086E+03  0.25445760876E+03  0.00000000000E+00 0. -1.
        -12    1    6    6    0    0  0.31867387346E+02  0.19689995123E+02  0.13437523154E+03  0.13949884994E+03  0.00000000000E+00 0.  1.
</event>
<event>
12    1  0.1040325E-001  0.1740093E+03  0.7818608E-02  0.1173801E+00
         21   -1    0    0  503  502  0.00000000000E+00  0.00000000000E+00  0.10406519702E+03  0.10406519702E+03  0.00000000000E+00 0. -1.
         21   -1    0    0  501  503 -0.00000000000E+00 -0.00000000000E+00 -0.33653983480E+03  0.33653983480E+03  0.00000000000E+00 0. -1.
          6    2    1    2  501    0  0.11949817969E+02  0.33118621695E+02 -0.19780772494E+03  0.26345235758E+03  0.17041011535E+03 0.  0.
         24    2    3    3    0    0 -0.11569189578E+02  0.28879348840E+01 -0.22721271751E+02  0.84163779491E+02  0.80156716954E+02 0.  0.
         -6    2    1    2    0  502 -0.11949817969E+02 -0.33118621695E+02 -0.34666912830E+02  0.17715267424E+03  0.17012240855E+03 0.  0.
        -24    2    5    5    0    0  0.11466037261E+02 -0.37831919726E+02  0.40635583505E+02  0.98013092428E+02  0.79953683341E+02 0.  0.
          5    1    3    3  501    0  0.23519007547E+02  0.30230686811E+02 -0.17508645319E+03  0.17928857809E+03  0.47000000000E+01 0. -1.
        -11    1    4    4    0    0  0.73944141179E+00  0.40387606416E+02 -0.18632303923E+02  0.44484472292E+02  0.00000000000E+00 0.  1.
         12    1    4    4    0    0 -0.12308630990E+02 -0.37499671532E+02 -0.40889678277E+01  0.39679307199E+02  0.00000000000E+00 0. -1.
         -5    1    5    5    0  502 -0.23415855230E+02  0.47132980309E+01 -0.75302496335E+02  0.79139581808E+02  0.47000000000E+01 0.  1.
         13    1    6    6    0    0  0.45585583053E+02 -0.18232352630E+02  0.28814612445E+02  0.56927550053E+02  0.00000000000E+00 0. -1.
        -14    1    6    6    0    0 -0.34119545792E+02 -0.19599567096E+02  0.11820971060E+02  0.41085542375E+02  0.00000000000E+00 0.  1.
</event>
<event>
12    1  0.1040325E-001  0.2348241E+03  0.7818608E-02  0.1123378E+00
         21   -1    0    0  501  502  0.00000000000E+00  0.00000000000E+00  0.87565369723E+02  0.87565369723E+02  0.00000000000E+00 0. -1.
         21   -1    0    0  502  503 -0.00000000000E+00 -0.00000000000E+00 -0.73037463944E+03  0.73037463944E+03  0.00000000000E+00 0.  1.
         -6    2    1    2    0  503  0.15908403813E+03 -0.10290862013E+02 -0.47456055188E+03  0.52948094230E+03  0.17242017815E+03 0.  0.
        -24    2    3    3    0    0  0.14087291015E+03  0.31166337339E+02 -0.24404564743E+03  0.29451380474E+03  0.79772086318E+02 0.  0.
          6    2    1    2  501    0 -0.15908403813E+03  0.10290862013E+02 -0.16824871783E+03  0.28845906685E+03  0.17171886667E+03 0.  0.
         24    2    5    5    0    0 -0.45915461410E+02  0.34862926920E+02 -0.19153394586E+02  0.99614107843E+02  0.78945960551E+02 0.  0.
          5    1    5    5  501    0 -0.11316857672E+03 -0.24572064907E+02 -0.14909532324E+03  0.18884495901E+03  0.47000000000E+01 0. -1.
        -11    1    6    6    0    0 -0.11357828146E+02  0.12131495092E+02 -0.46932675785E+02  0.49788045650E+02  0.00000000000E+00 0.  1.
         12    1    6    6    0    0 -0.34557633264E+02  0.22731431828E+02  0.27779281198E+02  0.49826062193E+02  0.00000000000E+00 0. -1.
         -5    1    3    3    0  503  0.18211127978E+02 -0.41457199351E+02 -0.23051490445E+03  0.23496713756E+03  0.47000000000E+01 0.  1.
         13    1    4    4    0    0  0.10407136820E+03  0.15771289749E+02 -0.22872145478E+03  0.25177983862E+03  0.00000000000E+00 0. -1.
        -14    1    4    4    0    0  0.36801541947E+02  0.15395047590E+02 -0.15324192654E+02  0.42733966121E+02  0.00000000000E+00 0.  1.
</event>
<event>
12    1  0.1040325E-001  0.1898505E+03  0.7818608E-02  0.1160431E+00
         21   -1    0    0  501  502  0.00000000000E+00  0.00000000000E+00  0.26663718085E+03  0.26663718085E+03  0.00000000000E+00 0.  1.
         21   -1    0    0  502  503 -0.00000000000E+00 -0.00000000000E+00 -0.13086617760E+03  0.13086617760E+03  0.00000000000E+00 0.  1.
         -6    2    1    2    0  503  0.29659094279E+02 -0.51613427112E+02  0.46736446280E+02  0.18781223337E+03  0.17188813764E+03 0.  0.
        -24    2    3    3    0    0 -0.33739065939E+02  0.68577099920E+01  0.51819919749E+02  0.10128979527E+03  0.79931006410E+02 0.  0.
          6    2    1    2  501    0 -0.29659094279E+02  0.51613427112E+02  0.89034556972E+02  0.20969112507E+03  0.18027647618E+03 0.  0.
         24    2    5    5    0    0 -0.38249402672E+02  0.64439894974E+02 -0.96387014298E+01  0.10970705834E+03  0.79543806893E+02 0.  0.
          5    1    5    5  501    0  0.85903083926E+01 -0.12826467863E+02  0.98673258402E+02  0.99984066729E+02  0.47000000000E+01 0. -1.
        -11    1    6    6    0    0  0.23045673556E+01  0.66546314835E+02 -0.16308588497E+02  0.68554307725E+02  0.00000000000E+00 0.  1.
         12    1    6    6    0    0 -0.40553970027E+02 -0.21064198610E+01  0.66698870675E+01  0.41152750614E+02  0.00000000000E+00 0. -1.
         -5    1    3    3    0  503  0.63398160219E+02 -0.58471137104E+02 -0.50834734693E+01  0.86522438106E+02  0.47000000000E+01 0.  1.
         13    1    4    4    0    0 -0.21625060396E+02  0.33520673002E+02 -0.20827720767E+01  0.39945171112E+02  0.00000000000E+00 0. -1.
        -14    1    4    4    0    0 -0.12114005543E+02 -0.26662963010E+02  0.53902691826E+02  0.61344624156E+02  0.00000000000E+00 0.  1.
</event>
<event>
12    1  0.1040325E-001  0.1994921E+03  0.7818608E-02  0.1151284E+00
         21   -1    0    0  501  502  0.00000000000E+00  0.00000000000E+00  0.73438231419E+02  0.73438231419E+02  0.00000000000E+00 0. -1.
         21   -1    0    0  502  503 -0.00000000000E+00 -0.00000000000E+00 -0.12825084071E+04  0.12825084071E+04  0.00000000000E+00 0. -1.
         -6    2    1    2    0  503 -0.98596450354E+02  0.27193812177E+02 -0.11278546366E+04  0.11453615939E+04  0.17127853376E+03 0.  0.
        -24    2    3    3    0    0 -0.18384904208E+02 -0.16244776365E+02 -0.82189877934E+03  0.82606254963E+03  0.79119118717E+02 0.  0.
          6    2    1    2  501    0  0.98596450354E+02 -0.27193812177E+02 -0.81215539043E+02  0.21058504454E+03  0.16519483575E+03 0.  0.
         24    2    5    5    0    0  0.45253288280E+02  0.30694678563E+02 -0.63541650758E+01  0.10185195109E+03  0.85693763682E+02 0.  0.
          5    1    5    5  501    0  0.53343162075E+02 -0.57888490740E+02 -0.74861373967E+02  0.10873309346E+03  0.47000000000E+01 0. -1.
        -11    1    6    6    0    0 -0.23663611561E+02  0.19524041268E+02  0.51091351400E+01  0.31100771074E+02  0.00000000000E+00 0.  1.
         12    1    6    6    0    0  0.68916899840E+02  0.11170637295E+02 -0.11463300216E+02  0.70751180011E+02  0.00000000000E+00 0. -1.
         -5    1    3    3    0  503 -0.80211546146E+02  0.43438588543E+02 -0.30595585725E+03  0.31929904431E+03  0.47000000000E+01 0.  1.
         13    1    4    4    0    0  0.23486229214E+02 -0.23136047109E+02 -0.19831407572E+03  0.20103569899E+03  0.00000000000E+00 0. -1.
        -14    1    4    4    0    0 -0.41871133422E+02  0.68912707439E+01 -0.62358470362E+03  0.62502685064E+03  0.00000000000E+00 0.  1.
</event>
<event>
12    1  0.1040325E-001  0.1944160E+03  0.7818608E-02  0.1155091E+00
         21   -1    0    0  501  502  0.00000000000E+00  0.00000000000E+00  0.81888840838E+03  0.81888840838E+03  0.00000000000E+00 0. -1.
         21   -1    0    0  502  503 -0.00000000000E+00 -0.00000000000E+00 -0.70456397994E+02  0.70456397994E+02  0.00000000000E+00 0. -1.
         -6    2    1    2    0  503 -0.82598004732E+02  0.38065759293E+02  0.11147654354E+03  0.22410845987E+03  0.17183174796E+03 0.  0.
        -24    2    3    3    0    0  0.19052358581E+02 -0.29682104371E+01  0.69000548948E+02  0.10645267739E+03  0.78735596321E+02 0.  0.
          6    2    1    2  501    0  0.82598004732E+02 -0.38065759293E+02  0.63695546684E+03  0.66523634650E+03  0.16898431156E+03 0.  0.
         24    2    5    5    0    0  0.70992139416E+02  0.37741916194E+02  0.41414477957E+03  0.42954970680E+03  0.80825219268E+02 0.  0.
          5    1    5    5  501    0  0.11605865315E+02 -0.75807675487E+02  0.22281068727E+03  0.23568663970E+03  0.47000000000E+01 0. -1.
        -13    1    6    6    0    0 -0.13807100842E+02  0.17815124155E+02  0.45808986618E+02  0.51053677020E+02  0.00000000000E+00 0.  1.
         14    1    6    6    0    0  0.84799240258E+02  0.19926792039E+02  0.36833579295E+03  0.37849602978E+03  0.00000000000E+00 0. -1.
         -5    1    3    3    0  503 -0.10165036331E+03  0.41033969730E+02  0.42475994594E+02  0.11765578248E+03  0.47000000000E+01 0.  1.
         13    1    4    4    0    0  0.28720617272E+02  0.15089697085E+02 -0.20503936860E+01  0.32508105587E+02  0.00000000000E+00 0. -1.
        -14    1    4    4    0    0 -0.96682586909E+01 -0.18057907522E+02  0.71050942634E+02  0.73944571804E+02  0.00000000000E+00 0.  1.
</event>
<event>
12    1  0.1040325E-001  0.2351504E+03  0.7818608E-02  0.1124545E+00
         21   -1    0    0  501  502  0.00000000000E+00  0.00000000000E+00  0.27035951876E+03  0.27035951876E+03  0.00000000000E+00 0.  1.
         21   -1    0    0  502  503 -0.00000000000E+00 -0.00000000000E+00 -0.10197187251E+04  0.10197187251E+04  0.00000000000E+00 0.  1.
         -6    2    1    2    0  503 -0.13483935592E+03 -0.61585266071E+02 -0.95264428741E+03  0.97923976947E+03  0.17147883507E+03 0.  0.
        -24    2    3    3    0    0 -0.14274308105E+03 -0.53985483024E+02 -0.55381612446E+03  0.58023322926E+03  0.81659543564E+02 0.  0.
          6    2    1    2  501    0  0.13483935592E+03  0.61585266071E+02  0.20328508109E+03  0.31083847438E+03  0.18254132699E+03 0.  0.
         24    2    5    5    0    0  0.55244497028E+02 -0.15431144846E+02  0.16407311642E+03  0.19325217720E+03  0.84476871238E+02 0.  0.
          5    1    5    5  501    0  0.79594858892E+02  0.77016410917E+02  0.39211964661E+02  0.11758629718E+03  0.47000000000E+01 0. -1.
        -11    1    6    6    0    0  0.42904148415E+02 -0.97934459206E+01  0.17199890231E+03  0.17753957286E+03  0.00000000000E+00 0.  1.
         12    1    6    6    0    0  0.12340348613E+02 -0.56376989258E+01 -0.79257858880E+01  0.15712604336E+02  0.00000000000E+00 0. -1.
         -5    1    3    3    0  503  0.79037251260E+01 -0.75997830476E+01 -0.39882816295E+03  0.39900654021E+03  0.47000000000E+01 0.  1.
         11    1    4    4    0    0 -0.82944830179E+02  0.86831610721E+01 -0.21749198815E+03  0.23293348202E+03  0.00000000000E+00 0. -1.
        -12    1    4    4    0    0 -0.59798250868E+02 -0.62668644096E+02 -0.33632413632E+03  0.34729974724E+03  0.00000000000E+00 0.  1.
</event>
<event>
12    1  0.1040325E-001  0.2072923E+03  0.7818608E-02  0.1143807E+00
         21   -1    0    0  501  502  0.00000000000E+00  0.00000000000E+00  0.11489458863E+04  0.11489458863E+04  0.00000000000E+00 0. -1.
         21   -1    0    0  502  503 -0.00000000000E+00 -0.00000000000E+00 -0.37507321432E+02  0.37507321432E+02  0.00000000000E+00 0. -1.
         -6    2    1    2    0  503 -0.56260964383E+02  0.10069744335E+03  0.59707259299E+03  0.63203304251E+03  0.17223476509E+03 0.  0.
        -24    2    3    3    0    0  0.22061747013E+00 -0.12077115851E+02  0.22298282781E+03  0.23722484514E+03  0.80052359460E+02 0.  0.
          6    2    1    2  501    0  0.56260964383E+02 -0.10069744335E+03  0.51436597192E+03  0.55442016527E+03  0.17176756207E+03 0.  0.
         24    2    5    5    0    0 -0.25668656927E+02 -0.80202946518E+02  0.36076925503E+03  0.37907328424E+03  0.80316292675E+02 0.  0.
          5    1    5    5  501    0  0.81929621310E+02 -0.20494496833E+02  0.15359671689E+03  0.17534688103E+03  0.47000000000E+01 0. -1.
        -13    1    6    6    0    0 -0.29270382908E+02 -0.35960918836E+02  0.64159470649E+02  0.79160474184E+02  0.00000000000E+00 0.  1.
         14    1    6    6    0    0  0.36017259813E+01 -0.44242027682E+02  0.29660978438E+03  0.29991281005E+03  0.00000000000E+00 0. -1.
         -5    1    3    3    0  503 -0.56481581853E+02  0.11277455920E+03  0.37408976518E+03  0.39480819736E+03  0.47000000000E+01 0.  1.
         13    1    4    4    0    0 -0.30441959266E+02  0.17764299997E+02  0.70020353841E+02  0.78390899920E+02  0.00000000000E+00 0. -1.
        -14    1    4    4    0    0  0.30662576736E+02 -0.29841415848E+02  0.15296247397E+03  0.15883394522E+03  0.00000000000E+00 0.  1.
</event>
<event>
12    1  0.1040325E-001  0.1853179E+03  0.7818608E-02  0.1164100E+00
         21   -1    0    0  503  502  0.00000000000E+00  0.00000000000E+00  0.25334873984E+03  0.25334873984E+03  0.00000000000E+00 0.  1.
         21   -1    0    0  501  503 -0.00000000000E+00 -0.00000000000E+00 -0.13536963260E+03  0.13536963260E+03  0.00000000000E+00 0.  1.
          6    2    1    2  501    0 -0.63765159007E+02  0.18930055072E+02  0.93045260891E+02  0.20736477547E+03  0.17296932399E+03 0.  0.
         24    2    3    3    0    0 -0.90994298811E+02 -0.51265782691E+01  0.16819896557E+02  0.12279206220E+03  0.80552699505E+02 0.  0.
         -6    2    1    2    0  502  0.63765159007E+02 -0.18930055072E+02  0.24933846347E+02  0.18135359697E+03  0.16686248215E+03 0.  0.
        -24    2    5    5    0    0  0.13481205906E+02  0.12450891003E+01 -0.50264859725E+02  0.88550322364E+02  0.71633164862E+02 0.  0.
          5    1    3    3  501    0  0.27229139803E+02  0.24056633341E+02  0.76225364334E+02  0.84572713271E+02  0.47000000000E+01 0. -1.
        -13    1    4    4    0    0 -0.49069345835E+02 -0.22239488504E+02  0.44364419840E+02  0.69789664689E+02  0.00000000000E+00 0.  1.
         14    1    4    4    0    0 -0.41924952976E+02  0.17112910235E+02 -0.27544523283E+02  0.53002397508E+02  0.00000000000E+00 0. -1.
         -5    1    5    5    0  502  0.50283953101E+02 -0.20175144172E+02  0.75198706072E+02  0.92803274601E+02  0.47000000000E+01 0.  1.
         13    1    6    6    0    0  0.13967129731E+02  0.24966427061E+02  0.44134297519E+01  0.28946183777E+02  0.00000000000E+00 0. -1.
        -14    1    6    6    0    0 -0.48592382464E+00 -0.23721337960E+02 -0.54678289477E+02  0.59604138587E+02  0.00000000000E+00 0.  1.
</event>
<event>
12    1  0.1040325E-001  0.1975876E+03  0.7818608E-02  0.1152125E+00
         21   -1    0    0  501  502  0.00000000000E+00  0.00000000000E+00  0.31628715846E+03  0.31628715846E+03  0.00000000000E+00 0.  1.
         21   -1    0    0  502  503 -0.00000000000E+00 -0.00000000000E+00 -0.14557003393E+03  0.14557003393E+03  0.00000000000E+00 0. -1.
         -6    2    1    2    0  503 -0.76346980335E+02 -0.55529194110E+02 -0.69250989245E+01  0.19615508798E+03  0.17180369245E+03 0.  0.
        -24    2    3    3    0    0 -0.10888691063E+03 -0.45407328178E+01 -0.61366551292E+01  0.13548069559E+03  0.80251995493E+02 0.  0.
          6    2    1    2  501    0  0.76346980335E+02  0.55529194110E+02  0.17764222346E+03  0.26570210441E+03  0.17357562020E+03 0.  0.
         24    2    5    5    0    0  0.12011319123E+03  0.42465441017E+02  0.14796425839E+03  0.21103022433E+03  0.80061485319E+02 0.  0.
          5    1    5    5  501    0 -0.43766210893E+02  0.13063753094E+02  0.29677965071E+02  0.54671880081E+02  0.47000000000E+01 0. -1.
        -11    1    6    6    0    0  0.50034419070E+02 -0.46959866484E+01  0.10467482368E+03  0.11611336743E+03  0.00000000000E+00 0.  1.
         12    1    6    6    0    0  0.70078772158E+02  0.47161427665E+02  0.43289434705E+02  0.94916856899E+02  0.00000000000E+00 0. -1.
         -5    1    3    3    0  503  0.32539930291E+02 -0.50988461293E+02 -0.78844379525E+00  0.60674392391E+02  0.47000000000E+01 0.  1.
         11    1    4    4    0    0 -0.14584861985E+02  0.22727195216E+01 -0.33872142050E+02  0.36948686853E+02  0.00000000000E+00 0. -1.
        -12    1    4    4    0    0 -0.94302048641E+02 -0.68134523393E+01  0.27735486920E+02  0.98532008735E+02  0.00000000000E+00 0.  1.
</event>
<event>
12    1  0.1040325E-001  0.1830301E+03  0.7818608E-02  0.1165105E+00
         21   -1    0    0  503  502  0.00000000000E+00  0.00000000000E+00  0.27618264519E+03  0.27618264519E+03  0.00000000000E+00 0.  1.
         21   -1    0    0  501  503 -0.00000000000E+00 -0.00000000000E+00 -0.13800726819E+03  0.13800726819E+03  0.00000000000E+00 0.  1.
          6    2    1    2  501    0 -0.59808704765E+02  0.20535291510E+01 -0.40453829461E+01  0.18307478498E+03  0.17297026804E+03 0.  0.
         24    2    3    3    0    0 -0.99223505605E+02  0.27497547968E+02 -0.23991425480E+02  0.13188045686E+03  0.78838107513E+02 0.  0.
         -6    2    1    2    0  502  0.59808704765E+02 -0.20535291510E+01  0.14222075995E+03  0.23111512840E+03  0.17206440615E+03 0.  0.
        -24    2    5    5    0    0  0.34717798375E+02 -0.53378034083E+02  0.14087270440E+03  0.17377695923E+03  0.79364807484E+02 0.  0.
          5    1    3    3  501    0  0.39414800840E+02 -0.25444018817E+02  0.19946042534E+02  0.51194328119E+02  0.47000000000E+01 0. -1.
        -13    1    4    4    0    0 -0.26043870296E+02  0.17142873351E+02  0.27685745671E+02  0.41697263700E+02  0.00000000000E+00 0.  1.
         14    1    4    4    0    0 -0.73179635310E+02  0.10354674617E+02 -0.51677171151E+02  0.90183193161E+02  0.00000000000E+00 0. -1.
         -5    1    5    5    0  502  0.25090906390E+02  0.51324504932E+02  0.13480555530E+01  0.57338169170E+02  0.47000000000E+01 0.  1.
         13    1    6    6    0    0  0.12926583627E+02 -0.50149201137E+01  0.11301278717E+03  0.11386016007E+03  0.00000000000E+00 0. -1.
        -14    1    6    6    0    0  0.21791214748E+02 -0.48363113969E+02  0.27859917233E+02  0.59916799157E+02  0.00000000000E+00 0.  1.
</event>
<event>
12    1  0.1040325E-001  0.2140259E+03  0.7818608E-02  0.1138827E+00
         21   -1    0    0  501  502  0.00000000000E+00  0.00000000000E+00  0.60281213929E+03  0.60281213929E+03  0.00000000000E+00 0.  1.
         21   -1    0    0  502  503 -0.00000000000E+00 -0.00000000000E+00 -0.79773860311E+02  0.79773860311E+02  0.00000000000E+00 0.  1.
         -6    2    1    2    0  503 -0.17959301656E+01 -0.12304315129E+03  0.18139345084E+03  0.28055424454E+03  0.17511212887E+03 0.  0.
        -24    2    3    3    0    0 -0.40833857201E+02 -0.74940224350E+02  0.38609957550E+02  0.12483954618E+03  0.82527221873E+02 0.  0.
          6    2    1    2  501    0  0.17959301656E+01  0.12304315129E+03  0.34164482814E+03  0.40203175507E+03  0.17252681252E+03 0.  0.
         24    2    5    5    0    0 -0.13832824201E+02  0.95762258006E+02  0.10647943838E+03  0.16472740272E+03  0.80221501632E+02 0.  0.
          5    1    5    5  501    0  0.15628754366E+02  0.27280893288E+02  0.23516538976E+03  0.23730435235E+03  0.47000000000E+01 0. -1.
        -11    1    6    6    0    0  0.14419040345E+02  0.23915772378E+02  0.77309610385E+02  0.82198836676E+02  0.00000000000E+00 0.  1.
         12    1    6    6    0    0 -0.28251864546E+02  0.71846485628E+02  0.29169827994E+02  0.82528566039E+02  0.00000000000E+00 0. -1.
         -5    1    3    3    0  503  0.39037927035E+02 -0.48102926944E+02  0.14278349329E+03  0.15571469835E+03  0.47000000000E+01 0.  1.
         13    1    4    4    0    0 -0.91850927723E+01  0.12037339254E+02 -0.12026936161E+02  0.19336769610E+02  0.00000000000E+00 0. -1.
        -14    1    4    4    0    0 -0.31648764428E+02 -0.86977563604E+02  0.50636893711E+02  0.10550277657E+03  0.00000000000E+00 0.  1.
</event>
<event>
12    1  0.1040325E-001  0.1732014E+03  0.7818608E-02  0.1174797E+00
         21   -1    0    0  501  502  0.00000000000E+00  0.00000000000E+00  0.36418901882E+03  0.36418901882E+03  0.00000000000E+00 0.  1.
         21   -1    0    0  502  503 -0.00000000000E+00 -0.00000000000E+00 -0.94449140908E+02  0.94449140908E+02  0.00000000000E+00 0.  1.
         -6    2    1    2    0  503  0.13524963028E+02 -0.18753471221E+01  0.50988995956E+02  0.17962084261E+03  0.17168962648E+03 0.  0.
        -24    2    3    3    0    0  0.64422638009E+02 -0.26515218380E+01  0.70153347655E+02  0.12502653758E+03  0.80949589600E+02 0.  0.
          6    2    1    2  501    0 -0.13524963028E+02  0.18753471221E+01  0.21875088196E+03  0.27901731712E+03  0.17266231014E+03 0.  0.
         24    2    5    5    0    0 -0.72975019781E+02 -0.21636782166E+02  0.12981321633E+03  0.16938553414E+03  0.77759142151E+02 0.  0.
          5    1    5    5  501    0  0.59450056752E+02  0.23512129288E+02  0.88937665623E+02  0.10963178297E+03  0.47000000000E+01 0. -1.
        -13    1    6    6    0    0 -0.37082391271E+02 -0.50492962986E+02  0.78571691591E+02  0.10048957047E+03  0.00000000000E+00 0.  1.
         14    1    6    6    0    0 -0.35892628510E+02  0.28856180820E+02  0.51241524741E+02  0.68895963675E+02  0.00000000000E+00 0. -1.
         -5    1    3    3    0  503 -0.50897674980E+02  0.77617471588E+00 -0.19164351699E+02  0.54594305029E+02  0.47000000000E+01 0.  1.
         13    1    4    4    0    0  0.44732020579E+01  0.30165857233E+02  0.40069384554E+02  0.50354186100E+02  0.00000000000E+00 0. -1.
        -14    1    4    4    0    0  0.59949435951E+02 -0.32817379071E+02  0.30083963101E+02  0.74672351481E+02  0.00000000000E+00 0.  1.
</event>
<event>
12    1  0.1040325E-001  0.2416715E+03  0.7818608E-02  0.1118865E+00
         21   -1    0    0  503  502  0.00000000000E+00  0.00000000000E+00  0.18993011123E+03  0.18993011123E+03  0.00000000000E+00 0.  1.
         21   -1    0    0  501  503 -0.00000000000E+00 -0.00000000000E+00 -0.11995089145E+04  0.11995089145E+04  0.00000000000E+00 0. -1.
          6    2    1    2  501    0  0.16245080330E+03  0.41460789550E+02 -0.11040509857E+04  0.11299585338E+04  0.17253535445E+03 0.  0.
         24    2    3    3    0    0  0.96618187774E+02  0.29935354187E+01 -0.34466593911E+03  0.36674073927E+03  0.79750390583E+02 0.  0.
         -6    2    1    2    0  502 -0.16245080330E+03 -0.41460789550E+02  0.94472182430E+02  0.25948049192E+03  0.17405709371E+03 0.  0.
        -24    2    5    5    0    0 -0.50787107150E+01 -0.12966847286E+02  0.17045141605E+02  0.81730901425E+02  0.78711314081E+02 0.  0.
          5    1    3    3  501    0  0.65832615527E+02  0.38467254131E+02 -0.75938504658E+03  0.76321779452E+03  0.47000000000E+01 0. -1.
        -13    1    4    4    0    0  0.30232867887E+02  0.39338125387E+02 -0.13332946002E+03  0.14226123618E+03  0.00000000000E+00 0.  1.
         14    1    4    4    0    0  0.66385319888E+02 -0.36344589968E+02 -0.21133647908E+03  0.22447950309E+03  0.00000000000E+00 0. -1.
         -5    1    5    5    0  502 -0.15737209259E+03 -0.28493942264E+02  0.77427040824E+02  0.17774959050E+03  0.47000000000E+01 0.  1.
         13    1    6    6    0    0 -0.22684326952E+02 -0.11085697926E+02 -0.25355255920E+02  0.35782123897E+02  0.00000000000E+00 0. -1.
        -14    1    6    6    0    0  0.17605616237E+02 -0.18811493603E+01  0.42400397526E+02  0.45948777528E+02  0.00000000000E+00 0.  1.
</event>
<event>
12    1  0.1040325E-001  0.1938164E+03  0.7818608E-02  0.1156759E+00
         21   -1    0    0  501  502  0.00000000000E+00  0.00000000000E+00  0.64547289978E+03  0.64547289978E+03  0.00000000000E+00 0. -1.
         21   -1    0    0  502  503 -0.00000000000E+00 -0.00000000000E+00 -0.91007489547E+02  0.91007489547E+02  0.00000000000E+00 0.  1.
         -6    2    1    2    0  503  0.28263108381E+02  0.84696991040E+02  0.45328253790E+02  0.19170019488E+03  0.16346843897E+03 0.  0.
        -24    2    3    3    0    0  0.71721078310E+02  0.24081357207E+02  0.39575255930E+02  0.11674662793E+03  0.79622543362E+02 0.  0.
          6    2    1    2  501    0 -0.28263108381E+02 -0.84696991040E+02  0.50913715645E+03  0.54478019445E+03  0.17202451162E+03 0.  0.
         24    2    5    5    0    0  0.41298242586E+02 -0.82028162834E+02  0.34092647502E+03  0.36267355662E+03  0.82867864501E+02 0.  0.
          5    1    5    5  501    0 -0.69561350967E+02 -0.26688282064E+01  0.16821068143E+03  0.18210663782E+03  0.47000000000E+01 0. -1.
        -13    1    6    6    0    0  0.13100625772E+01 -0.57113230482E+02  0.84789660735E+02  0.10223954190E+03  0.00000000000E+00 0.  1.
         14    1    6    6    0    0  0.39988180009E+02 -0.24914932351E+02  0.25613681428E+03  0.26043401473E+03  0.00000000000E+00 0. -1.
         -5    1    3    3    0  503 -0.43457969929E+02  0.60615633833E+02  0.57529978603E+01  0.74953566958E+02  0.47000000000E+01 0.  1.
         13    1    4    4    0    0  0.20163992957E+02  0.13858584522E+01  0.54788073267E+02  0.58397261819E+02  0.00000000000E+00 0. -1.
        -14    1    4    4    0    0  0.51557085353E+02  0.22695498754E+02 -0.15212817337E+02  0.58349366107E+02  0.00000000000E+00 0.  1.
</event>
<event>
12    1  0.1040325E-001  0.2623956E+03  0.7818608E-02  0.1105895E+00
         21   -1    0    0  503  502  0.00000000000E+00  0.00000000000E+00  0.18322173415E+03  0.18322173415E+03  0.00000000000E+00 0.  1.
         21   -1    0    0  501  503 -0.00000000000E+00 -0.00000000000E+00 -0.38085660571E+03  0.38085660571E+03  0.00000000000E+00 0.  1.
          6    2    1    2  501    0  0.87274443274E+02  0.17744017626E+03 -0.60817441510E+02  0.26815530761E+03  0.17060675018E+03 0.  0.
         24    2    3    3    0    0 -0.25982848434E+01  0.97896384837E+02 -0.75554359623E+02  0.14714461069E+03  0.79703337122E+02 0.  0.
         -6    2    1    2    0  502 -0.87274443274E+02 -0.17744017626E+03 -0.13681743005E+03  0.29592303225E+03  0.17248068660E+03 0.  0.
        -24    2    5    5    0    0 -0.55630744888E+02 -0.88436306502E+02 -0.18738976097E+01  0.13113571651E+03  0.79229442565E+02 0.  0.
          5    1    3    3  501    0  0.89872728118E+02  0.79543791425E+02  0.14736918113E+02  0.12101069692E+03  0.47000000000E+01 0. -1.
        -13    1    4    4    0    0  0.11153934069E+02  0.53726082568E+02  0.41065348271E+01  0.55025138088E+02  0.00000000000E+00 0.  1.
         14    1    4    4    0    0 -0.13752218913E+02  0.44170302268E+02 -0.79660894450E+02  0.92119472600E+02  0.00000000000E+00 0. -1.
         -5    1    5    5    0  502 -0.31643698386E+02 -0.89003869760E+02 -0.13494353244E+03  0.16478731573E+03  0.47000000000E+01 0.  1.
         11    1    6    6    0    0 -0.65216541769E+02 -0.30656084337E+02  0.45997196580E+01  0.72209073170E+02  0.00000000000E+00 0. -1.
        -12    1    6    6    0    0  0.95857968814E+01 -0.57780222165E+02 -0.64736172677E+01  0.58926643344E+02  0.00000000000E+00 0.  1.
</event>
<event>
12    1  0.1040325E-001  0.1827969E+03  0.7818608E-02  0.1165149E+00
         21   -1    0    0  503  502  0.00000000000E+00  0.00000000000E+00  0.13225147112E+04  0.13225147112E+04  0.00000000000E+00 0.  1.
         21   -1    0    0  501  503 -0.00000000000E+00 -0.00000000000E+00 -0.37703958204E+02  0.37703958204E+02  0.00000000000E+00 0.  1.
          6    2    1    2  501    0 -0.50487240085E+02 -0.34169307352E+02  0.25167417809E+03  0.31105398590E+03  0.17233161999E+03 0.  0.
         24    2    3    3    0    0 -0.12290812166E+02 -0.47907340794E+02  0.53082636246E+02  0.10830194235E+03  0.80407506373E+02 0.  0.
         -6    2    1    2    0  502  0.50487240085E+02  0.34169307352E+02  0.10331365749E+04  0.10491646835E+04  0.17221744318E+03 0.  0.
        -24    2    5    5    0    0  0.19779493638E+02  0.83225427608E+02  0.51501877159E+03  0.52780337238E+03  0.77552334837E+02 0.  0.
          5    1    3    3  501    0 -0.38196427919E+02  0.13738033443E+02  0.19859154184E+03  0.20275204354E+03  0.47000000000E+01 0. -1.
        -11    1    4    4    0    0  0.10667997289E+02 -0.42134318905E+02 -0.67234874475E+01  0.43980817173E+02  0.00000000000E+00 0.  1.
         12    1    4    4    0    0 -0.22958809455E+02 -0.57730218898E+01  0.59806123693E+02  0.64321125181E+02  0.00000000000E+00 0. -1.
         -5    1    5    5    0  502  0.30707746447E+02 -0.49056120257E+02  0.51811780331E+03  0.52136131112E+03  0.47000000000E+01 0.  1.
         11    1    6    6    0    0 -0.13485303875E+02  0.64859753374E+01  0.23710285314E+03  0.23757458674E+03  0.00000000000E+00 0. -1.
        -12    1    6    6    0    0  0.33264797513E+02  0.76739452271E+02  0.27791591845E+03  0.29022878564E+03  0.00000000000E+00 0.  1.
</event>
<event>
12    1  0.1040325E-001  0.1951051E+03  0.7818608E-02  0.1154218E+00
         21   -1    0    0  501  502  0.00000000000E+00  0.00000000000E+00  0.31854045262E+03  0.31854045262E+03  0.00000000000E+00 0. -1.
         21   -1    0    0  502  503 -0.00000000000E+00 -0.00000000000E+00 -0.11871382488E+03  0.11871382488E+03  0.00000000000E+00 0. -1.
         -6    2    1    2    0  503  0.75468407129E+02  0.54443723994E+02  0.10119717665E+03  0.21978819399E+03  0.17148289156E+03 0.  0.
        -24    2    3    3    0    0  0.86887335156E+02  0.24411055615E+02  0.12867455049E+03  0.17725057346E+03  0.81947039006E+02 0.  0.
          6    2    1    2  501    0 -0.75468407129E+02 -0.54443723994E+02  0.98629451081E+02  0.21746608350E+03  0.17001214456E+03 0.  0.
         24    2    5    5    0    0  0.65521998025E+01  0.11873728212E+02  0.69802467223E+02  0.10801988929E+03  0.81314176553E+02 0.  0.
          5    1    5    5  501    0 -0.82020606932E+02 -0.66317452206E+02  0.28826983857E+02  0.10944619421E+03  0.47000000000E+01 0. -1.
        -13    1    6    6    0    0  0.34903656269E+02 -0.13466628572E+02  0.12883502569E+02  0.39567662864E+02  0.00000000000E+00 0.  1.
         14    1    6    6    0    0 -0.28351456467E+02  0.25340356784E+02  0.56918964655E+02  0.68452226429E+02  0.00000000000E+00 0. -1.
         -5    1    3    3    0  503 -0.11418928027E+02  0.30032668379E+02 -0.27477373840E+02  0.42537620530E+02  0.47000000000E+01 0.  1.
         11    1    4    4    0    0  0.74321824873E+02  0.49350878152E+02  0.74213662217E+02  0.11604701843E+03  0.00000000000E+00 0. -1.
        -12    1    4    4    0    0  0.12565510283E+02 -0.24939822537E+02  0.54460888278E+02  0.61203555034E+02  0.00000000000E+00 0.  1.
</event>
<event>
12    1  0.1040325E-001  0.3877545E+03  0.7818608E-02  0.1048287E+00
         21   -1    0    0  503  502  0.00000000000E+00  0.00000000000E+00  0.16353798754E+04  0.16353798754E+04  0.00000000000E+00 0. -1.
         21   -1    0    0  501  503 -0.00000000000E+00 -0.00000000000E+00 -0.31030058884E+03  0.31030058884E+03  0.00000000000E+00 0.  1.
          6    2    1    2  501    0  0.33725978489E+03  0.76504375604E+02 -0.15495974057E+03  0.41569058263E+03  0.17084805325E+03 0.  0.
         24    2    3    3    0    0  0.16658961070E+03  0.35503283771E+02 -0.83848370303E+01  0.18696434837E+03  0.76634068916E+02 0.  0.
         -6    2    1    2    0  502 -0.33725978489E+03 -0.76504375604E+02  0.14800390271E+04  0.15299898816E+04  0.17537512362E+03 0.  0.
        -24    2    5    5    0    0 -0.29216525713E+03 -0.78040609671E+02  0.10027449211E+04  0.10505447543E+04  0.81829271949E+02 0.  0.
          5    1    3    3  501    0  0.17067017419E+03  0.41001091833E+02 -0.14657490354E+03  0.22872623426E+03  0.47000000000E+01 0. -1.
        -13    1    4    4    0    0  0.11988360309E+03 -0.10288366312E+00 -0.31331741737E+02  0.12391031804E+03  0.00000000000E+00 0.  1.
         14    1    4    4    0    0  0.46706007605E+02  0.35606167434E+02  0.22946904707E+02  0.63054030334E+02  0.00000000000E+00 0. -1.
         -5    1    5    5    0  502 -0.45094527754E+02  0.15362340671E+01  0.47729410602E+03  0.47944512730E+03  0.47000000000E+01 0.  1.
         11    1    6    6    0    0 -0.15275191596E+03 -0.12137672961E+02  0.60084082962E+03  0.62007271628E+03  0.00000000000E+00 0. -1.
        -12    1    6    6    0    0 -0.13941334117E+03 -0.65902936710E+02  0.40190409146E+03  0.43047203799E+03  0.00000000000E+00 0.  1.
</event>
<event>
12    1  0.1040325E-001  0.1841616E+03  0.7818608E-02  0.1166549E+00
         21   -1    0    0  503  502  0.00000000000E+00  0.00000000000E+00  0.10414107234E+03  0.10414107234E+03  0.00000000000E+00 0.  1.
         21   -1    0    0  501  503 -0.00000000000E+00 -0.00000000000E+00 -0.31003528203E+03  0.31003528203E+03  0.00000000000E+00 0.  1.
          6    2    1    2  501    0  0.27204411939E+02 -0.20498579004E+01 -0.12277056421E+03  0.21212430560E+03  0.17082103981E+03 0.  0.
         24    2    3    3    0    0 -0.30425629934E+02 -0.11987746213E+02 -0.12761322286E+03  0.15325559835E+03  0.78311677036E+02 0.  0.
         -6    2    1    2    0  502 -0.27204411939E+02  0.20498579004E+01 -0.83123645479E+02  0.20205204878E+03  0.18212964622E+03 0.  0.
        -24    2    5    5    0    0  0.41075848466E+02 -0.38732823062E+02 -0.16080023362E+02  0.97925403321E+02  0.78379592719E+02 0.  0.
          5    1    3    3  501    0  0.57630041873E+02  0.99378883124E+01  0.48426586511E+01  0.58868707249E+02  0.47000000000E+01 0. -1.
        -13    1    4    4    0    0 -0.32159370277E+02 -0.30533305543E+02 -0.29201043416E+02  0.53096221905E+02  0.00000000000E+00 0.  1.
         14    1    4    4    0    0  0.17337403437E+01  0.18545559330E+02 -0.98412179446E+02  0.10015937644E+03  0.00000000000E+00 0. -1.
         -5    1    5    5    0  502 -0.68280260405E+02  0.40782680962E+02 -0.67043622117E+02  0.10412664546E+03  0.47000000000E+01 0.  1.
         11    1    6    6    0    0  0.50318869968E+02 -0.54746956485E+02 -0.23527032524E+02  0.77991917393E+02  0.00000000000E+00 0. -1.
        -12    1    6    6    0    0 -0.92430215025E+01  0.16014133423E+02  0.74470091619E+01  0.19933485928E+02  0.00000000000E+00 0.  1.
</event>
<event>
12    1  0.1040325E-001  0.3397699E+03  0.7818608E-02  0.1067203E+00
         21   -1    0    0  503  502  0.00000000000E+00  0.00000000000E+00  0.90129474698E+03  0.90129474698E+03  0.00000000000E+00 0. -1.
         21   -1    0    0  501  503 -0.00000000000E+00 -0.00000000000E+00 -0.15921427793E+03  0.15921427793E+03  0.00000000000E+00 0. -1.
          6    2    1    2  501    0 -0.22697930870E+03  0.18570440924E+03  0.13378891262E+03  0.36516167038E+03  0.17157458490E+03 0.  0.
         24    2    3    3    0    0 -0.19994860691E+03  0.12706477811E+03  0.15790457913E+03  0.29607534358E+03  0.81251767546E+02 0.  0.
         -6    2    1    2    0  502  0.22697930870E+03 -0.18570440924E+03  0.60829155643E+03  0.69534735453E+03  0.16578175907E+03 0.  0.
        -24    2    5    5    0    0  0.11707777178E+03 -0.50974727171E+02  0.37686267821E+03  0.40584458991E+03  0.79866923556E+02 0.  0.
          5    1    3    3  501    0 -0.27030701795E+02  0.58639631136E+02 -0.24115666503E+02  0.69086326796E+02  0.47000000000E+01 0. -1.
        -11    1    4    4    0    0 -0.21974387940E+01  0.29288507126E+02  0.24694596197E+02  0.38372756849E+02  0.00000000000E+00 0.  1.
         12    1    4    4    0    0 -0.19775116811E+03  0.97776270983E+02  0.13320998293E+03  0.25770258673E+03  0.00000000000E+00 0. -1.
         -5    1    5    5    0  502  0.10990153692E+03 -0.13472968207E+03  0.23142887822E+03  0.28950276462E+03  0.47000000000E+01 0.  1.
         11    1    6    6    0    0  0.70358069090E+02 -0.69382910929E+02  0.27637267608E+03  0.29350656261E+03  0.00000000000E+00 0. -1.
        -12    1    6    6    0    0  0.46719702691E+02  0.18408183758E+02  0.10049000213E+03  0.11233802730E+03  0.00000000000E+00 0.  1.
</event>
<event>
12    1  0.1040325E-001  0.2398593E+03  0.7818608E-02  0.1119957E+00
         21   -1    0    0  501  502  0.00000000000E+00  0.00000000000E+00  0.46689617005E+03  0.46689617005E+03  0.00000000000E+00 0.  1.
         21   -1    0    0  502  503 -0.00000000000E+00 -0.00000000000E+00 -0.13976810386E+03  0.13976810386E+03  0.00000000000E+00 0. -1.
         -6    2    1    2    0  503  0.14578697115E+03  0.80067655274E+02  0.26847793189E+03  0.35973856670E+03  0.17224043103E+03 0.  0.
        -24    2    3    3    0    0  0.14098505561E+03  0.10791198150E+03  0.17370015346E+03  0.26072704121E+03  0.79278402157E+02 0.  0.
          6    2    1    2  501    0 -0.14578697115E+03 -0.80067655274E+02  0.58650134299E+02  0.24692570720E+03  0.17282302002E+03 0.  0.
         24    2    5    5    0    0 -0.14976356032E+03 -0.13185712290E+02  0.57642234986E+02  0.17975344046E+03  0.79910481748E+02 0.  0.
          5    1    5    5  501    0  0.39765891774E+01 -0.66881942983E+02  0.10078993131E+01  0.67172266745E+02  0.47000000000E+01 0. -1.
        -13    1    6    6    0    0 -0.24859163503E+02 -0.24417453521E+02  0.40099537951E+02  0.53124034018E+02  0.00000000000E+00 0.  1.
         14    1    6    6    0    0 -0.12490439682E+03  0.11231741231E+02  0.17542697035E+02  0.12662940644E+03  0.00000000000E+00 0. -1.
         -5    1    3    3    0  503  0.48019155394E+01 -0.27844326227E+02  0.94777778430E+02  0.99011525491E+02  0.47000000000E+01 0.  1.
         11    1    4    4    0    0  0.37696029458E+02  0.73009306442E+02  0.98548340271E+02  0.12830870911E+03  0.00000000000E+00 0. -1.
        -12    1    4    4    0    0  0.10328902615E+03  0.34902675058E+02  0.75151813192E+02  0.13241833210E+03  0.00000000000E+00 0.  1.
</event>
<event>
12    1  0.1040325E-001  0.1767491E+03  0.7818608E-02  0.1171366E+00
         21   -1    0    0  501  502  0.00000000000E+00  0.00000000000E+00  0.47214577465E+03  0.47214577465E+03  0.00000000000E+00 0.  1.
         21   -1    0    0  502  503 -0.00000000000E+00 -0.00000000000E+00 -0.93679597100E+02  0.93679597100E+02  0.00000000000E+00 0.  1.
         -6    2    1    2    0  503  0.30615082862E+02 -0.90477299552E+01  0.33765289080E+02  0.17845095386E+03  0.17229481556E+03 0.  0.
        -24    2    3    3    0    0  0.79843883638E+02  0.23520953153E+02  0.28437719699E+02  0.11899788883E+03  0.80146819359E+02 0.  0.
          6    2    1    2  501    0 -0.30615082862E+02  0.90477299552E+01  0.34470088847E+03  0.38737441789E+03  0.17384214797E+03 0.  0.
         24    2    5    5    0    0 -0.13379710721E+02  0.73225375502E+02  0.23283207191E+03  0.25717245800E+03  0.79911996399E+02 0.  0.
          5    1    5    5  501    0 -0.17235372141E+02 -0.64177645547E+02  0.11186881656E+03  0.13020195989E+03  0.47000000000E+01 0. -1.
        -13    1    6    6    0    0 -0.37091198310E+02  0.47888886167E+02  0.79411219039E+02  0.99876143897E+02  0.00000000000E+00 0.  1.
         14    1    6    6    0    0  0.23711487589E+02  0.25336489335E+02  0.15342085287E+03  0.15729631411E+03  0.00000000000E+00 0. -1.
         -5    1    3    3    0  503 -0.49228800776E+02 -0.32568683108E+02  0.53275693811E+01  0.59453065024E+02  0.47000000000E+01 0.  1.
         13    1    4    4    0    0  0.26200887668E+02  0.40587850725E+02 -0.11888759246E+02  0.49751409402E+02  0.00000000000E+00 0. -1.
        -14    1    4    4    0    0  0.53642995970E+02 -0.17066897572E+02  0.40326478945E+02  0.69246479430E+02  0.00000000000E+00 0.  1.
</event>
<event>
12    1  0.1040325E-001  0.1737810E+03  0.7818608E-02  0.1174189E+00
         21   -1    0    0  503  502  0.00000000000E+00  0.00000000000E+00  0.33215158834E+03  0.33215158834E+03  0.00000000000E+00 0. -1.
         21   -1    0    0  501  503 -0.00000000000E+00 -0.00000000000E+00 -0.20191961508E+03  0.20191961508E+03  0.00000000000E+00 0. -1.
          6    2    1    2  501    0  0.13120628175E+02  0.18464030102E+01 -0.13336309228E+03  0.21834632399E+03  0.17237703654E+03 0.  0.
         24    2    3    3    0    0  0.26761915873E+01  0.68350542819E+02 -0.77050104898E+02  0.13045360861E+03  0.80015414956E+02 0.  0.
         -6    2    1    2    0  502 -0.13120628175E+02 -0.18464030102E+01  0.26359506555E+03  0.31572487943E+03  0.17327515928E+03 0.  0.
        -24    2    5    5    0    0  0.12802685791E+02  0.60725066845E+02  0.12204162719E+03  0.15873229057E+03  0.80314001245E+02 0.  0.
          5    1    3    3  501    0  0.10444436588E+02 -0.66504139809E+02 -0.56312987384E+02  0.87892715372E+02  0.47000000000E+01 0. -1.
        -11    1    4    4    0    0  0.49850064750E+01  0.20768813454E+02  0.15481497688E+02  0.26379360730E+02  0.00000000000E+00 0.  1.
         12    1    4    4    0    0 -0.23088148877E+01  0.47581729366E+02 -0.92531602587E+02  0.10407424789E+03  0.00000000000E+00 0. -1.
         -5    1    5    5    0  502 -0.25923313966E+02 -0.62571469855E+02  0.14155343835E+03  0.15699258886E+03  0.47000000000E+01 0.  1.
         11    1    6    6    0    0  0.44545925949E+02  0.51089361984E+02  0.74018451828E+02  0.10036530096E+03  0.00000000000E+00 0. -1.
        -12    1    6    6    0    0 -0.31743240158E+02  0.96357048612E+01  0.48023175364E+02  0.58366989608E+02  0.00000000000E+00 0.  1.
</event>
<event>
12    1  0.1040325E-001  0.1998550E+03  0.7818608E-02  0.1150130E+00
         21   -1    0    0  503  502  0.00000000000E+00  0.00000000000E+00  0.71375651427E+02  0.71375651427E+02  0.00000000000E+00 0. -1.
         21   -1    0    0  501  503 -0.00000000000E+00 -0.00000000000E+00 -0.10807073091E+04  0.10807073091E+04  0.00000000000E+00 0.  1.
          6    2    1    2  501    0 -0.79996926125E+02 -0.61572199143E+02 -0.90685337443E+03  0.92861460098E+03  0.17248591406E+03 0.  0.
         24    2    3    3    0    0 -0.52663305344E+02  0.24491162433E+02 -0.33132150130E+03  0.34602292922E+03  0.81146100025E+02 0.  0.
         -6    2    1    2    0  502  0.79996926125E+02  0.61572199143E+02 -0.10247828325E+03  0.22346835955E+03  0.17101364064E+03 0.  0.
        -24    2    5    5    0    0 -0.25235021298E+02  0.33395073717E+02 -0.28597148377E+02  0.91755697872E+02  0.76480546208E+02 0.  0.
          5    1    3    3  501    0 -0.27333620781E+02 -0.86063361576E+02 -0.57553187312E+03  0.58259167177E+03  0.47000000000E+01 0. -1.
        -13    1    4    4    0    0 -0.52108770185E+02 -0.19615597672E+02 -0.18550035588E+03  0.19367621856E+03  0.00000000000E+00 0.  1.
         14    1    4    4    0    0 -0.55453515896E+00  0.44106760105E+02 -0.14582114542E+03  0.15234671066E+03  0.00000000000E+00 0. -1.
         -5    1    5    5    0  502  0.10523194742E+03  0.28177125425E+02 -0.73881134870E+02  0.13171266167E+03  0.47000000000E+01 0.  1.
         13    1    6    6    0    0 -0.14033050468E+02 -0.17496413063E+02  0.12239469032E+02  0.25551038681E+02  0.00000000000E+00 0. -1.
        -14    1    6    6    0    0 -0.11201970830E+02  0.50891486781E+02 -0.40836617409E+02  0.66204659191E+02  0.00000000000E+00 0.  1.
</event>
<event>
12    1  0.1040325E-001  0.2124570E+03  0.7818608E-02  0.1140165E+00
         21   -1    0    0  501  502  0.00000000000E+00  0.00000000000E+00  0.22510662793E+03  0.22510662793E+03  0.00000000000E+00 0.  1.
         21   -1    0    0  502  503 -0.00000000000E+00 -0.00000000000E+00 -0.33048681506E+03  0.33048681506E+03  0.00000000000E+00 0.  1.
         -6    2    1    2    0  503 -0.11665667356E+03 -0.33298045016E+02 -0.22879130527E+03  0.31222335178E+03  0.17441450841E+03 0.  0.
        -24    2    3    3    0    0 -0.48083831551E+02 -0.47137745441E+01 -0.21806276373E+03  0.23701373283E+03  0.79308676070E+02 0.  0.
          6    2    1    2  501    0  0.11665667356E+03  0.33298045016E+02  0.12341111814E+03  0.24337009121E+03  0.17111738056E+03 0.  0.
         24    2    5    5    0    0  0.35267635520E+02  0.65707533146E+02  0.28242729069E+02  0.11393415064E+03  0.81375997133E+02 0.  0.
          5    1    5    5  501    0  0.81389038038E+02 -0.32409488130E+02  0.95168389070E+02  0.12943594057E+03  0.47000000000E+01 0. -1.
        -11    1    6    6    0    0  0.62984860077E+01  0.90775270383E+01  0.46469401333E+02  0.47764816375E+02  0.00000000000E+00 0.  1.
         12    1    6    6    0    0  0.28969149512E+02  0.56630006108E+02 -0.18226672264E+02  0.66169334265E+02  0.00000000000E+00 0. -1.
         -5    1    3    3    0  503 -0.68572842006E+02 -0.28584270472E+02 -0.10728541549E+02  0.75209618953E+02  0.47000000000E+01 0.  1.
         13    1    4    4    0    0 -0.21830030366E+02  0.19318132072E+02 -0.19003633200E+02  0.34797679914E+02  0.00000000000E+00 0. -1.
        -14    1    4    4    0    0 -0.26253801185E+02 -0.24031906616E+02 -0.19905913052E+03  0.20221605292E+03  0.00000000000E+00 0.  1.
</event>
<event>
12    1  0.1040325E-001  0.2117477E+03  0.7818608E-02  0.1141317E+00
         21   -1    0    0  503  502  0.00000000000E+00  0.00000000000E+00  0.11010748995E+03  0.11010748995E+03  0.00000000000E+00 0.  1.
         21   -1    0    0  501  503 -0.00000000000E+00 -0.00000000000E+00 -0.42023366204E+03  0.42023366204E+03  0.00000000000E+00 0. -1.
          6    2    1    2  501    0  0.11235938239E+03  0.53003390221E+02 -0.21625336360E+03  0.29871819946E+03  0.16441732035E+03 0.  0.
         24    2    3    3    0    0  0.11830980580E+03  0.34334849862E+01 -0.10349329391E+03  0.17531031332E+03  0.77548985188E+02 0.  0.
         -6    2    1    2    0  502 -0.11235938239E+03 -0.53003390221E+02 -0.93872808494E+02  0.23162295253E+03  0.17147331507E+03 0.  0.
        -24    2    5    5    0    0 -0.13932639114E+03 -0.11484840425E+02 -0.83902627047E+02  0.18090309394E+03  0.78374318140E+02 0.  0.
          5    1    3    3  501    0 -0.59504234138E+01  0.49569905235E+02 -0.11276006969E+03  0.12340788614E+03  0.47000000000E+01 0. -1.
        -13    1    4    4    0    0 -0.78658297330E+01  0.69489070265E+01  0.21461246938E+01  0.10712816504E+02  0.00000000000E+00 0.  1.
         14    1    4    4    0    0  0.12617563554E+03 -0.35154220403E+01 -0.10563941860E+03  0.16459749682E+03  0.00000000000E+00 0. -1.
         -5    1    5    5    0  502  0.26967008749E+02 -0.41518549796E+02 -0.99701814470E+01  0.50719858597E+02  0.47000000000E+01 0.  1.
         13    1    6    6    0    0 -0.36571073231E+01  0.46843287478E+01  0.12396323315E+02  0.13747225230E+02  0.00000000000E+00 0. -1.
        -14    1    6    6    0    0 -0.13566928381E+03 -0.16169169173E+02 -0.96298950362E+02  0.16715586871E+03  0.00000000000E+00 0.  1.
</event>
<event>
12    1  0.1040325E-001  0.1875192E+03  0.7818608E-02  0.1160963E+00
         21   -1    0    0  501  502  0.00000000000E+00  0.00000000000E+00  0.93702377682E+03  0.93702377682E+03  0.00000000000E+00 0. -1.
         21   -1    0    0  502  503 -0.00000000000E+00 -0.00000000000E+00 -0.10679041429E+03  0.10679041429E+03  0.00000000000E+00 0. -1.
         -6    2    1    2    0  503 -0.55899787955E+02  0.43998310225E+02 -0.54346372668E+01  0.18759790213E+03  0.17350158502E+03 0.  0.
        -24    2    3    3    0    0 -0.65537513595E+02  0.10808346070E+02 -0.61303486389E+02  0.12173533477E+03  0.81543781223E+02 0.  0.
          6    2    1    2  501    0  0.55899787955E+02 -0.43998310225E+02  0.83566799980E+03  0.85621628899E+03  0.17235048605E+03 0.  0.
         24    2    5    5    0    0  0.66884142002E+02  0.31233944484E+02  0.54064398584E+03  0.55151675338E+03  0.80160851427E+02 0.  0.
          5    1    5    5  501    0 -0.10984354048E+02 -0.75232254708E+02  0.29502401396E+03  0.30469953560E+03  0.47000000000E+01 0. -1.
        -11    1    6    6    0    0  0.75932211185E+02  0.45570717652E+02  0.49427970128E+03  0.50215019078E+03  0.00000000000E+00 0.  1.
         12    1    6    6    0    0 -0.90480691826E+01 -0.14336773169E+02  0.46364284559E+02  0.49366562606E+02  0.00000000000E+00 0. -1.
         -5    1    3    3    0  503  0.96377256403E+01  0.33189964155E+02  0.55868849122E+02  0.65862567353E+02  0.47000000000E+01 0.  1.
         11    1    4    4    0    0  0.48461215616E+00  0.94626988426E+01 -0.54536731602E+02  0.55353704593E+02  0.00000000000E+00 0. -1.
        -12    1    4    4    0    0 -0.66022125751E+02  0.13456472272E+01 -0.67667547866E+01  0.66381630181E+02  0.00000000000E+00 0.  1.
</event>
<event>
12    1  0.1040325E-001  0.2591389E+03  0.7818608E-02  0.1108129E+00
         21   -1    0    0  501  502  0.00000000000E+00  0.00000000000E+00  0.62163237975E+03  0.62163237975E+03  0.00000000000E+00 0.  1.
         21   -1    0    0  502  503 -0.00000000000E+00 -0.00000000000E+00 -0.39536610242E+03  0.39536610242E+03  0.00000000000E+00 0.  1.
         -6    2    1    2    0  503  0.14052448968E+03  0.12816816994E+03 -0.32114588582E+03  0.41265926065E+03  0.17600787891E+03 0.  0.
        -24    2    3    3    0    0  0.34961809972E+02  0.88939520882E+01 -0.17426090801E+03  0.19594030648E+03  0.82001884752E+02 0.  0.
          6    2    1    2  501    0 -0.14052448968E+03 -0.12816816994E+03  0.54741216315E+03  0.60433922152E+03  0.17143980379E+03 0.  0.
         24    2    5    5    0    0 -0.15676082081E+03 -0.14811061567E+03  0.48806049354E+03  0.53948530664E+03  0.79565327282E+02 0.  0.
          5    1    5    5  501    0  0.16236331135E+02  0.19942445739E+02  0.59351669605E+02  0.64853914883E+02  0.47000000000E+01 0. -1.
        -13    1    6    6    0    0 -0.54968000097E+02 -0.52961845453E+02  0.27104825866E+03  0.28159118706E+03  0.00000000000E+00 0.  1.
         14    1    6    6    0    0 -0.10179282071E+03 -0.95148770221E+02  0.21701223488E+03  0.25789411958E+03  0.00000000000E+00 0. -1.
         -5    1    3    3    0  503  0.10556267970E+03  0.11927421785E+03 -0.14688497781E+03  0.21671895417E+03  0.47000000000E+01 0.  1.
         13    1    4    4    0    0  0.25723849107E+00  0.22777752515E+02 -0.14922085412E+03  0.15094951304E+03  0.00000000000E+00 0. -1.
        -14    1    4    4    0    0  0.34704571481E+02 -0.13883800427E+02 -0.25040053891E+02  0.44990793445E+02  0.00000000000E+00 0.  1.
</event>
<event>
12    1  0.1040325E-001  0.1894556E+03  0.7818608E-02  0.1159758E+00
         21   -1    0    0  503  502  0.00000000000E+00  0.00000000000E+00  0.38381624840E+03  0.38381624840E+03  0.00000000000E+00 0. -1.
         21   -1    0    0  501  503 -0.00000000000E+00 -0.00000000000E+00 -0.18005255692E+03  0.18005255692E+03  0.00000000000E+00 0.  1.
          6    2    1    2  501    0 -0.34786397805E+02 -0.63039775674E+02 -0.95024855116E+02  0.21195078866E+03  0.17524071141E+03 0.  0.
         24    2    3    3    0    0  0.71319344229E+01 -0.91385195722E+02 -0.21325856629E+02  0.12242849092E+03  0.78305968754E+02 0.  0.
         -6    2    1    2    0  502  0.34786397805E+02  0.63039775674E+02  0.29878854659E+03  0.35191801666E+03  0.17142808429E+03 0.  0.
        -24    2    5    5    0    0  0.66480496688E+02  0.18056686178E+02  0.27047284237E+03  0.28985463494E+03  0.78194952407E+02 0.  0.
          5    1    3    3  501    0 -0.41918332228E+02  0.28345420047E+02 -0.73698998488E+02  0.89522297739E+02  0.47000000000E+01 0. -1.
        -13    1    4    4    0    0  0.32424771492E+02 -0.40325069985E+02 -0.36666264507E+02  0.63418388725E+02  0.00000000000E+00 0.  1.
         14    1    4    4    0    0 -0.25292837069E+02 -0.51060125737E+02  0.15340407879E+02  0.59010102196E+02  0.00000000000E+00 0. -1.
         -5    1    5    5    0  502 -0.31694098883E+02  0.44983089496E+02  0.28315704228E+02  0.62063381720E+02  0.47000000000E+01 0.  1.
         11    1    6    6    0    0 -0.62064826435E+01  0.42769470654E+01  0.13734216973E+03  0.13754884329E+03  0.00000000000E+00 0. -1.
        -12    1    6    6    0    0  0.72686979332E+02  0.13779739113E+02  0.13313067263E+03  0.15230579165E+03  0.00000000000E+00 0.  1.
</event>
<event>
12    1  0.1040325E-001  0.2193876E+03  0.7818608E-02  0.1134367E+00
         21   -1    0    0  503  502  0.00000000000E+00  0.00000000000E+00  0.10484941720E+04  0.10484941720E+04  0.00000000000E+00 0. -1.
         21   -1    0    0  501  503 -0.00000000000E+00 -0.00000000000E+00 -0.46093660371E+02  0.46093660371E+02  0.00000000000E+00 0. -1.
          6    2    1    2  501    0 -0.13595279005E+03  0.81068504734E+01  0.53876326721E+03  0.58166441194E+03  0.17181020890E+03 0.  0.
         24    2    3    3    0    0 -0.50342747216E+02 -0.49607801352E+02  0.35626489078E+03  0.37193170617E+03  0.80082429442E+02 0.  0.
         -6    2    1    2    0  502  0.13595279005E+03 -0.81068504734E+01  0.46363724438E+03  0.51292342039E+03  0.17199435647E+03 0.  0.
        -24    2    5    5    0    0  0.92616975768E+02 -0.71832301314E+02  0.31563389601E+03  0.34599227586E+03  0.79675058405E+02 0.  0.
          5    1    3    3  501    0 -0.85610042834E+02  0.57714651825E+02  0.18249837643E+03  0.20973270577E+03  0.47000000000E+01 0. -1.
        -13    1    4    4    0    0 -0.33031742560E+02 -0.55676277235E+02  0.34358824271E+03  0.34963384332E+03  0.00000000000E+00 0.  1.
         14    1    4    4    0    0 -0.17311004657E+02  0.60684758829E+01  0.12676648062E+02  0.22297862854E+02  0.00000000000E+00 0. -1.
         -5    1    5    5    0  502  0.43335814282E+02  0.63725450840E+02  0.14800334837E+03  0.16693114453E+03  0.47000000000E+01 0.  1.
         11    1    6    6    0    0  0.25765246951E+02  0.83579182308E+01  0.23840606859E+02  0.36084307989E+02  0.00000000000E+00 0. -1.
        -12    1    6    6    0    0  0.66851728817E+02 -0.80190219545E+02  0.29179328915E+03  0.30990796787E+03  0.00000000000E+00 0.  1.
</event>
<event>
12    1  0.1040325E-001  0.2038319E+03  0.7818608E-02  0.1147274E+00
         21   -1    0    0  501  502  0.00000000000E+00  0.00000000000E+00  0.45047593949E+03  0.45047593949E+03  0.00000000000E+00 0.  1.
         21   -1    0    0  502  503 -0.00000000000E+00 -0.00000000000E+00 -0.93385455509E+02  0.93385455509E+02  0.00000000000E+00 0.  1.
         -6    2    1    2    0  503 -0.10456758043E+03 -0.40194260929E+01  0.13050602234E+03  0.23908614870E+03  0.17082104661E+03 0.  0.
        -24    2    3    3    0    0 -0.11846496986E+03 -0.43072507682E+02  0.12999280136E+03  0.19736524255E+03  0.78522102359E+02 0.  0.
          6    2    1    2  501    0  0.10456758043E+03  0.40194260929E+01  0.22658446164E+03  0.30477524631E+03  0.17491968969E+03 0.  0.
         24    2    5    5    0    0  0.36837136445E+02  0.15146982087E+02  0.26414276857E+02  0.93111767119E+02  0.79910459055E+02 0.  0.
          5    1    5    5  501    0  0.67730443989E+02 -0.11127555994E+02  0.20017018478E+03  0.21166347919E+03  0.47000000000E+01 0. -1.
        -11    1    6    6    0    0  0.28055345856E+02 -0.30650254824E+02  0.51806843622E+01  0.41873381071E+02  0.00000000000E+00 0.  1.
         12    1    6    6    0    0  0.87817905886E+01  0.45797236910E+02  0.21233592495E+02  0.51238386048E+02  0.00000000000E+00 0. -1.
         -5    1    3    3    0  503  0.13897389422E+02  0.39053081589E+02  0.51322098616E+00  0.41720906152E+02  0.47000000000E+01 0.  1.
         13    1    4    4    0    0 -0.61253129836E+02 -0.11901116935E+02  0.13426627581E+02  0.63826772026E+02  0.00000000000E+00 0. -1.
        -14    1    4    4    0    0 -0.57211840020E+02 -0.31171390746E+02  0.11656617378E+03  0.13353847052E+03  0.00000000000E+00 0.  1.
</event>
<event>
12    1  0.1040325E-001  0.1775006E+03  0.7818608E-02  0.1170360E+00
         21   -1    0    0  503  502  0.00000000000E+00  0.00000000000E+00  0.96686182816E+03  0.96686182816E+03  0.00000000000E+00 0. -1.
         21   -1    0    0  501  503 -0.00000000000E+00 -0.00000000000E+00 -0.11648744791E+03  0.11648744791E+03  0.00000000000E+00 0. -1.
          6    2    1    2  501    0  0.43403870035E+02 -0.16953383403E+02 -0.34600606369E+02  0.18084157749E+03  0.17127510341E+03 0.  0.
         24    2    3    3    0    0  0.64241602429E+02  0.44726631144E+02 -0.20432104790E+02  0.11404732832E+03  0.80385739870E+02 0.  0.
         -6    2    1    2    0  502 -0.43403870035E+02  0.16953383403E+02  0.88497498662E+03  0.90250769857E+03  0.17078672634E+03 0.  0.
        -24    2    5    5    0    0 -0.78802576792E+02  0.39091498682E+02  0.75315623969E+03  0.76415511771E+03  0.94608303871E+02 0.  0.
          5    1    3    3  501    0 -0.20837732394E+02 -0.61680014547E+02 -0.14168501579E+02  0.66794249175E+02  0.47000000000E+01 0. -1.
        -13    1    4    4    0    0  0.26038663489E+02  0.58558503809E+01  0.29746397363E+02  0.39964373335E+02  0.00000000000E+00 0.  1.
         14    1    4    4    0    0  0.38202938939E+02  0.38870780763E+02 -0.50178502153E+02  0.74082954984E+02  0.00000000000E+00 0. -1.
         -5    1    5    5    0  502  0.35398706757E+02 -0.22138115279E+02  0.13181874692E+03  0.13835258085E+03  0.47000000000E+01 0.  1.
         13    1    6    6    0    0 -0.61464026339E+02 -0.21786022400E+02  0.42114060690E+03  0.42615943975E+03  0.00000000000E+00 0. -1.
        -14    1    6    6    0    0 -0.17338550453E+02  0.60877521082E+02  0.33201563279E+03  0.33799567796E+03  0.00000000000E+00 0.  1.
</event>
<event>
12    1  0.1040325E-001  0.1857834E+03  0.7818608E-02  0.1162553E+00
         21   -1    0    0  503  502  0.00000000000E+00  0.00000000000E+00  0.65249991703E+02  0.65249991703E+02  0.00000000000E+00 0.  1.
         21   -1    0    0  501  503 -0.00000000000E+00 -0.00000000000E+00 -0.10090941654E+04  0.10090941654E+04  0.00000000000E+00 0.  1.
          6    2    1    2  501    0 -0.63669494953E+02 -0.26558213866E+02 -0.84288227290E+03  0.86289963646E+03  0.17142378282E+03 0.  0.
         24    2    3    3    0    0 -0.48045505788E+02  0.85243206789E+01 -0.79839635746E+03  0.80394219468E+03  0.80655279585E+02 0.  0.
         -6    2    1    2    0  502  0.63669494953E+02  0.26558213866E+02 -0.10096190080E+03  0.21144452065E+03  0.17250025098E+03 0.  0.
        -24    2    5    5    0    0  0.97216396652E+01  0.41040028592E+02  0.59946831944E+01  0.90689003559E+02  0.80061007459E+02 0.  0.
          5    1    3    3  501    0 -0.15623989165E+02 -0.35082534545E+02 -0.44485915446E+02  0.58957441775E+02  0.47000000000E+01 0. -1.
        -13    1    4    4    0    0 -0.68752000869E+02  0.17883049450E+02 -0.56705808799E+03  0.57149060905E+03  0.00000000000E+00 0.  1.
         14    1    4    4    0    0  0.20706495081E+02 -0.93587287712E+01 -0.23133826947E+03  0.23245158564E+03  0.00000000000E+00 0. -1.
         -5    1    5    5    0  502  0.53947855288E+02 -0.14481814726E+02 -0.10695658399E+03  0.12075551709E+03  0.47000000000E+01 0.  1.
         13    1    6    6    0    0  0.12501272058E+02 -0.10181346710E+02 -0.25737790670E+02  0.30370635365E+02  0.00000000000E+00 0. -1.
        -14    1    6    6    0    0 -0.27796323929E+01  0.51221375302E+02  0.31732473864E+02  0.60318368194E+02  0.00000000000E+00 0.  1.
</event>
<event>
12    1  0.1040325E-001  0.2564119E+03  0.7818608E-02  0.1109369E+00
         21   -1    0    0  503  502  0.00000000000E+00  0.00000000000E+00  0.23261705386E+03  0.23261705386E+03  0.00000000000E+00 0. -1.
         21   -1    0    0  501  503 -0.00000000000E+00 -0.00000000000E+00 -0.34639765496E+03  0.34639765496E+03  0.00000000000E+00 0. -1.
          6    2    1    2  501    0  0.71916695875E+02 -0.17548500905E+03  0.67640839527E+02  0.26518361051E+03  0.17256901391E+03 0.  0.
         24    2    3    3    0    0 -0.43507457063E+01 -0.14186244754E+03  0.91039961454E+01  0.16322356284E+03  0.80094729592E+02 0.  0.
         -6    2    1    2    0  502 -0.71916695875E+02  0.17548500905E+03 -0.18142144063E+03  0.31383109831E+03  0.17207329717E+03 0.  0.
        -24    2    5    5    0    0 -0.34391279080E+02  0.92486083693E+02 -0.18273308782E+03  0.22261273977E+03  0.80178642870E+02 0.  0.
          5    1    3    3  501    0  0.76267441581E+02 -0.33622561508E+02  0.58536843381E+02  0.10196004767E+03  0.47000000000E+01 0. -1.
        -11    1    4    4    0    0 -0.30916206781E+02 -0.67573648459E+02 -0.23380907257E+02  0.77901711354E+02  0.00000000000E+00 0.  1.
         12    1    4    4    0    0  0.26565461074E+02 -0.74288799083E+02  0.32484903402E+02  0.85321851482E+02  0.00000000000E+00 0. -1.
         -5    1    5    5    0  502 -0.37525416794E+02  0.82998925356E+02  0.13116471858E+01  0.91218358537E+02  0.47000000000E+01 0.  1.
         13    1    6    6    0    0 -0.55088921914E+02  0.35901299267E+02 -0.80456196658E+02  0.10390809491E+03  0.00000000000E+00 0. -1.
        -14    1    6    6    0    0  0.20697642834E+02  0.56584784427E+02 -0.10227689116E+03  0.11870464487E+03  0.00000000000E+00 0.  1.
</event>
<event>
12    1  0.1040325E-001  0.2164152E+03  0.7818608E-02  0.1137937E+00
         21   -1    0    0  503  502  0.00000000000E+00  0.00000000000E+00  0.16203116217E+04  0.16203116217E+04  0.00000000000E+00 0.  1.
         21   -1    0    0  501  503 -0.00000000000E+00 -0.00000000000E+00 -0.31475506949E+02  0.31475506949E+02  0.00000000000E+00 0.  1.
          6    2    1    2  501    0 -0.10000784512E+03 -0.84408329321E+02  0.50767179871E+03  0.54917577510E+03  0.16351465260E+03 0.  0.
         24    2    3    3    0    0 -0.88098634785E+02 -0.11619368986E+03  0.46390981741E+03  0.49359394856E+03  0.84618699781E+02 0.  0.
         -6    2    1    2    0  502  0.10000784512E+03  0.84408329321E+02  0.10811643161E+04  0.11026113536E+04  0.17236352146E+03 0.  0.
        -24    2    5    5    0    0  0.69754232421E+02 -0.16335557547E+02  0.64454473688E+03  0.65347511728E+03  0.80369818162E+02 0.  0.
          5    1    3    3  501    0 -0.11909210338E+02  0.31785360535E+02  0.43761981297E+02  0.55581826547E+02  0.47000000000E+01 0. -1.
        -11    1    4    4    0    0 -0.44469873417E+01 -0.70528858864E+02  0.15573402853E+03  0.17101807878E+03  0.00000000000E+00 0.  1.
         12    1    4    4    0    0 -0.83651647443E+02 -0.45664830992E+02  0.30817578888E+03  0.32257586977E+03  0.00000000000E+00 0. -1.
         -5    1    5    5    0  502  0.30253612703E+02  0.10074388687E+03  0.43661957918E+03  0.44913623628E+03  0.47000000000E+01 0.  1.
         11    1    6    6    0    0  0.51774845135E+02 -0.46945800916E+02  0.35970961262E+03  0.36643628126E+03  0.00000000000E+00 0. -1.
        -12    1    6    6    0    0  0.17979387286E+02  0.30610243369E+02  0.28483512427E+03  0.28703883602E+03  0.00000000000E+00 0.  1.
</event>
<event>
12    1  0.1040325E-001  0.2241591E+03  0.7818608E-02  0.1130835E+00
         21   -1    0    0  501  502  0.00000000000E+00  0.00000000000E+00  0.62218627349E+03  0.62218627349E+03  0.00000000000E+00 0.  1.
         21   -1    0    0  502  503 -0.00000000000E+00 -0.00000000000E+00 -0.92320971009E+02  0.92320971009E+02  0.00000000000E+00 0.  1.
         -6    2    1    2    0  503 -0.81407202375E+02  0.11792817755E+03  0.13838331426E+03  0.26343356851E+03  0.17237492768E+03 0.  0.
        -24    2    3    3    0    0 -0.70792460911E+02  0.11813795204E+03  0.16767022902E+03  0.23192912250E+03  0.81912538289E+02 0.  0.
          6    2    1    2  501    0  0.81407202375E+02 -0.11792817755E+03  0.39148198823E+03  0.45107367600E+03  0.17226469868E+03 0.  0.
         24    2    5    5    0    0  0.34168695724E+02 -0.12930331388E+03  0.20170754316E+03  0.25512138528E+03  0.80710231765E+02 0.  0.
          5    1    5    5  501    0  0.47238506650E+02  0.11375136327E+02  0.18977444507E+03  0.19595229072E+03  0.47000000000E+01 0. -1.
        -11    1    6    6    0    0 -0.23242757718E+02 -0.13321697902E+02  0.35369746215E+02  0.44370174313E+02  0.00000000000E+00 0.  1.
         12    1    6    6    0    0  0.57411453442E+02 -0.11598161597E+03  0.16633779695E+03  0.21075121097E+03  0.00000000000E+00 0. -1.
         -5    1    3    3    0  503 -0.10614741464E+02 -0.20977449010E+00 -0.29286914766E+02  0.31504446007E+02  0.47000000000E+01 0.  1.
         13    1    4    4    0    0 -0.43822972238E+02  0.13121231400E+02  0.23181750994E+02  0.51283654203E+02  0.00000000000E+00 0. -1.
        -14    1    4    4    0    0 -0.26969488672E+02  0.10501672064E+03  0.14448847803E+03  0.18064546830E+03  0.00000000000E+00 0.  1.
</event>
<event>
12    1  0.1040325E-001  0.1786172E+03  0.7818608E-02  0.1169343E+00
         21   -1    0    0  501  502  0.00000000000E+00  0.00000000000E+00  0.76351909506E+03  0.76351909506E+03  0.00000000000E+00 0. -1.
         21   -1    0    0  502  503 -0.00000000000E+00 -0.00000000000E+00 -0.11308874534E+03  0.11308874534E+03  0.00000000000E+00 0. -1.
         -6    2    1    2    0  503 -0.41091514305E+02 -0.19322506581E+02 -0.23536228492E+02  0.17937398800E+03  0.17192789684E+03 0.  0.
        -24    2    3    3    0    0 -0.76511887471E+02 -0.41685087498E+02  0.17961968264E+02  0.12022267191E+03  0.80864968277E+02 0.  0.
          6    2    1    2  501    0  0.41091514305E+02  0.19322506581E+02  0.67396657821E+03  0.69723385240E+03  0.17274902193E+03 0.  0.
         24    2    5    5    0    0 -0.44941973667E+02  0.13417737454E+02  0.36209682638E+03  0.37362690028E+03  0.79266211372E+02 0.  0.
          5    1    5    5  501    0  0.86033487972E+02  0.59047691269E+01  0.31186975183E+03  0.32360695212E+03  0.47000000000E+01 0. -1.
        -11    1    6    6    0    0 -0.45025788230E+02 -0.10649365884E+02  0.97320812720E+02  0.10775932065E+03  0.00000000000E+00 0.  1.
         12    1    6    6    0    0  0.83814562908E-01  0.24067103338E+02  0.26477601366E+03  0.26586757963E+03  0.00000000000E+00 0. -1.
         -5    1    3    3    0  503  0.35420373166E+02  0.22362580917E+02 -0.41498196757E+02  0.59151316084E+02  0.47000000000E+01 0.  1.
         13    1    4    4    0    0  0.15928059039E+01  0.16543075358E+02 -0.93189415272E+01  0.19053950880E+02  0.00000000000E+00 0. -1.
        -14    1    4    4    0    0 -0.78104693375E+02 -0.58228162857E+02  0.27280909792E+02  0.10116872103E+03  0.00000000000E+00 0.  1.
</event>
<event>
12    1  0.1040325E-001  0.2359507E+03  0.7818608E-02  0.1122652E+00
         21   -1    0    0  503  502  0.00000000000E+00  0.00000000000E+00  0.18168394724E+03  0.18168394724E+03  0.00000000000E+00 0. -1.
         21   -1    0    0  501  503 -0.00000000000E+00 -0.00000000000E+00 -0.43609747525E+03  0.43609747525E+03  0.00000000000E+00 0. -1.
          6    2    1    2  501    0  0.15965815087E+03 -0.15048164051E+02 -0.29614733434E+03  0.37816826348E+03  0.17201982295E+03 0.  0.
         24    2    3    3    0    0  0.29017720702E+02 -0.48834004938E+02 -0.14914954285E+03  0.17857155573E+03  0.80096355928E+02 0.  0.
         -6    2    1    2    0  502 -0.15965815087E+03  0.15048164051E+02  0.41733806327E+02  0.23961315901E+03  0.17307681242E+03 0.  0.
        -24    2    5    5    0    0 -0.62851170765E+02  0.24238105073E+02  0.84085841412E+02  0.13344427803E+03  0.78734942739E+02 0.  0.
          5    1    3    3  501    0  0.13064043017E+03  0.33785840887E+02 -0.14699779149E+03  0.19959670775E+03  0.47000000000E+01 0. -1.
        -13    1    4    4    0    0  0.60679282475E+01 -0.47873543432E+01  0.95475784936E+01  0.12283923230E+02  0.00000000000E+00 0.  1.
         14    1    4    4    0    0  0.22949792454E+02 -0.44046650595E+02 -0.15869712134E+03  0.16628763250E+03  0.00000000000E+00 0. -1.
         -5    1    5    5    0  502 -0.96806980109E+02 -0.91899410219E+01 -0.42352035085E+02  0.10616888099E+03  0.47000000000E+01 0.  1.
         11    1    6    6    0    0 -0.76664621619E+02  0.14665594903E+02  0.43138556107E+02  0.89182279097E+02  0.00000000000E+00 0. -1.
        -12    1    6    6    0    0  0.13813450854E+02  0.95725101699E+01  0.40947285304E+02  0.44261998930E+02  0.00000000000E+00 0.  1.
</event>
<event>
12    1  0.1040325E-001  0.1968779E+03  0.7818608E-02  0.1153136E+00
         21   -1    0    0  503  502  0.00000000000E+00  0.00000000000E+00  0.41214981930E+02  0.41214981930E+02  0.00000000000E+00 0. -1.
         21   -1    0    0  501  503 -0.00000000000E+00 -0.00000000000E+00 -0.15628927650E+04  0.15628927650E+04  0.00000000000E+00 0. -1.
          6    2    1    2  501    0  0.31321938726E+02  0.86251077907E+02 -0.12695897555E+04  0.12842495232E+04  0.17034781569E+03 0.  0.
         24    2    3    3    0    0  0.51185418897E+02  0.37520773063E+02 -0.41715576723E+03  0.43017985695E+03  0.83713915691E+02 0.  0.
         -6    2    1    2    0  502 -0.31321938726E+02 -0.86251077907E+02 -0.25208802752E+03  0.31985822367E+03  0.17418552565E+03 0.  0.
        -24    2    5    5    0    0  0.26054671242E+02 -0.28582215548E+02 -0.40456768385E+02  0.93081565037E+02  0.74374987075E+02 0.  0.
          5    1    3    3  501    0 -0.19863480171E+02  0.48730304844E+02 -0.85243398828E+03  0.85406966627E+03  0.47000000000E+01 0. -1.
        -11    1    4    4    0    0  0.55056864378E+02  0.60239609335E+02 -0.30893117075E+03  0.31952861704E+03  0.00000000000E+00 0.  1.
         12    1    4    4    0    0 -0.38714454806E+01 -0.22718836272E+02 -0.10822459647E+03  0.11065123991E+03  0.00000000000E+00 0. -1.
         -5    1    5    5    0  502 -0.57376609969E+02 -0.57668862359E+02 -0.21163125914E+03  0.22677665864E+03  0.47000000000E+01 0.  1.
         13    1    6    6    0    0 -0.16700830246E+02 -0.35875224473E+02 -0.12584366691E+02  0.41524881058E+02  0.00000000000E+00 0. -1.
        -14    1    6    6    0    0  0.42755501489E+02  0.72930089246E+01 -0.27872401694E+02  0.51556683979E+02  0.00000000000E+00 0.  1.
</event>
<event>
12    1  0.1040325E-001  0.2055289E+03  0.7818608E-02  0.1146226E+00
         21   -1    0    0  501  502  0.00000000000E+00  0.00000000000E+00  0.44592398312E+03  0.44592398312E+03  0.00000000000E+00 0. -1.
         21   -1    0    0  502  503 -0.00000000000E+00 -0.00000000000E+00 -0.93841701196E+02  0.93841701196E+02  0.00000000000E+00 0. -1.
         -6    2    1    2    0  503 -0.11513089350E+03 -0.71787418373E+01  0.13986567614E+03  0.24433717822E+03  0.16380351744E+03 0.  0.
        -24    2    3    3    0    0 -0.41476716365E+02 -0.56105971945E+02  0.46844324982E+02  0.11590870230E+03  0.79826301419E+02 0.  0.
          6    2    1    2  501    0  0.11513089350E+03  0.71787418373E+01  0.21221660579E+03  0.29542850610E+03  0.17010425471E+03 0.  0.
         24    2    5    5    0    0  0.14003972503E+03  0.35104350008E+02  0.15170435978E+03  0.22412555107E+03  0.79841154093E+02 0.  0.
          5    1    5    5  501    0 -0.24908831528E+02 -0.27925608171E+02  0.60512246004E+02  0.71302955031E+02  0.47000000000E+01 0. -1.
        -11    1    6    6    0    0  0.71074973237E+02 -0.21915843014E+02  0.55986861270E+02  0.93093955929E+02  0.00000000000E+00 0.  1.
         12    1    6    6    0    0  0.68964751793E+02  0.57020193022E+02  0.95717498515E+02  0.13103159514E+03  0.00000000000E+00 0. -1.
         -5    1    3    3    0  503 -0.73654177136E+02  0.48927230108E+02  0.93021351156E+02  0.12842847592E+03  0.47000000000E+01 0.  1.
         11    1    4    4    0    0 -0.60731158422E+02 -0.30616982960E+02  0.12767063687E+02  0.69200225174E+02  0.00000000000E+00 0. -1.
        -12    1    4    4    0    0  0.19254442057E+02 -0.25488988985E+02  0.34077261295E+02  0.46708477130E+02  0.00000000000E+00 0.  1.
</event>
<event>
12    1  0.1040325E-001  0.1979181E+03  0.7818608E-02  0.1151762E+00
         21   -1    0    0  501  502  0.00000000000E+00  0.00000000000E+00  0.19599089362E+03  0.19599089362E+03  0.00000000000E+00 0.  1.
         21   -1    0    0  502  503 -0.00000000000E+00 -0.00000000000E+00 -0.48118584677E+03  0.48118584677E+03  0.00000000000E+00 0.  1.
         -6    2    1    2    0  503 -0.54718979729E+02 -0.79168225844E+02 -0.40221531890E+03  0.44827305947E+03  0.17294449502E+03 0.  0.
        -24    2    3    3    0    0 -0.99532463121E+02 -0.55179582661E+02 -0.23045314761E+03  0.26908590372E+03  0.79668518142E+02 0.  0.
          6    2    1    2  501    0  0.54718979729E+02  0.79168225844E+02  0.11702036576E+03  0.22890368092E+03  0.17158483153E+03 0.  0.
         24    2    5    5    0    0  0.32298451658E+02 -0.19493881678E+02  0.23788076806E+02  0.91240173618E+02  0.79597080859E+02 0.  0.
          5    1    5    5  501    0  0.22420528071E+02  0.98662107522E+02  0.93232288952E+02  0.13766350730E+03  0.47000000000E+01 0. -1.
        -13    1    6    6    0    0  0.10460114383E+02  0.30995819644E+02  0.12888196648E+02  0.35160495462E+02  0.00000000000E+00 0.  1.
         14    1    6    6    0    0  0.21838337275E+02 -0.50489701322E+02  0.10899880159E+02  0.56079678156E+02  0.00000000000E+00 0. -1.
         -5    1    3    3    0  503  0.44813483392E+02 -0.23988643183E+02 -0.17176217130E+03  0.17918715575E+03  0.47000000000E+01 0.  1.
         11    1    4    4    0    0 -0.10252378925E+02 -0.48118063226E+02 -0.75568733822E+02  0.90172572403E+02  0.00000000000E+00 0. -1.
        -12    1    4    4    0    0 -0.89280084196E+02 -0.70615194353E+01 -0.15488441378E+03  0.17891333132E+03  0.00000000000E+00 0.  1.
</event>
<event>
12    1  0.1040325E-001  0.2200052E+03  0.7818608E-02  0.1133968E+00
         21   -1    0    0  501  502  0.00000000000E+00  0.00000000000E+00  0.30843004834E+03  0.30843004834E+03  0.00000000000E+00 0. -1.
         21   -1    0    0  502  503 -0.00000000000E+00 -0.00000000000E+00 -0.24575629966E+03  0.24575629966E+03  0.00000000000E+00 0. -1.
         -6    2    1    2    0  503 -0.13256652197E+03 -0.32954607818E+02  0.19826472460E+03  0.29616072336E+03  0.17245980435E+03 0.  0.
        -24    2    3    3    0    0 -0.27577235684E+02  0.80847045657E+00  0.35136972316E+02  0.99195119120E+02  0.88565835858E+02 0.  0.
          6    2    1    2  501    0  0.13256652197E+03  0.32954607818E+02 -0.13559097591E+03  0.25802562464E+03  0.17184999651E+03 0.  0.
         24    2    5    5    0    0  0.67049347647E+02  0.86069985386E+02 -0.84367342010E+02  0.15923446039E+03  0.79587106826E+02 0.  0.
          5    1    5    5  501    0  0.65517174319E+02 -0.53115377568E+02 -0.51223633898E+02  0.98791164254E+02  0.47000000000E+01 0. -1.
        -13    1    6    6    0    0  0.51426030412E+01  0.29874010564E+02  0.11145033146E+02  0.32297285290E+02  0.00000000000E+00 0.  1.
         14    1    6    6    0    0  0.61906744605E+02  0.56195974822E+02 -0.95512375157E+02  0.12693717510E+03  0.00000000000E+00 0. -1.
         -5    1    3    3    0  503 -0.10498928628E+03 -0.33763078275E+02  0.16312775228E+03  0.19696560424E+03  0.47000000000E+01 0.  1.
         11    1    4    4    0    0 -0.14652607071E+02 -0.98287129244E+01  0.63694653951E+02  0.66093202628E+02  0.00000000000E+00 0. -1.
        -12    1    4    4    0    0 -0.12924628613E+02  0.10637183381E+02 -0.28557681635E+02  0.33101916492E+02  0.00000000000E+00 0.  1.
</event>
<event>
12    1  0.1040325E-001  0.1843436E+03  0.7818608E-02  0.1163786E+00
         21   -1    0    0  503  502  0.00000000000E+00  0.00000000000E+00  0.10694947772E+03  0.10694947772E+03  0.00000000000E+00 0. -1.
         21   -1    0    0  501  503 -0.00000000000E+00 -0.00000000000E+00 -0.31974498282E+03  0.31974498282E+03  0.00000000000E+00 0. -1.
          6    2    1    2  501    0 -0.79248851421E+01  0.63640191127E+02 -0.12684343501E+03  0.22376732984E+03  0.17282847904E+03 0.  0.
         24    2    3    3    0    0 -0.69606899681E+02  0.39661169975E+02 -0.10583195546E+03  0.15417396345E+03  0.78428816909E+02 0.  0.
         -6    2    1    2    0  502  0.79248851421E+01 -0.63640191127E+02 -0.85952070090E+02  0.20292713070E+03  0.17227531539E+03 0.  0.
        -24    2    5    5    0    0  0.13880527627E+02 -0.83825843445E+01 -0.11538309066E+03  0.13986249913E+03  0.77364877591E+02 0.  0.
          5    1    3    3  501    0  0.61682014539E+02  0.23979021152E+02 -0.21011479546E+02  0.69593366391E+02  0.47000000000E+01 0. -1.
        -13    1    4    4    0    0 -0.16826395856E+02  0.10800549948E+01 -0.83350157336E+02  0.85038478610E+02  0.00000000000E+00 0.  1.
         14    1    4    4    0    0 -0.52780503825E+02  0.38581114980E+02 -0.22481798127E+02  0.69135484840E+02  0.00000000000E+00 0. -1.
         -5    1    5    5    0  502 -0.59556424847E+01 -0.55257606782E+02  0.29431020566E+02  0.63064631580E+02  0.47000000000E+01 0.  1.
         11    1    6    6    0    0 -0.25077936829E+02  0.44765767643E+01 -0.85208125180E+02  0.88934623471E+02  0.00000000000E+00 0. -1.
        -12    1    6    6    0    0  0.38958464456E+02 -0.12859161109E+02 -0.30174965476E+02  0.50927875655E+02  0.00000000000E+00 0.  1.
</event>
<event>
12    1  0.1040325E-001  0.2004167E+03  0.7818608E-02  0.1149390E+00
         21   -1    0    0  503  502  0.00000000000E+00  0.00000000000E+00  0.19994025260E+03  0.19994025260E+03  0.00000000000E+00 0. -1.
         21   -1    0    0  501  503 -0.00000000000E+00 -0.00000000000E+00 -0.38560760556E+03  0.38560760556E+03  0.00000000000E+00 0. -1.
          6    2    1    2  501    0  0.10298441652E+03  0.18770026083E+01 -0.29547384103E+03  0.35703170152E+03  0.17192304085E+03 0.  0.
         24    2    3    3    0    0  0.38497785014E+02  0.11944328699E+02 -0.49797684777E+02  0.10279020128E+03  0.80382023054E+02 0.  0.
         -6    2    1    2    0  502 -0.10298441652E+03 -0.18770026083E+01  0.10980648807E+03  0.22851615664E+03  0.17190944080E+03 0.  0.
        -24    2    5    5    0    0 -0.10262660512E+03 -0.53963172664E+01  0.14417331392E+03  0.19364952039E+03  0.78440117152E+02 0.  0.
          5    1    3    3  501    0  0.64486631510E+02 -0.10067326091E+02 -0.24567615625E+03  0.25424150024E+03  0.47000000000E+01 0. -1.
        -13    1    4    4    0    0 -0.17715402942E+02  0.83732556129E+01 -0.41450493611E+02  0.45848558663E+02  0.00000000000E+00 0.  1.
         14    1    4    4    0    0  0.56213187955E+02  0.35710730861E+01 -0.83471911670E+01  0.56941642613E+02  0.00000000000E+00 0. -1.
         -5    1    5    5    0  502 -0.35781139909E+00  0.35193146581E+01 -0.34366825849E+02  0.34866636253E+02  0.47000000000E+01 0.  1.
         11    1    6    6    0    0 -0.60198012661E+02  0.33656179324E+02  0.58828923440E+02  0.90649773128E+02  0.00000000000E+00 0. -1.
        -12    1    6    6    0    0 -0.42428592463E+02 -0.39052496590E+02  0.85344390482E+02  0.10299974726E+03  0.00000000000E+00 0.  1.
</event>
<event>
12    1  0.1040325E-001  0.1802655E+03  0.7818608E-02  0.1167627E+00
         21   -1    0    0  501  502  0.00000000000E+00  0.00000000000E+00  0.42855997672E+03  0.42855997672E+03  0.00000000000E+00 0. -1.
         21   -1    0    0  502  503 -0.00000000000E+00 -0.00000000000E+00 -0.75792784212E+02  0.75792784212E+02  0.00000000000E+00 0. -1.
         -6    2    1    2    0  503  0.52687835365E+02  0.10213386656E+02  0.18604788607E+03  0.25905493782E+03  0.17209103299E+03 0.  0.
        -24    2    3    3    0    0  0.76610456020E+02  0.51435495985E+02  0.16643876265E+03  0.20730397843E+03  0.82208914006E+02 0.  0.
          6    2    1    2  501    0 -0.52687835365E+02 -0.10213386656E+02  0.16671930644E+03  0.24529782311E+03  0.17174217194E+03 0.  0.
         24    2    5    5    0    0 -0.35902002286E+02  0.18774628645E+02  0.18502212601E+03  0.20683807237E+03  0.83110532531E+02 0.  0.
          5    1    5    5  501    0 -0.16785833079E+02 -0.28988015301E+02 -0.18302819571E+02  0.38459750747E+02  0.47000000000E+01 0. -1.
        -11    1    6    6    0    0 -0.34299348251E+02 -0.23184603459E+02  0.47309752955E+02  0.62866396848E+02  0.00000000000E+00 0.  1.
         12    1    6    6    0    0 -0.16026540340E+01  0.41959232104E+02  0.13771237306E+03  0.14397167552E+03  0.00000000000E+00 0. -1.
         -5    1    3    3    0  503 -0.23922620655E+02 -0.41222109330E+02  0.19609123421E+02  0.51750959391E+02  0.47000000000E+01 0.  1.
         13    1    4    4    0    0  0.48745035404E+02  0.72685750373E+02  0.13031307765E+03  0.15697386722E+03  0.00000000000E+00 0. -1.
        -14    1    4    4    0    0  0.27865420615E+02 -0.21250254388E+02  0.36125685001E+02  0.50330111210E+02  0.00000000000E+00 0.  1.
</event>
<event>
12    1  0.1040325E-001  0.3510032E+03  0.7818608E-02  0.1062325E+00
         21   -1    0    0  501  502  0.00000000000E+00  0.00000000000E+00  0.10963959281E+04  0.10963959281E+04  0.00000000000E+00 0. -1.
         21   -1    0    0  502  503 -0.00000000000E+00 -0.00000000000E+00 -0.26279976572E+03  0.26279976572E+03  0.00000000000E+00 0. -1.
         -6    2    1    2    0  503  0.29444387622E+03  0.83161055079E+02  0.93131018269E+03  0.99484523013E+03  0.16960370928E+03 0.  0.
        -24    2    3    3    0    0  0.18734586317E+03  0.20597305319E+02  0.72911777878E+03  0.75759417032E+03  0.82543746763E+02 0.  0.
          6    2    1    2  501    0 -0.29444387622E+03 -0.83161055079E+02 -0.97714020362E+02  0.36435046364E+03  0.17201823523E+03 0.  0.
         24    2    5    5    0    0 -0.19606352297E+03 -0.10809351281E+03 -0.24338507938E+02  0.23902537765E+03  0.80097787994E+02 0.  0.
          5    1    5    5  501    0 -0.98380353254E+02  0.24932457732E+02 -0.73375512423E+02  0.12532508599E+03  0.47000000000E+01 0. -1.
        -13    1    6    6    0    0 -0.92953109502E+02 -0.28606720454E+02  0.23959972718E+02  0.10016339308E+03  0.00000000000E+00 0.  1.
         14    1    6    6    0    0 -0.10311041347E+03 -0.79486792357E+02 -0.48298480656E+02  0.13886198457E+03  0.00000000000E+00 0. -1.
         -5    1    3    3    0  503  0.10709801305E+03  0.62563749760E+02  0.20219240391E+03  0.23725105981E+03  0.47000000000E+01 0.  1.
         13    1    4    4    0    0  0.13915866923E+03  0.44134837246E+02  0.44125225964E+03  0.46477583383E+03  0.00000000000E+00 0. -1.
        -14    1    4    4    0    0  0.48187193943E+02 -0.23537531927E+02  0.28786551915E+03  0.29281833649E+03  0.00000000000E+00 0.  1.
</event>
<event>
12    1  0.1040325E-001  0.2179964E+03  0.7818608E-02  0.1135542E+00
         21   -1    0    0  501  502  0.00000000000E+00  0.00000000000E+00  0.61825582121E+03  0.61825582121E+03  0.00000000000E+00 0.  1.
         21   -1    0    0  502  503 -0.00000000000E+00 -0.00000000000E+00 -0.92148271828E+02  0.92148271828E+02  0.00000000000E+00 0.  1.
         -6    2    1    2    0  503  0.11943556082E+03 -0.58232458847E+02  0.11661230786E+03  0.24649806634E+03  0.17177599923E+03 0.  0.
        -24    2    3    3    0    0  0.12068739431E+03 -0.96812333117E+02  0.76147367337E+02  0.19037788104E+03  0.80667472061E+02 0.  0.
          6    2    1    2  501    0 -0.11943556082E+03  0.58232458847E+02  0.40949524152E+03  0.46390602670E+03  0.17281949060E+03 0.  0.
         24    2    5    5    0    0 -0.13824701161E+03  0.64021529708E+02  0.40880993851E+03  0.44365896118E+03  0.80602205485E+02 0.  0.
          5    1    5    5  501    0  0.18811450785E+02 -0.57890708609E+01  0.68530301585E+00  0.20247065523E+02  0.47000000000E+01 0. -1.
        -11    1    6    6    0    0 -0.44801621810E+02  0.52718330926E+02  0.24656237243E+03  0.25608477352E+03  0.00000000000E+00 0.  1.
         12    1    6    6    0    0 -0.93445389797E+02  0.11303198782E+02  0.16224756608E+03  0.18757418766E+03  0.00000000000E+00 0. -1.
         -5    1    3    3    0  503 -0.12518334893E+01  0.38579874270E+02  0.40464940524E+02  0.56120185294E+02  0.47000000000E+01 0.  1.
         11    1    4    4    0    0 -0.17360143471E+01 -0.17636821021E+02  0.34443487262E+02  0.38735320010E+02  0.00000000000E+00 0. -1.
        -12    1    4    4    0    0  0.12242340866E+03 -0.79175512096E+02  0.41703880075E+02  0.15164256103E+03  0.00000000000E+00 0.  1.
</event>
<event>
12    1  0.1040325E-001  0.1785415E+03  0.7818608E-02  0.1169435E+00
         21   -1    0    0  501  502  0.00000000000E+00  0.00000000000E+00  0.11354239056E+04  0.11354239056E+04  0.00000000000E+00 0. -1.
         21   -1    0    0  502  503 -0.00000000000E+00 -0.00000000000E+00 -0.39742595912E+02  0.39742595912E+02  0.00000000000E+00 0. -1.
         -6    2    1    2    0  503 -0.48744166800E+02  0.49632883714E+01  0.86712457849E+03  0.88514020362E+03  0.17078500353E+03 0.  0.
        -24    2    3    3    0    0  0.24183866258E+02  0.10297255901E+02  0.66060327884E+03  0.66600534464E+03  0.80470704027E+02 0.  0.
          6    2    1    2  501    0  0.48744166800E+02 -0.49632883714E+01  0.22855673124E+03  0.29002629793E+03  0.17168705853E+03 0.  0.
         24    2    5    5    0    0 -0.26411246537E+02  0.35604638693E+02  0.98840582296E+02  0.13464784975E+03  0.79970860281E+02 0.  0.
          5    1    5    5  501    0  0.75155413337E+02 -0.40567927065E+02  0.12971614895E+03  0.15537844818E+03  0.47000000000E+01 0. -1.
        -13    1    6    6    0    0  0.14497819025E+02  0.13173794029E+02  0.83147967882E+02  0.85424353486E+02  0.00000000000E+00 0.  1.
         14    1    6    6    0    0 -0.40909065562E+02  0.22430844665E+02  0.15692614414E+02  0.49223496266E+02  0.00000000000E+00 0. -1.
         -5    1    3    3    0  503 -0.72928033058E+02 -0.53339675295E+01  0.20652129965E+03  0.21913485899E+03  0.47000000000E+01 0.  1.
         13    1    4    4    0    0  0.11056316119E+01  0.32433346334E+02  0.11571409746E+03  0.12017860345E+03  0.00000000000E+00 0. -1.
        -14    1    4    4    0    0  0.23078234646E+02 -0.22136090433E+02  0.54488918137E+03  0.54582674119E+03  0.00000000000E+00 0.  1.
</event>
<event>
12    1  0.1040325E-001  0.2085176E+03  0.7818608E-02  0.1143150E+00
         21   -1    0    0  503  502  0.00000000000E+00  0.00000000000E+00  0.37441990885E+03  0.37441990885E+03  0.00000000000E+00 0.  1.
         21   -1    0    0  501  503 -0.00000000000E+00 -0.00000000000E+00 -0.12418109166E+03  0.12418109166E+03  0.00000000000E+00 0.  1.
          6    2    1    2  501    0  0.10445013778E+03  0.41270129280E+02  0.57919944450E+02  0.21641236456E+03  0.17568874954E+03 0.  0.
         24    2    3    3    0    0  0.13198055264E+03  0.44432959198E+02  0.16385774893E+02  0.16626154726E+03  0.89337866222E+02 0.  0.
         -6    2    1    2    0  502 -0.10445013778E+03 -0.41270129280E+02  0.19231887274E+03  0.28218863595E+03  0.17329403508E+03 0.  0.
        -24    2    5    5    0    0 -0.12920768638E+03  0.34477909359E+01  0.16382699093E+03  0.22348168637E+03  0.79989172405E+02 0.  0.
          5    1    3    3  501    0 -0.27530414852E+02 -0.31628299179E+01  0.41534169556E+02  0.50150817299E+02  0.47000000000E+01 0. -1.
        -13    1    4    4    0    0  0.52278908785E+02  0.96891180327E+01 -0.36502971101E+02  0.64493644734E+02  0.00000000000E+00 0.  1.
         14    1    4    4    0    0  0.79701643852E+02  0.34743841165E+02  0.52888745994E+02  0.10176790253E+03  0.00000000000E+00 0. -1.
         -5    1    5    5    0  502  0.24757548594E+02 -0.44717920216E+02  0.28491881806E+02  0.58706949586E+02  0.47000000000E+01 0.  1.
         11    1    6    6    0    0 -0.55052099917E+02  0.19676546819E+02  0.12548917302E+03  0.13843927458E+03  0.00000000000E+00 0. -1.
        -12    1    6    6    0    0 -0.74155586461E+02 -0.16228755883E+02  0.38337817914E+02  0.85042411791E+02  0.00000000000E+00 0.  1.
</event>
<event>
12    1  0.1040325E-001  0.2679475E+03  0.7818608E-02  0.1102553E+00
         21   -1    0    0  503  502  0.00000000000E+00  0.00000000000E+00  0.80546204323E+03  0.80546204323E+03  0.00000000000E+00 0. -1.
         21   -1    0    0  501  503 -0.00000000000E+00 -0.00000000000E+00 -0.92861640020E+02  0.92861640020E+02  0.00000000000E+00 0. -1.
          6    2    1    2  501    0 -0.14340783994E+03  0.14742464827E+03  0.26337873729E+03  0.37525966861E+03  0.17073846711E+03 0.  0.
         24    2    3    3    0    0 -0.13133211394E+03  0.83998106423E+02  0.25364657553E+03  0.30979552314E+03  0.85632206805E+02 0.  0.
         -6    2    1    2    0  502  0.14340783994E+03 -0.14742464827E+03  0.44922166592E+03  0.52306401464E+03  0.17174406193E+03 0.  0.
        -24    2    5    5    0    0  0.12387628969E+03 -0.18006972703E+03  0.37483645389E+03  0.43938347693E+03  0.69173917772E+02 0.  0.
          5    1    3    3  501    0 -0.12075726004E+02  0.63426541851E+02  0.97321617600E+01  0.65464145470E+02  0.47000000000E+01 0. -1.
        -13    1    4    4    0    0  0.11337488507E+02  0.15304579625E+02  0.20732723211E+02  0.28153412136E+02  0.00000000000E+00 0.  1.
         14    1    4    4    0    0 -0.14266960245E+03  0.68693526798E+02  0.23291385232E+03  0.28164211100E+03  0.00000000000E+00 0. -1.
         -5    1    5    5    0  502  0.19531550252E+02  0.32645078755E+02  0.74385212029E+02  0.83680537706E+02  0.47000000000E+01 0.  1.
         11    1    6    6    0    0  0.10279472139E+03 -0.14219147244E+03  0.34407336236E+03  0.38622745665E+03  0.00000000000E+00 0. -1.
        -12    1    6    6    0    0  0.21081568306E+02 -0.37878254584E+02  0.30763091525E+02  0.53156020287E+02  0.00000000000E+00 0.  1.
</event>
<event>
12    1  0.1040325E-001  0.2152318E+03  0.7818608E-02  0.1137918E+00
         21   -1    0    0  501  502  0.00000000000E+00  0.00000000000E+00  0.38276055960E+03  0.38276055960E+03  0.00000000000E+00 0.  1.
         21   -1    0    0  502  503 -0.00000000000E+00 -0.00000000000E+00 -0.11978377007E+03  0.11978377007E+03  0.00000000000E+00 0.  1.
         -6    2    1    2    0  503 -0.21647300742E+02  0.12464626283E+03  0.13234456766E+03  0.25077163085E+03  0.17136519420E+03 0.  0.
        -24    2    3    3    0    0 -0.44218348795E+02  0.18018970103E+02  0.10125183255E+03  0.13733583429E+03  0.79556597037E+02 0.  0.
          6    2    1    2  501    0  0.21647300742E+02 -0.12464626283E+03  0.13063222187E+03  0.25177269882E+03  0.17412471971E+03 0.  0.
         24    2    5    5    0    0 -0.46147978784E+02 -0.27385009827E+02  0.68446751906E+02  0.11781347392E+03  0.79470007435E+02 0.  0.
          5    1    5    5  501    0  0.67795279526E+02 -0.97261253003E+02  0.62185469961E+02  0.13395922490E+03  0.47000000000E+01 0. -1.
        -11    1    6    6    0    0  0.19120753944E+02 -0.17853597258E+02  0.56978610202E+01  0.26773490371E+02  0.00000000000E+00 0.  1.
         12    1    6    6    0    0 -0.65268732728E+02 -0.95314125691E+01  0.62748890885E+02  0.91039983550E+02  0.00000000000E+00 0. -1.
         -5    1    3    3    0  503  0.22571048054E+02  0.10662729273E+03  0.31092735106E+02  0.11343579656E+03  0.47000000000E+01 0.  1.
         13    1    4    4    0    0  0.90807075088E+01 -0.12642393161E+01 -0.93258549551E+01  0.13077810235E+02  0.00000000000E+00 0. -1.
        -14    1    4    4    0    0 -0.53299056304E+02  0.19283209419E+02  0.11057768751E+03  0.12425802406E+03  0.00000000000E+00 0.  1.
</event>
<event>
12    1  0.1040325E-001  0.2191814E+03  0.7818608E-02  0.1134573E+00
         21   -1    0    0  501  502  0.00000000000E+00  0.00000000000E+00  0.43161150091E+02  0.43161150091E+02  0.00000000000E+00 0.  1.
         21   -1    0    0  502  503 -0.00000000000E+00 -0.00000000000E+00 -0.11875134823E+04  0.11875134823E+04  0.00000000000E+00 0.  1.
         -6    2    1    2    0  503  0.13401228976E+03  0.20362237487E+02 -0.72793489549E+03  0.76009631990E+03  0.17170698567E+03 0.  0.
        -24    2    3    3    0    0  0.32940910159E+02 -0.33372977767E+02 -0.24263407320E+03  0.26145629418E+03  0.85377052426E+02 0.  0.
          6    2    1    2  501    0 -0.13401228976E+03 -0.20362237487E+02 -0.41641743676E+03  0.47057831254E+03  0.17223980977E+03 0.  0.
         24    2    5    5    0    0 -0.35041630859E+02  0.45575957392E+02 -0.15493467893E+03  0.18328341264E+03  0.79265193035E+02 0.  0.
          5    1    5    5  501    0 -0.98970658898E+02 -0.65938194879E+02 -0.26148275783E+03  0.28729489990E+03  0.47000000000E+01 0. -1.
        -13    1    6    6    0    0  0.24009120212E+02  0.25701070301E+02 -0.64454836163E+02  0.73426213117E+02  0.00000000000E+00 0.  1.
         14    1    6    6    0    0 -0.59050751071E+02  0.19874887091E+02 -0.90479842769E+02  0.10985719952E+03  0.00000000000E+00 0. -1.
         -5    1    3    3    0  503  0.10107137960E+03  0.53735215254E+02 -0.48530082229E+03  0.49864002572E+03  0.47000000000E+01 0.  1.
         11    1    4    4    0    0  0.57385882611E+02 -0.91787892953E+01 -0.10967574627E+03  0.12412154936E+03  0.00000000000E+00 0. -1.
        -12    1    4    4    0    0 -0.24444972452E+02 -0.24194188472E+02 -0.13295832693E+03  0.13733474482E+03  0.00000000000E+00 0.  1.
</event>
<event>
12    1  0.1040325E-001  0.2082706E+03  0.7818608E-02  0.1143013E+00
         21   -1    0    0  501  502  0.00000000000E+00  0.00000000000E+00  0.49726497261E+03  0.49726497261E+03  0.00000000000E+00 0. -1.
         21   -1    0    0  502  503 -0.00000000000E+00 -0.00000000000E+00 -0.11319398228E+03  0.11319398228E+03  0.00000000000E+00 0.  1.
         -6    2    1    2    0  503 -0.19233839616E+02 -0.11633481493E+03  0.45314441833E+02  0.21279997776E+03  0.17125040772E+03 0.  0.
        -24    2    3    3    0    0 -0.11003818616E+02 -0.11601192442E+02  0.57989126861E+02  0.10687735238E+03  0.88342277125E+02 0.  0.
          6    2    1    2  501    0  0.19233839616E+02  0.11633481493E+03  0.33875654849E+03  0.39765897713E+03  0.17167682778E+03 0.  0.
         24    2    5    5    0    0 -0.10206271893E+01  0.13570908238E+03  0.19267316341E+03  0.24883676421E+03  0.79867331244E+02 0.  0.
          5    1    5    5  501    0  0.20254466805E+02 -0.19374267449E+02  0.14608338508E+03  0.14882221293E+03  0.47000000000E+01 0. -1.
        -13    1    6    6    0    0  0.31478444507E+01  0.60011860020E+02  0.25507953966E+02  0.65283902942E+02  0.00000000000E+00 0.  1.
         14    1    6    6    0    0 -0.41684716400E+01  0.75697222364E+02  0.16716520945E+03  0.18355286127E+03  0.00000000000E+00 0. -1.
         -5    1    3    3    0  503 -0.82300210005E+01 -0.10473362249E+03 -0.12674685028E+02  0.10592262538E+03  0.47000000000E+01 0.  1.
         13    1    4    4    0    0 -0.21750815257E+02  0.35340665770E+02  0.29642241983E+02  0.50997285528E+02  0.00000000000E+00 0. -1.
        -14    1    4    4    0    0  0.10746996641E+02 -0.46941858212E+02  0.28346884878E+02  0.55880066853E+02  0.00000000000E+00 0.  1.
</event>
<event>
12    1  0.1040325E-001  0.2908973E+03  0.7818608E-02  0.1089906E+00
         21   -1    0    0  501  502  0.00000000000E+00  0.00000000000E+00  0.97165529401E+03  0.97165529401E+03  0.00000000000E+00 0.  1.
         21   -1    0    0  502  503 -0.00000000000E+00 -0.00000000000E+00 -0.18462791357E+03  0.18462791357E+03  0.00000000000E+00 0. -1.
         -6    2    1    2    0  503 -0.21152984630E+03  0.10179706668E+03 -0.26762887263E+02  0.29212576735E+03  0.17179549807E+03 0.  0.
        -24    2    3    3    0    0 -0.19371393783E+03  0.11602602086E+03 -0.64284898933E+02  0.24796853588E+03  0.79804256341E+02 0.  0.
          6    2    1    2  501    0  0.21152984630E+03 -0.10179706668E+03  0.81379026770E+03  0.86415744024E+03  0.17148166971E+03 0.  0.
         24    2    5    5    0    0  0.21662887363E+03 -0.48193649324E+02  0.63784438942E+03  0.68009666626E+03  0.80220406501E+02 0.  0.
          5    1    5    5  501    0 -0.50990273280E+01 -0.53603417354E+02  0.17594587829E+03  0.18406077398E+03  0.47000000000E+01 0. -1.
        -11    1    6    6    0    0 -0.15067004447E+00 -0.11953501731E+02  0.73461239099E+02  0.74427565828E+02  0.00000000000E+00 0.  1.
         12    1    6    6    0    0  0.21677954367E+03 -0.36240147593E+02  0.56438315032E+03  0.60566910043E+03  0.00000000000E+00 0. -1.
         -5    1    3    3    0  503 -0.17815908465E+02 -0.14228954179E+02  0.37522011670E+02  0.44157231472E+02  0.47000000000E+01 0.  1.
         13    1    4    4    0    0 -0.78192390632E+02  0.85624996032E+02 -0.88938136302E+01  0.11629612985E+03  0.00000000000E+00 0. -1.
        -14    1    4    4    0    0 -0.11552154720E+03  0.30401024825E+02 -0.55391085303E+02  0.13167240603E+03  0.00000000000E+00 0.  1.
</event>
<event>
12    1  0.1040325E-001  0.1911300E+03  0.7818608E-02  0.1157668E+00
         21   -1    0    0  501  502  0.00000000000E+00  0.00000000000E+00  0.39289199295E+03  0.39289199295E+03  0.00000000000E+00 0.  1.
         21   -1    0    0  502  503 -0.00000000000E+00 -0.00000000000E+00 -0.10786595330E+03  0.10786595330E+03  0.00000000000E+00 0.  1.
         -6    2    1    2    0  503  0.36742006044E+02  0.78171607607E+02  0.23733597930E+03  0.30472785067E+03  0.17049903418E+03 0.  0.
        -24    2    3    3    0    0  0.66303756134E+02 -0.83746320305E+00  0.11235746357E+03  0.15387013713E+03  0.81577754682E+02 0.  0.
          6    2    1    2  501    0 -0.36742006044E+02 -0.78171607607E+02  0.47690060342E+02  0.19603009558E+03  0.16938914154E+03 0.  0.
         24    2    5    5    0    0  0.12000178293E+02 -0.47927120728E+02  0.85542828580E+02  0.12714285740E+03  0.80041973278E+02 0.  0.
          5    1    5    5  501    0 -0.48742184337E+02 -0.30244486879E+02 -0.37852768238E+02  0.68887238178E+02  0.47000000000E+01 0. -1.
        -13    1    6    6    0    0  0.66007986984E+01 -0.40427315772E+02 -0.14023282995E+00  0.40962886485E+02  0.00000000000E+00 0.  1.
         14    1    6    6    0    0  0.53993795946E+01 -0.74998049559E+01  0.85683061409E+02  0.86179970915E+02  0.00000000000E+00 0. -1.
         -5    1    3    3    0  503 -0.29561750090E+02  0.79009070810E+02  0.12497851573E+03  0.15085771354E+03  0.47000000000E+01 0.  1.
         11    1    4    4    0    0  0.32274253133E+02  0.19603281479E+01 -0.40241863409E+01  0.32583191640E+02  0.00000000000E+00 0. -1.
        -12    1    4    4    0    0  0.34029503001E+02 -0.27977913510E+01  0.11638164991E+03  0.12128694549E+03  0.00000000000E+00 0.  1.
</event>
<event>
12    1  0.1040325E-001  0.2143551E+03  0.7818608E-02  0.1138224E+00
         21   -1    0    0  503  502  0.00000000000E+00  0.00000000000E+00  0.51697543344E+03  0.51697543344E+03  0.00000000000E+00 0. -1.
         21   -1    0    0  501  503 -0.00000000000E+00 -0.00000000000E+00 -0.91196507958E+02  0.91196507958E+02  0.00000000000E+00 0.  1.
          6    2    1    2  501    0 -0.12695378973E+03 -0.15942070652E+02  0.16320293754E+03  0.26941290138E+03  0.17197877270E+03 0.  0.
         24    2    3    3    0    0 -0.76744342466E+02  0.26835621382E+02  0.25495987655E+02  0.11665095069E+03  0.79671539674E+02 0.  0.
         -6    2    1    2    0  502  0.12695378973E+03  0.15942070652E+02  0.26257598794E+03  0.33875904002E+03  0.17158124434E+03 0.  0.
        -24    2    5    5    0    0  0.11635189611E+03  0.35203893586E+02  0.10414749303E+03  0.17874311591E+03  0.79531901324E+02 0.  0.
          5    1    3    3  501    0 -0.50209447269E+02 -0.42777692034E+02  0.13770694989E+03  0.15276195069E+03  0.47000000000E+01 0. -1.
        -13    1    4    4    0    0 -0.22025579805E+02  0.11307823263E+02 -0.28825913923E+02  0.37999030858E+02  0.00000000000E+00 0.  1.
         14    1    4    4    0    0 -0.54718762661E+02  0.15527798119E+02  0.54321901578E+02  0.78651919828E+02  0.00000000000E+00 0. -1.
         -5    1    5    5    0  502  0.10601893624E+02 -0.19261822934E+02  0.15842849490E+03  0.16001592411E+03  0.47000000000E+01 0.  1.
         13    1    6    6    0    0  0.36812449993E+02  0.41193693658E+02  0.76417298114E+02  0.94295706809E+02  0.00000000000E+00 0. -1.
        -14    1    6    6    0    0  0.79539446119E+02 -0.59898000718E+01  0.27730194919E+02  0.84447409102E+02  0.00000000000E+00 0.  1.
</event>
<event>
12    1  0.1040325E-001  0.2015847E+03  0.7818608E-02  0.1148443E+00
         21   -1    0    0  501  502  0.00000000000E+00  0.00000000000E+00  0.55176540596E+03  0.55176540596E+03  0.00000000000E+00 0.  1.
         21   -1    0    0  502  503 -0.00000000000E+00 -0.00000000000E+00 -0.11405495315E+03  0.11405495315E+03  0.00000000000E+00 0.  1.
         -6    2    1    2    0  503 -0.50352270551E+01 -0.10387790608E+03  0.20498044582E+02  0.20246026153E+03  0.17249352099E+03 0.  0.
        -24    2    3    3    0    0 -0.32681569457E+02 -0.13160636136E+02  0.53686116281E+02  0.10187456962E+03  0.79088188297E+02 0.  0.
          6    2    1    2  501    0  0.50352270551E+01  0.10387790608E+03  0.41721240823E+03  0.46336009758E+03  0.17268588120E+03 0.  0.
         24    2    5    5    0    0 -0.52874746907E+02  0.34122502503E+02  0.28755428922E+03  0.30507965268E+03  0.80162592238E+02 0.  0.
          5    1    5    5  501    0  0.57909973962E+02  0.69755403574E+02  0.12965811901E+03  0.15828044490E+03  0.47000000000E+01 0. -1.
        -11    1    6    6    0    0 -0.52572376891E+02  0.57611295172E+02  0.20853726900E+03  0.22264480390E+03  0.00000000000E+00 0.  1.
         12    1    6    6    0    0 -0.30237001581E+00 -0.23488792669E+02  0.79017020222E+02  0.82434848780E+02  0.00000000000E+00 0. -1.
         -5    1    3    3    0  503  0.27646342402E+02 -0.90717269941E+02 -0.33188071699E+02  0.10058569191E+03  0.47000000000E+01 0.  1.
         13    1    4    4    0    0 -0.28925071476E+02  0.30435947920E+02  0.19246093133E+02  0.46188946584E+02  0.00000000000E+00 0. -1.
        -14    1    4    4    0    0 -0.37564979812E+01 -0.43596584056E+02  0.34440023148E+02  0.55685623035E+02  0.00000000000E+00 0.  1.
</event>
<event>
12    1  0.1040325E-001  0.2937171E+03  0.7818608E-02  0.1088896E+00
         21   -1    0    0  501  502  0.00000000000E+00  0.00000000000E+00  0.18353877248E+04  0.18353877248E+04  0.00000000000E+00 0.  1.
         21   -1    0    0  502  503 -0.00000000000E+00 -0.00000000000E+00 -0.74772810542E+02  0.74772810542E+02  0.00000000000E+00 0. -1.
         -6    2    1    2    0  503 -0.22573607977E+03  0.59421653445E+02  0.29562303598E+03  0.41672857272E+03  0.17827510570E+03 0.  0.
        -24    2    3    3    0    0 -0.18716458763E+03  0.96664836134E+02  0.28191193152E+03  0.36118670520E+03  0.81282381065E+02 0.  0.
          6    2    1    2  501    0  0.22573607977E+03 -0.59421653445E+02  0.14649918783E+04  0.14934319626E+04  0.17219208157E+03 0.  0.
         24    2    5    5    0    0  0.13659347217E+03 -0.87119943716E+02  0.71478220590E+03  0.73742254317E+03  0.81429380876E+02 0.  0.
          5    1    5    5  501    0  0.89142607601E+02  0.27698290271E+02  0.75020967239E+03  0.75600941947E+03  0.47000000000E+01 0. -1.
        -13    1    6    6    0    0  0.10413800206E+03 -0.35192974779E+02  0.56522330695E+03  0.57581303882E+03  0.00000000000E+00 0.  1.
         14    1    6    6    0    0  0.32455470110E+02 -0.51926968937E+02  0.14955889894E+03  0.16160950435E+03  0.00000000000E+00 0. -1.
         -5    1    3    3    0  503 -0.38571492140E+02 -0.37243182688E+02  0.13711104469E+02  0.55541867527E+02  0.47000000000E+01 0.  1.
         11    1    4    4    0    0 -0.63736281464E+02  0.62563085131E+02  0.69519846498E+02  0.11317889491E+03  0.00000000000E+00 0. -1.
        -12    1    4    4    0    0 -0.12342830617E+03  0.34101751003E+02  0.21239208502E+03  0.24800781029E+03  0.00000000000E+00 0.  1.
</event>
<event>
12    1  0.1040325E-001  0.2378312E+03  0.7818608E-02  0.1121341E+00
         21   -1    0    0  503  502  0.00000000000E+00  0.00000000000E+00  0.86953341665E+02  0.86953341665E+02  0.00000000000E+00 0.  1.
         21   -1    0    0  501  503 -0.00000000000E+00 -0.00000000000E+00 -0.66459627080E+03  0.66459627080E+03  0.00000000000E+00 0.  1.
          6    2    1    2  501    0 -0.76633453546E+00  0.16359688770E+03 -0.34610647803E+03  0.41962671348E+03  0.17184980535E+03 0.  0.
         24    2    3    3    0    0  0.35797885474E+02  0.78921618046E+02 -0.92387899273E+02  0.14962291595E+03  0.79632798806E+02 0.  0.
         -6    2    1    2    0  502  0.76633453546E+00 -0.16359688770E+03 -0.23153645111E+03  0.33192289898E+03  0.17262431388E+03 0.  0.
        -24    2    5    5    0    0  0.57944670357E+02 -0.14383315817E+03 -0.15324656620E+03  0.23287057356E+03  0.81845169484E+02 0.  0.
          5    1    3    3  501    0 -0.36564220010E+02  0.84675269657E+02 -0.25371857876E+03  0.27000379753E+03  0.47000000000E+01 0. -1.
        -13    1    4    4    0    0  0.28586943133E+02  0.57194810707E+02 -0.10540921550E+03  0.12328650535E+03  0.00000000000E+00 0.  1.
         14    1    4    4    0    0  0.72109423414E+01  0.21726807340E+02  0.13021316231E+02  0.26336410595E+02  0.00000000000E+00 0. -1.
         -5    1    5    5    0  502 -0.57178335822E+02 -0.19763729535E+02 -0.78289884908E+02  0.99052325421E+02  0.47000000000E+01 0.  1.
         11    1    6    6    0    0  0.13681336787E+02 -0.60734922268E+02 -0.11593832168E+03  0.13159636847E+03  0.00000000000E+00 0. -1.
        -12    1    6    6    0    0  0.44263333570E+02 -0.83098235901E+02 -0.37308244515E+02  0.10127420509E+03  0.00000000000E+00 0.  1.
</event>
<event>
12    1  0.1040325E-001  0.1767537E+03  0.7818608E-02  0.1171611E+00
         21   -1    0    0  503  502  0.00000000000E+00  0.00000000000E+00  0.10810812325E+03  0.10810812325E+03  0.00000000000E+00 0.  1.
         21   -1    0    0  501  503 -0.00000000000E+00 -0.00000000000E+00 -0.28547968227E+03  0.28547968227E+03  0.00000000000E+00 0.  1.
          6    2    1    2  501    0  0.12389676620E+02  0.21701983148E+02 -0.79072554517E+02  0.19133906748E+03  0.17243459544E+03 0.  0.
         24    2    3    3    0    0 -0.34197946217E+02 -0.19794247473E+02 -0.91878837002E+02  0.12747644438E+03  0.79039303038E+02 0.  0.
         -6    2    1    2    0  502 -0.12389676620E+02 -0.21701983148E+02 -0.98299004510E+02  0.20224873804E+03  0.17497822034E+03 0.  0.
        -24    2    5    5    0    0 -0.71455389247E+02 -0.26271826197E+02 -0.34566039063E+02  0.11510734284E+03  0.79112627402E+02 0.  0.
          5    1    3    3  501    0  0.46587622837E+02  0.41496230621E+02  0.12806282485E+02  0.63862623094E+02  0.47000000000E+01 0. -1.
        -11    1    4    4    0    0 -0.11428025141E+02 -0.53127055731E+01  0.13634696715E+02  0.18566894023E+02  0.00000000000E+00 0.  1.
         12    1    4    4    0    0 -0.22769921076E+02 -0.14481541900E+02 -0.10551353372E+03  0.10890955036E+03  0.00000000000E+00 0. -1.
         -5    1    5    5    0  502  0.59065712627E+02  0.45698430493E+01 -0.63732965446E+02  0.87141395205E+02  0.47000000000E+01 0.  1.
         11    1    6    6    0    0 -0.40203153155E+02 -0.42299686178E+02 -0.49900762193E+02  0.76783090858E+02  0.00000000000E+00 0. -1.
        -12    1    6    6    0    0 -0.31252236092E+02  0.16027859980E+02  0.15334723130E+02  0.38324251979E+02  0.00000000000E+00 0.  1.
</event>
<event>
12    1  0.1040325E-001  0.1907024E+03  0.7818608E-02  0.1158980E+00
         21   -1    0    0  503  502  0.00000000000E+00  0.00000000000E+00  0.23258244952E+03  0.23258244952E+03  0.00000000000E+00 0.  1.
         21   -1    0    0  501  503 -0.00000000000E+00 -0.00000000000E+00 -0.17876828878E+03  0.17876828878E+03  0.00000000000E+00 0.  1.
          6    2    1    2  501    0  0.14298707614E+02 -0.73527939475E+02 -0.52615719436E+02  0.19295954139E+03  0.16986512225E+03 0.  0.
         24    2    3    3    0    0  0.37816852380E+02 -0.21307952035E+02 -0.87317683632E+02  0.12583021441E+03  0.79528119800E+02 0.  0.
         -6    2    1    2    0  502 -0.14298707614E+02  0.73527939475E+02  0.10642988017E+03  0.21839119692E+03  0.17537555296E+03 0.  0.
        -24    2    5    5    0    0 -0.19626439521E+02  0.98646907590E+02  0.22615094429E+02  0.13060534615E+03  0.80186684934E+02 0.  0.
          5    1    3    3  501    0 -0.23518144767E+02 -0.52219987440E+02  0.34701964196E+02  0.67129326979E+02  0.47000000000E+01 0. -1.
        -11    1    4    4    0    0  0.30681530784E+02 -0.20033347079E+02  0.15422090244E+01  0.36675192366E+02  0.00000000000E+00 0.  1.
         12    1    4    4    0    0  0.71353215965E+01 -0.12746049561E+01 -0.88859892657E+02  0.89155022040E+02  0.00000000000E+00 0. -1.
         -5    1    5    5    0  502  0.53277319069E+01 -0.25118968115E+02  0.83814785745E+02  0.87785850773E+02  0.47000000000E+01 0.  1.
         13    1    6    6    0    0 -0.36539670739E+02  0.13171911458E+02 -0.50924886445E+01  0.39173718611E+02  0.00000000000E+00 0. -1.
        -14    1    6    6    0    0  0.16913231219E+02  0.85474996132E+02  0.27707583074E+02  0.91431627536E+02  0.00000000000E+00 0.  1.
</event>
<event>
12    1  0.1040325E-001  0.1968182E+03  0.7818608E-02  0.1152520E+00
         21   -1    0    0  501  502  0.00000000000E+00  0.00000000000E+00  0.31771495091E+03  0.31771495091E+03  0.00000000000E+00 0.  1.
         21   -1    0    0  502  503 -0.00000000000E+00 -0.00000000000E+00 -0.14450456304E+03  0.14450456304E+03  0.00000000000E+00 0.  1.
         -6    2    1    2    0  503  0.89775186812E+02  0.24904855738E+02 -0.50866566064E+01  0.19688391981E+03  0.17337118503E+03 0.  0.
        -24    2    3    3    0    0  0.42004049704E+02  0.48349472026E+02 -0.63401498939E+02  0.11779888703E+03  0.75860504093E+02 0.  0.
          6    2    1    2  501    0 -0.89775186812E+02 -0.24904855738E+02  0.17829704448E+03  0.26533559415E+03  0.17301244304E+03 0.  0.
         24    2    5    5    0    0 -0.51399069558E+02 -0.48609085662E+02  0.19092299780E+03  0.21825989352E+03  0.78619860542E+02 0.  0.
          5    1    5    5  501    0 -0.38376117254E+02  0.23704229923E+02 -0.12625953324E+02  0.47075700622E+02  0.47000000000E+01 0. -1.
        -11    1    6    6    0    0 -0.54198583212E+02 -0.25467819217E+02  0.58203526577E+02  0.83508962057E+02  0.00000000000E+00 0.  1.
         12    1    6    6    0    0  0.27995136538E+01 -0.23141266445E+02  0.13271947122E+03  0.13475093147E+03  0.00000000000E+00 0. -1.
         -5    1    3    3    0  503  0.47771137108E+02 -0.23444616288E+02  0.58314842333E+02  0.79085032780E+02  0.47000000000E+01 0.  1.
         11    1    4    4    0    0  0.71810680954E+01 -0.51313354092E+01  0.14573096667E+02  0.17037414374E+02  0.00000000000E+00 0. -1.
        -12    1    4    4    0    0  0.34822981608E+02  0.53480807436E+02 -0.77974595607E+02  0.10076147266E+03  0.00000000000E+00 0.  1.
</event>
<event>
12    1  0.1040325E-001  0.2002187E+03  0.7818608E-02  0.1149749E+00
         21   -1    0    0  503  502  0.00000000000E+00  0.00000000000E+00  0.96171342320E+02  0.96171342320E+02  0.00000000000E+00 0.  1.
         21   -1    0    0  501  503 -0.00000000000E+00 -0.00000000000E+00 -0.46915104340E+03  0.46915104340E+03  0.00000000000E+00 0.  1.
          6    2    1    2  501    0 -0.26525177159E+02 -0.99543122038E+02 -0.90012145723E+02  0.21868403041E+03  0.17061096274E+03 0.  0.
         24    2    3    3    0    0 -0.72292014924E+02 -0.10763706148E+03 -0.74960504287E+02  0.16960493909E+03  0.79591995418E+02 0.  0.
         -6    2    1    2    0  502  0.26525177159E+02  0.99543122038E+02 -0.28296755536E+03  0.34663835532E+03  0.17168312038E+03 0.  0.
        -24    2    5    5    0    0 -0.20437849273E+02  0.76474037373E+02 -0.27050271305E+03  0.29264603353E+03  0.78765468913E+02 0.  0.
          5    1    3    3  501    0  0.45766837766E+02  0.80939394394E+01 -0.15051641437E+02  0.49079091318E+02  0.47000000000E+01 0. -1.
        -13    1    4    4    0    0 -0.13763167223E+02 -0.84254461632E+02 -0.61340765529E+02  0.10512339698E+03  0.00000000000E+00 0.  1.
         14    1    4    4    0    0 -0.58528847701E+02 -0.23382599845E+02 -0.13619738757E+02  0.64481542107E+02  0.00000000000E+00 0. -1.
         -5    1    5    5    0  502  0.46963026431E+02  0.23069084665E+02 -0.12464842306E+02  0.53992321793E+02  0.47000000000E+01 0.  1.
         11    1    6    6    0    0 -0.35734210165E+02  0.53698748919E+02 -0.93867754358E+02  0.11389312850E+03  0.00000000000E+00 0. -1.
        -12    1    6    6    0    0  0.15296360892E+02  0.22775288454E+02 -0.17663495870E+03  0.17875290502E+03  0.00000000000E+00 0.  1.
</event>
<event>
12    1  0.1040325E-001  0.1996522E+03  0.7818608E-02  0.1150118E+00
         21   -1    0    0  503  502  0.00000000000E+00  0.00000000000E+00  0.57512321044E+03  0.57512321044E+03  0.00000000000E+00 0.  1.
         21   -1    0    0  501  503 -0.00000000000E+00 -0.00000000000E+00 -0.87233451860E+02  0.87233451860E+02  0.00000000000E+00 0. -1.
          6    2    1    2  501    0 -0.99292695886E+02  0.21304189514E+02  0.93042269636E+02  0.21990264306E+03  0.17142753728E+03 0.  0.
         24    2    3    3    0    0 -0.61436746916E+02 -0.34266560932E+02  0.52462084894E+01  0.10921651236E+03  0.83378970959E+02 0.  0.
         -6    2    1    2    0  502  0.99292695886E+02 -0.21304189514E+02  0.39484748895E+03  0.44245401924E+03  0.17189564179E+03 0.  0.
        -24    2    5    5    0    0  0.65584330357E+02  0.11849029073E+02  0.37916481424E+03  0.39241977002E+03  0.76063234639E+02 0.  0.
          5    1    3    3  501    0 -0.37855948970E+02  0.55570750446E+02  0.87796061146E+02  0.11068613070E+03  0.47000000000E+01 0. -1.
        -11    1    4    4    0    0 -0.57796203372E+02 -0.16487145663E+02  0.38469788675E+02  0.71359314297E+02  0.00000000000E+00 0.  1.
         12    1    4    4    0    0 -0.36405435443E+01 -0.17779415269E+02 -0.33223580185E+02  0.37857198060E+02  0.00000000000E+00 0. -1.
         -5    1    5    5    0  502  0.33708365529E+02 -0.33153218587E+02  0.15682674705E+02  0.50034249222E+02  0.47000000000E+01 0.  1.
         11    1    6    6    0    0  0.58580165907E+02  0.40448769536E+02  0.24975046813E+03  0.25969796905E+03  0.00000000000E+00 0. -1.
        -12    1    6    6    0    0  0.70041644506E+01 -0.28599740463E+02  0.12941434611E+03  0.13272180097E+03  0.00000000000E+00 0.  1.
</event>
<event>
12    1  0.1040325E-001  0.1886521E+03  0.7818608E-02  0.1159685E+00
         21   -1    0    0  501  502  0.00000000000E+00  0.00000000000E+00  0.15580903528E+03  0.15580903528E+03  0.00000000000E+00 0. -1.
         21   -1    0    0  502  503 -0.00000000000E+00 -0.00000000000E+00 -0.27897293958E+03  0.27897293958E+03  0.00000000000E+00 0. -1.
         -6    2    1    2    0  503 -0.59580994930E+02 -0.51274522870E+02 -0.15413295226E+03  0.24360483032E+03  0.17148578579E+03 0.  0.
        -24    2    3    3    0    0 -0.64542130756E+02 -0.97670423883E+02 -0.10922230521E+03  0.17867218277E+03  0.79303458909E+02 0.  0.
          6    2    1    2  501    0  0.59580994930E+02  0.51274522870E+02  0.30969047953E+02  0.19117714454E+03  0.17149532650E+03 0.  0.
         24    2    5    5    0    0 -0.97826096292E+01 -0.25945811957E+02  0.30234915123E+02  0.87268922061E+02  0.77024866478E+02 0.  0.
          5    1    5    5  501    0  0.69363604559E+02  0.77220334827E+02  0.73413282930E+00  0.10390822248E+03  0.47000000000E+01 0. -1.
        -13    1    6    6    0    0 -0.23015090273E+02 -0.41986526758E+01  0.49892971372E+02  0.55105640881E+02  0.00000000000E+00 0.  1.
         14    1    6    6    0    0  0.13232480644E+02 -0.21747159281E+02 -0.19658056249E+02  0.32163281180E+02  0.00000000000E+00 0. -1.
         -5    1    3    3    0  503  0.49611358265E+01  0.46395901013E+02 -0.44910647048E+02  0.64932647549E+02  0.47000000000E+01 0.  1.
         13    1    4    4    0    0 -0.61297655775E+02 -0.75776737439E+02 -0.11955229556E+03  0.15424742433E+03  0.00000000000E+00 0. -1.
        -14    1    4    4    0    0 -0.32444749807E+01 -0.21893686443E+02  0.10329990346E+02  0.24424758433E+02  0.00000000000E+00 0.  1.
</event>
<event>
12    1  0.1040325E-001  0.2185521E+03  0.7818608E-02  0.1134993E+00
         21   -1    0    0  503  502  0.00000000000E+00  0.00000000000E+00  0.13574407127E+03  0.13574407127E+03  0.00000000000E+00 0. -1.
         21   -1    0    0  501  503 -0.00000000000E+00 -0.00000000000E+00 -0.48571229173E+03  0.48571229173E+03  0.00000000000E+00 0.  1.
          6    2    1    2  501    0  0.11203353907E+03  0.74626023926E+02 -0.33818995264E+03  0.40258712946E+03  0.17199824249E+03 0.  0.
         24    2    3    3    0    0  0.73746107741E+02  0.45937646148E+02 -0.33384895664E+03  0.35431825063E+03  0.80855062551E+02 0.  0.
         -6    2    1    2    0  502 -0.11203353907E+03 -0.74626023926E+02 -0.11778267821E+02  0.21886923354E+03  0.17217565587E+03 0.  0.
        -24    2    5    5    0    0 -0.10393047388E+03  0.78031485701E+01  0.14467936691E+02  0.13185669769E+03  0.79463419283E+02 0.  0.
          5    1    3    3  501    0  0.38287431327E+02  0.28688377778E+02 -0.43409959979E+01  0.48268878828E+02  0.47000000000E+01 0. -1.
        -11    1    4    4    0    0  0.26598408991E+02 -0.42081904173E+01 -0.21730204383E+03  0.21896429499E+03  0.00000000000E+00 0.  1.
         12    1    4    4    0    0  0.47147698750E+02  0.50145836565E+02 -0.11654691281E+03  0.13535395564E+03  0.00000000000E+00 0. -1.
         -5    1    5    5    0  502 -0.81030651884E+01 -0.82429172496E+02 -0.26246204512E+02  0.87012535850E+02  0.47000000000E+01 0.  1.
         11    1    6    6    0    0 -0.61414724253E+01 -0.17831302062E+02  0.23762838465E+02  0.30337196783E+02  0.00000000000E+00 0. -1.
        -12    1    6    6    0    0 -0.97789001454E+02  0.25634450632E+02 -0.92949017737E+01  0.10151950090E+03  0.00000000000E+00 0.  1.
</event>
<event>
12    1  0.1040325E-001  0.1790982E+03  0.7818608E-02  0.1170136E+00
         21   -1    0    0  501  502  0.00000000000E+00  0.00000000000E+00  0.33930153292E+02  0.33930153292E+02  0.00000000000E+00 0.  1.
         21   -1    0    0  502  503 -0.00000000000E+00 -0.00000000000E+00 -0.91985983259E+03  0.91985983259E+03  0.00000000000E+00 0.  1.
         -6    2    1    2    0  503  0.41081805618E+02  0.20907969191E+00 -0.47169501253E+03  0.50249572593E+03  0.16827956284E+03 0.  0.
        -24    2    3    3    0    0 -0.30728246365E+02  0.31745329252E+01 -0.35712072608E+03  0.36716341422E+03  0.79495012170E+02 0.  0.
          6    2    1    2  501    0 -0.41081805618E+02 -0.20907969191E+00 -0.41423466676E+03  0.45129425995E+03  0.17432266474E+03 0.  0.
         24    2    5    5    0    0 -0.41621274149E+01  0.27075316741E+02 -0.39069828056E+03  0.39949124456E+03  0.78725548392E+02 0.  0.
          5    1    5    5  501    0 -0.36919678203E+02 -0.27284396433E+02 -0.23536386209E+02  0.51803015386E+02  0.47000000000E+01 0. -1.
        -11    1    6    6    0    0  0.10138161032E+02 -0.88733376635E+01 -0.30687220977E+03  0.30716782312E+03  0.00000000000E+00 0.  1.
         12    1    6    6    0    0 -0.14300288447E+02  0.35948654405E+02 -0.83826070781E+02  0.92323421437E+02  0.00000000000E+00 0. -1.
         -5    1    3    3    0  503  0.71810051982E+02 -0.29654532333E+01 -0.11457428644E+03  0.13533231171E+03  0.47000000000E+01 0.  1.
         11    1    4    4    0    0 -0.29294018886E+02 -0.20548038454E+02 -0.32623929552E+03  0.32819573332E+03  0.00000000000E+00 0. -1.
        -12    1    4    4    0    0 -0.14342274786E+01  0.23722571379E+02 -0.30881430564E+02  0.38967680903E+02  0.00000000000E+00 0.  1.
</event>
<event>
12    1  0.1040325E-001  0.2053023E+03  0.7818608E-02  0.1145401E+00
         21   -1    0    0  503  502  0.00000000000E+00  0.00000000000E+00  0.10380260346E+04  0.10380260346E+04  0.00000000000E+00 0.  1.
         21   -1    0    0  501  503 -0.00000000000E+00 -0.00000000000E+00 -0.41156788742E+02  0.41156788742E+02  0.00000000000E+00 0. -1.
          6    2    1    2  501    0 -0.10869486365E+03  0.63156126692E+00  0.43308213713E+03  0.47927986244E+03  0.17416680735E+03 0.  0.
         24    2    3    3    0    0 -0.29032568759E+02 -0.59484741381E+02  0.17924275978E+03  0.20648585487E+03  0.78275901917E+02 0.  0.
         -6    2    1    2    0  502  0.10869486365E+03 -0.63156126692E+00  0.56378710873E+03  0.59990296091E+03  0.17381796881E+03 0.  0.
        -24    2    5    5    0    0  0.16901304107E+02 -0.30730056123E+02  0.40364824377E+03  0.41282403896E+03  0.79131485608E+02 0.  0.
          5    1    3    3  501    0 -0.79662294894E+02  0.60116302648E+02  0.25383937735E+03  0.27279400757E+03  0.47000000000E+01 0. -1.
        -13    1    4    4    0    0 -0.15797646404E+01 -0.49499164915E+02  0.16806168426E+03  0.17520671420E+03  0.00000000000E+00 0.  1.
         14    1    4    4    0    0 -0.27452804119E+02 -0.99855764664E+01  0.11181075522E+02  0.31279140672E+02  0.00000000000E+00 0. -1.
         -5    1    5    5    0  502  0.91793559546E+02  0.30098494856E+02  0.16013886496E+03  0.18707892195E+03  0.47000000000E+01 0.  1.
         11    1    6    6    0    0 -0.25323046830E+02  0.73941124513E+01  0.80669946556E+02  0.84873846837E+02  0.00000000000E+00 0. -1.
        -12    1    6    6    0    0  0.42224350937E+02 -0.38124168574E+02  0.32297829721E+03  0.32795019212E+03  0.00000000000E+00 0.  1.
</event>
<event>
12    1  0.1040325E-001  0.1820043E+03  0.7818608E-02  0.1166567E+00
         21   -1    0    0  501  502  0.00000000000E+00  0.00000000000E+00  0.42198304961E+04  0.42198304961E+04  0.00000000000E+00 0. -1.
         21   -1    0    0  502  503 -0.00000000000E+00 -0.00000000000E+00 -0.77765258884E+01  0.77765258884E+01  0.00000000000E+00 0. -1.
         -6    2    1    2    0  503  0.58740125225E+02  0.11060728367E+01  0.19536429074E+04  0.19621024884E+04  0.17226125451E+03 0.  0.
        -24    2    3    3    0    0  0.30760240739E+01 -0.40830471488E+02  0.15362661709E+04  0.15389209717E+04  0.80544522357E+02 0.  0.
          6    2    1    2  501    0 -0.58740125225E+02 -0.11060728367E+01  0.22584110628E+04  0.22655045336E+04  0.16922953992E+03 0.  0.
         24    2    5    5    0    0 -0.16232699846E+02  0.61561309382E+02  0.11419408169E+04  0.11464594129E+04  0.79290988136E+02 0.  0.
          5    1    5    5  501    0 -0.42507425379E+02 -0.62667382219E+02  0.11164702460E+04  0.11190451207E+04  0.47000000000E+01 0. -1.
        -11    1    6    6    0    0 -0.15830920562E+02  0.10987121685E+02  0.53853738773E+02  0.57197552995E+02  0.00000000000E+00 0.  1.
         12    1    6    6    0    0 -0.40177928383E+00  0.50574187697E+02  0.10880870781E+04  0.10892618599E+04  0.00000000000E+00 0. -1.
         -5    1    3    3    0  503  0.55664101151E+02  0.41936544325E+02  0.41737673649E+03  0.42318151670E+03  0.47000000000E+01 0.  1.
         11    1    4    4    0    0  0.25993664818E+02 -0.45255898221E+00  0.18076625905E+03  0.18262616415E+03  0.00000000000E+00 0. -1.
        -12    1    4    4    0    0 -0.22917640744E+02 -0.40377912506E+02  0.13554999118E+04  0.13562948076E+04  0.00000000000E+00 0.  1.
</event>
<event>
12    1  0.1040325E-001  0.2015417E+03  0.7818608E-02  0.1148985E+00
         21   -1    0    0  503  502  0.00000000000E+00  0.00000000000E+00  0.58902718968E+02  0.58902718968E+02  0.00000000000E+00 0.  1.
         21   -1    0    0  501  503 -0.00000000000E+00 -0.00000000000E+00 -0.90005758967E+03  0.90005758967E+03  0.00000000000E+00 0.  1.
          6    2    1    2  501    0 -0.10495296153E+03 -0.13646906045E+02 -0.65516641771E+03  0.68471448803E+03  0.16849193764E+03 0.  0.
         24    2    3    3    0    0 -0.13551237042E+03 -0.87604282694E+01 -0.61080888406E+03  0.63042419490E+03  0.76855871765E+02 0.  0.
         -6    2    1    2    0  502  0.10495296153E+03  0.13646906045E+02 -0.18598845299E+03  0.27424582061E+03  0.17151589808E+03 0.  0.
        -24    2    5    5    0    0  0.10958395572E+03  0.25806657619E+02 -0.20721921432E+03  0.24890532156E+03  0.79620533717E+02 0.  0.
          5    1    3    3  501    0  0.30559408897E+02 -0.48864777759E+01 -0.44357533642E+02  0.54290293129E+02  0.47000000000E+01 0. -1.
        -13    1    4    4    0    0 -0.10501478657E+03 -0.10860925223E+02 -0.29845054201E+03  0.31657351614E+03  0.00000000000E+00 0.  1.
         14    1    4    4    0    0 -0.30497583852E+02  0.21004969541E+01 -0.31235834206E+03  0.31385067876E+03  0.00000000000E+00 0. -1.
         -5    1    5    5    0  502 -0.46309941938E+01 -0.12159751574E+02  0.21230761323E+02  0.25340499047E+02  0.47000000000E+01 0.  1.
         13    1    6    6    0    0  0.11506111564E+02 -0.17349752327E+02 -0.79547491600E+02  0.82226564618E+02  0.00000000000E+00 0. -1.
        -14    1    6    6    0    0  0.98077844155E+02  0.43156409946E+02 -0.12767172272E+03  0.16667875694E+03  0.00000000000E+00 0.  1.
</event>
<event>
12    1  0.1040325E-001  0.1846354E+03  0.7818608E-02  0.1163915E+00
         21   -1    0    0  503  502  0.00000000000E+00  0.00000000000E+00  0.13593895833E+03  0.13593895833E+03  0.00000000000E+00 0. -1.
         21   -1    0    0  501  503 -0.00000000000E+00 -0.00000000000E+00 -0.26449776019E+03  0.26449776019E+03  0.00000000000E+00 0. -1.
          6    2    1    2  501    0  0.27571078849E+00  0.64370993269E+02 -0.13557331396E+02  0.18291528989E+03  0.17067659843E+03 0.  0.
         24    2    3    3    0    0  0.25546979895E+02  0.85041386918E+02 -0.55430115052E+02  0.12961123538E+03  0.76432251129E+02 0.  0.
         -6    2    1    2    0  502 -0.27571078849E+00 -0.64370993269E+02 -0.11500147046E+03  0.21752142863E+03  0.17305066575E+03 0.  0.
        -24    2    5    5    0    0 -0.44228422251E+02  0.26844665904E+01 -0.10091050381E+03  0.13598051324E+03  0.79651807929E+02 0.  0.
          5    1    3    3  501    0 -0.25271269107E+02 -0.20670393648E+02  0.41872783656E+02  0.53304054508E+02  0.47000000000E+01 0. -1.
        -13    1    4    4    0    0 -0.14146536558E+01  0.10535594947E+02 -0.48974163810E+02  0.50114556037E+02  0.00000000000E+00 0.  1.
         14    1    4    4    0    0  0.26961633551E+02  0.74505791971E+02 -0.64559512419E+01  0.79496679348E+02  0.00000000000E+00 0. -1.
         -5    1    5    5    0  502  0.43952711463E+02 -0.67055459860E+02 -0.14090966653E+02  0.81540915393E+02  0.47000000000E+01 0.  1.
         11    1    6    6    0    0 -0.15455411782E+02 -0.18047869840E+02 -0.97498868543E+02  0.10035250234E+03  0.00000000000E+00 0. -1.
        -12    1    6    6    0    0 -0.28773010469E+02  0.20732336431E+02 -0.34116352654E+01  0.35628010898E+02  0.00000000000E+00 0.  1.
</event>
<event>
12    1  0.1040325E-001  0.1909344E+03  0.7818608E-02  0.1157661E+00
         21   -1    0    0  501  502  0.00000000000E+00  0.00000000000E+00  0.54615069637E+02  0.54615069637E+02  0.00000000000E+00 0.  1.
         21   -1    0    0  502  503 -0.00000000000E+00 -0.00000000000E+00 -0.10749429664E+04  0.10749429664E+04  0.00000000000E+00 0.  1.
         -6    2    1    2    0  503 -0.29726046109E+02  0.76301561716E+02 -0.85828104290E+03  0.87926235207E+03  0.17248295288E+03 0.  0.
        -24    2    3    3    0    0 -0.43371476086E+02  0.68518807112E+02 -0.31486133802E+03  0.33559532652E+03  0.83130314159E+02 0.  0.
          6    2    1    2  501    0  0.29726046109E+02 -0.76301561716E+02 -0.16204685390E+03  0.25029568400E+03  0.17228807397E+03 0.  0.
         24    2    5    5    0    0  0.86132222844E+02 -0.57345349783E+02 -0.10725668313E+03  0.16927070293E+03  0.80257870896E+02 0.  0.
          5    1    5    5  501    0 -0.56406176735E+02 -0.18956211933E+02 -0.54790170772E+02  0.81024981073E+02  0.47000000000E+01 0. -1.
        -13    1    6    6    0    0  0.19886406648E+02 -0.29025083210E+02  0.53503725369E+01  0.35588637386E+02  0.00000000000E+00 0.  1.
         14    1    6    6    0    0  0.66245816196E+02 -0.28320266573E+02 -0.11260705567E+03  0.13368206554E+03  0.00000000000E+00 0. -1.
         -5    1    3    3    0  503  0.13645429977E+02  0.77827546037E+01 -0.54341970488E+03  0.54366702556E+03  0.47000000000E+01 0.  1.
         13    1    4    4    0    0 -0.30606290807E+02 -0.11924742026E+02 -0.11956321878E+03  0.12399317640E+03  0.00000000000E+00 0. -1.
        -14    1    4    4    0    0 -0.12765185279E+02  0.80443549138E+02 -0.19529811924E+03  0.21160215012E+03  0.00000000000E+00 0.  1.
</event>
<event>
12    1  0.1040325E-001  0.2395851E+03  0.7818608E-02  0.1120121E+00
         21   -1    0    0  501  502  0.00000000000E+00  0.00000000000E+00  0.10536059512E+03  0.10536059512E+03  0.00000000000E+00 0. -1.
         21   -1    0    0  502  503 -0.00000000000E+00 -0.00000000000E+00 -0.66029862578E+03  0.66029862578E+03  0.00000000000E+00 0.  1.
         -6    2    1    2    0  503  0.16465877229E+03  0.19067192480E+02 -0.43821342161E+03  0.49943172352E+03  0.17298836510E+03 0.  0.
        -24    2    3    3    0    0  0.10284444500E+03 -0.43857363994E+02 -0.34365475377E+03  0.37003333663E+03  0.79533843024E+02 0.  0.
          6    2    1    2  501    0 -0.16465877229E+03 -0.19067192480E+02 -0.11672460905E+03  0.26622749738E+03  0.17255832893E+03 0.  0.
         24    2    5    5    0    0 -0.12308941013E+03  0.47029453654E+02 -0.42087548879E+02  0.15810923227E+03  0.76579338986E+02 0.  0.
          5    1    5    5  501    0 -0.41569362154E+02 -0.66096646134E+02 -0.74637060169E+02  0.10811826511E+03  0.47000000000E+01 0. -1.
        -11    1    6    6    0    0 -0.61965294939E+02  0.61950852631E+02 -0.36575138505E+02  0.94949179434E+02  0.00000000000E+00 0.  1.
         12    1    6    6    0    0 -0.61124115195E+02 -0.14921398977E+02 -0.55124103745E+01  0.63160052834E+02  0.00000000000E+00 0. -1.
         -5    1    3    3    0  503  0.61814327291E+02  0.62924556474E+02 -0.94558667837E+02  0.12939838689E+03  0.47000000000E+01 0.  1.
         13    1    4    4    0    0  0.47971917530E+02 -0.33295563964E+02 -0.72061328681E+02  0.92750927448E+02  0.00000000000E+00 0. -1.
        -14    1    4    4    0    0  0.54872527467E+02 -0.10561800030E+02 -0.27159342509E+03  0.27728240919E+03  0.00000000000E+00 0.  1.
</event>
<event>
12    1  0.1040325E-001  0.2498527E+03  0.7818608E-02  0.1113434E+00
         21   -1    0    0  503  502  0.00000000000E+00  0.00000000000E+00  0.82544614538E+03  0.82544614538E+03  0.00000000000E+00 0.  1.
         21   -1    0    0  501  503 -0.00000000000E+00 -0.00000000000E+00 -0.79721716212E+02  0.79721716212E+02  0.00000000000E+00 0.  1.
          6    2    1    2  501    0  0.10882024737E+03 -0.14599821254E+03  0.47645724020E+03  0.53799432147E+03  0.17108203847E+03 0.  0.
         24    2    3    3    0    0  0.71401859610E+02 -0.58610894706E+02  0.11964176724E+03  0.16870303968E+03  0.74920628627E+02 0.  0.
         -6    2    1    2    0  502 -0.10882024737E+03  0.14599821254E+03  0.26926718897E+03  0.36717354012E+03  0.17074620116E+03 0.  0.
        -24    2    5    5    0    0  0.11470431146E+02  0.64649538395E+02  0.77613031826E+02  0.12667227178E+03  0.75570815296E+02 0.  0.
          5    1    3    3  501    0  0.37418387760E+02 -0.87387317838E+02  0.35681547296E+03  0.36929128179E+03  0.47000000000E+01 0. -1.
        -13    1    4    4    0    0 -0.91489779209E+01 -0.32050679693E+02  0.25339731430E+02  0.41869462078E+02  0.00000000000E+00 0.  1.
         14    1    4    4    0    0  0.80550837531E+02 -0.26560215013E+02  0.94302035811E+02  0.12683357760E+03  0.00000000000E+00 0. -1.
         -5    1    5    5    0  502 -0.12029067852E+03  0.81348674149E+02  0.19165415714E+03  0.24050126834E+03  0.47000000000E+01 0.  1.
         13    1    6    6    0    0 -0.12756029905E+02 -0.15634138727E+01  0.48871907798E+02  0.50533394242E+02  0.00000000000E+00 0. -1.
        -14    1    6    6    0    0  0.24226461050E+02  0.66212952268E+02  0.28741124029E+02  0.76138877543E+02  0.00000000000E+00 0.  1.
</event>
<event>
12    1  0.1040325E-001  0.1899712E+03  0.7818608E-02  0.1159088E+00
         21   -1    0    0  503  502  0.00000000000E+00  0.00000000000E+00  0.26132310536E+03  0.26132310536E+03  0.00000000000E+00 0.  1.
         21   -1    0    0  501  503 -0.00000000000E+00 -0.00000000000E+00 -0.14112446628E+03  0.14112446628E+03  0.00000000000E+00 0. -1.
          6    2    1    2  501    0  0.58583741842E+01  0.80411288411E+02  0.22870721225E+02  0.19134291784E+03  0.17201379731E+03 0.  0.
         24    2    3    3    0    0  0.19111245026E+02 -0.16923320884E+02 -0.17926861265E+02  0.84871337176E+02  0.78931191825E+02 0.  0.
         -6    2    1    2    0  502 -0.58583741842E+01 -0.80411288411E+02  0.97327917858E+02  0.21110465381E+03  0.16909215065E+03 0.  0.
        -24    2    5    5    0    0  0.29398019530E+02  0.14413321808E+02  0.43020827523E+02  0.96186987360E+02  0.79556002531E+02 0.  0.
          5    1    3    3  501    0 -0.13252870842E+02  0.97334609295E+02  0.40797582489E+02  0.10647158066E+03  0.47000000000E+01 0. -1.
        -11    1    4    4    0    0  0.36495430229E+02  0.13232303162E+02 -0.28876071360E+02  0.48382205115E+02  0.00000000000E+00 0.  1.
         12    1    4    4    0    0 -0.17384185203E+02 -0.30155624047E+02  0.10949210095E+02  0.36489132061E+02  0.00000000000E+00 0. -1.
         -5    1    5    5    0  502 -0.35256393714E+02 -0.94824610219E+02  0.54307090334E+02  0.11491766645E+03  0.47000000000E+01 0.  1.
         13    1    6    6    0    0  0.16158845141E+01 -0.27218446274E+02 -0.39463866119E+01  0.27550478537E+02  0.00000000000E+00 0. -1.
        -14    1    6    6    0    0  0.27782135016E+02  0.41631768082E+02  0.46967214135E+02  0.68636508822E+02  0.00000000000E+00 0.  1.
</event>
<event>
12    1  0.1040325E-001  0.4193086E+03  0.7818608E-02  0.1037342E+00
         21   -1    0    0  503  502  0.00000000000E+00  0.00000000000E+00  0.18637592619E+03  0.18637592619E+03  0.00000000000E+00 0.  1.
         21   -1    0    0  501  503 -0.00000000000E+00 -0.00000000000E+00 -0.16957427175E+04  0.16957427175E+04  0.00000000000E+00 0. -1.
          6    2    1    2  501    0 -0.14669163296E+03 -0.35227731377E+03 -0.13824192572E+04  0.14446116118E+04  0.17378712570E+03 0.  0.
         24    2    3    3    0    0 -0.51619799383E+01 -0.17371351126E+03 -0.63075665227E+03  0.65915987170E+03  0.80216906224E+02 0.  0.
         -6    2    1    2    0  502  0.14669163296E+03  0.35227731377E+03 -0.12694753411E+03  0.43750703198E+03  0.17227589976E+03 0.  0.
        -24    2    5    5    0    0  0.33479162038E+02  0.22753904384E+03 -0.11330726230E+03  0.26843649471E+03  0.79528266925E+02 0.  0.
          5    1    3    3  501    0 -0.14152965302E+03 -0.17856380251E+03 -0.75166260497E+03  0.78545174006E+03  0.47000000000E+01 0. -1.
        -11    1    4    4    0    0 -0.14672101339E+02 -0.19290069452E+02 -0.19995780496E+03  0.20142120321E+03  0.00000000000E+00 0.  1.
         12    1    4    4    0    0  0.95101214005E+01 -0.15442344180E+03 -0.43079884731E+03  0.45773866849E+03  0.00000000000E+00 0. -1.
         -5    1    5    5    0  502  0.11321247092E+03  0.12473826992E+03 -0.13640271815E+02  0.16907053727E+03  0.47000000000E+01 0.  1.
         13    1    6    6    0    0  0.12617362672E+02  0.15469825263E+02 -0.37094261504E+02  0.42124785709E+02  0.00000000000E+00 0. -1.
        -14    1    6    6    0    0  0.20861799366E+02  0.21206921858E+03 -0.76213000794E+02  0.22631170900E+03  0.00000000000E+00 0.  1.
</event>
<event>
12    1  0.1040325E-001  0.2143810E+03  0.7818608E-02  0.1138781E+00
         21   -1    0    0  501  502  0.00000000000E+00  0.00000000000E+00  0.32990838582E+03  0.32990838582E+03  0.00000000000E+00 0. -1.
         21   -1    0    0  502  503 -0.00000000000E+00 -0.00000000000E+00 -0.14016106855E+03  0.14016106855E+03  0.00000000000E+00 0.  1.
         -6    2    1    2    0  503  0.19151424322E+02  0.12647448762E+03  0.59911295255E+02  0.21943701972E+03  0.16793054889E+03 0.  0.
        -24    2    3    3    0    0  0.23733748429E+02  0.47433829194E+02 -0.30165062041E+02  0.99419256354E+02  0.78492028891E+02 0.  0.
          6    2    1    2  501    0 -0.19151424322E+02 -0.12647448762E+03  0.12983602202E+03  0.25063243465E+03  0.17203677401E+03 0.  0.
         24    2    5    5    0    0  0.20680186314E+02 -0.12822903842E+03  0.48138350940E+02  0.15960367483E+03  0.79282253924E+02 0.  0.
          5    1    5    5  501    0 -0.39831610636E+02  0.17545507964E+01  0.81697671084E+02  0.91028759823E+02  0.47000000000E+01 0. -1.
        -13    1    6    6    0    0 -0.84900364276E+00 -0.10074647806E+03  0.76100299330E+00  0.10075292935E+03  0.00000000000E+00 0.  1.
         14    1    6    6    0    0  0.21529189957E+02 -0.27482560365E+02  0.47377347947E+02  0.58850745474E+02  0.00000000000E+00 0. -1.
         -5    1    3    3    0  503 -0.45823241063E+01  0.79040658430E+02  0.90076357296E+02  0.12001776336E+03  0.47000000000E+01 0.  1.
         11    1    4    4    0    0 -0.27698095971E+02  0.19057092182E+02 -0.52688448343E+00  0.33624914722E+02  0.00000000000E+00 0. -1.
        -12    1    4    4    0    0  0.51431844399E+02  0.28376737013E+02 -0.29638177558E+02  0.65794341632E+02  0.00000000000E+00 0.  1.
</event>
<event>
12    1  0.1040325E-001  0.2212623E+03  0.7818608E-02  0.1132996E+00
         21   -1    0    0  501  502  0.00000000000E+00  0.00000000000E+00  0.66546331803E+02  0.66546331803E+02  0.00000000000E+00 0.  1.
         21   -1    0    0  502  503 -0.00000000000E+00 -0.00000000000E+00 -0.73997955757E+03  0.73997955757E+03  0.00000000000E+00 0. -1.
         -6    2    1    2    0  503  0.13346476071E+03  0.39134219289E+02 -0.37030896351E+03  0.43123755752E+03  0.17173460072E+03 0.  0.
        -24    2    3    3    0    0  0.10496794219E+03  0.92035174107E+02 -0.27675649144E+03  0.31995083451E+03  0.79282020602E+02 0.  0.
          6    2    1    2  501    0 -0.13346476071E+03 -0.39134219289E+02 -0.30312426225E+03  0.37528833185E+03  0.17208336407E+03 0.  0.
         24    2    5    5    0    0 -0.13408742900E+03 -0.72880749546E+02 -0.29293989050E+03  0.33972110750E+03  0.79407865880E+02 0.  0.
          5    1    5    5  501    0  0.62266829174E+00  0.33746530257E+02 -0.10184371749E+02  0.35567224352E+02  0.47000000000E+01 0. -1.
        -11    1    6    6    0    0 -0.19563995954E+02 -0.47171446705E+02 -0.59320609557E+02  0.78274070037E+02  0.00000000000E+00 0.  1.
         12    1    6    6    0    0 -0.11452343305E+03 -0.25709302842E+02 -0.23361928094E+03  0.26144703746E+03  0.00000000000E+00 0. -1.
         -5    1    3    3    0  503  0.28496818519E+02 -0.52900954817E+02 -0.93552472074E+02  0.11128672301E+03  0.47000000000E+01 0.  1.
         13    1    4    4    0    0  0.41397003727E+02 -0.66172420482E+01 -0.56204119592E+02  0.70117065462E+02  0.00000000000E+00 0. -1.
        -14    1    4    4    0    0  0.63570938463E+02  0.98652416155E+02 -0.22055237185E+03  0.24983376905E+03  0.00000000000E+00 0.  1.
</event>
<event>
12    1  0.1040325E-001  0.1801797E+03  0.7818608E-02  0.1167918E+00
         21   -1    0    0  501  502  0.00000000000E+00  0.00000000000E+00  0.28941337882E+02  0.28941337882E+02  0.00000000000E+00 0. -1.
         21   -1    0    0  502  503 -0.00000000000E+00 -0.00000000000E+00 -0.14176931960E+04  0.14176931960E+04  0.00000000000E+00 0. -1.
         -6    2    1    2    0  503  0.45571300939E+02 -0.32670452750E+02 -0.10307744624E+04  0.10464037005E+04  0.17123262002E+03 0.  0.
        -24    2    3    3    0    0 -0.16840463119E+02 -0.49243792676E+02 -0.83039142804E+03  0.83582033377E+03  0.79606245142E+02 0.  0.
          6    2    1    2  501    0 -0.45571300939E+02  0.32670452750E+02 -0.35797739574E+03  0.40023083339E+03  0.16997882863E+03 0.  0.
         24    2    5    5    0    0 -0.78682522936E+02 -0.69504039873E+01 -0.30855801777E+03  0.32860311369E+03  0.80825172214E+02 0.  0.
          5    1    5    5  501    0  0.33111221997E+02  0.39620856738E+02 -0.49419377963E+02  0.71627719697E+02  0.47000000000E+01 0. -1.
        -11    1    6    6    0    0 -0.12902292434E+02  0.30584825402E+02 -0.13884414521E+03  0.14275712715E+03  0.00000000000E+00 0.  1.
         12    1    6    6    0    0 -0.65780230502E+02 -0.37535229389E+02 -0.16971387257E+03  0.18584598654E+03  0.00000000000E+00 0. -1.
         -5    1    3    3    0  503  0.62411764058E+02  0.16573339926E+02 -0.20038303432E+03  0.21058336670E+03  0.47000000000E+01 0.  1.
         13    1    4    4    0    0  0.11827616733E+02 -0.26875404647E+02 -0.69533005179E+03  0.69594975452E+03  0.00000000000E+00 0. -1.
        -14    1    4    4    0    0 -0.28668079852E+02 -0.22368388029E+02 -0.13506137624E+03  0.13987057924E+03  0.00000000000E+00 0.  1.
</event>
<event>
12    1  0.1040325E-001  0.1808688E+03  0.7818608E-02  0.1168426E+00
         21   -1    0    0  503  502  0.00000000000E+00  0.00000000000E+00  0.24383880864E+03  0.24383880864E+03  0.00000000000E+00 0. -1.
         21   -1    0    0  501  503 -0.00000000000E+00 -0.00000000000E+00 -0.13151166297E+03  0.13151166297E+03  0.00000000000E+00 0. -1.
          6    2    1    2  501    0  0.24178913617E+02 -0.34152927285E+02  0.33632461302E+02  0.17810347834E+03  0.16981950488E+03 0.  0.
         24    2    3    3    0    0  0.22909679106E+02 -0.43480068865E+02  0.86170556408E+02  0.12452225062E+03  0.75266568424E+02 0.  0.
         -6    2    1    2    0  502 -0.24178913617E+02  0.34152927285E+02  0.78694684366E+02  0.19724699328E+03  0.17596158872E+03 0.  0.
        -24    2    5    5    0    0 -0.45171570238E+02 -0.42663493273E+01 -0.15897767340E+02  0.92908340960E+02  0.79501876199E+02 0.  0.
          5    1    3    3  501    0  0.12692345109E+01  0.93271415800E+01 -0.52538095107E+02  0.53581227718E+02  0.47000000000E+01 0. -1.
        -11    1    4    4    0    0  0.42853317345E+02 -0.21763292366E+01  0.31909953389E+02  0.53473248842E+02  0.00000000000E+00 0.  1.
         12    1    4    4    0    0 -0.19943638240E+02 -0.41303739629E+02  0.54260603019E+02  0.71049001777E+02  0.00000000000E+00 0. -1.
         -5    1    5    5    0  502  0.20992656622E+02  0.38419276613E+02  0.94592451706E+02  0.10433865232E+03  0.47000000000E+01 0.  1.
         13    1    6    6    0    0  0.17330438931E+02  0.40865979492E+01  0.14446770172E+02  0.22929316709E+02  0.00000000000E+00 0. -1.
        -14    1    6    6    0    0 -0.62502009169E+02 -0.83529472766E+01 -0.30344537512E+02  0.69979024252E+02  0.00000000000E+00 0.  1.
</event>
<event>
12    1  0.1040325E-001  0.2184435E+03  0.7818608E-02  0.1135424E+00
         21   -1    0    0  501  502  0.00000000000E+00  0.00000000000E+00  0.37208674686E+03  0.37208674686E+03  0.00000000000E+00 0.  1.
         21   -1    0    0  502  503 -0.00000000000E+00 -0.00000000000E+00 -0.12709684748E+03  0.12709684748E+03  0.00000000000E+00 0. -1.
         -6    2    1    2    0  503  0.12730936397E+03  0.40218903164E+02  0.12581190482E+03  0.25208369346E+03  0.17289395243E+03 0.  0.
        -24    2    3    3    0    0  0.15174750072E+02  0.40282968720E+02  0.95662941039E+01  0.90499945052E+02  0.79029965601E+02 0.  0.
          6    2    1    2  501    0 -0.12730936397E+03 -0.40218903164E+02  0.11917799456E+03  0.24709990089E+03  0.17038113835E+03 0.  0.
         24    2    5    5    0    0 -0.12799184681E+03 -0.59937275766E+02  0.54139318529E+02  0.17897208439E+03  0.95527751479E+02 0.  0.
          5    1    5    5  501    0  0.68248284323E+00  0.19718372602E+02  0.65038676034E+02  0.68127816501E+02  0.47000000000E+01 0. -1.
        -11    1    6    6    0    0 -0.97289509934E+02 -0.46905954397E+02  0.81924269006E+02  0.13556180566E+03  0.00000000000E+00 0.  1.
         12    1    6    6    0    0 -0.30702336880E+02 -0.13031321369E+02 -0.27784950477E+02  0.43410278731E+02  0.00000000000E+00 0. -1.
         -5    1    3    3    0  503  0.11213461390E+03 -0.64065555957E-01  0.11624561071E+03  0.16158374840E+03  0.47000000000E+01 0.  1.
         13    1    4    4    0    0  0.14098590184E+02  0.64236570557E+02  0.40152203897E+01  0.65888005258E+02  0.00000000000E+00 0. -1.
        -14    1    4    4    0    0  0.10761598884E+01 -0.23953601837E+02  0.55510737142E+01  0.24611939794E+02  0.00000000000E+00 0.  1.
</event>
<event>
12    1  0.1040325E-001  0.2020774E+03  0.7818608E-02  0.1149702E+00
         21   -1    0    0  503  502  0.00000000000E+00  0.00000000000E+00  0.33299016740E+02  0.33299016740E+02  0.00000000000E+00 0.  1.
         21   -1    0    0  501  503 -0.00000000000E+00 -0.00000000000E+00 -0.13289684584E+04  0.13289684584E+04  0.00000000000E+00 0.  1.
          6    2    1    2  501    0 -0.86553595506E+02  0.50175631078E+02 -0.86561362023E+03  0.88710088925E+03  0.16628869272E+03 0.  0.
         24    2    3    3    0    0 -0.59468937990E+02  0.30126569091E+01 -0.77512357755E+03  0.78141994192E+03  0.79088143591E+02 0.  0.
         -6    2    1    2    0  502  0.86553595506E+02 -0.50175631078E+02 -0.43005582140E+03  0.47516658586E+03  0.17557379061E+03 0.  0.
        -24    2    5    5    0    0  0.91339632797E+02 -0.95410172061E+02 -0.34133590181E+03  0.37535484316E+03  0.83276833276E+02 0.  0.
          5    1    3    3  501    0 -0.27084657516E+02  0.47162974169E+02 -0.90490042676E+02  0.10568094733E+03  0.47000000000E+01 0. -1.
        -11    1    4    4    0    0 -0.44019903178E+02 -0.32544148060E+02 -0.57321584752E+03  0.57582400202E+03  0.00000000000E+00 0.  1.
         12    1    4    4    0    0 -0.15449034812E+02  0.35556804969E+02 -0.20190773003E+03  0.20559593990E+03  0.00000000000E+00 0. -1.
         -5    1    5    5    0  502 -0.47860372908E+01  0.45234540983E+02 -0.88719919583E+02  0.99811742705E+02  0.47000000000E+01 0.  1.
         13    1    6    6    0    0  0.14988165538E+01 -0.26059785909E+02 -0.15590670157E+02  0.30404405744E+02  0.00000000000E+00 0. -1.
        -14    1    6    6    0    0  0.89840816243E+02 -0.69350386152E+02 -0.32574523166E+03  0.34495043741E+03  0.00000000000E+00 0.  1.
</event>
<event>
12    1  0.1040325E-001  0.1812994E+03  0.7818608E-02  0.1167076E+00
         21   -1    0    0  503  502  0.00000000000E+00  0.00000000000E+00  0.93156745360E+03  0.93156745360E+03  0.00000000000E+00 0. -1.
         21   -1    0    0  501  503 -0.00000000000E+00 -0.00000000000E+00 -0.53689112204E+02  0.53689112204E+02  0.00000000000E+00 0. -1.
          6    2    1    2  501    0 -0.36230077384E+02  0.36344594368E+02  0.14550250554E+03  0.23077407981E+03  0.17161628346E+03 0.  0.
         24    2    3    3    0    0  0.43125287917E+02  0.38948299412E+02  0.10125791642E+03  0.13975909782E+03  0.76828896250E+02 0.  0.
         -6    2    1    2    0  502  0.36230077384E+02 -0.36344594368E+02  0.73237583586E+03  0.75448248599E+03  0.17388475687E+03 0.  0.
        -24    2    5    5    0    0 -0.30999142750E+02  0.46803327016E+01  0.54150650530E+03  0.54794918595E+03  0.77692745654E+02 0.  0.
          5    1    3    3  501    0 -0.79355365300E+02 -0.26037050436E+01  0.44244589111E+02  0.91014981995E+02  0.47000000000E+01 0. -1.
        -13    1    4    4    0    0 -0.19436497612E+02  0.25962541827E+02  0.33605474749E+02  0.46702879469E+02  0.00000000000E+00 0.  1.
         14    1    4    4    0    0  0.62561785529E+02  0.12985757585E+02  0.67652441676E+02  0.93056218348E+02  0.00000000000E+00 0. -1.
         -5    1    5    5    0  502  0.67229220134E+02 -0.41024927070E+02  0.19086933056E+03  0.20653330005E+03  0.47000000000E+01 0.  1.
         11    1    6    6    0    0 -0.34752770512E+02 -0.24314292916E+02  0.44739483691E+03  0.44940080106E+03  0.00000000000E+00 0. -1.
        -12    1    6    6    0    0  0.37536277621E+01  0.28994625617E+02  0.94111668388E+02  0.98548384882E+02  0.00000000000E+00 0.  1.
</event>
<event>
12    1  0.1040325E-001  0.2009511E+03  0.7818608E-02  0.1148957E+00
         21   -1    0    0  503  502  0.00000000000E+00  0.00000000000E+00  0.15313968080E+03  0.15313968080E+03  0.00000000000E+00 0. -1.
         21   -1    0    0  501  503 -0.00000000000E+00 -0.00000000000E+00 -0.74583739335E+03  0.74583739335E+03  0.00000000000E+00 0. -1.
          6    2    1    2  501    0 -0.91062200294E+02  0.49188203095E+02 -0.65776775323E+03  0.68775332220E+03  0.17214648227E+03 0.  0.
         24    2    3    3    0    0 -0.29390267296E+02  0.92661300531E+02 -0.40613164438E+03  0.42500599339E+03  0.78976435850E+02 0.  0.
         -6    2    1    2    0  502  0.91062200294E+02 -0.49188203095E+02  0.65070040684E+02  0.21122375194E+03  0.17224854003E+03 0.  0.
        -24    2    5    5    0    0  0.11280897385E+03 -0.58332453376E+02  0.92724926342E+02  0.17457102798E+03  0.75819470758E+02 0.  0.
          5    1    3    3  501    0 -0.61671932998E+02 -0.43473097435E+02 -0.25163610885E+03  0.26274732882E+03  0.47000000000E+01 0. -1.
        -11    1    4    4    0    0  0.24316608193E+01  0.36075277210E+02 -0.43295789279E+02  0.56408013344E+02  0.00000000000E+00 0.  1.
         12    1    4    4    0    0 -0.31821928115E+02  0.56586023320E+02 -0.36283585510E+03  0.36859798004E+03  0.00000000000E+00 0. -1.
         -5    1    5    5    0  502 -0.21746773553E+02  0.91442502807E+01 -0.27654885658E+02  0.36652723963E+02  0.47000000000E+01 0.  1.
         13    1    6    6    0    0  0.43861535868E+02  0.15843556304E+02  0.28736543440E+02  0.54778111814E+02  0.00000000000E+00 0. -1.
        -14    1    6    6    0    0  0.68947437979E+02 -0.74176009680E+02  0.63988382903E+02  0.11979291616E+03  0.00000000000E+00 0.  1.
</event>
<event>
12    1  0.1040325E-001  0.1872009E+03  0.7818608E-02  0.1161249E+00
         21   -1    0    0  501  502  0.00000000000E+00  0.00000000000E+00  0.28033306953E+02  0.28033306953E+02  0.00000000000E+00 0. -1.
         21   -1    0    0  502  503 -0.00000000000E+00 -0.00000000000E+00 -0.12451401503E+04  0.12451401503E+04  0.00000000000E+00 0. -1.
         -6    2    1    2    0  503  0.48350300958E+02 -0.53565896675E+02 -0.58163862170E+03  0.61070531474E+03  0.17161130007E+03 0.  0.
        -24    2    3    3    0    0 -0.22640333823E+02 -0.73913524953E+02 -0.32974485133E+03  0.34816720750E+03  0.80702809815E+02 0.  0.
          6    2    1    2  501    0 -0.48350300958E+02  0.53565896675E+02 -0.63546822169E+03  0.66246814256E+03  0.17273425321E+03 0.  0.
         24    2    5    5    0    0 -0.78489951606E+02  0.42498707558E+01 -0.52989420504E+03  0.54201719011E+03  0.82559263160E+02 0.  0.
          5    1    5    5  501    0  0.30139650649E+02  0.49316025919E+02 -0.10557401665E+03  0.12045095245E+03  0.47000000000E+01 0. -1.
        -11    1    6    6    0    0 -0.13581872000E+02  0.35464800147E+02 -0.12072233219E+03  0.12655473435E+03  0.00000000000E+00 0.  1.
         12    1    6    6    0    0 -0.64908079606E+02 -0.31214929391E+02 -0.40917187284E+03  0.41546245576E+03  0.00000000000E+00 0. -1.
         -5    1    3    3    0  503  0.70990634781E+02  0.20347628278E+02 -0.25189377037E+03  0.26253810724E+03  0.47000000000E+01 0.  1.
         13    1    4    4    0    0 -0.18580208416E+02  0.13445398118E+02 -0.48700470693E+02  0.53830648529E+02  0.00000000000E+00 0. -1.
        -14    1    4    4    0    0 -0.40601254068E+01 -0.87358923070E+02 -0.28104438064E+03  0.29433655897E+03  0.00000000000E+00 0.  1.
</event>
<event>
12    1  0.1040325E-001  0.1963543E+03  0.7818608E-02  0.1153429E+00
         21   -1    0    0  501  502  0.00000000000E+00  0.00000000000E+00  0.22847198870E+03  0.22847198870E+03  0.00000000000E+00 0. -1.
         21   -1    0    0  502  503 -0.00000000000E+00 -0.00000000000E+00 -0.20630286639E+03  0.20630286639E+03  0.00000000000E+00 0.  1.
         -6    2    1    2    0  503  0.30605390394E+02 -0.83915090415E+02 -0.84362120183E+02  0.21370999094E+03  0.17486154691E+03 0.  0.
        -24    2    3    3    0    0  0.25613177348E+02 -0.12720328562E+03 -0.49652828227E+02  0.15780279120E+03  0.74830520718E+02 0.  0.
          6    2    1    2  501    0 -0.30605390394E+02  0.83915090415E+02  0.10653124249E+03  0.22106486414E+03  0.17187884166E+03 0.  0.
         24    2    5    5    0    0  0.17491263960E+02  0.33204943760E+02 -0.55534620316E+01  0.88891197622E+02  0.80388378943E+02 0.  0.
          5    1    5    5  501    0 -0.48096654354E+02  0.50710146655E+02  0.11208470452E+03  0.13217366652E+03  0.47000000000E+01 0. -1.
        -11    1    6    6    0    0 -0.65153880689E+01  0.53620368605E+02 -0.14879216699E+02  0.56026648129E+02  0.00000000000E+00 0.  1.
         12    1    6    6    0    0  0.24006652029E+02 -0.20415424845E+02  0.93257546675E+01  0.32864549493E+02  0.00000000000E+00 0. -1.
         -5    1    3    3    0  503  0.49922130463E+01  0.43288195209E+02 -0.34709291956E+02  0.55907199748E+02  0.47000000000E+01 0.  1.
         11    1    4    4    0    0 -0.21167945671E+02 -0.82171432705E+02 -0.28202485024E+02  0.89418154971E+02  0.00000000000E+00 0. -1.
        -12    1    4    4    0    0  0.46781123019E+02 -0.45031852919E+02 -0.21450343203E+02  0.68384636226E+02  0.00000000000E+00 0.  1.
</event>
<event>
12    1  0.1040325E-001  0.2084413E+03  0.7818608E-02  0.1143709E+00
         21   -1    0    0  503  502  0.00000000000E+00  0.00000000000E+00  0.25080112568E+03  0.25080112568E+03  0.00000000000E+00 0. -1.
         21   -1    0    0  501  503 -0.00000000000E+00 -0.00000000000E+00 -0.32487795633E+03  0.32487795633E+03  0.00000000000E+00 0. -1.
          6    2    1    2  501    0  0.64831478584E+02  0.88372945030E+02 -0.23627238855E+03  0.31507524196E+03  0.17729881126E+03 0.  0.
         24    2    3    3    0    0 -0.25505004165E+02  0.46795983051E+02 -0.61821181757E+02  0.11421549628E+03  0.79893377754E+02 0.  0.
         -6    2    1    2    0  502 -0.64831478584E+02 -0.88372945030E+02  0.16219555789E+03  0.26060384005E+03  0.17202925455E+03 0.  0.
        -24    2    5    5    0    0 -0.10086411272E+01 -0.52291569071E+02  0.14719297703E+02  0.95841715792E+02  0.78952841673E+02 0.  0.
          5    1    3    3  501    0  0.90336482748E+02  0.41576961980E+02 -0.17445120679E+03  0.20085974568E+03  0.47000000000E+01 0. -1.
        -13    1    4    4    0    0 -0.36269276415E+02 -0.35943416428E+01 -0.49086268664E+02  0.61137889028E+02  0.00000000000E+00 0.  1.
         14    1    4    4    0    0  0.10764272251E+02  0.50390324694E+02 -0.12734913094E+02  0.53077607250E+02  0.00000000000E+00 0. -1.
         -5    1    5    5    0  502 -0.63822837457E+02 -0.36081375960E+02  0.14747626019E+03  0.16476212426E+03  0.47000000000E+01 0.  1.
         13    1    6    6    0    0  0.12093628467E+02 -0.33121320440E+01  0.38025821752E+02  0.40039845006E+02  0.00000000000E+00 0. -1.
        -14    1    6    6    0    0 -0.13102269594E+02 -0.48979437027E+02 -0.23306524049E+02  0.55801870786E+02  0.00000000000E+00 0.  1.
</event>
<event>
12    1  0.1040325E-001  0.2155317E+03  0.7818608E-02  0.1137567E+00
         21   -1    0    0  501  502  0.00000000000E+00  0.00000000000E+00  0.10550331424E+04  0.10550331424E+04  0.00000000000E+00 0.  1.
         21   -1    0    0  502  503 -0.00000000000E+00 -0.00000000000E+00 -0.44944621154E+02  0.44944621154E+02  0.00000000000E+00 0.  1.
         -6    2    1    2    0  503 -0.12821390685E+03 -0.19389268902E+02  0.41550516949E+03  0.46807954345E+03  0.17216028421E+03 0.  0.
        -24    2    3    3    0    0 -0.12738650657E+03  0.31109024143E+02  0.23612918462E+03  0.28166979010E+03  0.79911109293E+02 0.  0.
          6    2    1    2  501    0  0.12821390685E+03  0.19389268902E+02  0.59458335172E+03  0.63189822008E+03  0.17015066480E+03 0.  0.
         24    2    5    5    0    0  0.13466759827E+03 -0.46612708109E+01  0.31749714646E+03  0.35365563933E+03  0.78171502168E+02 0.  0.
          5    1    5    5  501    0 -0.64536914200E+01  0.24050539713E+02  0.27708620527E+03  0.27824258075E+03  0.47000000000E+01 0. -1.
        -11    1    6    6    0    0  0.10384719597E+03 -0.35787501221E+02  0.19868185592E+03  0.22702304999E+03  0.00000000000E+00 0.  1.
         12    1    6    6    0    0  0.30820402298E+02  0.31126230410E+02  0.11881529053E+03  0.12663258933E+03  0.00000000000E+00 0. -1.
         -5    1    3    3    0  503 -0.82740027444E+00 -0.50498293045E+02  0.17937598488E+03  0.18640975335E+03  0.47000000000E+01 0.  1.
         13    1    4    4    0    0  0.84068143529E+01  0.13369975055E+02  0.34345559759E+02  0.37802754340E+02  0.00000000000E+00 0. -1.
        -14    1    4    4    0    0 -0.13579332093E+03  0.17739049088E+02  0.20178362486E+03  0.24386703576E+03  0.00000000000E+00 0.  1.
</event>
<event>
12    1  0.1040325E-001  0.2001376E+03  0.7818608E-02  0.1149798E+00
         21   -1    0    0  501  502  0.00000000000E+00  0.00000000000E+00  0.28372146278E+03  0.28372146278E+03  0.00000000000E+00 0.  1.
         21   -1    0    0  502  503 -0.00000000000E+00 -0.00000000000E+00 -0.19247938917E+03  0.19247938917E+03  0.00000000000E+00 0.  1.
         -6    2    1    2    0  503  0.78675998863E+02  0.64745381718E+02 -0.78069865406E+02  0.21405282356E+03  0.17129457125E+03 0.  0.
        -24    2    3    3    0    0  0.38574768356E+02  0.81633299967E+02  0.40797726768E+01  0.12097240936E+03  0.80409395367E+02 0.  0.
          6    2    1    2  501    0 -0.78675998863E+02 -0.64745381718E+02  0.16931193902E+03  0.26214802839E+03  0.17225904575E+03 0.  0.
         24    2    5    5    0    0 -0.51241315105E+02 -0.11447443909E+02  0.16886678530E+02  0.98291743545E+02  0.81359637362E+02 0.  0.
          5    1    5    5  501    0 -0.27434683758E+02 -0.53297937809E+02  0.15242526049E+03  0.16385628485E+03  0.47000000000E+01 0. -1.
        -11    1    6    6    0    0  0.96568827388E+01 -0.85189343322E+01 -0.22346001358E+02  0.25790917066E+02  0.00000000000E+00 0.  1.
         12    1    6    6    0    0 -0.60898197844E+02 -0.29285095768E+01  0.39232679888E+02  0.72500826480E+02  0.00000000000E+00 0. -1.
         -5    1    3    3    0  503  0.40101230507E+02 -0.16887918249E+02 -0.82149638083E+02  0.93080414202E+02  0.47000000000E+01 0.  1.
         13    1    4    4    0    0  0.68541740038E+01 -0.93160230690E+01 -0.18705064688E+02  0.21991985633E+02  0.00000000000E+00 0. -1.
        -14    1    4    4    0    0  0.31720594352E+02  0.90949323036E+02  0.22784837365E+02  0.98980423724E+02  0.00000000000E+00 0.  1.
</event>
<event>
12    1  0.1040325E-001  0.1948992E+03  0.7818608E-02  0.1154143E+00
         21   -1    0    0  503  502  0.00000000000E+00  0.00000000000E+00  0.10647481275E+03  0.10647481275E+03  0.00000000000E+00 0. -1.
         21   -1    0    0  501  503 -0.00000000000E+00 -0.00000000000E+00 -0.38491838096E+03  0.38491838096E+03  0.00000000000E+00 0.  1.
          6    2    1    2  501    0  0.11318314383E+02 -0.89063118058E+02 -0.20599142710E+03  0.28358097028E+03  0.17298946624E+03 0.  0.
         24    2    3    3    0    0 -0.20886416397E+02 -0.12447260829E+03 -0.14027546285E+03  0.20214599843E+03  0.72499148965E+02 0.  0.
         -6    2    1    2    0  502 -0.11318314383E+02  0.89063118058E+02 -0.72452141108E+02  0.20781222342E+03  0.17284751723E+03 0.  0.
        -24    2    5    5    0    0 -0.66612790195E+01  0.13402740628E+03 -0.33568747353E+02  0.14800015521E+03  0.52625724405E+02 0.  0.
          5    1    3    3  501    0  0.32204730780E+02  0.35409490229E+02 -0.65715964250E+02  0.81434971849E+02  0.47000000000E+01 0. -1.
        -11    1    4    4    0    0  0.17816639278E+02 -0.77100834683E+02 -0.10517267870E+03  0.13161786994E+03  0.00000000000E+00 0.  1.
         12    1    4    4    0    0 -0.38703055674E+02 -0.47371773605E+02 -0.35102784155E+02  0.70528128491E+02  0.00000000000E+00 0. -1.
         -5    1    5    5    0  502 -0.46570353631E+01 -0.44964288226E+02 -0.38883393755E+02  0.59812068213E+02  0.47000000000E+01 0.  1.
         11    1    6    6    0    0 -0.88245496243E+01  0.66525469349E+02  0.96798001767E+01  0.67802723246E+02  0.00000000000E+00 0. -1.
        -12    1    6    6    0    0  0.21632706048E+01  0.67501936936E+02 -0.43248547530E+02  0.80197431962E+02  0.00000000000E+00 0.  1.
</event>
<event>
12    1  0.1040325E-001  0.1908845E+03  0.7818608E-02  0.1158193E+00
         21   -1    0    0  501  502  0.00000000000E+00  0.00000000000E+00  0.44000010555E+02  0.44000010555E+02  0.00000000000E+00 0.  1.
         21   -1    0    0  502  503 -0.00000000000E+00 -0.00000000000E+00 -0.81881337362E+03  0.81881337362E+03  0.00000000000E+00 0. -1.
         -6    2    1    2    0  503  0.22780492553E+02  0.79418839530E+02 -0.39856714408E+03  0.44091515849E+03  0.16948187436E+03 0.  0.
        -24    2    3    3    0    0  0.21063783866E+02  0.79017859143E+02 -0.41133005094E+03  0.42720057991E+03  0.81365961026E+02 0.  0.
          6    2    1    2  501    0 -0.22780492553E+02 -0.79418839530E+02 -0.37624621898E+03  0.42189822568E+03  0.17207728676E+03 0.  0.
         24    2    5    5    0    0  0.48461620326E+02 -0.48230907962E+02 -0.27360750748E+03  0.29303814334E+03  0.79596081388E+02 0.  0.
          5    1    5    5  501    0 -0.71242112879E+02 -0.31187931568E+02 -0.10263871150E+03  0.12886008235E+03  0.47000000000E+01 0. -1.
        -11    1    6    6    0    0 -0.57235237305E+01 -0.11630890517E+02 -0.13435391251E+01  0.13032322721E+02  0.00000000000E+00 0.  1.
         12    1    6    6    0    0  0.54185144057E+02 -0.36600017445E+02 -0.27226396836E+03  0.28000582061E+03  0.00000000000E+00 0. -1.
         -5    1    3    3    0  503  0.17167086866E+01  0.40098038699E+00  0.12762906865E+02  0.13714578580E+02  0.47000000000E+01 0.  1.
         11    1    4    4    0    0  0.43202281519E+02  0.81814035843E+02 -0.34641734026E+03  0.35855954487E+03  0.00000000000E+00 0. -1.
        -12    1    4    4    0    0 -0.22138497652E+02 -0.27961766999E+01 -0.64912710683E+02  0.68641035034E+02  0.00000000000E+00 0.  1.
</event>
<event>
12    1  0.1040325E-001  0.1740679E+03  0.7818608E-02  0.1174018E+00
         21   -1    0    0  501  502  0.00000000000E+00  0.00000000000E+00  0.35242447825E+03  0.35242447825E+03  0.00000000000E+00 0.  1.
         21   -1    0    0  502  503 -0.00000000000E+00 -0.00000000000E+00 -0.49456607501E+03  0.49456607501E+03  0.00000000000E+00 0.  1.
         -6    2    1    2    0  503 -0.31400322798E+01 -0.17754518034E+01 -0.45626900412E+03  0.48785871887E+03  0.17266068872E+03 0.  0.
        -24    2    3    3    0    0 -0.63574479308E+01  0.59486338947E+02 -0.19213075611E+03  0.21664945865E+03  0.80272777604E+02 0.  0.
          6    2    1    2  501    0  0.31400322798E+01  0.17754518034E+01  0.31412740736E+03  0.35913183439E+03  0.17403055589E+03 0.  0.
         24    2    5    5    0    0  0.27030388991E+02  0.57136441970E+02  0.13059016313E+03  0.16588691622E+03  0.80432974193E+02 0.  0.
          5    1    5    5  501    0 -0.23890356711E+02 -0.55360990166E+02  0.18353724423E+03  0.19324491817E+03  0.47000000000E+01 0. -1.
        -13    1    6    6    0    0  0.54866942911E+02  0.34086583999E+02  0.69305057278E+02  0.94738944460E+02  0.00000000000E+00 0.  1.
         14    1    6    6    0    0 -0.27836553920E+02  0.23049857971E+02  0.61285105853E+02  0.71147971763E+02  0.00000000000E+00 0. -1.
         -5    1    3    3    0  503  0.32174156510E+01 -0.61261790750E+02 -0.26413824801E+03  0.27120926022E+03  0.47000000000E+01 0.  1.
         11    1    4    4    0    0  0.36643626849E+02  0.20528603430E+02 -0.85174226992E+02  0.94967509661E+02  0.00000000000E+00 0. -1.
        -12    1    4    4    0    0 -0.43001074780E+02  0.38957735517E+02 -0.10695652912E+03  0.12168194899E+03  0.00000000000E+00 0.  1.
</event>
<event>
12    1  0.1040325E-001  0.2079847E+03  0.7818608E-02  0.1143431E+00
         21   -1    0    0  503  502  0.00000000000E+00  0.00000000000E+00  0.19952699986E+03  0.19952699986E+03  0.00000000000E+00 0.  1.
         21   -1    0    0  501  503 -0.00000000000E+00 -0.00000000000E+00 -0.13685784067E+04  0.13685784067E+04  0.00000000000E+00 0.  1.
          6    2    1    2  501    0 -0.11005876279E+03  0.38731854678E+02 -0.13045032659E+04  0.13209793343E+04  0.17217590755E+03 0.  0.
         24    2    3    3    0    0 -0.65135528209E+02  0.81682538527E+02 -0.62834010638E+03  0.64194946272E+03  0.79832006488E+02 0.  0.
         -6    2    1    2    0  502  0.11005876279E+03 -0.38731854678E+02  0.13545185905E+03  0.24712607225E+03  0.17061946439E+03 0.  0.
        -24    2    5    5    0    0  0.10737295896E+02  0.16666423396E+02  0.19359155045E+02  0.84542773833E+02  0.79872677001E+02 0.  0.
          5    1    3    3  501    0 -0.44923234579E+02 -0.42950683849E+02 -0.67616315953E+03  0.67902987162E+03  0.47000000000E+01 0. -1.
        -13    1    4    4    0    0 -0.46770589815E+02  0.29654573216E+02 -0.48833135359E+03  0.49146148647E+03  0.00000000000E+00 0.  1.
         14    1    4    4    0    0 -0.18364938394E+02  0.52027965312E+02 -0.14000875279E+03  0.15048797625E+03  0.00000000000E+00 0. -1.
         -5    1    5    5    0  502  0.99321466892E+02 -0.55398278075E+02  0.11609270401E+03  0.16258329841E+03  0.47000000000E+01 0.  1.
         11    1    6    6    0    0  0.43780816688E+02 -0.14379531116E+01  0.44792419664E+01  0.44032842602E+02  0.00000000000E+00 0. -1.
        -12    1    6    6    0    0 -0.33043520792E+02  0.18104376508E+02  0.14879913079E+02  0.40509931231E+02  0.00000000000E+00 0.  1.
</event>
<event>
12    1  0.1040325E-001  0.3789388E+03  0.7818608E-02  0.1051356E+00
         21   -1    0    0  503  502  0.00000000000E+00  0.00000000000E+00  0.46959419473E+03  0.46959419473E+03  0.00000000000E+00 0. -1.
         21   -1    0    0  501  503 -0.00000000000E+00 -0.00000000000E+00 -0.48878083867E+03  0.48878083867E+03  0.00000000000E+00 0. -1.
          6    2    1    2  501    0  0.11786935351E+03 -0.31603564534E+03 -0.30299895054E+03  0.48493652200E+03  0.17199811836E+03 0.  0.
         24    2    3    3    0    0  0.28452168842E+02 -0.58429602396E+02 -0.11535612793E+03  0.15389539895E+03  0.78442419760E+02 0.  0.
         -6    2    1    2    0  502 -0.11786935351E+03  0.31603564534E+03  0.28381230661E+03  0.47343851140E+03  0.17269303713E+03 0.  0.
        -24    2    5    5    0    0 -0.79730740224E+02  0.28883725355E+03  0.28733944125E+03  0.42622795095E+03  0.96552377979E+02 0.  0.
          5    1    3    3  501    0  0.89417184667E+02 -0.25760604294E+03 -0.18764282261E+03  0.33104112305E+03  0.47000000000E+01 0. -1.
        -13    1    4    4    0    0 -0.23454767758E+02 -0.37872625734E+02 -0.64414194399E+02  0.78317624776E+02  0.00000000000E+00 0.  1.
         14    1    4    4    0    0  0.51906936599E+02 -0.20556976662E+02 -0.50941933533E+02  0.75577774171E+02  0.00000000000E+00 0. -1.
         -5    1    5    5    0  502 -0.38138613284E+02  0.27198391788E+02 -0.35271346481E+01  0.47210560449E+02  0.47000000000E+01 0.  1.
         13    1    6    6    0    0 -0.74969114687E+02  0.12487057218E+03  0.97167847586E+02  0.17508460400E+03  0.00000000000E+00 0. -1.
        -14    1    6    6    0    0 -0.47616255364E+01  0.16396668138E+03  0.19017159367E+03  0.25114334695E+03  0.00000000000E+00 0.  1.
</event>
<event>
12    1  0.1040325E-001  0.1881485E+03  0.7818608E-02  0.1161058E+00
         21   -1    0    0  503  502  0.00000000000E+00  0.00000000000E+00  0.37186609116E+03  0.37186609116E+03  0.00000000000E+00 0.  1.
         21   -1    0    0  501  503 -0.00000000000E+00 -0.00000000000E+00 -0.94095256881E+02  0.94095256881E+02  0.00000000000E+00 0.  1.
          6    2    1    2  501    0 -0.32180969963E+02 -0.58113591120E+02  0.16307370512E+03  0.24898371952E+03  0.17603140339E+03 0.  0.
         24    2    3    3    0    0 -0.41880105948E+02 -0.54283938613E+02  0.19140399917E+03  0.21843155040E+03  0.79850873790E+02 0.  0.
         -6    2    1    2    0  502  0.32180969963E+02  0.58113591120E+02  0.11469712915E+03  0.21697762852E+03  0.17178782129E+03 0.  0.
        -24    2    5    5    0    0  0.12294465621E+02 -0.16868209841E+02  0.11376640879E+03  0.13925568972E+03  0.77547797932E+02 0.  0.
          5    1    3    3  501    0  0.96991359846E+01 -0.38296525063E+01 -0.28330294046E+02  0.30552169119E+02  0.47000000000E+01 0. -1.
        -13    1    4    4    0    0 -0.77744994479E+01 -0.62014632052E+02  0.79119868048E+02  0.10082762989E+03  0.00000000000E+00 0.  1.
         14    1    4    4    0    0 -0.34105606500E+02  0.77306934385E+01  0.11228413112E+03  0.11760392050E+03  0.00000000000E+00 0. -1.
         -5    1    5    5    0  502  0.19886504342E+02  0.74981800961E+02  0.93072036552E+00  0.77721938799E+02  0.47000000000E+01 0.  1.
         13    1    6    6    0    0  0.24915245664E+02 -0.43688501883E+02  0.77919235540E+02  0.92740832056E+02  0.00000000000E+00 0. -1.
        -14    1    6    6    0    0 -0.12620780043E+02  0.26820292042E+02  0.35847173245E+02  0.46514857667E+02  0.00000000000E+00 0.  1.
</event>
<event>
12    1  0.1040325E-001  0.1781043E+03  0.7818608E-02  0.1170092E+00
         21   -1    0    0  503  502  0.00000000000E+00  0.00000000000E+00  0.92555834426E+02  0.92555834426E+02  0.00000000000E+00 0.  1.
         21   -1    0    0  501  503 -0.00000000000E+00 -0.00000000000E+00 -0.35156432703E+03  0.35156432703E+03  0.00000000000E+00 0.  1.
          6    2    1    2  501    0 -0.12396068096E+02  0.44196096397E+02 -0.17036479008E+03  0.24517579821E+03  0.17023528684E+03 0.  0.
         24    2    3    3    0    0 -0.67678282780E+02  0.39582408387E+02 -0.68284822959E+02  0.12890104143E+03  0.76194123266E+02 0.  0.
         -6    2    1    2    0  502  0.12396068096E+02 -0.44196096397E+02 -0.88643702520E+02  0.19894436324E+03  0.17208775735E+03 0.  0.
        -24    2    5    5    0    0  0.18457110079E+02  0.34231767634E+02  0.43427816398E+01  0.77058177305E+02  0.66382408132E+02 0.  0.
          5    1    3    3  501    0  0.55282214684E+02  0.46136880109E+01 -0.10207996713E+03  0.11627475679E+03  0.47000000000E+01 0. -1.
        -11    1    4    4    0    0  0.13628844347E+02  0.21713942720E+02 -0.21156354195E+02  0.33239013666E+02  0.00000000000E+00 0.  1.
         12    1    4    4    0    0 -0.81307127127E+02  0.17868465667E+02 -0.47128468764E+02  0.95662027759E+02  0.00000000000E+00 0. -1.
         -5    1    5    5    0  502 -0.60610419831E+01 -0.78427864032E+02 -0.92986484160E+02  0.12188618594E+03  0.47000000000E+01 0.  1.
         13    1    6    6    0    0 -0.11140538979E+02  0.43694985343E+02 -0.27805554788E+01  0.45178477638E+02  0.00000000000E+00 0. -1.
        -14    1    6    6    0    0  0.29597649058E+02 -0.94632177090E+01  0.71233371186E+01  0.31879699667E+02  0.00000000000E+00 0.  1.
</event>
<event>
12    1  0.1040325E-001  0.2171045E+03  0.7818608E-02  0.1137498E+00
         21   -1    0    0  501  502  0.00000000000E+00  0.00000000000E+00  0.50087383907E+02  0.50087383907E+02  0.00000000000E+00 0. -1.
         21   -1    0    0  502  503 -0.00000000000E+00 -0.00000000000E+00 -0.14732420424E+04  0.14732420424E+04  0.00000000000E+00 0. -1.
         -6    2    1    2    0  503 -0.86773778048E+02  0.98211884291E+02 -0.11752172175E+04  0.11937731303E+04  0.16365670087E+03 0.  0.
        -24    2    3    3    0    0 -0.59166818776E+02 -0.54862446547E+01 -0.50561118371E+03  0.51560664888E+03  0.81711296346E+02 0.  0.
          6    2    1    2  501    0  0.86773778048E+02 -0.98211884291E+02 -0.24793744102E+03  0.32955629596E+03  0.17308701502E+03 0.  0.
         24    2    5    5    0    0 -0.33599798490E+02 -0.30228600080E+02 -0.74913717911E+02  0.10803694326E+03  0.63381395185E+02 0.  0.
          5    1    5    5  501    0  0.12037357654E+03 -0.67983284211E+02 -0.17302372311E+03  0.22151935270E+03  0.47000000000E+01 0. -1.
        -13    1    6    6    0    0 -0.17394299246E+01  0.16277633943E+02 -0.29696523519E+01  0.16637482332E+02  0.00000000000E+00 0.  1.
         14    1    6    6    0    0 -0.31860368565E+02 -0.46506234023E+02 -0.71944065559E+02  0.91399460925E+02  0.00000000000E+00 0. -1.
         -5    1    3    3    0  503 -0.27606959272E+02  0.10369812895E+03 -0.66960603375E+03  0.67816648146E+03  0.47000000000E+01 0.  1.
         13    1    4    4    0    0  0.12767271200E+02  0.88098707748E+01 -0.22617141898E+03  0.22670273002E+03  0.00000000000E+00 0. -1.
        -14    1    4    4    0    0 -0.71934089976E+02 -0.14296115430E+02 -0.27943976474E+03  0.28890391886E+03  0.00000000000E+00 0.  1.
</event>
<event>
12    1  0.1040325E-001  0.2739010E+03  0.7818608E-02  0.1099113E+00
         21   -1    0    0  503  502  0.00000000000E+00  0.00000000000E+00  0.99663907711E+02  0.99663907711E+02  0.00000000000E+00 0.  1.
         21   -1    0    0  501  503 -0.00000000000E+00 -0.00000000000E+00 -0.85274491779E+03  0.85274491779E+03  0.00000000000E+00 0. -1.
          6    2    1    2  501    0 -0.20100092403E+03  0.72397877434E+02 -0.21255441832E+03  0.34644614403E+03  0.17088805064E+03 0.  0.
         24    2    3    3    0    0 -0.20202626808E+03  0.17923970161E+02 -0.18804508050E+03  0.28651905880E+03  0.74808669659E+02 0.  0.
         -6    2    1    2    0  502  0.20100092403E+03 -0.72397877434E+02 -0.54052659176E+03  0.60596268146E+03  0.17140289032E+03 0.  0.
        -24    2    5    5    0    0  0.12010279874E+03 -0.11303595372E+03 -0.36331826787E+03  0.40691283852E+03  0.79850393152E+02 0.  0.
          5    1    3    3  501    0  0.10253440457E+01  0.54473907273E+02 -0.24509337816E+02  0.59927085230E+02  0.47000000000E+01 0. -1.
        -11    1    4    4    0    0 -0.35726494760E+02 -0.23607654703E+02 -0.23177965035E+02  0.48692112827E+02  0.00000000000E+00 0.  1.
         12    1    4    4    0    0 -0.16629977332E+03  0.41531624864E+02 -0.16486711547E+03  0.23782694598E+03  0.00000000000E+00 0. -1.
         -5    1    5    5    0  502  0.80898125294E+02  0.40638076284E+02 -0.17720832389E+03  0.19904984295E+03  0.47000000000E+01 0.  1.
         11    1    6    6    0    0  0.11606665557E+03 -0.10829211992E+03 -0.36687183288E+03  0.39974190865E+03  0.00000000000E+00 0. -1.
        -12    1    6    6    0    0  0.40361431679E+01 -0.47438337976E+01  0.35535650158E+01  0.71709298625E+01  0.00000000000E+00 0.  1.
</event>
<event>
12    1  0.1040325E-001  0.1952527E+03  0.7818608E-02  0.1154107E+00
         21   -1    0    0  501  502  0.00000000000E+00  0.00000000000E+00  0.17084800360E+03  0.17084800360E+03  0.00000000000E+00 0.  1.
         21   -1    0    0  502  503 -0.00000000000E+00 -0.00000000000E+00 -0.32397845340E+03  0.32397845340E+03  0.00000000000E+00 0.  1.
         -6    2    1    2    0  503  0.29204653813E+02 -0.88313245388E+02 -0.21584507125E+03  0.29105447510E+03  0.17167257083E+03 0.  0.
        -24    2    3    3    0    0  0.55636372181E+02 -0.11676939298E+01 -0.75981088665E+02  0.12409038764E+03  0.80799313440E+02 0.  0.
          6    2    1    2  501    0 -0.29204653813E+02  0.88313245388E+02  0.62714621454E+02  0.20377198190E+03  0.17011101007E+03 0.  0.
         24    2    5    5    0    0 -0.83126039936E+02  0.63131790232E+02  0.25503773908E+02  0.13342741039E+03  0.79100378673E+02 0.  0.
          5    1    5    5  501    0  0.53921386123E+02  0.25181455156E+02  0.37210847546E+02  0.70344571506E+02  0.47000000000E+01 0. -1.
        -11    1    6    6    0    0 -0.12475109529E+02  0.35518779985E+02  0.41365579647E+02  0.55931415760E+02  0.00000000000E+00 0.  1.
         12    1    6    6    0    0 -0.70650930407E+02  0.27613010247E+02 -0.15861805739E+02  0.77495994630E+02  0.00000000000E+00 0. -1.
         -5    1    3    3    0  503 -0.26431718368E+02 -0.87145551458E+02 -0.13986398259E+03  0.16696408745E+03  0.47000000000E+01 0.  1.
         11    1    4    4    0    0 -0.11914684598E+02 -0.15493697879E+02  0.23287614902E+01  0.19683432452E+02  0.00000000000E+00 0. -1.
        -12    1    4    4    0    0  0.67551056779E+02  0.14326003949E+02 -0.78309850156E+02  0.10440695519E+03  0.00000000000E+00 0.  1.
</event>
<event>
12    1  0.1040325E-001  0.2157077E+03  0.7818608E-02  0.1138002E+00
         21   -1    0    0  501  502  0.00000000000E+00  0.00000000000E+00  0.17021527308E+02  0.17021527308E+02  0.00000000000E+00 0. -1.
         21   -1    0    0  502  503 -0.00000000000E+00 -0.00000000000E+00 -0.27464518991E+04  0.27464518991E+04  0.00000000000E+00 0.  1.
         -6    2    1    2    0  503 -0.11303045651E+03 -0.66988687429E+02 -0.15995660718E+04  0.16140450540E+04  0.17107439945E+03 0.  0.
        -24    2    3    3    0    0 -0.10162085097E+03  0.61410511629E+01 -0.61294628768E+03  0.62464178633E+03  0.64106940345E+02 0.  0.
          6    2    1    2  501    0  0.11303045651E+03  0.66988687429E+02 -0.11298643000E+04  0.11494283724E+04  0.16531448338E+03 0.  0.
         24    2    5    5    0    0  0.79427857998E+02  0.75579243645E+02 -0.10799012718E+04  0.10884256964E+04  0.80391126011E+02 0.  0.
          5    1    5    5  501    0  0.33602598515E+02 -0.85905562167E+01 -0.49963028269E+02  0.61002675981E+02  0.47000000000E+01 0. -1.
        -13    1    6    6    0    0  0.26870043231E+02  0.59604053965E+02 -0.32398706965E+03  0.33051817465E+03  0.00000000000E+00 0.  1.
         14    1    6    6    0    0  0.52557814767E+02  0.15975189681E+02 -0.75591420211E+03  0.75790752175E+03  0.00000000000E+00 0. -1.
         -5    1    3    3    0  503 -0.11409605548E+02 -0.73129738591E+02 -0.98661978409E+03  0.98940326769E+03  0.47000000000E+01 0.  1.
         11    1    4    4    0    0 -0.26915040720E+02  0.21544200889E+02 -0.32283061331E+03  0.32466625464E+03  0.00000000000E+00 0. -1.
        -12    1    4    4    0    0 -0.74705810245E+02 -0.15403149726E+02 -0.29011567436E+03  0.29997553170E+03  0.00000000000E+00 0.  1.
</event>
<event>
12    1  0.1040325E-001  0.2628760E+03  0.7818608E-02  0.1105517E+00
         21   -1    0    0  501  502  0.00000000000E+00  0.00000000000E+00  0.89284538166E+03  0.89284538166E+03  0.00000000000E+00 0.  1.
         21   -1    0    0  502  503 -0.00000000000E+00 -0.00000000000E+00 -0.10489623451E+03  0.10489623451E+03  0.00000000000E+00 0. -1.
         -6    2    1    2    0  503 -0.67961908989E+02  0.18620016961E+03  0.13739574197E+03  0.29608392348E+03  0.17175207595E+03 0.  0.
        -24    2    3    3    0    0 -0.52013236736E+02  0.99907917417E+02  0.59954554476E+01  0.13800534102E+03  0.79514526373E+02 0.  0.
          6    2    1    2  501    0  0.67961908989E+02 -0.18620016961E+03  0.65055340517E+03  0.70165769269E+03  0.17266864364E+03 0.  0.
         24    2    5    5    0    0 -0.27575470034E+02 -0.80343357847E+02  0.36865531580E+03  0.38571200404E+03  0.75176768312E+02 0.  0.
          5    1    5    5  501    0  0.95537379023E+02 -0.10585681176E+03  0.28189808937E+03  0.31594568865E+03  0.47000000000E+01 0. -1.
        -13    1    6    6    0    0 -0.46440495309E+02 -0.21627399637E+02  0.18600054658E+03  0.19292658538E+03  0.00000000000E+00 0.  1.
         14    1    6    6    0    0  0.18865025275E+02 -0.58715958211E+02  0.18265476922E+03  0.19278541866E+03  0.00000000000E+00 0. -1.
         -5    1    3    3    0  503 -0.15948672253E+02  0.86292252193E+02  0.13140028652E+03  0.15807858246E+03  0.47000000000E+01 0.  1.
         11    1    4    4    0    0 -0.36832167323E+02  0.29357798087E+02  0.36569704390E+02  0.59630798564E+02  0.00000000000E+00 0. -1.
        -12    1    4    4    0    0 -0.15181069413E+02  0.70550119330E+02 -0.30574248942E+02  0.78374542451E+02  0.00000000000E+00 0.  1.
</event>
<event>
12    1  0.1040325E-001  0.1842703E+03  0.7818608E-02  0.1164491E+00
         21   -1    0    0  501  502  0.00000000000E+00  0.00000000000E+00  0.51003010494E+02  0.51003010494E+02  0.00000000000E+00 0.  1.
         21   -1    0    0  502  503 -0.00000000000E+00 -0.00000000000E+00 -0.14585816001E+04  0.14585816001E+04  0.00000000000E+00 0.  1.
         -6    2    1    2    0  503 -0.39092718786E+02  0.12527969169E+02 -0.12615219009E+04  0.12744503992E+04  0.17635510401E+03 0.  0.
        -24    2    3    3    0    0 -0.46273749896E+02  0.66580287660E+02 -0.58550094952E+03  0.59621766839E+03  0.78038141784E+02 0.  0.
          6    2    1    2  501    0  0.39092718786E+02 -0.12527969169E+02 -0.14605668866E+03  0.23513421142E+03  0.17963950124E+03 0.  0.
         24    2    5    5    0    0  0.61158523206E+02 -0.64140716088E+02 -0.12704736242E+03  0.17568490652E+03  0.82884001228E+02 0.  0.
          5    1    5    5  501    0 -0.22065804419E+02  0.51612746919E+02 -0.19009326235E+02  0.59449304900E+02  0.47000000000E+01 0. -1.
        -13    1    6    6    0    0  0.79318684585E+02 -0.49277106198E+02 -0.79402810050E+02  0.12257443927E+03  0.00000000000E+00 0.  1.
         14    1    6    6    0    0 -0.18160161380E+02 -0.14863609890E+02 -0.47644552371E+02  0.53110467245E+02  0.00000000000E+00 0. -1.
         -5    1    3    3    0  503  0.71810311095E+01 -0.54052318491E+02 -0.67602095142E+03  0.67823273078E+03  0.47000000000E+01 0.  1.
         11    1    4    4    0    0 -0.32040594228E+02 -0.10076349183E+02 -0.21439395173E+03  0.21700898375E+03  0.00000000000E+00 0. -1.
        -12    1    4    4    0    0 -0.14233155668E+02  0.76656636843E+02 -0.37110699780E+03  0.37920868464E+03  0.00000000000E+00 0.  1.
</event>
<event>
12    1  0.1040325E-001  0.1841950E+03  0.7818608E-02  0.1163906E+00
         21   -1    0    0  503  502  0.00000000000E+00  0.00000000000E+00  0.21690403370E+03  0.21690403370E+03  0.00000000000E+00 0. -1.
         21   -1    0    0  501  503 -0.00000000000E+00 -0.00000000000E+00 -0.19011287008E+03  0.19011287008E+03  0.00000000000E+00 0. -1.
          6    2    1    2  501    0  0.37781258694E+02  0.54029316152E+02  0.99550586332E+02  0.20937552396E+03  0.17199186109E+03 0.  0.
         24    2    3    3    0    0  0.44517430070E+02 -0.25060515167E+02  0.12166764694E+02  0.91229005997E+02  0.74598058766E+02 0.  0.
         -6    2    1    2    0  502 -0.37781258694E+02 -0.54029316152E+02 -0.72759422712E+02  0.19764137981E+03  0.17152723081E+03 0.  0.
        -24    2    5    5    0    0  0.32877927968E+02 -0.55537772371E+02 -0.75301652151E+02  0.12676438051E+03  0.78952308657E+02 0.  0.
          5    1    3    3  501    0 -0.67361713765E+01  0.79089831319E+02  0.87383821638E+02  0.11814651796E+03  0.47000000000E+01 0. -1.
        -11    1    4    4    0    0  0.53221004418E+02 -0.12556274319E+02  0.34159444790E+02  0.64474824578E+02  0.00000000000E+00 0.  1.
         12    1    4    4    0    0 -0.87035743474E+01 -0.12504240848E+02 -0.21992680096E+02  0.26754181419E+02  0.00000000000E+00 0. -1.
         -5    1    5    5    0  502 -0.70659186661E+02  0.15084562186E+01  0.25422294388E+01  0.70876999304E+02  0.47000000000E+01 0.  1.
         11    1    6    6    0    0  0.46897257504E+01 -0.37578776477E+00 -0.63536107976E+02  0.63710060122E+02  0.00000000000E+00 0. -1.
        -12    1    6    6    0    0  0.28188202217E+02 -0.55161984606E+02 -0.11765544176E+02  0.63054320389E+02  0.00000000000E+00 0.  1.
</event>
<event>
12    1  0.1040325E-001  0.2178432E+03  0.7818608E-02  0.1135649E+00
         21   -1    0    0  501  502  0.00000000000E+00  0.00000000000E+00  0.19023647859E+03  0.19023647859E+03  0.00000000000E+00 0.  1.
         21   -1    0    0  502  503 -0.00000000000E+00 -0.00000000000E+00 -0.36916375136E+03  0.36916375136E+03  0.00000000000E+00 0.  1.
         -6    2    1    2    0  503  0.25756323508E+02 -0.12995170403E+03 -0.24944020813E+03  0.33117375501E+03  0.17293005809E+03 0.  0.
        -24    2    3    3    0    0  0.29284667182E+02  0.15429924807E+01 -0.11526022607E+03  0.14321189184E+03  0.79779406445E+02 0.  0.
          6    2    1    2  501    0 -0.25756323508E+02  0.12995170403E+03  0.70512935363E+02  0.22822647495E+03  0.17194306102E+03 0.  0.
         24    2    5    5    0    0 -0.44879432293E+02  0.11391464040E+02  0.10122562274E+02  0.93722530920E+02  0.80854917223E+02 0.  0.
          5    1    5    5  501    0  0.19123108785E+02  0.11856023999E+03  0.60390373089E+02  0.13450394403E+03  0.47000000000E+01 0. -1.
        -13    1    6    6    0    0 -0.60698384856E+02  0.19876973585E+02  0.26757786374E+02  0.69248589405E+02  0.00000000000E+00 0.  1.
         14    1    6    6    0    0  0.15818952562E+02 -0.84855095449E+01 -0.16635224101E+02  0.24473941515E+02  0.00000000000E+00 0. -1.
         -5    1    3    3    0  503 -0.35283436739E+01 -0.13149469651E+03 -0.13417998206E+03  0.18796186317E+03  0.47000000000E+01 0.  1.
         11    1    4    4    0    0  0.38758914036E+02 -0.19545461951E+02 -0.11167736579E+03  0.11981699600E+03  0.00000000000E+00 0. -1.
        -12    1    4    4    0    0 -0.94742468539E+01  0.21088454432E+02 -0.35828602839E+01  0.23394895845E+02  0.00000000000E+00 0.  1.
</event>
<event>
12    1  0.1040325E-001  0.2286550E+03  0.7818608E-02  0.1127592E+00
         21   -1    0    0  501  502  0.00000000000E+00  0.00000000000E+00  0.23148256799E+04  0.23148256799E+04  0.00000000000E+00 0. -1.
         21   -1    0    0  502  503 -0.00000000000E+00 -0.00000000000E+00 -0.23409515875E+02  0.23409515875E+02  0.00000000000E+00 0. -1.
         -6    2    1    2    0  503 -0.82136501752E+02 -0.12653375042E+03  0.92633161454E+03  0.95413488839E+03  0.17183110958E+03 0.  0.
        -24    2    3    3    0    0 -0.10691644562E+03 -0.92163474486E+02  0.86047916553E+03  0.87568747589E+03  0.80491793045E+02 0.  0.
          6    2    1    2  501    0  0.82136501752E+02  0.12653375042E+03  0.13650845495E+04  0.13841003074E+04  0.17181571163E+03 0.  0.
         24    2    5    5    0    0  0.97931647870E+02  0.14070187974E+03  0.96068620875E+03  0.97911841827E+03  0.79795104429E+02 0.  0.
          5    1    5    5  501    0 -0.15795146118E+02 -0.14168129317E+02  0.40439834073E+03  0.40498188912E+03  0.47000000000E+01 0. -1.
        -11    1    6    6    0    0  0.50745666886E+02  0.12418902824E+02  0.24797143421E+03  0.25341504305E+03  0.00000000000E+00 0.  1.
         12    1    6    6    0    0  0.47185980983E+02  0.12828297692E+03  0.71271477454E+03  0.72570337522E+03  0.00000000000E+00 0. -1.
         -5    1    3    3    0  503  0.24779943873E+02 -0.34370275937E+02  0.65852449013E+02  0.78447412496E+02  0.47000000000E+01 0.  1.
         11    1    4    4    0    0 -0.52787483240E+02 -0.94569970088E+02  0.56998055835E+03  0.58017914003E+03  0.00000000000E+00 0. -1.
        -12    1    4    4    0    0 -0.54128962384E+02  0.24064956022E+01  0.29049860718E+03  0.29550833586E+03  0.00000000000E+00 0.  1.
</event>
<event>
12    1  0.1040325E-001  0.1804220E+03  0.7818608E-02  0.1167551E+00
         21   -1    0    0  503  502  0.00000000000E+00  0.00000000000E+00  0.18178189560E+03  0.18178189560E+03  0.00000000000E+00 0. -1.
         21   -1    0    0  501  503 -0.00000000000E+00 -0.00000000000E+00 -0.17876901326E+03  0.17876901326E+03  0.00000000000E+00 0. -1.
          6    2    1    2  501    0  0.46071199216E+02 -0.17713802894E+02  0.93237998136E+01  0.18066273124E+03  0.17353891496E+03 0.  0.
         24    2    3    3    0    0  0.27214767361E+02  0.53606956868E+02 -0.16820713455E+02  0.10225455966E+03  0.80985857925E+02 0.  0.
         -6    2    1    2    0  502 -0.46071199216E+02  0.17713802894E+02 -0.63109174724E+01  0.17988817761E+03  0.17286872058E+03 0.  0.
        -24    2    5    5    0    0 -0.25208217276E+02 -0.30151599181E+02  0.51069681724E+02  0.10216441101E+03  0.79277243482E+02 0.  0.
          5    1    3    3  501    0  0.18856431855E+02 -0.71320759762E+02  0.26144513269E+02  0.78408171573E+02  0.47000000000E+01 0. -1.
        -11    1    4    4    0    0  0.22762792933E+01  0.46959776048E+02  0.24895826013E+02  0.53199663220E+02  0.00000000000E+00 0.  1.
         12    1    4    4    0    0  0.24938488068E+02  0.66471808203E+01 -0.41716539468E+02  0.49054896444E+02  0.00000000000E+00 0. -1.
         -5    1    5    5    0  502 -0.20862981940E+02  0.47865402075E+02 -0.57380599196E+02  0.77723766606E+02  0.47000000000E+01 0.  1.
         13    1    6    6    0    0  0.84664699785E+01 -0.55874279057E+01  0.58888228992E+02  0.59755535127E+02  0.00000000000E+00 0. -1.
        -14    1    6    6    0    0 -0.33674687255E+02 -0.24564171275E+02 -0.78185472687E+01  0.42408875882E+02  0.00000000000E+00 0.  1.
</event>
<event>
12    1  0.1040325E-001  0.1865045E+03  0.7818608E-02  0.1162182E+00
         21   -1    0    0  503  502  0.00000000000E+00  0.00000000000E+00  0.99887980469E+02  0.99887980469E+02  0.00000000000E+00 0.  1.
         21   -1    0    0  501  503 -0.00000000000E+00 -0.00000000000E+00 -0.34929301605E+03  0.34929301605E+03  0.00000000000E+00 0. -1.
          6    2    1    2  501    0  0.70998291371E+02 -0.12166989104E+01 -0.15312318248E+03  0.24131027997E+03  0.17245783389E+03 0.  0.
         24    2    3    3    0    0  0.76770419225E+02  0.16330473033E+02 -0.17736731130E+03  0.21047055744E+03  0.81720932535E+02 0.  0.
         -6    2    1    2    0  502 -0.70998291371E+02  0.12166989104E+01 -0.96281853092E+02  0.20787071655E+03  0.16999353467E+03 0.  0.
        -24    2    5    5    0    0 -0.83306682369E+02 -0.11293463625E+02 -0.12731816483E+03  0.17190763407E+03  0.79213470493E+02 0.  0.
          5    1    3    3  501    0 -0.57721278546E+01 -0.17547171943E+02  0.24244128817E+02  0.30839722523E+02  0.47000000000E+01 0. -1.
        -11    1    4    4    0    0  0.58636275282E+02 -0.25122532060E+02 -0.13088475269E+03  0.14560279146E+03  0.00000000000E+00 0.  1.
         12    1    4    4    0    0  0.18134143943E+02  0.41453005093E+02 -0.46482558615E+02  0.64867765979E+02  0.00000000000E+00 0. -1.
         -5    1    5    5    0  502  0.12308390998E+02  0.12510162535E+02  0.31036311735E+02  0.35963082483E+02  0.47000000000E+01 0.  1.
         11    1    6    6    0    0  0.78686414717E+01 -0.21416404482E+02 -0.34852857410E+02  0.41656927025E+02  0.00000000000E+00 0. -1.
        -12    1    6    6    0    0 -0.91175323841E+02  0.10122940857E+02 -0.92465307417E+02  0.13025070704E+03  0.00000000000E+00 0.  1.
</event>
<event>
12    1  0.1040325E-001  0.3525107E+03  0.7818608E-02  0.1061665E+00
         21   -1    0    0  503  502  0.00000000000E+00  0.00000000000E+00  0.22455753139E+03  0.22455753139E+03  0.00000000000E+00 0. -1.
         21   -1    0    0  501  503 -0.00000000000E+00 -0.00000000000E+00 -0.65319568936E+03  0.65319568936E+03  0.00000000000E+00 0.  1.
          6    2    1    2  501    0 -0.18541522123E+03 -0.24420250918E+03 -0.38707305380E+03  0.52353541469E+03  0.17392559244E+03 0.  0.
         24    2    3    3    0    0 -0.17319067644E+03 -0.23507953581E+03 -0.40077688847E+03  0.50249846569E+03  0.81395301591E+02 0.  0.
         -6    2    1    2    0  502  0.18541522123E+03  0.24420250918E+03 -0.41565104175E+02  0.35421780606E+03  0.17242078323E+03 0.  0.
        -24    2    5    5    0    0  0.20262448607E+03  0.21626232756E+03 -0.64885262791E+02  0.31368717143E+03  0.79771345220E+02 0.  0.
          5    1    3    3  501    0 -0.12224544793E+02 -0.91229733713E+01  0.13703834676E+02  0.21036949003E+02  0.47000000000E+01 0. -1.
        -13    1    4    4    0    0 -0.79424092895E+02 -0.56420511551E+02 -0.17014896362E+03  0.19606664805E+03  0.00000000000E+00 0.  1.
         14    1    4    4    0    0 -0.93766583546E+02 -0.17865902426E+03 -0.23062792485E+03  0.30643181764E+03  0.00000000000E+00 0. -1.
         -5    1    5    5    0  502 -0.17209264837E+02  0.27940181626E+02  0.23320158616E+02  0.40530634628E+02  0.47000000000E+01 0.  1.
         11    1    6    6    0    0  0.18006402058E+02  0.25651708124E+02  0.17418653858E+02  0.35855963897E+02  0.00000000000E+00 0. -1.
        -12    1    6    6    0    0  0.18461808401E+03  0.19061061943E+03 -0.82303916649E+02  0.27783120754E+03  0.00000000000E+00 0.  1.
</event>
<event>
12    1  0.1040325E-001  0.2375085E+03  0.7818608E-02  0.1121976E+00
         21   -1    0    0  501  502  0.00000000000E+00  0.00000000000E+00  0.48206914517E+03  0.48206914517E+03  0.00000000000E+00 0.  1.
         21   -1    0    0  502  503 -0.00000000000E+00 -0.00000000000E+00 -0.33424247249E+03  0.33424247249E+03  0.00000000000E+00 0.  1.
         -6    2    1    2    0  503  0.78455570834E+02 -0.14375764771E+03 -0.25608117728E+03  0.34926762594E+03  0.17201385788E+03 0.  0.
        -24    2    3    3    0    0  0.11950814712E+03 -0.94643414506E+02 -0.19644616350E+03  0.26165514514E+03  0.81441676589E+02 0.  0.
          6    2    1    2  501    0 -0.78455570834E+02  0.14375764771E+03  0.40390784996E+03  0.46704399173E+03  0.16783027463E+03 0.  0.
         24    2    5    5    0    0 -0.88702464900E+02  0.16635278671E+03  0.39168737817E+03  0.43899102263E+03  0.61259601769E+02 0.  0.
          5    1    5    5  501    0  0.10246894066E+02 -0.22595138998E+02  0.12220471784E+02  0.28052969094E+02  0.47000000000E+01 0. -1.
        -11    1    6    6    0    0 -0.62188280413E+02  0.12428717744E+03  0.33981049846E+03  0.36713193754E+03  0.00000000000E+00 0.  1.
         12    1    6    6    0    0 -0.26514184487E+02  0.42065609268E+02  0.51876879711E+02  0.71859085095E+02  0.00000000000E+00 0. -1.
         -5    1    3    3    0  503 -0.41052576290E+02 -0.49114233204E+02 -0.59635013777E+02  0.87612480798E+02  0.47000000000E+01 0.  1.
         13    1    4    4    0    0  0.40069158397E+01 -0.89326802530E+01  0.73317396570E+01  0.12231212428E+02  0.00000000000E+00 0. -1.
        -14    1    4    4    0    0  0.11550123128E+03 -0.85710734253E+02 -0.20377790315E+03  0.24942393271E+03  0.00000000000E+00 0.  1.
</event>
<event>
12    1  0.1040325E-001  0.1884102E+03  0.7818608E-02  0.1160081E+00
         21   -1    0    0  503  502  0.00000000000E+00  0.00000000000E+00  0.23354295110E+03  0.23354295110E+03  0.00000000000E+00 0. -1.
         21   -1    0    0  501  503 -0.00000000000E+00 -0.00000000000E+00 -0.17675466182E+03  0.17675466182E+03  0.00000000000E+00 0. -1.
          6    2    1    2  501    0  0.32955155602E+02  0.67914449864E+02 -0.49395775647E+02  0.19402590688E+03  0.17177804024E+03 0.  0.
         24    2    3    3    0    0  0.27226905302E+02 -0.23371359434E+02  0.65842391569E+01  0.86686427248E+02  0.78636248954E+02 0.  0.
         -6    2    1    2    0  502 -0.32955155602E+02 -0.67914449864E+02  0.10618406493E+03  0.21627170604E+03  0.17262670827E+03 0.  0.
        -24    2    5    5    0    0 -0.72412641215E+02 -0.83699713964E+02  0.10752483174E+03  0.17349372819E+03  0.79304801594E+02 0.  0.
          5    1    3    3  501    0  0.57282502996E+01  0.91285809298E+02 -0.55980014804E+02  0.10733947963E+03  0.47000000000E+01 0. -1.
        -13    1    4    4    0    0  0.52007634740E+02 -0.50606087523E+01 -0.75348022562E+01  0.52793721949E+02  0.00000000000E+00 0.  1.
         14    1    4    4    0    0 -0.24780729438E+02 -0.18310750682E+02  0.14119041413E+02  0.33892705298E+02  0.00000000000E+00 0. -1.
         -5    1    5    5    0  502  0.39457485613E+02  0.15785264100E+02 -0.13407668091E+01  0.42777977854E+02  0.47000000000E+01 0.  1.
         13    1    6    6    0    0 -0.25099346039E+02 -0.16241902479E+02 -0.85983358989E+01  0.31108004564E+02  0.00000000000E+00 0. -1.
        -14    1    6    6    0    0 -0.47313295176E+02 -0.67457811485E+02  0.11612316763E+03  0.14238572363E+03  0.00000000000E+00 0.  1.
</event>
<event>
12    1  0.1040325E-001  0.1785379E+03  0.7818608E-02  0.1169487E+00
         21   -1    0    0  503  502  0.00000000000E+00  0.00000000000E+00  0.53774389581E+02  0.53774389581E+02  0.00000000000E+00 0.  1.
         21   -1    0    0  501  503 -0.00000000000E+00 -0.00000000000E+00 -0.59213141242E+03  0.59213141242E+03  0.00000000000E+00 0.  1.
          6    2    1    2  501    0  0.75891183101E+01  0.74567366198E+01 -0.29093777467E+03  0.34079585446E+03  0.17715481380E+03 0.  0.
         24    2    3    3    0    0 -0.37314166630E+02  0.15365676138E+01 -0.63716801495E+02  0.10905717826E+03  0.80242939035E+02 0.  0.
         -6    2    1    2    0  502 -0.75891183101E+01 -0.74567366198E+01 -0.24741924817E+03  0.30510994754E+03  0.17822064438E+03 0.  0.
        -24    2    5    5    0    0 -0.24610088432E+02  0.39380698950E+02 -0.59328043708E+02  0.11047220713E+03  0.80794776291E+02 0.  0.
          5    1    3    3  501    0  0.44903284940E+02  0.59201690060E+01 -0.22722097317E+03  0.23173867621E+03  0.47000000000E+01 0. -1.
        -11    1    4    4    0    0 -0.20030943423E+02  0.13312335277E+02 -0.79370216155E+02  0.82934240078E+02  0.00000000000E+00 0.  1.
         12    1    4    4    0    0 -0.17283223207E+02 -0.11775767663E+02  0.15653414660E+02  0.26122938177E+02  0.00000000000E+00 0. -1.
         -5    1    5    5    0  502  0.17020970122E+02 -0.46837435570E+02 -0.18809120446E+03  0.19463774040E+03  0.47000000000E+01 0.  1.
         13    1    6    6    0    0 -0.83448188428E+00  0.14859190051E+02 -0.72390346076E+02  0.73904357747E+02  0.00000000000E+00 0. -1.
        -14    1    6    6    0    0 -0.23775606548E+02  0.24521508900E+02  0.13062302368E+02  0.36567849385E+02  0.00000000000E+00 0.  1.
</event>
<event>
12    1  0.1040325E-001  0.1866789E+03  0.7818608E-02  0.1161693E+00
         21   -1    0    0  503  502  0.00000000000E+00  0.00000000000E+00  0.10695792141E+04  0.10695792141E+04  0.00000000000E+00 0. -1.
         21   -1    0    0  501  503 -0.00000000000E+00 -0.00000000000E+00 -0.61010922009E+02  0.61010922009E+02  0.00000000000E+00 0. -1.
          6    2    1    2  501    0 -0.46725021551E+02 -0.65170254835E+02  0.11800226274E+03  0.22084734914E+03  0.16857825440E+03 0.  0.
         24    2    3    3    0    0  0.26313308570E+02  0.26395831849E+01  0.20459745985E+02  0.81314541622E+02  0.74122168521E+02 0.  0.
         -6    2    1    2    0  502  0.46725021551E+02  0.65170254835E+02  0.89056602934E+03  0.90974278696E+03  0.16761174199E+03 0.  0.
        -24    2    5    5    0    0  0.30970484851E+02 -0.14678858434E+02  0.26521669270E+03  0.27910186761E+03  0.79895673232E+02 0.  0.
          5    1    3    3  501    0 -0.73038330121E+02 -0.67809838020E+02  0.97542516756E+02  0.13953280752E+03  0.47000000000E+01 0. -1.
        -11    1    4    4    0    0  0.31719740570E+02 -0.10445433706E+02  0.43153710549E+02  0.54566397731E+02  0.00000000000E+00 0.  1.
         12    1    4    4    0    0 -0.54064320000E+01  0.13085016891E+02 -0.22693964564E+02  0.26748143892E+02  0.00000000000E+00 0. -1.
         -5    1    5    5    0  502  0.15754536700E+02  0.79849113270E+02  0.62534933665E+03  0.63064091935E+03  0.47000000000E+01 0.  1.
         11    1    6    6    0    0  0.45274560571E+01 -0.14304143790E+02  0.24588871445E+03  0.24634602957E+03  0.00000000000E+00 0. -1.
        -12    1    6    6    0    0  0.26443028794E+02 -0.37471464436E+00  0.19327978243E+02  0.32755838042E+02  0.00000000000E+00 0.  1.
</event>
<event>
12    1  0.1040325E-001  0.4765207E+03  0.7818608E-02  0.1020237E+00
         21   -1    0    0  503  502  0.00000000000E+00  0.00000000000E+00  0.70412444385E+03  0.70412444385E+03  0.00000000000E+00 0. -1.
         21   -1    0    0  501  503 -0.00000000000E+00 -0.00000000000E+00 -0.20292473090E+04  0.20292473090E+04  0.00000000000E+00 0.  1.
          6    2    1    2  501    0 -0.23277282329E+03 -0.37826800390E+03 -0.19166798764E+04  0.19750275310E+04  0.17263293206E+03 0.  0.
         24    2    3    3    0    0 -0.22151494955E+03 -0.35850297035E+03 -0.15683669279E+04  0.16259410139E+04  0.79473942302E+02 0.  0.
         -6    2    1    2    0  502  0.23277282329E+03  0.37826800390E+03  0.59155701130E+03  0.75834422188E+03  0.16696224486E+03 0.  0.
        -24    2    5    5    0    0  0.94001435811E+02  0.25790575081E+03  0.30419312956E+03  0.41725089084E+03  0.78823851727E+02 0.  0.
          5    1    3    3  501    0 -0.11257873733E+02 -0.19765033552E+02 -0.34831294851E+03  0.34908651703E+03  0.47000000000E+01 0. -1.
        -13    1    4    4    0    0 -0.17785462895E+03 -0.33270487530E+03 -0.14137205229E+04  0.14631918944E+04  0.00000000000E+00 0.  1.
         14    1    4    4    0    0 -0.43660320601E+02 -0.25798095042E+02 -0.15464640502E+03  0.16274911947E+03  0.00000000000E+00 0. -1.
         -5    1    5    5    0  502  0.13877138747E+03  0.12036225309E+03  0.28736388175E+03  0.34109333104E+03  0.47000000000E+01 0.  1.
         11    1    6    6    0    0  0.96118473861E+02  0.26197652087E+03  0.30400096857E+03  0.41265851185E+03  0.00000000000E+00 0. -1.
        -12    1    6    6    0    0 -0.21170380495E+01 -0.40707700607E+01  0.19216098520E+00  0.45923789951E+01  0.00000000000E+00 0.  1.
</event>
<event>
12    1  0.1040325E-001  0.1870013E+03  0.7818608E-02  0.1161833E+00
         21   -1    0    0  501  502  0.00000000000E+00  0.00000000000E+00  0.92180509130E+02  0.92180509130E+02  0.00000000000E+00 0.  1.
         21   -1    0    0  502  503 -0.00000000000E+00 -0.00000000000E+00 -0.41222645372E+03  0.41222645372E+03  0.00000000000E+00 0.  1.
         -6    2    1    2    0  503 -0.19876792774E+02 -0.69935025722E+02 -0.23810933207E+03  0.30276317556E+03  0.17228897743E+03 0.  0.
        -24    2    3    3    0    0 -0.49538465410E+02  0.15408054823E+02 -0.14204022993E+03  0.17079871593E+03  0.79405961588E+02 0.  0.
          6    2    1    2  501    0  0.19876792774E+02  0.69935025722E+02 -0.81936612525E+02  0.20164378729E+03  0.16929445876E+03 0.  0.
         24    2    5    5    0    0 -0.51622898942E+02  0.34910904592E+02 -0.24629115470E+02  0.10343414319E+03  0.78792979977E+02 0.  0.
          5    1    5    5  501    0  0.71499691716E+02  0.35024121129E+02 -0.57307497055E+02  0.98209644104E+02  0.47000000000E+01 0. -1.
        -11    1    6    6    0    0 -0.17896137835E+02  0.22915686930E+02  0.27617191190E+02  0.40101243199E+02  0.00000000000E+00 0.  1.
         12    1    6    6    0    0 -0.33726761107E+02  0.11995217662E+02 -0.52246306660E+02  0.63332899990E+02  0.00000000000E+00 0. -1.
         -5    1    3    3    0  503  0.29661672636E+02 -0.85343080544E+02 -0.96069102138E+02  0.13196445963E+03  0.47000000000E+01 0.  1.
         13    1    4    4    0    0 -0.69668891462E+02  0.18887473632E+02 -0.93400194178E+02  0.11804273536E+03  0.00000000000E+00 0. -1.
        -14    1    4    4    0    0  0.20130426052E+02 -0.34794188094E+01 -0.48640035750E+02  0.52755980572E+02  0.00000000000E+00 0.  1.
</event>
<event>
12    1  0.1040325E-001  0.2018559E+03  0.7818608E-02  0.1148210E+00
         21   -1    0    0  501  502  0.00000000000E+00  0.00000000000E+00  0.22726933700E+03  0.22726933700E+03  0.00000000000E+00 0. -1.
         21   -1    0    0  502  503 -0.00000000000E+00 -0.00000000000E+00 -0.22167388870E+03  0.22167388870E+03  0.00000000000E+00 0.  1.
         -6    2    1    2    0  503  0.32112785808E+02 -0.10115217696E+03 -0.95496620404E+02  0.22330564793E+03  0.17170560262E+03 0.  0.
        -24    2    3    3    0    0  0.41760904228E+02 -0.11116803860E+03 -0.12365712389E+03  0.19154863878E+03  0.85425352200E+02 0.  0.
          6    2    1    2  501    0 -0.32112785808E+02  0.10115217696E+03  0.10109206870E+03  0.22563757778E+03  0.17155091441E+03 0.  0.
         24    2    5    5    0    0  0.10875767805E+02  0.38355142109E+02 -0.16950292081E+02  0.85111522304E+02  0.73261583219E+02 0.  0.
          5    1    5    5  501    0 -0.42988553613E+02  0.62797034848E+02  0.11804236078E+03  0.14052605547E+03  0.47000000000E+01 0. -1.
        -11    1    6    6    0    0  0.26653967821E+02 -0.76612529106E+01  0.10021567304E+02  0.29488313075E+02  0.00000000000E+00 0.  1.
         12    1    6    6    0    0 -0.15778200016E+02  0.46016395019E+02 -0.26971859385E+02  0.55623209229E+02  0.00000000000E+00 0. -1.
         -5    1    3    3    0  503 -0.96481184208E+01  0.10015861646E+02  0.28160503489E+02  0.31757009153E+02  0.47000000000E+01 0.  1.
         11    1    4    4    0    0  0.45514853865E+02 -0.89949147100E+02 -0.45728641061E+02  0.11069579757E+03  0.00000000000E+00 0. -1.
        -12    1    4    4    0    0 -0.37539496364E+01 -0.21218891502E+02 -0.77928482832E+02  0.80852841205E+02  0.00000000000E+00 0.  1.
</event>
<event>
12    1  0.1040325E-001  0.1796377E+03  0.7818608E-02  0.1168655E+00
         21   -1    0    0  501  502  0.00000000000E+00  0.00000000000E+00  0.44147173442E+03  0.44147173442E+03  0.00000000000E+00 0. -1.
         21   -1    0    0  502  503 -0.00000000000E+00 -0.00000000000E+00 -0.26966826603E+03  0.26966826603E+03  0.00000000000E+00 0. -1.
         -6    2    1    2    0  503  0.34821874692E+02  0.27511863355E+02 -0.21844979843E+03  0.28152701094E+03  0.17195254542E+03 0.  0.
        -24    2    3    3    0    0 -0.25182232033E+02  0.16769038706E+02 -0.44441696191E+02  0.97090542887E+02  0.80846544072E+02 0.  0.
          6    2    1    2  501    0 -0.34821874692E+02 -0.27511863355E+02  0.39025326681E+03  0.42961298951E+03  0.17406964960E+03 0.  0.
         24    2    5    5    0    0 -0.16898688714E+01 -0.33166547385E+02  0.79776496391E+02  0.11728684550E+03  0.79303462901E+02 0.  0.
          5    1    5    5  501    0 -0.33132005821E+02  0.56546840292E+01  0.31047677042E+03  0.31232614401E+03  0.47000000000E+01 0. -1.
        -13    1    6    6    0    0 -0.55574675506E+01  0.23845565524E+02  0.84688871435E+01  0.25907884711E+02  0.00000000000E+00 0.  1.
         14    1    6    6    0    0  0.38675986792E+01 -0.57012112908E+02  0.71307609248E+02  0.91378960787E+02  0.00000000000E+00 0. -1.
         -5    1    3    3    0  503  0.60004106725E+02  0.10742824649E+02 -0.17400810224E+03  0.18443646806E+03  0.47000000000E+01 0.  1.
         13    1    4    4    0    0 -0.34531724292E+02 -0.24043406030E+02 -0.33581535260E+02  0.53835349600E+02  0.00000000000E+00 0. -1.
        -14    1    4    4    0    0  0.93494922593E+01  0.40812444736E+02 -0.10860160931E+02  0.43255193287E+02  0.00000000000E+00 0.  1.
</event>
<event>
12    1  0.1040325E-001  0.3518334E+03  0.7818608E-02  0.1061954E+00
         21   -1    0    0  503  502  0.00000000000E+00  0.00000000000E+00  0.83762799477E+03  0.83762799477E+03  0.00000000000E+00 0. -1.
         21   -1    0    0  501  503 -0.00000000000E+00 -0.00000000000E+00 -0.48898173178E+03  0.48898173178E+03  0.00000000000E+00 0. -1.
          6    2    1    2  501    0 -0.26702886522E+03  0.15115196522E+03 -0.38011715319E+03  0.51736140075E+03  0.17035972937E+03 0.  0.
         24    2    3    3    0    0 -0.61310163436E+02  0.61105760924E+02 -0.19194006759E+03  0.22434056751E+03  0.77426420064E+02 0.  0.
         -6    2    1    2    0  502  0.26702886522E+03 -0.15115196522E+03  0.72876341618E+03  0.80924832580E+03  0.17214936711E+03 0.  0.
        -24    2    5    5    0    0  0.61354172078E+02 -0.93246776962E+02  0.26577888935E+03  0.29931514164E+03  0.80571956309E+02 0.  0.
          5    1    3    3  501    0 -0.20571870179E+03  0.90046204295E+02 -0.18817708560E+03  0.29302083325E+03  0.47000000000E+01 0. -1.
        -11    1    4    4    0    0 -0.29503700953E+02  0.29750631386E+02 -0.19508349893E+02  0.46218439538E+02  0.00000000000E+00 0.  1.
         12    1    4    4    0    0 -0.31806462483E+02  0.31355129539E+02 -0.17243171770E+03  0.17812212797E+03  0.00000000000E+00 0. -1.
         -5    1    5    5    0  502  0.20567469314E+03 -0.57905188257E+02  0.46298452682E+03  0.50993318416E+03  0.47000000000E+01 0.  1.
         13    1    6    6    0    0  0.31815958985E+00 -0.42753656603E+02  0.16862248793E+03  0.17395838529E+03  0.00000000000E+00 0. -1.
        -14    1    6    6    0    0  0.61036012488E+02 -0.50493120360E+02  0.97156401428E+02  0.12535675635E+03  0.00000000000E+00 0.  1.
</event>
<event>
12    1  0.1040325E-001  0.2270129E+03  0.7818608E-02  0.1129251E+00
         21   -1    0    0  501  502  0.00000000000E+00  0.00000000000E+00  0.53689570771E+02  0.53689570771E+02  0.00000000000E+00 0. -1.
         21   -1    0    0  502  503 -0.00000000000E+00 -0.00000000000E+00 -0.10804899521E+04  0.10804899521E+04  0.00000000000E+00 0. -1.
         -6    2    1    2    0  503 -0.48751186426E+02 -0.13516109017E+03 -0.71440447126E+03  0.74960562059E+03  0.17575448613E+03 0.  0.
        -24    2    3    3    0    0  0.10217778171E+02 -0.12614793563E+03 -0.61962765119E+03  0.63751944230E+03  0.80466816428E+02 0.  0.
          6    2    1    2  501    0  0.48751186426E+02  0.13516109017E+03 -0.31239591008E+03  0.38457390229E+03  0.17222277205E+03 0.  0.
         24    2    5    5    0    0 -0.13366724266E+02  0.68103233895E+02 -0.77313897559E+02  0.13230215689E+03  0.81912771754E+02 0.  0.
          5    1    5    5  501    0  0.62117910691E+02  0.67057856277E+02 -0.23508201252E+03  0.25227174540E+03  0.47000000000E+01 0. -1.
        -13    1    6    6    0    0 -0.47077198645E+02  0.50042026107E+02 -0.55131677963E+02  0.88090685797E+02  0.00000000000E+00 0.  1.
         14    1    6    6    0    0  0.33710474380E+02  0.18061207788E+02 -0.22182219595E+02  0.44211471089E+02  0.00000000000E+00 0. -1.
         -5    1    3    3    0  503 -0.58968964597E+02 -0.90131545424E+01 -0.94776820074E+02  0.11208617829E+03  0.47000000000E+01 0.  1.
         13    1    4    4    0    0  0.23243510286E+02 -0.13160779865E+03 -0.52017028432E+03  0.53706424022E+03  0.00000000000E+00 0. -1.
        -14    1    4    4    0    0 -0.13025732115E+02  0.54598630189E+01 -0.99457366865E+02  0.10045520208E+03  0.00000000000E+00 0.  1.
</event>
<event>
12    1  0.1040325E-001  0.2175250E+03  0.7818608E-02  0.1135750E+00
         21   -1    0    0  503  502  0.00000000000E+00  0.00000000000E+00  0.68943631749E+02  0.68943631749E+02  0.00000000000E+00 0. -1.
         21   -1    0    0  501  503 -0.00000000000E+00 -0.00000000000E+00 -0.10968399416E+04  0.10968399416E+04  0.00000000000E+00 0. -1.
          6    2    1    2  501    0  0.43049378886E+02  0.12553084902E+03 -0.87057786614E+03  0.89733207574E+03  0.17230145114E+03 0.  0.
         24    2    3    3    0    0 -0.64126919903E+01  0.13369915130E+03 -0.51548142932E+03  0.53868351927E+03  0.80884141106E+02 0.  0.
         -6    2    1    2    0  502 -0.43049378886E+02 -0.12553084902E+03 -0.15731844372E+03  0.26845149762E+03  0.17235391136E+03 0.  0.
        -24    2    5    5    0    0  0.21040486960E+02 -0.75783675540E+02 -0.15332520205E+03  0.18708609863E+03  0.72847259034E+02 0.  0.
          5    1    3    3  501    0  0.49462070876E+02 -0.81683022782E+01 -0.35509643682E+03  0.35864855647E+03  0.47000000000E+01 0. -1.
        -11    1    4    4    0    0 -0.20192125083E+02  0.14331597579E+00 -0.43172828410E+02  0.47661678188E+02  0.00000000000E+00 0.  1.
         12    1    4    4    0    0  0.13779433092E+02  0.13355583532E+03 -0.47230860091E+03  0.49102184108E+03  0.00000000000E+00 0. -1.
         -5    1    5    5    0  502 -0.64089865846E+02 -0.49747173479E+02 -0.39932416754E+01  0.81365398988E+02  0.47000000000E+01 0.  1.
         13    1    6    6    0    0  0.14973021362E+02 -0.84346779623E+02 -0.95398567415E+02  0.12821644694E+03  0.00000000000E+00 0. -1.
        -14    1    6    6    0    0  0.60674655981E+01  0.85631040835E+01 -0.57926634633E+02  0.58869651691E+02  0.00000000000E+00 0.  1.
</event>
<event>
12    1  0.1040325E-001  0.2166749E+03  0.7818608E-02  0.1137627E+00
         21   -1    0    0  501  502  0.00000000000E+00  0.00000000000E+00  0.69512741483E+03  0.69512741483E+03  0.00000000000E+00 0. -1.
         21   -1    0    0  502  503 -0.00000000000E+00 -0.00000000000E+00 -0.87136406605E+02  0.87136406605E+02  0.00000000000E+00 0.  1.
         -6    2    1    2    0  503  0.93665735292E+02 -0.75608940181E+02  0.11278636392E+03  0.24427193137E+03  0.18016112446E+03 0.  0.
        -24    2    3    3    0    0  0.12504608937E+03 -0.76731642417E+02  0.50259697858E+02  0.17414589447E+03  0.79224276058E+02 0.  0.
          6    2    1    2  501    0 -0.93665735292E+02  0.75608940181E+02  0.49520464430E+03  0.53799189006E+03  0.17238808611E+03 0.  0.
         24    2    5    5    0    0 -0.44168800578E+02  0.67949632132E+02  0.14535370819E+03  0.18454263055E+03  0.79751153956E+02 0.  0.
          5    1    5    5  501    0 -0.49496934713E+02  0.76593080495E+01  0.34985093612E+03  0.35344925951E+03  0.47000000000E+01 0. -1.
        -13    1    6    6    0    0 -0.44496374214E+02  0.57020808445E+02  0.48522565931E+02  0.87096149848E+02  0.00000000000E+00 0.  1.
         14    1    6    6    0    0  0.32757363538E+00  0.10928823687E+02  0.96831142255E+02  0.97446480706E+02  0.00000000000E+00 0. -1.
         -5    1    3    3    0  503 -0.31380354079E+02  0.11227022356E+01  0.62526666061E+02  0.70126036898E+02  0.47000000000E+01 0.  1.
         11    1    4    4    0    0  0.10380050094E+03 -0.70367886954E+02  0.70720831511E+02  0.14397089817E+03  0.00000000000E+00 0. -1.
        -12    1    4    4    0    0  0.21245588431E+02 -0.63637554630E+01 -0.20461133654E+02  0.30174996301E+02  0.00000000000E+00 0.  1.
</event>
<event>
12    1  0.1040325E-001  0.1806327E+03  0.7818608E-02  0.1169472E+00
         21   -1    0    0  501  502  0.00000000000E+00  0.00000000000E+00  0.90791056488E+02  0.90791056488E+02  0.00000000000E+00 0.  1.
         21   -1    0    0  502  503 -0.00000000000E+00 -0.00000000000E+00 -0.36090033852E+03  0.36090033852E+03  0.00000000000E+00 0.  1.
         -6    2    1    2    0  503 -0.16532110509E+01  0.43111415915E+01 -0.18433230184E+03  0.25172670034E+03  0.17136690203E+03 0.  0.
        -24    2    3    3    0    0  0.25634292017E+02 -0.56155230848E+02 -0.13493401571E+03  0.16888304825E+03  0.80645945399E+02 0.  0.
          6    2    1    2  501    0  0.16532110509E+01 -0.43111415915E+01 -0.85776980190E+02  0.19996469467E+03  0.18057372382E+03 0.  0.
         24    2    5    5    0    0 -0.51279778187E+02 -0.42182118086E+02 -0.17731398769E+02  0.10568636544E+03  0.80288595712E+02 0.  0.
          5    1    5    5  501    0  0.52932989237E+02  0.37870976495E+02 -0.68045581421E+02  0.94278329224E+02  0.47000000000E+01 0. -1.
        -11    1    6    6    0    0 -0.17605978460E+02  0.20185394990E+02  0.11329675528E+02  0.29082334776E+02  0.00000000000E+00 0.  1.
         12    1    6    6    0    0 -0.33673799727E+02 -0.62367513076E+02 -0.29061074297E+02  0.76604030669E+02  0.00000000000E+00 0. -1.
         -5    1    3    3    0  503 -0.27287503068E+02  0.60466372439E+02 -0.49398286125E+02  0.82843652091E+02  0.47000000000E+01 0.  1.
         13    1    4    4    0    0  0.66676990168E+00  0.14053561766E+02  0.74404506038E+00  0.14089030608E+02  0.00000000000E+00 0. -1.
        -14    1    4    4    0    0  0.24967522115E+02 -0.70208792614E+02 -0.13567806078E+03  0.15479401764E+03  0.00000000000E+00 0.  1.
</event>
<event>
12    1  0.1040325E-001  0.1809074E+03  0.7818608E-02  0.1167987E+00
         21   -1    0    0  501  502  0.00000000000E+00  0.00000000000E+00  0.24965763887E+03  0.24965763887E+03  0.00000000000E+00 0. -1.
         21   -1    0    0  502  503 -0.00000000000E+00 -0.00000000000E+00 -0.28829728097E+03  0.28829728097E+03  0.00000000000E+00 0. -1.
         -6    2    1    2    0  503  0.54086955031E+02 -0.56893773192E+01 -0.22001135376E+03  0.28483766911E+03  0.17253908033E+03 0.  0.
        -24    2    3    3    0    0  0.21005030130E+02 -0.12540021089E+02 -0.26236034924E+02  0.88083230115E+02  0.80447886729E+02 0.  0.
          6    2    1    2  501    0 -0.54086955031E+02  0.56893773192E+01  0.18137171165E+03  0.25311725073E+03  0.16797284635E+03 0.  0.
         24    2    5    5    0    0 -0.65476496006E+02  0.11184927281E+02  0.40807488489E+02  0.11190707565E+03  0.80284919729E+02 0.  0.
          5    1    5    5  501    0  0.11389540975E+02 -0.54955499622E+01  0.14056422316E+03  0.14121017508E+03  0.47000000000E+01 0. -1.
        -11    1    6    6    0    0  0.36104062550E+01  0.19832350436E+02 -0.12935795770E+02  0.23951867763E+02  0.00000000000E+00 0.  1.
         12    1    6    6    0    0 -0.69086902261E+02 -0.86474231544E+01  0.53743284259E+02  0.87955207885E+02  0.00000000000E+00 0. -1.
         -5    1    3    3    0  503  0.33081924901E+02  0.68506437699E+01 -0.19377531883E+03  0.19675443899E+03  0.47000000000E+01 0.  1.
         13    1    4    4    0    0 -0.53081105047E+01 -0.31854266032E+01 -0.50627444778E+02  0.51004520824E+02  0.00000000000E+00 0. -1.
        -14    1    4    4    0    0  0.26313140634E+02 -0.93545944859E+01  0.24391409853E+02  0.37078709291E+02  0.00000000000E+00 0.  1.
</event>
<event>
12    1  0.1040325E-001  0.1887110E+03  0.7818608E-02  0.1159914E+00
         21   -1    0    0  503  502  0.00000000000E+00  0.00000000000E+00  0.38431306642E+02  0.38431306642E+02  0.00000000000E+00 0. -1.
         21   -1    0    0  501  503 -0.00000000000E+00 -0.00000000000E+00 -0.10047542205E+04  0.10047542205E+04  0.00000000000E+00 0. -1.
          6    2    1    2  501    0  0.62447787861E+02  0.37734086175E+02 -0.63565286113E+03  0.66307346375E+03  0.17403525793E+03 0.  0.
         24    2    3    3    0    0  0.64081880244E+02 -0.40044001459E+02 -0.38854011016E+03  0.40396170627E+03  0.80694693146E+02 0.  0.
         -6    2    1    2    0  502 -0.62447787861E+02 -0.37734086175E+02 -0.33067005273E+03  0.38011206339E+03  0.17268152621E+03 0.  0.
        -24    2    5    5    0    0 -0.90221125039E+02 -0.72615773930E+02 -0.23935678816E+03  0.27838550498E+03  0.82425210467E+02 0.  0.
          5    1    3    3  501    0 -0.16340923833E+01  0.77778087634E+02 -0.24711275096E+03  0.25911175748E+03  0.47000000000E+01 0. -1.
        -11    1    4    4    0    0 -0.87348360430E+01 -0.36477835139E+02 -0.12257442721E+03  0.12818510063E+03  0.00000000000E+00 0.  1.
         12    1    4    4    0    0  0.72816716287E+02 -0.35661663200E+01 -0.26596568295E+03  0.27577660565E+03  0.00000000000E+00 0. -1.
         -5    1    5    5    0  502  0.27773337177E+02  0.34881687755E+02 -0.91313264575E+02  0.10172655841E+03  0.47000000000E+01 0.  1.
         13    1    6    6    0    0 -0.73737373136E+02 -0.14956372962E+02 -0.89186813589E+02  0.11668410778E+03  0.00000000000E+00 0. -1.
        -14    1    6    6    0    0 -0.16483751903E+02 -0.57659400968E+02 -0.15016997457E+03  0.16170139721E+03  0.00000000000E+00 0.  1.
</event>
<event>
12    1  0.1040325E-001  0.2034615E+03  0.7818608E-02  0.1147034E+00
         21   -1    0    0  503  502  0.00000000000E+00  0.00000000000E+00  0.22372194388E+03  0.22372194388E+03  0.00000000000E+00 0.  1.
         21   -1    0    0  501  503 -0.00000000000E+00 -0.00000000000E+00 -0.28498521778E+03  0.28498521778E+03  0.00000000000E+00 0. -1.
          6    2    1    2  501    0  0.10553020944E+03  0.27066372979E+02 -0.18182456872E+03  0.27220851726E+03  0.17078667813E+03 0.  0.
         24    2    3    3    0    0  0.68168014719E+02  0.63387865773E+02 -0.53110106990E+02  0.13326720917E+03  0.79212157010E+02 0.  0.
         -6    2    1    2    0  502 -0.10553020944E+03 -0.27066372979E+02  0.12056129482E+03  0.23649864441E+03  0.17183529715E+03 0.  0.
        -24    2    5    5    0    0 -0.11884375339E+03  0.26844691215E+02  0.67810877758E+02  0.15976306078E+03  0.77983621866E+02 0.  0.
          5    1    3    3  501    0  0.37362194725E+02 -0.36321492794E+02 -0.12871446173E+03  0.13894130809E+03  0.47000000000E+01 0. -1.
        -11    1    4    4    0    0  0.26657249220E+02  0.53597697630E+02  0.62366535427E+01  0.60184864997E+02  0.00000000000E+00 0.  1.
         12    1    4    4    0    0  0.41510765499E+02  0.97901681427E+01 -0.59346760533E+02  0.73082344176E+02  0.00000000000E+00 0. -1.
         -5    1    5    5    0  502  0.13313543947E+02 -0.53911064194E+02  0.52750417066E+02  0.76735583633E+02  0.47000000000E+01 0.  1.
         13    1    6    6    0    0 -0.31307709939E+02 -0.11626411165E+02 -0.11720107725E+02  0.35393602010E+02  0.00000000000E+00 0. -1.
        -14    1    6    6    0    0 -0.87536043452E+02  0.38471102379E+02  0.79530985483E+02  0.12436945876E+03  0.00000000000E+00 0.  1.
</event>
<event>
12    1  0.1040325E-001  0.2240394E+03  0.7818608E-02  0.1132485E+00
         21   -1    0    0  501  502  0.00000000000E+00  0.00000000000E+00  0.89473441797E+02  0.89473441797E+02  0.00000000000E+00 0. -1.
         21   -1    0    0  502  503 -0.00000000000E+00 -0.00000000000E+00 -0.54119352563E+03  0.54119352563E+03  0.00000000000E+00 0.  1.
         -6    2    1    2    0  503 -0.37048137232E+02 -0.12603399381E+03 -0.21500434191E+03  0.31051653393E+03  0.18148421070E+03 0.  0.
        -24    2    3    3    0    0 -0.41911375604E+02 -0.68648764397E+02 -0.31449023717E+02  0.11808119289E+03  0.80528943639E+02 0.  0.
          6    2    1    2  501    0  0.37048137232E+02  0.12603399381E+03 -0.23671574192E+03  0.32015043350E+03  0.17089419395E+03 0.  0.
         24    2    5    5    0    0 -0.56723355775E+01  0.98570268827E+02 -0.68698727681E+02  0.14456255789E+03  0.80190676954E+02 0.  0.
          5    1    5    5  501    0  0.42720472810E+02  0.27463724987E+02 -0.16801701424E+03  0.17558787561E+03  0.47000000000E+01 0. -1.
        -11    1    6    6    0    0  0.23471311788E+02  0.54083102784E+01 -0.32500631195E+02  0.40452976716E+02  0.00000000000E+00 0.  1.
         12    1    6    6    0    0 -0.29143647366E+02  0.93161958549E+02 -0.36198096486E+02  0.10410958117E+03  0.00000000000E+00 0. -1.
         -5    1    3    3    0  503  0.48632383712E+01 -0.57385229418E+02 -0.18355531820E+03  0.19243534104E+03  0.47000000000E+01 0.  1.
         11    1    4    4    0    0 -0.26274813559E+02 -0.27434431315E+02 -0.55966608252E+02  0.67640779774E+02  0.00000000000E+00 0. -1.
        -12    1    4    4    0    0 -0.15636562045E+02 -0.41214333082E+02  0.24517584536E+02  0.50440413117E+02  0.00000000000E+00 0.  1.
</event>
<event>
12    1  0.1040325E-001  0.1996894E+03  0.7818608E-02  0.1150215E+00
         21   -1    0    0  501  502  0.00000000000E+00  0.00000000000E+00  0.18268759977E+03  0.18268759977E+03  0.00000000000E+00 0.  1.
         21   -1    0    0  502  503 -0.00000000000E+00 -0.00000000000E+00 -0.22252192125E+03  0.22252192125E+03  0.00000000000E+00 0.  1.
         -6    2    1    2    0  503  0.94331988876E+02  0.36130647513E+02 -0.51285435486E+02  0.20519202749E+03  0.17108367671E+03 0.  0.
        -24    2    3    3    0    0  0.91641977553E+02 -0.20131039280E+02  0.74122289742E+01  0.12370509986E+03  0.80277641967E+02 0.  0.
          6    2    1    2  501    0 -0.94331988876E+02 -0.36130647513E+02  0.11451114002E+02  0.20001749354E+03  0.17225539728E+03 0.  0.
         24    2    5    5    0    0 -0.11943756499E+03 -0.33394382523E+02  0.48261678620E+02  0.15513002573E+03  0.79722133354E+02 0.  0.
          5    1    5    5  501    0  0.25105576114E+02 -0.27362649902E+01 -0.36810564618E+02  0.44887467802E+02  0.47000000000E+01 0. -1.
        -11    1    6    6    0    0 -0.78274348787E+02  0.10224698556E+02  0.12895333556E+01  0.78949864058E+02  0.00000000000E+00 0.  1.
         12    1    6    6    0    0 -0.41163216203E+02 -0.43619081079E+02  0.46972145264E+02  0.76180161676E+02  0.00000000000E+00 0. -1.
         -5    1    3    3    0  503  0.26900113232E+01  0.56261686793E+02 -0.58697664460E+02  0.81486927631E+02  0.47000000000E+01 0.  1.
         11    1    4    4    0    0  0.74638601662E+01 -0.30012000742E+02 -0.17278810812E+02  0.35425791455E+02  0.00000000000E+00 0. -1.
        -12    1    4    4    0    0  0.84178117386E+02  0.98809614617E+01  0.24691039786E+02  0.88279308401E+02  0.00000000000E+00 0.  1.
</event>
<event>
12    1  0.1040325E-001  0.2491230E+03  0.7818608E-02  0.1113900E+00
         21   -1    0    0  501  502  0.00000000000E+00  0.00000000000E+00  0.55156714725E+02  0.55156714725E+02  0.00000000000E+00 0. -1.
         21   -1    0    0  502  503 -0.00000000000E+00 -0.00000000000E+00 -0.15176233971E+04  0.15176233971E+04  0.00000000000E+00 0. -1.
         -6    2    1    2    0  503  0.47041938819E+02  0.17356387383E+03 -0.11319740392E+04  0.11590631972E+04  0.17240912806E+03 0.  0.
        -24    2    3    3    0    0  0.52908958210E+01  0.14334831683E+02 -0.44778310836E+03  0.45533288148E+03  0.81147026126E+02 0.  0.
          6    2    1    2  501    0 -0.47041938819E+02 -0.17356387383E+03 -0.33049264321E+03  0.41371691463E+03  0.17204341292E+03 0.  0.
         24    2    5    5    0    0 -0.26748244691E+01 -0.16139462280E+03 -0.17344183507E+03  0.24999893198E+03  0.79762252239E+02 0.  0.
          5    1    5    5  501    0 -0.44367114350E+02 -0.12169251027E+02 -0.15705080814E+03  0.16371798265E+03  0.47000000000E+01 0. -1.
        -11    1    6    6    0    0  0.13202106104E+02  0.10110607282E+01 -0.21358916464E+01  0.13411930603E+02  0.00000000000E+00 0.  1.
         12    1    6    6    0    0 -0.15876930573E+02 -0.16240568353E+03 -0.17130594342E+03  0.23658700137E+03  0.00000000000E+00 0. -1.
         -5    1    3    3    0  503  0.41751042998E+02  0.15922904215E+03 -0.68419093080E+03  0.70373031570E+03  0.47000000000E+01 0.  1.
         11    1    4    4    0    0 -0.34885180502E+02  0.15195201840E+02 -0.14561970171E+03  0.15050902798E+03  0.00000000000E+00 0. -1.
        -12    1    4    4    0    0  0.40176076323E+02 -0.86037015672E+00 -0.30216340665E+03  0.30482385350E+03  0.00000000000E+00 0.  1.
</event>
<event>
12    1  0.1040325E-001  0.2153708E+03  0.7818608E-02  0.1138594E+00
         21   -1    0    0  503  502  0.00000000000E+00  0.00000000000E+00  0.74347328048E+03  0.74347328048E+03  0.00000000000E+00 0. -1.
         21   -1    0    0  501  503 -0.00000000000E+00 -0.00000000000E+00 -0.69856750767E+02  0.69856750767E+02  0.00000000000E+00 0.  1.
          6    2    1    2  501    0  0.93375833339E+02 -0.74893774938E+02  0.19306265562E+03  0.28923650657E+03  0.17904313437E+03 0.  0.
         24    2    3    3    0    0  0.11187386352E+03 -0.25497367641E+02  0.18834703559E+03  0.23607158161E+03  0.84198032834E+02 0.  0.
         -6    2    1    2    0  502 -0.93375833339E+02  0.74893774938E+02  0.48055387410E+03  0.52409352468E+03  0.17150473148E+03 0.  0.
        -24    2    5    5    0    0  0.10903843752E+02  0.53941118528E+02  0.29278344294E+03  0.30823919953E+03  0.79124721763E+02 0.  0.
          5    1    3    3  501    0 -0.18498030179E+02 -0.49396407297E+02  0.47156200301E+01  0.53164924966E+02  0.47000000000E+01 0. -1.
        -13    1    4    4    0    0  0.67581566832E+02 -0.54376314442E+01  0.37282139962E+02  0.77374375418E+02  0.00000000000E+00 0.  1.
         14    1    4    4    0    0  0.44292296685E+02 -0.20059736196E+02  0.15106489562E+03  0.15869720619E+03  0.00000000000E+00 0. -1.
         -5    1    5    5    0  502 -0.10427967709E+03  0.20952656410E+02  0.18777043116E+03  0.21585432514E+03  0.47000000000E+01 0.  1.
         13    1    6    6    0    0  0.15769660443E+02 -0.14912941856E+02  0.33432654398E+02  0.39860010103E+02  0.00000000000E+00 0. -1.
        -14    1    6    6    0    0 -0.48658166903E+01  0.68854060385E+02  0.25935078854E+03  0.26837918943E+03  0.00000000000E+00 0.  1.
</event>
<event>
12    1  0.1040325E-001  0.2251674E+03  0.7818608E-02  0.1130323E+00
         21   -1    0    0  501  502  0.00000000000E+00  0.00000000000E+00  0.15136070074E+03  0.15136070074E+03  0.00000000000E+00 0.  1.
         21   -1    0    0  502  503 -0.00000000000E+00 -0.00000000000E+00 -0.34698430171E+03  0.34698430171E+03  0.00000000000E+00 0.  1.
         -6    2    1    2    0  503  0.43655304908E+02  0.13688628041E+03 -0.14803809646E+03  0.26947285872E+03  0.17336869432E+03 0.  0.
        -24    2    3    3    0    0 -0.52227530798E+01  0.14250600716E+03 -0.72793883820E+02  0.17944826531E+03  0.81040059069E+02 0.  0.
          6    2    1    2  501    0 -0.43655304908E+02 -0.13688628041E+03 -0.47585504502E+02  0.22887214373E+03  0.17168121192E+03 0.  0.
         24    2    5    5    0    0  0.72874840506E+01 -0.14958305446E+03 -0.44093552579E+02  0.17604545023E+03  0.81360688063E+02 0.  0.
          5    1    5    5  501    0 -0.50942788959E+02  0.12696774049E+02 -0.34919519235E+01  0.52826693502E+02  0.47000000000E+01 0. -1.
        -13    1    6    6    0    0 -0.30239382624E+02 -0.10804007507E+03 -0.42706098409E+02  0.12004536194E+03  0.00000000000E+00 0.  1.
         14    1    6    6    0    0  0.37526866675E+02 -0.41542979389E+02 -0.13874541702E+01  0.56000088286E+02  0.00000000000E+00 0. -1.
         -5    1    3    3    0  503  0.48878057988E+02 -0.56197267565E+01 -0.75244212644E+02  0.90024593406E+02  0.47000000000E+01 0.  1.
         13    1    4    4    0    0  0.43611165797E+01  0.32200583193E+00  0.12584737414E+02  0.13322861605E+02  0.00000000000E+00 0. -1.
        -14    1    4    4    0    0 -0.95838696594E+01  0.14218400133E+03 -0.85378621234E+02  0.16612540371E+03  0.00000000000E+00 0.  1.
</event>
<event>
12    1  0.1040325E-001  0.2334226E+03  0.7818608E-02  0.1124629E+00
         21   -1    0    0  503  502  0.00000000000E+00  0.00000000000E+00  0.26243129538E+03  0.26243129538E+03  0.00000000000E+00 0.  1.
         21   -1    0    0  501  503 -0.00000000000E+00 -0.00000000000E+00 -0.32779823894E+03  0.32779823894E+03  0.00000000000E+00 0.  1.
          6    2    1    2  501    0  0.56651161873E+02 -0.14649603198E+03 -0.21269738043E+03  0.31419991682E+03  0.16973794673E+03 0.  0.
         24    2    3    3    0    0  0.64596387994E+01 -0.71556288028E+02 -0.58986756690E+02  0.13591867815E+03  0.99158561483E+02 0.  0.
         -6    2    1    2    0  502 -0.56651161873E+02  0.14649603198E+03  0.14733043687E+03  0.27602961750E+03  0.17267208977E+03 0.  0.
        -24    2    5    5    0    0  0.18403559761E+02  0.74489693341E+02  0.24076449447E+02  0.11468601069E+03  0.81766742659E+02 0.  0.
          5    1    3    3  501    0  0.50191523074E+02 -0.74939743952E+02 -0.15371062374E+03  0.17828123867E+03  0.47000000000E+01 0. -1.
        -13    1    4    4    0    0 -0.11395158426E+02 -0.71135514018E+02  0.23035570813E+01  0.72079243652E+02  0.00000000000E+00 0.  1.
         14    1    4    4    0    0  0.17854797226E+02 -0.42077400973E+00 -0.61290313772E+02  0.63839434498E+02  0.00000000000E+00 0. -1.
         -5    1    5    5    0  502 -0.75054721634E+02  0.72006338639E+02  0.12325398742E+03  0.16134360681E+03  0.47000000000E+01 0.  1.
         11    1    6    6    0    0  0.99165911735E+00  0.53236111599E+02 -0.24706294862E+02  0.58698108759E+02  0.00000000000E+00 0. -1.
        -12    1    6    6    0    0  0.17411900644E+02  0.21253581742E+02  0.48782744309E+02  0.55987901936E+02  0.00000000000E+00 0.  1.
</event>
<event>
12    1  0.1040325E-001  0.1907657E+03  0.7818608E-02  0.1157798E+00
         21   -1    0    0  501  502  0.00000000000E+00  0.00000000000E+00  0.13688544489E+04  0.13688544489E+04  0.00000000000E+00 0. -1.
         21   -1    0    0  502  503 -0.00000000000E+00 -0.00000000000E+00 -0.26756984809E+02  0.26756984809E+02  0.00000000000E+00 0.  1.
         -6    2    1    2    0  503  0.24468908187E+02  0.80109663990E+02  0.72968818818E+03  0.75421243234E+03  0.17139211007E+03 0.  0.
        -24    2    3    3    0    0  0.35644062534E+02  0.83741274012E+02  0.28622838845E+03  0.31057208630E+03  0.79026769274E+02 0.  0.
          6    2    1    2  501    0 -0.24468908187E+02 -0.80109663990E+02  0.61240927594E+03  0.64139900140E+03  0.17126374982E+03 0.  0.
         24    2    5    5    0    0  0.96254311738E+01 -0.11484688353E+03  0.41764847636E+03  0.44059323093E+03  0.80060538072E+02 0.  0.
          5    1    5    5  501    0 -0.34094339361E+02  0.34737219543E+02  0.19476079959E+03  0.20080577047E+03  0.47000000000E+01 0. -1.
        -11    1    6    6    0    0  0.44297919577E+02 -0.78157624810E+02  0.26487919056E+03  0.27969967034E+03  0.00000000000E+00 0.  1.
         12    1    6    6    0    0 -0.34672488404E+02 -0.36689258723E+02  0.15276928580E+03  0.16089356059E+03  0.00000000000E+00 0. -1.
         -5    1    3    3    0  503 -0.11175154346E+02 -0.36316100226E+01  0.44345979973E+03  0.44364034604E+03  0.47000000000E+01 0.  1.
         13    1    4    4    0    0 -0.21062594335E+02  0.37570244338E+02  0.14868537262E+03  0.15479824344E+03  0.00000000000E+00 0. -1.
        -14    1    4    4    0    0  0.56706656869E+02  0.46171029675E+02  0.13754301583E+03  0.15577384286E+03  0.00000000000E+00 0.  1.
</event>
<event>
12    1  0.1040325E-001  0.1941578E+03  0.7818608E-02  0.1155039E+00
         21   -1    0    0  501  502  0.00000000000E+00  0.00000000000E+00  0.56014044307E+03  0.56014044307E+03  0.00000000000E+00 0.  1.
         21   -1    0    0  502  503 -0.00000000000E+00 -0.00000000000E+00 -0.10461888795E+03  0.10461888795E+03  0.00000000000E+00 0.  1.
         -6    2    1    2    0  503  0.24395129549E+02  0.83925506707E+02  0.28566849642E+02  0.19624810089E+03  0.17337427486E+03 0.  0.
        -24    2    3    3    0    0  0.22795163663E+02 -0.52867054267E+01 -0.27139541865E+02  0.90954840239E+02  0.83598202669E+02 0.  0.
          6    2    1    2  501    0 -0.24395129549E+02 -0.83925506707E+02  0.42695470548E+03  0.46851123012E+03  0.17197046025E+03 0.  0.
         24    2    5    5    0    0  0.38668205004E+02 -0.78741200526E+02  0.34731758673E+03  0.36668774620E+03  0.78326179675E+02 0.  0.
          5    1    5    5  501    0 -0.63063334553E+02 -0.51843061818E+01  0.79637118747E+02  0.10182348392E+03  0.47000000000E+01 0. -1.
        -13    1    6    6    0    0 -0.71375565197E+01 -0.22835942104E+02  0.21139419363E+03  0.21274381322E+03  0.00000000000E+00 0.  1.
         14    1    6    6    0    0  0.45805761524E+02 -0.55905258422E+02  0.13592339310E+03  0.15394393298E+03  0.00000000000E+00 0. -1.
         -5    1    3    3    0  503  0.15999658857E+01  0.89212212134E+02  0.55706391506E+02  0.10529326065E+03  0.47000000000E+01 0.  1.
         11    1    4    4    0    0 -0.14341392267E+02 -0.28619823225E+02  0.99431357237E+01  0.33520676628E+02  0.00000000000E+00 0. -1.
        -12    1    4    4    0    0  0.37136555930E+02  0.23333117798E+02 -0.37082677588E+02  0.57434163611E+02  0.00000000000E+00 0.  1.
</event>
<event>
12    1  0.1040325E-001  0.2816610E+03  0.7818608E-02  0.1094789E+00
         21   -1    0    0  503  502  0.00000000000E+00  0.00000000000E+00  0.72278272312E+03  0.72278272312E+03  0.00000000000E+00 0.  1.
         21   -1    0    0  501  503 -0.00000000000E+00 -0.00000000000E+00 -0.11319205730E+03  0.11319205730E+03  0.00000000000E+00 0.  1.
          6    2    1    2  501    0 -0.38092369787E+02  0.21992156474E+03  0.37768101958E+03  0.47112551441E+03  0.17175498393E+03 0.  0.
         24    2    3    3    0    0  0.44498015882E+02  0.96204818221E+02  0.17736045558E+03  0.22157106437E+03  0.80009780004E+02 0.  0.
         -6    2    1    2    0  502  0.38092369787E+02 -0.21992156474E+03  0.23190964624E+03  0.36484926601E+03  0.17180331665E+03 0.  0.
        -24    2    5    5    0    0  0.89189285036E+02 -0.16140775035E+03  0.18767121244E+03  0.27532893174E+03  0.81107004841E+02 0.  0.
          5    1    3    3  501    0 -0.82590385670E+02  0.12371674652E+03  0.20032056399E+03  0.24955445003E+03  0.47000000000E+01 0. -1.
        -13    1    4    4    0    0  0.24697786415E+02  0.10726656931E+03  0.14931695648E+03  0.18550377634E+03  0.00000000000E+00 0.  1.
         14    1    4    4    0    0  0.19800229467E+02 -0.11061751085E+02  0.28043499102E+02  0.36067288031E+02  0.00000000000E+00 0. -1.
         -5    1    5    5    0  502 -0.51096915249E+02 -0.58513814387E+02  0.44238433808E+02  0.89520334270E+02  0.47000000000E+01 0.  1.
         11    1    6    6    0    0  0.28500183342E+02 -0.29891603341E+02  0.94434702863E+02  0.10307124481E+03  0.00000000000E+00 0. -1.
        -12    1    6    6    0    0  0.60689101694E+02 -0.13151614701E+03  0.93236509572E+02  0.17225768693E+03  0.00000000000E+00 0.  1.
</event>
<event>
12    1  0.1040325E-001  0.2184176E+03  0.7818608E-02  0.1135183E+00
         21   -1    0    0  501  502  0.00000000000E+00  0.00000000000E+00  0.15001798000E+03  0.15001798000E+03  0.00000000000E+00 0.  1.
         21   -1    0    0  502  503 -0.00000000000E+00 -0.00000000000E+00 -0.35039472184E+03  0.35039472184E+03  0.00000000000E+00 0. -1.
         -6    2    1    2    0  503  0.65073390540E+02  0.11741613562E+03 -0.17742430113E+03  0.28139940307E+03  0.17229377921E+03 0.  0.
        -24    2    3    3    0    0  0.97025221255E+02  0.13023299166E+03 -0.16119719450E+03  0.24305099665E+03  0.81943430386E+02 0.  0.
          6    2    1    2  501    0 -0.65073390540E+02 -0.11741613562E+03 -0.22952440709E+02  0.21901329878E+03  0.17151943169E+03 0.  0.
         24    2    5    5    0    0 -0.83425152886E+02 -0.38412490216E+02  0.28008458366E+02  0.12310987651E+03  0.77047338802E+02 0.  0.
          5    1    5    5  501    0  0.18351762346E+02 -0.79003645401E+02 -0.50960899075E+02  0.95903422266E+02  0.47000000000E+01 0. -1.
        -11    1    6    6    0    0 -0.33019624407E+02 -0.39728523489E+01  0.48418897853E+02  0.58740691357E+02  0.00000000000E+00 0.  1.
         12    1    6    6    0    0 -0.50405528479E+02 -0.34439637867E+02 -0.20410439487E+02  0.64369185157E+02  0.00000000000E+00 0. -1.
         -5    1    3    3    0  503 -0.31951830716E+02 -0.12816856043E+02 -0.16227106634E+02  0.38348406416E+02  0.47000000000E+01 0.  1.
         11    1    4    4    0    0  0.18171636129E+02 -0.41197049139E+01 -0.45000238785E+02  0.48705254531E+02  0.00000000000E+00 0. -1.
        -12    1    4    4    0    0  0.78853585126E+02  0.13435269657E+03 -0.11619695571E+03  0.19434574212E+03  0.00000000000E+00 0.  1.
</event>
<event>
12    1  0.1040325E-001  0.1764415E+03  0.7818608E-02  0.1172060E+00
         21   -1    0    0  503  502  0.00000000000E+00  0.00000000000E+00  0.10934549070E+03  0.10934549070E+03  0.00000000000E+00 0. -1.
         21   -1    0    0  501  503 -0.00000000000E+00 -0.00000000000E+00 -0.28100007226E+03  0.28100007226E+03  0.00000000000E+00 0. -1.
          6    2    1    2  501    0 -0.79481904840E+01 -0.35260409891E+02 -0.99411524668E+02  0.20251977800E+03  0.17269956285E+03 0.  0.
         24    2    3    3    0    0 -0.35909569754E+01  0.39598811281E+02 -0.15404749396E+02  0.89816110049E+02  0.79048507218E+02 0.  0.
         -6    2    1    2    0  502  0.79481904840E+01  0.35260409891E+02 -0.72243056891E+02  0.18782578496E+03  0.16956708404E+03 0.  0.
        -24    2    5    5    0    0  0.17323645338E+02  0.43607511627E+02 -0.11272205277E+03  0.14518528346E+03  0.78554322572E+02 0.  0.
          5    1    3    3  501    0 -0.43572335087E+01 -0.74859221172E+02 -0.84006775272E+02  0.11270366795E+03  0.47000000000E+01 0. -1.
        -13    1    4    4    0    0 -0.94847943414E+01 -0.11207396266E+02  0.22001251205E+02  0.26450370685E+02  0.00000000000E+00 0.  1.
         14    1    4    4    0    0  0.58938373660E+01  0.50806207547E+02 -0.37406000601E+02  0.63365739364E+02  0.00000000000E+00 0. -1.
         -5    1    5    5    0  502 -0.93754548544E+01 -0.83471017360E+01  0.40478995877E+02  0.42640501502E+02  0.47000000000E+01 0.  1.
         13    1    6    6    0    0 -0.25909580867E+01  0.44709510275E+02 -0.17802997150E+02  0.48193361373E+02  0.00000000000E+00 0. -1.
        -14    1    6    6    0    0  0.19914603425E+02 -0.11019986482E+01 -0.94919055618E+02  0.96991922086E+02  0.00000000000E+00 0.  1.
</event>
<event>
12    1  0.1040325E-001  0.1852422E+03  0.7818608E-02  0.1163138E+00
         21   -1    0    0  501  502  0.00000000000E+00  0.00000000000E+00  0.32128725409E+03  0.32128725409E+03  0.00000000000E+00 0. -1.
         21   -1    0    0  502  503 -0.00000000000E+00 -0.00000000000E+00 -0.12803925335E+03  0.12803925335E+03  0.00000000000E+00 0.  1.
         -6    2    1    2    0  503 -0.18842966511E+01  0.68417082302E+02  0.31908862897E+01  0.18392794323E+03  0.17068936352E+03 0.  0.
        -24    2    3    3    0    0 -0.44743317271E+02  0.95933770230E+02  0.82149488076E-01  0.13268520708E+03  0.80000654493E+02 0.  0.
          6    2    1    2  501    0  0.18842966511E+01 -0.68417082302E+02  0.19005711445E+03  0.26539856421E+03  0.17213437602E+03 0.  0.
         24    2    5    5    0    0 -0.58185969971E+02 -0.71487179770E+02  0.10823057256E+03  0.16373472901E+03  0.81235341287E+02 0.  0.
          5    1    5    5  501    0  0.60070266622E+02  0.30700974684E+01  0.81826541882E+02  0.10166383520E+03  0.47000000000E+01 0. -1.
        -13    1    6    6    0    0 -0.10715294446E+02 -0.57052223636E+02  0.18024927713E+02  0.60783811792E+02  0.00000000000E+00 0.  1.
         14    1    6    6    0    0 -0.47470675525E+02 -0.14434956134E+02  0.90205644851E+02  0.10295091722E+03  0.00000000000E+00 0. -1.
         -5    1    3    3    0  503  0.42859020620E+02 -0.27516687928E+02  0.31087368017E+01  0.51242736144E+02  0.47000000000E+01 0.  1.
         11    1    4    4    0    0 -0.28852375294E+02  0.10746422412E+03 -0.77672306456E+01  0.11154079477E+03  0.00000000000E+00 0. -1.
        -12    1    4    4    0    0 -0.15890941977E+02 -0.11530453887E+02  0.78493801337E+01  0.21144412317E+02  0.00000000000E+00 0.  1.
</event>
<event>
12    1  0.1040325E-001  0.1884855E+03  0.7818608E-02  0.1160484E+00
         21   -1    0    0  501  502  0.00000000000E+00  0.00000000000E+00  0.20007194538E+03  0.20007194538E+03  0.00000000000E+00 0. -1.
         21   -1    0    0  502  503 -0.00000000000E+00 -0.00000000000E+00 -0.59718670857E+03  0.59718670857E+03  0.00000000000E+00 0.  1.
         -6    2    1    2    0  503  0.52238910238E+02  0.45906406455E+02 -0.53419814657E+03  0.56647546809E+03  0.17518702647E+03 0.  0.
        -24    2    3    3    0    0  0.21534310502E+02 -0.35048507995E+02 -0.17039793436E+03  0.19248461924E+03  0.79515710182E+02 0.  0.
          6    2    1    2  501    0 -0.52238910238E+02 -0.45906406455E+02  0.13708338338E+03  0.23078318586E+03  0.17214157829E+03 0.  0.
         24    2    5    5    0    0 -0.14674952221E+02 -0.38462988667E+02 -0.12268142199E+02  0.76528773910E+02  0.63335536655E+02 0.  0.
          5    1    5    5  501    0 -0.37563958017E+02 -0.74434177886E+01  0.14935152558E+03  0.15425441195E+03  0.47000000000E+01 0. -1.
        -13    1    6    6    0    0 -0.23455219079E+02  0.65915358902E+01 -0.17969810146E+02  0.30273911609E+02  0.00000000000E+00 0.  1.
         14    1    6    6    0    0  0.87802668576E+01 -0.45054524557E+02  0.57016679468E+01  0.46254862301E+02  0.00000000000E+00 0. -1.
         -5    1    3    3    0  503  0.30704599736E+02  0.80954914451E+02 -0.36380021221E+03  0.37399084885E+03  0.47000000000E+01 0.  1.
         11    1    4    4    0    0 -0.25791134505E+02 -0.29331157375E+02 -0.53494360615E+02  0.66235534494E+02  0.00000000000E+00 0. -1.
        -12    1    4    4    0    0  0.47325445007E+02 -0.57173506203E+01 -0.11690357375E+03  0.12624908474E+03  0.00000000000E+00 0.  1.
</event>
<event>
12    1  0.1040325E-001  0.2117960E+03  0.7818608E-02  0.1140234E+00
         21   -1    0    0  503  502  0.00000000000E+00  0.00000000000E+00  0.72224193945E+02  0.72224193945E+02  0.00000000000E+00 0. -1.
         21   -1    0    0  501  503 -0.00000000000E+00 -0.00000000000E+00 -0.62149352538E+03  0.62149352538E+03  0.00000000000E+00 0. -1.
          6    2    1    2  501    0 -0.78742221061E+02  0.95240017566E+02 -0.25710976025E+03  0.33311105220E+03  0.17200740089E+03 0.  0.
         24    2    3    3    0    0 -0.58967723672E+02 -0.12948623241E+02 -0.10018094771E+03  0.14142235940E+03  0.79493409623E+02 0.  0.
         -6    2    1    2    0  502  0.78742221061E+02 -0.95240017566E+02 -0.29215957118E+03  0.36060666712E+03  0.17149039335E+03 0.  0.
        -24    2    5    5    0    0  0.61410613876E+01 -0.42683632131E+02 -0.24060812151E+03  0.25710428068E+03  0.79691517231E+02 0.  0.
          5    1    3    3  501    0 -0.19774497389E+02  0.10818864081E+03 -0.15692881253E+03  0.19168869281E+03  0.47000000000E+01 0. -1.
        -11    1    4    4    0    0 -0.17763829440E+01 -0.11893626950E+02  0.11058801778E+02  0.16337410908E+02  0.00000000000E+00 0.  1.
         12    1    4    4    0    0 -0.57191340728E+02 -0.10549962906E+01 -0.11123974949E+03  0.12508494849E+03  0.00000000000E+00 0. -1.
         -5    1    5    5    0  502  0.72601159673E+02 -0.52556385435E+02 -0.51551449675E+02  0.10350238644E+03  0.47000000000E+01 0.  1.
         11    1    6    6    0    0  0.25510835931E+02 -0.39160175166E+02 -0.63182794723E+02  0.78589996933E+02  0.00000000000E+00 0. -1.
        -12    1    6    6    0    0 -0.19369774544E+02 -0.35234569650E+01 -0.17742532679E+03  0.17851428374E+03  0.00000000000E+00 0.  1.
</event>
<event>
12    1  0.1040325E-001  0.1787320E+03  0.7818608E-02  0.1169758E+00
         21   -1    0    0  501  502  0.00000000000E+00  0.00000000000E+00  0.18726256617E+04  0.18726256617E+04  0.00000000000E+00 0. -1.
         21   -1    0    0  502  503 -0.00000000000E+00 -0.00000000000E+00 -0.20327501893E+02  0.20327501893E+02  0.00000000000E+00 0. -1.
         -6    2    1    2    0  503 -0.37636425155E+02  0.27527347091E+02  0.53710623516E+03  0.56606381457E+03  0.17254239762E+03 0.  0.
        -24    2    3    3    0    0  0.40115111708E+02  0.42808827941E+02  0.28766182852E+03  0.30429401657E+03  0.80023140351E+02 0.  0.
          6    2    1    2  501    0  0.37636425155E+02 -0.27527347091E+02  0.13151919246E+04  0.13268893490E+04  0.16950306950E+03 0.  0.
         24    2    5    5    0    0 -0.42028803617E+02 -0.71099560585E+01  0.57012673996E+03  0.57728436108E+03  0.79973508833E+02 0.  0.
          5    1    5    5  501    0  0.79665228772E+02 -0.20417391032E+02  0.74506518465E+03  0.74960498791E+03  0.47000000000E+01 0. -1.
        -13    1    6    6    0    0  0.15331551533E+02  0.19314699400E+02  0.10316717252E+03  0.10607346309E+03  0.00000000000E+00 0.  1.
         14    1    6    6    0    0 -0.57360355150E+02 -0.26424655459E+02  0.46695956744E+03  0.47121089799E+03  0.00000000000E+00 0. -1.
         -5    1    3    3    0  503 -0.77751536863E+02 -0.15281480851E+02  0.24944440664E+03  0.26176979800E+03  0.47000000000E+01 0.  1.
         11    1    4    4    0    0 -0.30695763797E+01  0.53608388180E+02  0.13540332215E+03  0.14566173565E+03  0.00000000000E+00 0. -1.
        -12    1    4    4    0    0  0.43184688088E+02 -0.10799560239E+02  0.15225850637E+03  0.15863228092E+03  0.00000000000E+00 0.  1.
</event>
<event>
12    1  0.1040325E-001  0.1732423E+03  0.7818608E-02  0.1174567E+00
         21   -1    0    0  503  502  0.00000000000E+00  0.00000000000E+00  0.34111996195E+03  0.34111996195E+03  0.00000000000E+00 0.  1.
         21   -1    0    0  501  503 -0.00000000000E+00 -0.00000000000E+00 -0.88717491289E+02  0.88717491289E+02  0.00000000000E+00 0.  1.
          6    2    1    2  501    0  0.38503156678E+01 -0.12774219583E+02  0.10523897601E+03  0.20270209731E+03  0.17272779906E+03 0.  0.
         24    2    3    3    0    0 -0.32405797749E+02 -0.63311959606E+02  0.73378341811E+02  0.13266097412E+03  0.84593221066E+02 0.  0.
         -6    2    1    2    0  502 -0.38503156678E+01  0.12774219583E+02  0.14716349465E+03  0.22713535593E+03  0.17249744966E+03 0.  0.
        -24    2    5    5    0    0  0.46669716762E+02  0.38363452392E+02  0.13440453157E+03  0.16889478887E+03  0.82529114012E+02 0.  0.
          5    1    3    3  501    0  0.36256113417E+02  0.50537740023E+02  0.31860634203E+02  0.70041123196E+02  0.47000000000E+01 0. -1.
        -13    1    4    4    0    0 -0.31886351016E+02 -0.36035115512E+02  0.89035419500E+02  0.10120560684E+03  0.00000000000E+00 0.  1.
         14    1    4    4    0    0 -0.51944673279E+00 -0.27276844095E+02 -0.15657077689E+02  0.31455367275E+02  0.00000000000E+00 0. -1.
         -5    1    5    5    0  502 -0.50520032430E+02 -0.25589232809E+02  0.12758963087E+02  0.58240567060E+02  0.47000000000E+01 0.  1.
         11    1    6    6    0    0 -0.19477171448E+02 -0.46136071198E+01  0.12195839200E+02  0.23438943493E+02  0.00000000000E+00 0. -1.
        -12    1    6    6    0    0  0.66146888210E+02  0.42977059512E+02  0.12220869237E+03  0.14545584538E+03  0.00000000000E+00 0.  1.
</event>
<event>
12    1  0.1040325E-001  0.2260129E+03  0.7818608E-02  0.1129497E+00
         21   -1    0    0  501  502  0.00000000000E+00  0.00000000000E+00  0.22814930712E+02  0.22814930712E+02  0.00000000000E+00 0.  1.
         21   -1    0    0  502  503 -0.00000000000E+00 -0.00000000000E+00 -0.27638626136E+04  0.27638626136E+04  0.00000000000E+00 0.  1.
         -6    2    1    2    0  503 -0.14513813280E+02  0.14489874320E+03 -0.19780726467E+04  0.19909309042E+04  0.17270834669E+03 0.  0.
        -24    2    3    3    0    0 -0.65139175076E+02  0.14055249632E+03 -0.15364587712E+04  0.15463786326E+04  0.81136942532E+02 0.  0.
          6    2    1    2  501    0  0.14513813280E+02 -0.14489874320E+03 -0.76297503616E+03  0.79574664011E+03  0.17284534383E+03 0.  0.
         24    2    5    5    0    0 -0.52043830054E+02 -0.61112054435E+02 -0.39945327885E+03  0.41677396677E+03  0.87717580613E+02 0.  0.
          5    1    5    5  501    0  0.66557643334E+02 -0.83786688764E+02 -0.36352175731E+03  0.37897267334E+03  0.47000000000E+01 0. -1.
        -13    1    6    6    0    0 -0.37286989653E+02 -0.79286882162E+02 -0.23767185663E+03  0.25330740359E+03  0.00000000000E+00 0.  1.
         14    1    6    6    0    0 -0.14756840401E+02  0.18174827727E+02 -0.16178142222E+03  0.16346656318E+03  0.00000000000E+00 0. -1.
         -5    1    3    3    0  503  0.50625361796E+02  0.43462468746E+01 -0.44161387553E+03  0.44455227159E+03  0.47000000000E+01 0.  1.
         11    1    4    4    0    0 -0.34102468247E+02  0.40594029026E+01 -0.35468617481E+03  0.35634497288E+03  0.00000000000E+00 0. -1.
        -12    1    4    4    0    0 -0.31036706829E+02  0.13649309342E+03 -0.11817725964E+04  0.11900336597E+04  0.00000000000E+00 0.  1.
</event>
<event>
12    1  0.1040325E-001  0.2185965E+03  0.7818608E-02  0.1135366E+00
         21   -1    0    0  501  502  0.00000000000E+00  0.00000000000E+00  0.55258980475E+03  0.55258980475E+03  0.00000000000E+00 0. -1.
         21   -1    0    0  502  503 -0.00000000000E+00 -0.00000000000E+00 -0.24889462124E+03  0.24889462124E+03  0.00000000000E+00 0.  1.
         -6    2    1    2    0  503 -0.11881830481E+03  0.54032816127E+02 -0.17305051056E+03  0.27701241912E+03  0.17248787309E+03 0.  0.
        -24    2    3    3    0    0 -0.86334565985E+02  0.63997486787E+02 -0.40909302272E+02  0.14049180940E+03  0.80715809461E+02 0.  0.
          6    2    1    2  501    0  0.11881830481E+03 -0.54032816127E+02  0.47674569408E+03  0.52447200687E+03  0.17534849411E+03 0.  0.
         24    2    5    5    0    0  0.12991595517E+03 -0.77678671786E+02  0.29640191605E+03  0.34218582360E+03  0.79529306419E+02 0.  0.
          5    1    5    5  501    0 -0.11097650362E+02  0.23645855659E+02  0.18034377803E+03  0.18228618326E+03  0.47000000000E+01 0. -1.
        -11    1    6    6    0    0  0.81644204390E+01 -0.41902768264E+02  0.94819256846E+02  0.10398649536E+03  0.00000000000E+00 0.  1.
         12    1    6    6    0    0  0.12175153473E+03 -0.35775903521E+02  0.20158265920E+03  0.23819932824E+03  0.00000000000E+00 0. -1.
         -5    1    3    3    0  503 -0.32483738824E+02 -0.99646706600E+01 -0.13214120829E+03  0.13652060972E+03  0.47000000000E+01 0.  1.
         13    1    4    4    0    0 -0.38538987743E+02  0.11458931614E+02  0.21806722113E+02  0.45739412100E+02  0.00000000000E+00 0. -1.
        -14    1    4    4    0    0 -0.47795578243E+02  0.52538555173E+02 -0.62716024385E+02  0.94752397299E+02  0.00000000000E+00 0.  1.
</event>
<event>
12    1  0.1040325E-001  0.1845583E+03  0.7818608E-02  0.1164187E+00
         21   -1    0    0  503  502  0.00000000000E+00  0.00000000000E+00  0.24739819848E+02  0.24739819848E+02  0.00000000000E+00 0.  1.
         21   -1    0    0  501  503 -0.00000000000E+00 -0.00000000000E+00 -0.14036631114E+04  0.14036631114E+04  0.00000000000E+00 0.  1.
          6    2    1    2  501    0 -0.62312293729E+02 -0.25148216793E+02 -0.54961517836E+03  0.57880671776E+03  0.16859750139E+03 0.  0.
         24    2    3    3    0    0 -0.25907743897E+01 -0.69930725324E+02 -0.33366939622E+03  0.35027487366E+03  0.80375386065E+02 0.  0.
         -6    2    1    2    0  502  0.62312293729E+02  0.25148216793E+02 -0.82930811324E+03  0.84959621354E+03  0.17189102542E+03 0.  0.
        -24    2    5    5    0    0  0.65313734761E+02  0.45691450805E+02 -0.30782872966E+03  0.32768255151E+03  0.79143762469E+02 0.  0.
          5    1    3    3  501    0 -0.59721519339E+02  0.44782508530E+02 -0.21594578214E+03  0.22853184410E+03  0.47000000000E+01 0. -1.
        -13    1    4    4    0    0  0.37994055224E+02 -0.23022710102E+02 -0.13121660281E+03  0.13853299342E+03  0.00000000000E+00 0.  1.
         14    1    4    4    0    0 -0.40584829614E+02 -0.46908015222E+02 -0.20245279341E+03  0.21174188024E+03  0.00000000000E+00 0. -1.
         -5    1    5    5    0  502 -0.30014410324E+01 -0.20543234012E+02 -0.52147938358E+03  0.52191366203E+03  0.47000000000E+01 0.  1.
         13    1    6    6    0    0  0.25924485052E+02 -0.24783469324E+01 -0.19025196407E+02  0.32251809671E+02  0.00000000000E+00 0. -1.
        -14    1    6    6    0    0  0.39389249709E+02  0.48169797738E+02 -0.28880353325E+03  0.29543074184E+03  0.00000000000E+00 0.  1.
</event>
<event>
12    1  0.1040325E-001  0.3050559E+03  0.7818608E-02  0.1082756E+00
         21   -1    0    0  501  502  0.00000000000E+00  0.00000000000E+00  0.48163519473E+03  0.48163519473E+03  0.00000000000E+00 0.  1.
         21   -1    0    0  502  503 -0.00000000000E+00 -0.00000000000E+00 -0.25026086155E+03  0.25026086155E+03  0.00000000000E+00 0. -1.
         -6    2    1    2    0  503 -0.19880406281E+03  0.15479063987E+03 -0.59133603598E+02  0.31073444785E+03  0.17197649963E+03 0.  0.
        -24    2    3    3    0    0 -0.12827611133E+03  0.23872992644E+02 -0.77580729032E+01  0.15333318531E+03  0.80163567208E+02 0.  0.
          6    2    1    2  501    0  0.19880406281E+03 -0.15479063987E+03  0.29050793677E+03  0.42116160843E+03  0.17175285005E+03 0.  0.
         24    2    5    5    0    0  0.24544723384E+02 -0.70892953413E+02  0.83184777411E+02  0.13759482338E+03  0.79902277435E+02 0.  0.
          5    1    5    5  501    0  0.17425933943E+03 -0.83897686455E+02  0.20732315936E+03  0.28356678504E+03  0.47000000000E+01 0. -1.
        -11    1    6    6    0    0  0.34932045781E+02 -0.30520875905E+02  0.21154328115E+01  0.46435403998E+02  0.00000000000E+00 0.  1.
         12    1    6    6    0    0 -0.10387322398E+02 -0.40372077508E+02  0.81069344599E+02  0.91159419385E+02  0.00000000000E+00 0. -1.
         -5    1    3    3    0  503 -0.70527951485E+02  0.13091764722E+03 -0.51375530695E+02  0.15740126254E+03  0.47000000000E+01 0.  1.
         11    1    4    4    0    0 -0.12762507342E+03  0.16341179372E+02 -0.28041080343E+02  0.13168711287E+03  0.00000000000E+00 0. -1.
        -12    1    4    4    0    0 -0.65103791000E+00  0.75318132719E+01  0.20283007440E+02  0.21646072446E+02  0.00000000000E+00 0.  1.
</event>
<event>
12    1  0.1040325E-001  0.1760490E+03  0.7818608E-02  0.1171807E+00
         21   -1    0    0  501  502  0.00000000000E+00  0.00000000000E+00  0.29136360980E+03  0.29136360980E+03  0.00000000000E+00 0.  1.
         21   -1    0    0  502  503 -0.00000000000E+00 -0.00000000000E+00 -0.11359092313E+03  0.11359092313E+03  0.00000000000E+00 0.  1.
         -6    2    1    2    0  503 -0.20947262600E+02  0.26556427739E+02  0.36672763663E+02  0.17933888072E+03  0.17226000952E+03 0.  0.
        -24    2    3    3    0    0  0.37349962763E+02 -0.27133931502E+02 -0.26425424349E+01  0.90744273359E+02  0.78078615252E+02 0.  0.
          6    2    1    2  501    0  0.20947262600E+02 -0.26556427739E+02  0.14109992301E+03  0.22561565220E+03  0.17276921769E+03 0.  0.
         24    2    5    5    0    0  0.32464723068E+02 -0.60070711800E+02  0.15558845929E+03  0.18704277552E+03  0.78197075072E+02 0.  0.
          5    1    5    5  501    0 -0.11517460468E+02  0.33514284061E+02 -0.14488536283E+02  0.38572876680E+02  0.47000000000E+01 0. -1.
        -11    1    6    6    0    0  0.42716769322E+02 -0.15925047215E+02  0.32812633302E+02  0.56169372564E+02  0.00000000000E+00 0.  1.
         12    1    6    6    0    0 -0.10252046254E+02 -0.44145664585E+02  0.12277582599E+03  0.13087340295E+03  0.00000000000E+00 0. -1.
         -5    1    3    3    0  503 -0.58297225362E+02  0.53690359241E+02  0.39315306098E+02  0.88594607364E+02  0.47000000000E+01 0.  1.
         11    1    4    4    0    0  0.16131994895E+02 -0.49330479384E+02 -0.19823310174E+02  0.55558087456E+02  0.00000000000E+00 0. -1.
        -12    1    4    4    0    0  0.21217967868E+02  0.22196547881E+02  0.17180767739E+02  0.35186185903E+02  0.00000000000E+00 0.  1.
</event>
<event>
12    1  0.1040325E-001  0.2043829E+03  0.7818608E-02  0.1146236E+00
         21   -1    0    0  503  502  0.00000000000E+00  0.00000000000E+00  0.82197643272E+03  0.82197643272E+03  0.00000000000E+00 0.  1.
         21   -1    0    0  501  503 -0.00000000000E+00 -0.00000000000E+00 -0.10059926965E+03  0.10059926965E+03  0.00000000000E+00 0. -1.
          6    2    1    2  501    0  0.81503557914E+02  0.70709808557E+02  0.35328332528E+02  0.20672978762E+03  0.17276112709E+03 0.  0.
         24    2    3    3    0    0 -0.53391804005E+01  0.56955478928E+02  0.43569031562E+02  0.11829426364E+03  0.93929967910E+02 0.  0.
         -6    2    1    2    0  502 -0.81503557914E+02 -0.70709808557E+02  0.68604883054E+03  0.71584591475E+03  0.17357899874E+03 0.  0.
        -24    2    5    5    0    0 -0.11785303552E+03 -0.49943668944E+02  0.41217254202E+03  0.43874876845E+03  0.78933955757E+02 0.  0.
          5    1    3    3  501    0  0.86842738314E+02  0.13754329629E+02 -0.82406990341E+01  0.88435523982E+02  0.47000000000E+01 0. -1.
        -13    1    4    4    0    0  0.43756566867E+02  0.18745416020E+02  0.15702965370E+02  0.50125950237E+02  0.00000000000E+00 0.  1.
         14    1    4    4    0    0 -0.49095747267E+02  0.38210062909E+02  0.27866066193E+02  0.68168313403E+02  0.00000000000E+00 0. -1.
         -5    1    5    5    0  502  0.36349477602E+02 -0.20766139613E+02  0.27387628852E+03  0.27709714630E+03  0.47000000000E+01 0.  1.
         13    1    6    6    0    0 -0.11922944318E+03 -0.28100830304E+02  0.38405509244E+03  0.40311739086E+03  0.00000000000E+00 0. -1.
        -14    1    6    6    0    0  0.13764076655E+01 -0.21842838640E+02  0.28117449582E+02  0.35631377590E+02  0.00000000000E+00 0.  1.
</event>
<event>
12    1  0.1040325E-001  0.4568534E+03  0.7818608E-02  0.1025803E+00
         21   -1    0    0  501  502  0.00000000000E+00  0.00000000000E+00  0.37226013182E+04  0.37226013182E+04  0.00000000000E+00 0.  1.
         21   -1    0    0  502  503 -0.00000000000E+00 -0.00000000000E+00 -0.59376438756E+02  0.59376438756E+02  0.00000000000E+00 0. -1.
         -6    2    1    2    0  503 -0.38201352185E+03  0.17810099773E+03  0.13707722838E+04  0.14444461587E+04  0.17249276806E+03 0.  0.
        -24    2    3    3    0    0 -0.12510679442E+03  0.98466651259E+01  0.42970975577E+03  0.45453133472E+03  0.78737495610E+02 0.  0.
          6    2    1    2  501    0  0.38201352185E+03 -0.17810099773E+03  0.22924525956E+04  0.23375315983E+04  0.17624066895E+03 0.  0.
         24    2    5    5    0    0  0.35060118316E+03 -0.12217857401E+03  0.17188106924E+04  0.17602957923E+04  0.80512648944E+02 0.  0.
          5    1    5    5  501    0  0.31412338690E+02 -0.55922423727E+02  0.57364190324E+03  0.57723580593E+03  0.47000000000E+01 0. -1.
        -11    1    6    6    0    0  0.23343617779E+03 -0.88225263819E+02  0.13147035652E+04  0.13381784674E+04  0.00000000000E+00 0.  1.
         12    1    6    6    0    0  0.11716500537E+03 -0.33953310188E+02  0.40410712720E+03  0.42211732493E+03  0.00000000000E+00 0. -1.
         -5    1    3    3    0  503 -0.25690672742E+03  0.16825433261E+03  0.94106252807E+03  0.98991482400E+03  0.47000000000E+01 0.  1.
         11    1    4    4    0    0 -0.12898264814E+03 -0.75255564597E+01  0.39378069462E+03  0.41443502866E+03  0.00000000000E+00 0. -1.
        -12    1    4    4    0    0  0.38758537222E+01  0.17372221586E+02  0.35929061151E+02  0.40096306065E+02  0.00000000000E+00 0.  1.
</event>
<event>
12    1  0.1040325E-001  0.1981407E+03  0.7818608E-02  0.1151435E+00
         21   -1    0    0  501  502  0.00000000000E+00  0.00000000000E+00  0.11616033909E+04  0.11616033909E+04  0.00000000000E+00 0.  1.
         21   -1    0    0  502  503 -0.00000000000E+00 -0.00000000000E+00 -0.47182854055E+02  0.47182854055E+02  0.00000000000E+00 0.  1.
         -6    2    1    2    0  503  0.49607567067E+02  0.82764304961E+02  0.23362548580E+03  0.30597969865E+03  0.17242931156E+03 0.  0.
        -24    2    3    3    0    0  0.54987164763E+02 -0.12655468438E+02  0.14497588407E+03  0.17553923287E+03  0.81315841902E+02 0.  0.
          6    2    1    2  501    0 -0.49607567067E+02 -0.82764304961E+02  0.88079505102E+03  0.90280654628E+03  0.17305749684E+03 0.  0.
         24    2    5    5    0    0  0.25311040799E+02 -0.41219444053E+02  0.26550620834E+03  0.28156486770E+03  0.80284099931E+02 0.  0.
          5    1    5    5  501    0 -0.74918607866E+02 -0.41544860909E+02  0.61528884268E+03  0.62124167858E+03  0.47000000000E+01 0. -1.
        -11    1    6    6    0    0 -0.85361660459E+01 -0.37830650411E+01  0.19298535935E+03  0.19321109346E+03  0.00000000000E+00 0.  1.
         12    1    6    6    0    0  0.33847206845E+02 -0.37436379012E+02  0.72520848992E+02  0.88353774244E+02  0.00000000000E+00 0. -1.
         -5    1    3    3    0  503 -0.53795976957E+01  0.95419773400E+02  0.88649601726E+02  0.13044046578E+03  0.47000000000E+01 0.  1.
         13    1    4    4    0    0  0.49706330345E+02  0.18857149205E+02  0.12959973208E+03  0.14007998396E+03  0.00000000000E+00 0. -1.
        -14    1    4    4    0    0  0.52808344182E+01 -0.31512617644E+02  0.15376151994E+02  0.35459248907E+02  0.00000000000E+00 0.  1.
</event>
<event>
12    1  0.1040325E-001  0.2371193E+03  0.7818608E-02  0.1122021E+00
         21   -1    0    0  503  502  0.00000000000E+00  0.00000000000E+00  0.50821286150E+02  0.50821286150E+02  0.00000000000E+00 0. -1.
         21   -1    0    0  501  503 -0.00000000000E+00 -0.00000000000E+00 -0.11595398567E+04  0.11595398567E+04  0.00000000000E+00 0. -1.
          6    2    1    2  501    0 -0.79586235441E+02  0.14240422921E+03 -0.41717840689E+03  0.47985765430E+03  0.17208315388E+03 0.  0.
         24    2    3    3    0    0 -0.14285858092E+02  0.15075886267E+03 -0.30047396402E+03  0.34578321167E+03  0.79681277614E+02 0.  0.
         -6    2    1    2    0  502  0.79586235441E+02 -0.14240422921E+03 -0.69154016368E+03  0.73050348857E+03  0.16968976239E+03 0.  0.
        -24    2    5    5    0    0  0.10248403465E+03 -0.11017866134E+03 -0.38322557008E+03  0.41962927758E+03  0.81145414303E+02 0.  0.
          5    1    3    3  501    0 -0.65300377349E+02 -0.83546334628E+01 -0.11670444286E+03  0.13407444263E+03  0.47000000000E+01 0. -1.
        -11    1    4    4    0    0  0.22759506443E+02  0.10813009834E+02 -0.60310911929E+02  0.65363004926E+02  0.00000000000E+00 0.  1.
         12    1    4    4    0    0 -0.37045364535E+02  0.13994585283E+03 -0.24016305209E+03  0.28042020674E+03  0.00000000000E+00 0. -1.
         -5    1    5    5    0  502 -0.22897799210E+02 -0.32225567866E+02 -0.30831459360E+03  0.31087421099E+03  0.47000000000E+01 0.  1.
         13    1    6    6    0    0  0.54508928726E+02 -0.33967216227E+02 -0.76135698943E+02  0.99607428150E+02  0.00000000000E+00 0. -1.
        -14    1    6    6    0    0  0.47975105926E+02 -0.76211445112E+02 -0.30708987114E+03  0.32002184943E+03  0.00000000000E+00 0.  1.
</event>
<event>
12    1  0.1040325E-001  0.1812313E+03  0.7818608E-02  0.1167664E+00
         21   -1    0    0  501  502  0.00000000000E+00  0.00000000000E+00  0.89547120045E+03  0.89547120045E+03  0.00000000000E+00 0.  1.
         21   -1    0    0  502  503 -0.00000000000E+00 -0.00000000000E+00 -0.14607942412E+03  0.14607942412E+03  0.00000000000E+00 0.  1.
         -6    2    1    2    0  503 -0.22350665189E+02  0.28597169455E+02 -0.78862552996E+02  0.19370038518E+03  0.17315653790E+03 0.  0.
        -24    2    3    3    0    0  0.46362405988E+02  0.43991924787E+02 -0.24862039215E+02  0.10483740002E+03  0.79296893474E+02 0.  0.
          6    2    1    2  501    0  0.22350665189E+02 -0.28597169455E+02  0.82825432933E+03  0.84785023938E+03  0.17755969150E+03 0.  0.
         24    2    5    5    0    0 -0.45211410481E+02  0.44934668683E+01  0.60182295325E+03  0.60920220912E+03  0.82898743343E+02 0.  0.
          5    1    5    5  501    0  0.67562075670E+02 -0.33090636324E+02  0.22643137607E+03  0.23864803027E+03  0.47000000000E+01 0. -1.
        -13    1    6    6    0    0  0.42783369939E+01 -0.16874154339E+02  0.39771874485E+03  0.39809953687E+03  0.00000000000E+00 0.  1.
         14    1    6    6    0    0 -0.49489747475E+02  0.21367621207E+02  0.20410420841E+03  0.21110267225E+03  0.00000000000E+00 0. -1.
         -5    1    3    3    0  503 -0.68713071177E+02 -0.15394755332E+02 -0.54000513781E+02  0.88862985156E+02  0.47000000000E+01 0.  1.
         11    1    4    4    0    0  0.54872940936E+02  0.30812212295E+02  0.12637494182E+02  0.64188303706E+02  0.00000000000E+00 0. -1.
        -12    1    4    4    0    0 -0.85105349485E+01  0.13179712492E+02 -0.37499533398E+02  0.40649096319E+02  0.00000000000E+00 0.  1.
</event>
<event>
12    1  0.1040325E-001  0.1881837E+03  0.7818608E-02  0.1160206E+00
         21   -1    0    0  501  502  0.00000000000E+00  0.00000000000E+00  0.23949029941E+03  0.23949029941E+03  0.00000000000E+00 0. -1.
         21   -1    0    0  502  503 -0.00000000000E+00 -0.00000000000E+00 -0.15099101511E+03  0.15099101511E+03  0.00000000000E+00 0. -1.
         -6    2    1    2    0  503  0.33942911511E+02 -0.68480994716E+02  0.73725929702E+02  0.20171860018E+03  0.17150251621E+03 0.  0.
        -24    2    3    3    0    0 -0.40484247222E+02 -0.87222414727E+01  0.57806399002E+02  0.10483706425E+03  0.77033619317E+02 0.  0.
          6    2    1    2  501    0 -0.33942911511E+02  0.68480994716E+02  0.14773354593E+02  0.18876271434E+03  0.17196320083E+03 0.  0.
         24    2    5    5    0    0 -0.15017495728E+02  0.85447308704E+02  0.63899481984E+02  0.13325151218E+03  0.78396772627E+02 0.  0.
          5    1    5    5  501    0 -0.18925415783E+02 -0.16966313988E+02 -0.49126127391E+02  0.55511202161E+02  0.47000000000E+01 0. -1.
        -11    1    6    6    0    0 -0.28643935476E+02  0.28017304260E+02  0.62462936364E+02  0.74209586960E+02  0.00000000000E+00 0.  1.
         12    1    6    6    0    0  0.13626439748E+02  0.57430004444E+02  0.14365456202E+01  0.59041925222E+02  0.00000000000E+00 0. -1.
         -5    1    3    3    0  503  0.74427158732E+02 -0.59758753243E+02  0.15919530700E+02  0.96881535928E+02  0.47000000000E+01 0.  1.
         13    1    4    4    0    0 -0.31346256527E+02  0.12782560871E+02  0.70528723947E+02  0.78232234803E+02  0.00000000000E+00 0. -1.
        -14    1    4    4    0    0 -0.91379906949E+01 -0.21504802344E+02 -0.12722324945E+02  0.26604829445E+02  0.00000000000E+00 0.  1.
</event>
<event>
12    1  0.1040325E-001  0.1816646E+03  0.7818608E-02  0.1166259E+00
         21   -1    0    0  503  502  0.00000000000E+00  0.00000000000E+00  0.11551635506E+03  0.11551635506E+03  0.00000000000E+00 0. -1.
         21   -1    0    0  501  503 -0.00000000000E+00 -0.00000000000E+00 -0.55115817786E+03  0.55115817786E+03  0.00000000000E+00 0. -1.
          6    2    1    2  501    0 -0.18201733126E+02  0.52592172295E+02 -0.44940094297E+03  0.48473005977E+03  0.17292999631E+03 0.  0.
         24    2    3    3    0    0 -0.33720183994E+02  0.84216326511E+02 -0.20526590397E+03  0.23802189874E+03  0.79315146662E+02 0.  0.
         -6    2    1    2    0  502  0.18201733126E+02 -0.52592172295E+02  0.13759120166E+02  0.18194447316E+03  0.17267668705E+03 0.  0.
        -24    2    5    5    0    0  0.48890472295E+02 -0.50549592757E+01  0.57810750156E+02  0.11008195554E+03  0.79750380608E+02 0.  0.
          5    1    3    3  501    0  0.15518450869E+02 -0.31624154216E+02 -0.24413503900E+03  0.24670816102E+03  0.47000000000E+01 0. -1.
        -11    1    4    4    0    0 -0.24354914144E+02  0.53465365965E+02 -0.43524276454E+02  0.73116823246E+02  0.00000000000E+00 0.  1.
         12    1    4    4    0    0 -0.93652698501E+01  0.30750960546E+02 -0.16174162751E+03  0.16490507550E+03  0.00000000000E+00 0. -1.
         -5    1    5    5    0  502 -0.30688739170E+02 -0.47537213019E+02 -0.44051629991E+02  0.71862517617E+02  0.47000000000E+01 0.  1.
         11    1    6    6    0    0 -0.11501670427E+01  0.31429096530E+02  0.15360270160E+02  0.35000698455E+02  0.00000000000E+00 0. -1.
        -12    1    6    6    0    0  0.50040639338E+02 -0.36484055806E+02  0.42450479997E+02  0.75081257085E+02  0.00000000000E+00 0.  1.
</event>
<event>
12    1  0.1040325E-001  0.2300204E+03  0.7818608E-02  0.1126658E+00
         21   -1    0    0  501  502  0.00000000000E+00  0.00000000000E+00  0.10469689452E+03  0.10469689452E+03  0.00000000000E+00 0. -1.
         21   -1    0    0  502  503 -0.00000000000E+00 -0.00000000000E+00 -0.50516326176E+03  0.50516326176E+03  0.00000000000E+00 0.  1.
         -6    2    1    2    0  503 -0.72544367225E+02  0.13448900300E+03 -0.19403660751E+03  0.30093122281E+03  0.17192852777E+03 0.  0.
        -24    2    3    3    0    0 -0.87265763318E+02  0.78202557607E+02 -0.19707636637E+03  0.24248283897E+03  0.78916915496E+02 0.  0.
          6    2    1    2  501    0  0.72544367225E+02 -0.13448900300E+03 -0.20642975973E+03  0.30892893348E+03  0.17167953603E+03 0.  0.
         24    2    5    5    0    0 -0.27607220701E+02 -0.57716102217E+02 -0.96375129024E+02  0.14142212586E+03  0.81355670349E+02 0.  0.
          5    1    5    5  501    0  0.10015158793E+03 -0.76772900788E+02 -0.11005463071E+03  0.16750680762E+03  0.47000000000E+01 0. -1.
        -13    1    6    6    0    0 -0.18064349989E+02 -0.74722388318E+02 -0.51605797389E+02  0.92590033916E+02  0.00000000000E+00 0.  1.
         14    1    6    6    0    0 -0.95428707127E+01  0.17006286101E+02 -0.44769331635E+02  0.48832091942E+02  0.00000000000E+00 0. -1.
         -5    1    3    3    0  503  0.14721396093E+02  0.56286445398E+02  0.30397588654E+01  0.58448383831E+02  0.47000000000E+01 0.  1.
         11    1    4    4    0    0 -0.74157642292E+02  0.32367328458E+02 -0.70830777157E+02  0.10753603514E+03  0.00000000000E+00 0. -1.
        -12    1    4    4    0    0 -0.13108121025E+02  0.45835229149E+02 -0.12624558921E+03  0.13494680383E+03  0.00000000000E+00 0.  1.
</event>
<event>
12    1  0.1040325E-001  0.2215133E+03  0.7818608E-02  0.1132920E+00
         21   -1    0    0  503  502  0.00000000000E+00  0.00000000000E+00  0.19967804768E+03  0.19967804768E+03  0.00000000000E+00 0.  1.
         21   -1    0    0  501  503 -0.00000000000E+00 -0.00000000000E+00 -0.44523103287E+03  0.44523103287E+03  0.00000000000E+00 0. -1.
          6    2    1    2  501    0 -0.70225570854E+02  0.12204635360E+03 -0.33927178812E+03  0.40518329310E+03  0.17100061861E+03 0.  0.
         24    2    3    3    0    0 -0.40230390931E+02  0.87729157106E+02 -0.33721076219E+03  0.35931698061E+03  0.77991698636E+02 0.  0.
         -6    2    1    2    0  502  0.70225570854E+02 -0.12204635360E+03  0.93718802938E+02  0.23972578744E+03  0.16987729664E+03 0.  0.
        -24    2    5    5    0    0  0.85164671248E+02 -0.73708077356E+02  0.18206279047E+01  0.13471564391E+03  0.73885642255E+02 0.  0.
          5    1    3    3  501    0 -0.29995179923E+02  0.34317196496E+02 -0.20610259304E+01  0.45866312495E+02  0.47000000000E+01 0. -1.
        -11    1    4    4    0    0  0.22141859203E+02  0.11007478912E+02 -0.55538973522E+02  0.60794770341E+02  0.00000000000E+00 0.  1.
         12    1    4    4    0    0 -0.62372250134E+02  0.76721678194E+02 -0.28167178867E+03  0.29852221027E+03  0.00000000000E+00 0. -1.
         -5    1    5    5    0  502 -0.14939100394E+02 -0.48338276246E+02  0.91898175033E+02  0.10501014354E+03  0.47000000000E+01 0.  1.
         13    1    6    6    0    0  0.87874367007E+01  0.15084353483E+02 -0.17064179990E+01  0.17540485346E+02  0.00000000000E+00 0. -1.
        -14    1    6    6    0    0  0.76377234547E+02 -0.88792430839E+02  0.35270459037E+01  0.11717515856E+03  0.00000000000E+00 0.  1.
</event>
<event>
12    1  0.1040325E-001  0.2319400E+03  0.7818608E-02  0.1125697E+00
         21   -1    0    0  501  502  0.00000000000E+00  0.00000000000E+00  0.35966287923E+02  0.35966287923E+02  0.00000000000E+00 0.  1.
         21   -1    0    0  502  503 -0.00000000000E+00 -0.00000000000E+00 -0.17516480291E+04  0.17516480291E+04  0.00000000000E+00 0. -1.
         -6    2    1    2    0  503 -0.14814028115E+03 -0.45877141765E+02 -0.12057865075E+04  0.12274453086E+04  0.16926496663E+03 0.  0.
        -24    2    3    3    0    0 -0.58434339562E+02 -0.27455947774E+02 -0.30079037719E+03  0.31781539364E+03  0.79770748481E+02 0.  0.
          6    2    1    2  501    0  0.14814028115E+03  0.45877141765E+02 -0.50989523365E+03  0.56016900839E+03  0.17247003688E+03 0.  0.
         24    2    5    5    0    0  0.10241756590E+03  0.93279000523E+02 -0.40819895576E+03  0.43891833482E+03  0.82659466571E+02 0.  0.
          5    1    5    5  501    0  0.45722715247E+02 -0.47401858758E+02 -0.10169627789E+03  0.12125067357E+03  0.47000000000E+01 0. -1.
        -13    1    6    6    0    0  0.95168811535E+02  0.51622351731E+02 -0.21008238320E+03  0.23633996196E+03  0.00000000000E+00 0.  1.
         14    1    6    6    0    0  0.72487543645E+01  0.41656648792E+02 -0.19811657256E+03  0.20257837286E+03  0.00000000000E+00 0. -1.
         -5    1    3    3    0  503 -0.89705941585E+02 -0.18421193991E+02 -0.90499613030E+03  0.90962991497E+03  0.47000000000E+01 0.  1.
         13    1    4    4    0    0 -0.68746837335E+02 -0.84112668952E+00 -0.25276367228E+03  0.26194714956E+03  0.00000000000E+00 0. -1.
        -14    1    4    4    0    0  0.10312497773E+02 -0.26614821085E+02 -0.48026704915E+02  0.55868244081E+02  0.00000000000E+00 0.  1.
</event>
<event>
12    1  0.1040325E-001  0.1782427E+03  0.7818608E-02  0.1170166E+00
         21   -1    0    0  501  502  0.00000000000E+00  0.00000000000E+00  0.89018372213E+02  0.89018372213E+02  0.00000000000E+00 0.  1.
         21   -1    0    0  502  503 -0.00000000000E+00 -0.00000000000E+00 -0.59338217246E+03  0.59338217246E+03  0.00000000000E+00 0. -1.
         -6    2    1    2    0  503 -0.34105936134E+02 -0.21462438036E+02 -0.47107036094E+03  0.50366432277E+03  0.17362780294E+03 0.  0.
        -24    2    3    3    0    0 -0.26249099737E+02  0.54944386600E+02 -0.24290663682E+03  0.26287290321E+03  0.79941404645E+02 0.  0.
          6    2    1    2  501    0  0.34105936134E+02  0.21462438036E+02 -0.33293439304E+02  0.17873622190E+03  0.17092200792E+03 0.  0.
         24    2    5    5    0    0 -0.37467045746E+02  0.38667705418E+02  0.29524939767E+01  0.96550026948E+02  0.80088822714E+02 0.  0.
          5    1    5    5  501    0  0.71572981880E+02 -0.17205267382E+02 -0.36245933281E+02  0.82186194950E+02  0.47000000000E+01 0. -1.
        -11    1    6    6    0    0  0.11817252857E+01  0.15226059612E+01  0.34365172372E+02  0.34419178894E+02  0.00000000000E+00 0.  1.
         12    1    6    6    0    0 -0.38648771032E+02  0.37145099457E+02 -0.31412678395E+02  0.62130848054E+02  0.00000000000E+00 0. -1.
         -5    1    3    3    0  503 -0.78568363975E+01 -0.76406824636E+02 -0.22816372412E+03  0.24079141956E+03  0.47000000000E+01 0.  1.
         13    1    4    4    0    0  0.25859437212E+02  0.21811233747E+02 -0.12834798521E+03  0.13273147975E+03  0.00000000000E+00 0. -1.
        -14    1    4    4    0    0 -0.52108536949E+02  0.33133152853E+02 -0.11455865161E+03  0.13014142345E+03  0.00000000000E+00 0.  1.
</event>
<event>
12    1  0.1040325E-001  0.2027830E+03  0.7818608E-02  0.1147640E+00
         21   -1    0    0  501  502  0.00000000000E+00  0.00000000000E+00  0.14193344070E+03  0.14193344070E+03  0.00000000000E+00 0. -1.
         21   -1    0    0  502  503 -0.00000000000E+00 -0.00000000000E+00 -0.32342366640E+03  0.32342366640E+03  0.00000000000E+00 0. -1.
         -6    2    1    2    0  503 -0.10580394235E+03 -0.11009903947E+02 -0.16780468399E+03  0.26320974409E+03  0.17264201462E+03 0.  0.
        -24    2    3    3    0    0 -0.75316903947E+01 -0.42327392202E+02 -0.11676310436E+03  0.14803355981E+03  0.80199612205E+02 0.  0.
          6    2    1    2  501    0  0.10580394235E+03  0.11009903947E+02 -0.13685541709E+02  0.20214736301E+03  0.17134926354E+03 0.  0.
         24    2    5    5    0    0  0.80704152689E+02  0.34556068693E+02  0.53543683620E+02  0.12647517489E+03  0.73632612774E+02 0.  0.
          5    1    5    5  501    0  0.25099789663E+02 -0.23546164747E+02 -0.67229225329E+02  0.75672188112E+02  0.47000000000E+01 0. -1.
        -11    1    6    6    0    0  0.37773977802E+02  0.25093370239E+02 -0.12589215032E+02  0.47064200450E+02  0.00000000000E+00 0.  1.
         12    1    6    6    0    0  0.42930174887E+02  0.94626984541E+01  0.66132898652E+02  0.79410974443E+02  0.00000000000E+00 0. -1.
         -5    1    3    3    0  503 -0.98272251957E+02  0.31317488256E+02 -0.51041579627E+02  0.11517618428E+03  0.47000000000E+01 0.  1.
         11    1    4    4    0    0 -0.40363265250E+02 -0.94956265635E+01 -0.74430813623E+02  0.85201561735E+02  0.00000000000E+00 0. -1.
        -12    1    4    4    0    0  0.32831574855E+02 -0.32831765639E+02 -0.42332290739E+02  0.62831998071E+02  0.00000000000E+00 0.  1.
</event>
<event>
12    1  0.1040325E-001  0.1935068E+03  0.7818608E-02  0.1155587E+00
         21   -1    0    0  503  502  0.00000000000E+00  0.00000000000E+00  0.74138812839E+02  0.74138812839E+02  0.00000000000E+00 0. -1.
         21   -1    0    0  501  503 -0.00000000000E+00 -0.00000000000E+00 -0.50209790614E+03  0.50209790614E+03  0.00000000000E+00 0. -1.
          6    2    1    2  501    0 -0.77949511059E+01 -0.88278163034E+02 -0.21315947033E+03  0.28712819197E+03  0.17073910946E+03 0.  0.
         24    2    3    3    0    0  0.45817226474E+02 -0.78279074940E+01 -0.11654668546E+03  0.15037063495E+03  0.82871609047E+02 0.  0.
         -6    2    1    2    0  502  0.77949511059E+01  0.88278163034E+02 -0.21479962297E+03  0.28910852701E+03  0.17202054247E+03 0.  0.
        -24    2    5    5    0    0 -0.29803535645E+02  0.85829670495E+02 -0.71001761086E+02  0.14038207877E+03  0.80068064106E+02 0.  0.
          5    1    3    3  501    0 -0.53612177580E+02 -0.80450255540E+02 -0.96612784867E+02  0.13675755702E+03  0.47000000000E+01 0. -1.
        -11    1    4    4    0    0  0.15483970481E+02  0.37095550298E+02 -0.41297421598E+02  0.57630809681E+02  0.00000000000E+00 0.  1.
         12    1    4    4    0    0  0.30333255994E+02 -0.44923457792E+02 -0.75249263862E+02  0.92739825269E+02  0.00000000000E+00 0. -1.
         -5    1    5    5    0  502  0.37598486751E+02  0.24484925387E+01 -0.14379786189E+03  0.14872644824E+03  0.47000000000E+01 0.  1.
         11    1    6    6    0    0  0.18451358556E+02  0.46341285042E+02 -0.58836321233E+01  0.50225336822E+02  0.00000000000E+00 0. -1.
        -12    1    6    6    0    0 -0.48254894201E+02  0.39488385453E+02 -0.65118128962E+02  0.90156741953E+02  0.00000000000E+00 0.  1.
</event>
<event>
12    1  0.1040325E-001  0.1988758E+03  0.7818608E-02  0.1151009E+00
         21   -1    0    0  501  502  0.00000000000E+00  0.00000000000E+00  0.32142723324E+02  0.32142723324E+02  0.00000000000E+00 0.  1.
         21   -1    0    0  502  503 -0.00000000000E+00 -0.00000000000E+00 -0.12216923178E+04  0.12216923178E+04  0.00000000000E+00 0.  1.
         -6    2    1    2    0  503  0.41695282461E+02 -0.91027763530E+02 -0.58127444725E+03  0.61387391008E+03  0.17010774272E+03 0.  0.
        -24    2    3    3    0    0 -0.28738145274E+02 -0.45158808795E+02 -0.18920745441E+03  0.21287086068E+03  0.81543506893E+02 0.  0.
          6    2    1    2  501    0 -0.41695282461E+02  0.91027763530E+02 -0.60827514722E+03  0.63996113105E+03  0.17183435107E+03 0.  0.
         24    2    5    5    0    0  0.42143919180E+02  0.60988352734E+02 -0.28248569716E+03  0.30218571201E+03  0.77603777932E+02 0.  0.
          5    1    5    5  501    0 -0.83839201641E+02  0.30039410795E+02 -0.32578945006E+03  0.33777541904E+03  0.47000000000E+01 0. -1.
        -13    1    6    6    0    0  0.12959237371E+02  0.37750278433E+02 -0.38810088505E+02  0.55670892976E+02  0.00000000000E+00 0.  1.
         14    1    6    6    0    0  0.29184681809E+02  0.23238074302E+02 -0.24367560865E+03  0.24651481903E+03  0.00000000000E+00 0. -1.
         -5    1    3    3    0  503  0.70433427735E+02 -0.45868954735E+02 -0.39206699284E+03  0.40100304940E+03  0.47000000000E+01 0.  1.
         13    1    4    4    0    0  0.21500476859E+01 -0.46200921995E+02 -0.42068855321E+02  0.62521488196E+02  0.00000000000E+00 0. -1.
        -14    1    4    4    0    0 -0.30888192960E+02  0.10421131998E+01 -0.14713859909E+03  0.15034937248E+03  0.00000000000E+00 0.  1.
</event>
<event>
12    1  0.1040325E-001  0.2073226E+03  0.7818608E-02  0.1145417E+00
         21   -1    0    0  503  502  0.00000000000E+00  0.00000000000E+00  0.13790687505E+03  0.13790687505E+03  0.00000000000E+00 0. -1.
         21   -1    0    0  501  503 -0.00000000000E+00 -0.00000000000E+00 -0.41902172522E+03  0.41902172522E+03  0.00000000000E+00 0. -1.
          6    2    1    2  501    0 -0.79931694432E+02  0.58377027980E+02 -0.28733057873E+03  0.34951285159E+03  0.17263666697E+03 0.  0.
         24    2    3    3    0    0  0.46760380979E+01 -0.20598721241E+02 -0.10282408045E+03  0.13165882873E+03  0.79467496584E+02 0.  0.
         -6    2    1    2    0  502  0.79931694432E+02 -0.58377027980E+02  0.62157285652E+01  0.20741574868E+03  0.18216943857E+03 0.  0.
        -24    2    5    5    0    0  0.11727564172E+03 -0.18379448605E+02  0.13390744683E+02  0.15202669190E+03  0.94028839898E+02 0.  0.
          5    1    3    3  501    0 -0.84607732530E+02  0.78975749221E+02 -0.18450649828E+03  0.21785402286E+03  0.47000000000E+01 0. -1.
        -13    1    4    4    0    0 -0.16110069815E+02 -0.16838629624E+02  0.32253829977E+01  0.23526089615E+02  0.00000000000E+00 0.  1.
         14    1    4    4    0    0  0.20786107913E+02 -0.37600916167E+01 -0.10604946345E+03  0.10813273911E+03  0.00000000000E+00 0. -1.
         -5    1    5    5    0  502 -0.37343947293E+02 -0.39997579375E+02 -0.71750161182E+01  0.55389056785E+02  0.47000000000E+01 0.  1.
         13    1    6    6    0    0  0.98013077076E+02  0.17793261213E+02 -0.16935496333E+02  0.10104441825E+03  0.00000000000E+00 0. -1.
        -14    1    6    6    0    0  0.19262564649E+02 -0.36172709817E+02  0.30326241016E+02  0.50982273650E+02  0.00000000000E+00 0.  1.
</event>
<event>
12    1  0.1040325E-001  0.3168445E+03  0.7818608E-02  0.1077151E+00
         21   -1    0    0  501  502  0.00000000000E+00  0.00000000000E+00  0.17665571923E+03  0.17665571923E+03  0.00000000000E+00 0. -1.
         21   -1    0    0  502  503 -0.00000000000E+00 -0.00000000000E+00 -0.85436377996E+03  0.85436377996E+03  0.00000000000E+00 0. -1.
         -6    2    1    2    0  503 -0.74329422143E+02  0.25517194479E+03 -0.63735617767E+03  0.71161585313E+03  0.17186227279E+03 0.  0.
        -24    2    3    3    0    0  0.15341346625E+01  0.19396518645E+03 -0.50645808021E+03  0.54834323314E+03  0.80967074809E+02 0.  0.
          6    2    1    2  501    0  0.74329422143E+02 -0.25517194479E+03 -0.40351883069E+02  0.31940364606E+03  0.17249008739E+03 0.  0.
         24    2    5    5    0    0  0.67227110218E+02 -0.26954222631E+03 -0.56810931867E+02  0.29595288674E+03  0.84782858386E+02 0.  0.
          5    1    5    5  501    0  0.71023119252E+01  0.14370281522E+02  0.16459048798E+02  0.23450759327E+02  0.47000000000E+01 0. -1.
        -13    1    6    6    0    0  0.16665740161E+02 -0.65714236561E+00 -0.56741729666E+01  0.17617462077E+02  0.00000000000E+00 0.  1.
         14    1    6    6    0    0  0.50561370057E+02 -0.26888508394E+03 -0.51136758900E+02  0.27833542466E+03  0.00000000000E+00 0. -1.
         -5    1    3    3    0  503 -0.75863556806E+02  0.61206758340E+02 -0.13089809746E+03  0.16327261998E+03  0.47000000000E+01 0.  1.
         11    1    4    4    0    0 -0.18769275541E+02  0.12570566037E+03 -0.22916271135E+03  0.26204913094E+03  0.00000000000E+00 0. -1.
        -12    1    4    4    0    0  0.20303410204E+02  0.68259526077E+02 -0.27729536885E+03  0.28629410220E+03  0.00000000000E+00 0.  1.
</event>
<event>
12    1  0.1040325E-001  0.1826242E+03  0.7818608E-02  0.1165477E+00
         21   -1    0    0  503  502  0.00000000000E+00  0.00000000000E+00  0.98262344859E+02  0.98262344859E+02  0.00000000000E+00 0. -1.
         21   -1    0    0  501  503 -0.00000000000E+00 -0.00000000000E+00 -0.37738681577E+03  0.37738681577E+03  0.00000000000E+00 0.  1.
          6    2    1    2  501    0  0.37194738704E+02 -0.48096997241E+02 -0.21618217240E+03  0.28248257920E+03  0.17136191572E+03 0.  0.
         24    2    3    3    0    0  0.62551226599E+02 -0.55791173577E+02 -0.22602433012E+03  0.25382756400E+03  0.79474042562E+02 0.  0.
         -6    2    1    2    0  502 -0.37194738704E+02  0.48096997241E+02 -0.62942298504E+02  0.19316658142E+03  0.17220576502E+03 0.  0.
        -24    2    5    5    0    0 -0.37296560871E+02 -0.10961488289E+02  0.29117160251E+02  0.83690789452E+02  0.68155348578E+02 0.  0.
          5    1    3    3  501    0 -0.25356487895E+02  0.76941763364E+01  0.98421577173E+01  0.28655015205E+02  0.47000000000E+01 0. -1.
        -11    1    4    4    0    0  0.15388274280E+02 -0.56580127497E+02 -0.72630465475E+02  0.93345028405E+02  0.00000000000E+00 0.  1.
         12    1    4    4    0    0  0.47162952318E+02  0.78895392001E+00 -0.15339386465E+03  0.16048253559E+03  0.00000000000E+00 0. -1.
         -5    1    5    5    0  502  0.10182216693E+00  0.59058485529E+02 -0.92059458755E+02  0.10947579197E+03  0.47000000000E+01 0.  1.
         13    1    6    6    0    0  0.87464179415E+01 -0.14335716811E+02 -0.12970565444E+02  0.21219052081E+02  0.00000000000E+00 0. -1.
        -14    1    6    6    0    0 -0.46042978812E+02  0.33742285219E+01  0.42087725695E+02  0.62471737371E+02  0.00000000000E+00 0.  1.
</event>
<event>
12    1  0.1040325E-001  0.2086112E+03  0.7818608E-02  0.1142915E+00
         21   -1    0    0  501  502  0.00000000000E+00  0.00000000000E+00  0.26885421583E+03  0.26885421583E+03  0.00000000000E+00 0.  1.
         21   -1    0    0  502  503 -0.00000000000E+00 -0.00000000000E+00 -0.26918971108E+03  0.26918971108E+03  0.00000000000E+00 0.  1.
         -6    2    1    2    0  503 -0.50500263365E+02  0.10409720331E+03 -0.17077806420E+03  0.26959931560E+03  0.17358611529E+03 0.  0.
        -24    2    3    3    0    0 -0.47820558396E+02 -0.10643380105E+02 -0.75097019362E+02  0.12010170812E+03  0.79904759747E+02 0.  0.
          6    2    1    2  501    0  0.50500263365E+02 -0.10409720331E+03  0.17044256895E+03  0.26844461130E+03  0.17212011995E+03 0.  0.
         24    2    5    5    0    0 -0.30682650920E+02 -0.92294006079E+02  0.82744732023E+02  0.14826565458E+03  0.75341920774E+02 0.  0.
          5    1    5    5  501    0  0.81182914285E+02 -0.11803197232E+02  0.87697836928E+02  0.12017895672E+03  0.47000000000E+01 0. -1.
        -13    1    6    6    0    0 -0.18402040862E+02 -0.15565691279E+02  0.63919803536E+02  0.68313008548E+02  0.00000000000E+00 0.  1.
         14    1    6    6    0    0 -0.12280610059E+02 -0.76728314800E+02  0.18824928488E+02  0.79952646035E+02  0.00000000000E+00 0. -1.
         -5    1    3    3    0  503 -0.26797049686E+01  0.11474058342E+03 -0.95681044841E+02  0.14949760748E+03  0.47000000000E+01 0.  1.
         11    1    4    4    0    0 -0.69457620718E+02 -0.15342305509E+02 -0.62113812621E+02  0.94434491222E+02  0.00000000000E+00 0. -1.
        -12    1    4    4    0    0  0.21637062321E+02  0.46989254041E+01 -0.12983206741E+02  0.25667216895E+02  0.00000000000E+00 0.  1.
</event>
<event>
12    1  0.1040325E-001  0.1940190E+03  0.7818608E-02  0.1154921E+00
         21   -1    0    0  503  502  0.00000000000E+00  0.00000000000E+00  0.68024532870E+02  0.68024532870E+02  0.00000000000E+00 0.  1.
         21   -1    0    0  501  503 -0.00000000000E+00 -0.00000000000E+00 -0.55293129189E+03  0.55293129189E+03  0.00000000000E+00 0.  1.
          6    2    1    2  501    0 -0.47015371580E+01  0.90462826955E+02 -0.24352970420E+03  0.31126846888E+03  0.17139345197E+03 0.  0.
         24    2    3    3    0    0 -0.55385378389E+02  0.46737862134E+02 -0.82740473781E+02  0.13703876151E+03  0.81741472084E+02 0.  0.
         -6    2    1    2    0  502  0.47015371580E+01 -0.90462826955E+02 -0.24137705481E+03  0.30968735588E+03  0.17157432293E+03 0.  0.
        -24    2    5    5    0    0 -0.11291099000E+02 -0.85804668986E+02 -0.68345099800E+02  0.13579195541E+03  0.79236811848E+02 0.  0.
          5    1    3    3  501    0  0.50683841231E+02  0.43724964822E+02 -0.16078923042E+03  0.17422970737E+03  0.47000000000E+01 0. -1.
        -13    1    4    4    0    0  0.58491487784E+01  0.18555830928E+02 -0.64263214278E+02  0.67143816635E+02  0.00000000000E+00 0.  1.
         14    1    4    4    0    0 -0.61234527168E+02  0.28182031206E+02 -0.18477259502E+02  0.69894944875E+02  0.00000000000E+00 0. -1.
         -5    1    5    5    0  502  0.15992636158E+02 -0.46581579697E+01 -0.17303195501E+03  0.17389540047E+03  0.47000000000E+01 0.  1.
         11    1    6    6    0    0 -0.10727900187E+02  0.13936163422E+02 -0.96361153022E+01  0.20053907636E+02  0.00000000000E+00 0. -1.
        -12    1    6    6    0    0 -0.56319881245E+00 -0.99740832408E+02 -0.58708984498E+02  0.11573804778E+03  0.00000000000E+00 0.  1.
</event>
<event>
12    1  0.1040325E-001  0.1761200E+03  0.7818608E-02  0.1175008E+00
         21   -1    0    0  503  502  0.00000000000E+00  0.00000000000E+00  0.86200373518E+02  0.86200373518E+02  0.00000000000E+00 0. -1.
         21   -1    0    0  501  503 -0.00000000000E+00 -0.00000000000E+00 -0.33361183898E+03  0.33361183898E+03  0.00000000000E+00 0. -1.
          6    2    1    2  501    0 -0.50987748634E+01  0.48751120314E+02 -0.12672385579E+03  0.21697279251E+03  0.16916142536E+03 0.  0.
         24    2    3    3    0    0 -0.25664911112E+02  0.70309620668E+02 -0.27309365677E+02  0.11308311188E+03  0.80248727830E+02 0.  0.
         -6    2    1    2    0  502  0.50987748634E+01 -0.48751120314E+02 -0.12068760967E+03  0.20283941998E+03  0.15548524667E+03 0.  0.
        -24    2    5    5    0    0  0.49530421798E+02  0.11343967680E+02 -0.62245172366E+02  0.10784889767E+03  0.71937298810E+02 0.  0.
          5    1    3    3  501    0  0.20566136249E+02 -0.21558500354E+02 -0.99414490112E+02  0.10388968063E+03  0.47000000000E+01 0. -1.
        -13    1    4    4    0    0 -0.38378825174E+02  0.11713874962E+02 -0.34207297899E+02  0.52728439366E+02  0.00000000000E+00 0.  1.
         14    1    4    4    0    0  0.12713914062E+02  0.58595745706E+02  0.68979322223E+01  0.60354672516E+02  0.00000000000E+00 0. -1.
         -5    1    5    5    0  502 -0.44431646934E+02 -0.60095087993E+02 -0.58442437303E+02  0.94990522307E+02  0.47000000000E+01 0.  1.
         13    1    6    6    0    0  0.37291452311E+02 -0.24805423368E+02 -0.15259595684E+02  0.47316135771E+02  0.00000000000E+00 0. -1.
        -14    1    6    6    0    0  0.12238969487E+02  0.36149391048E+02 -0.46985576682E+02  0.60532761901E+02  0.00000000000E+00 0.  1.
</event>
<event>
12    1  0.1040325E-001  0.1803590E+03  0.7818608E-02  0.1169489E+00
         21   -1    0    0  501  502  0.00000000000E+00  0.00000000000E+00  0.50238165088E+03  0.50238165088E+03  0.00000000000E+00 0.  1.
         21   -1    0    0  502  503 -0.00000000000E+00 -0.00000000000E+00 -0.10430208016E+03  0.10430208016E+03  0.00000000000E+00 0.  1.
         -6    2    1    2    0  503 -0.67681730259E+01  0.20264694879E+01  0.82609206718E+01  0.18054806870E+03  0.18022055254E+03 0.  0.
        -24    2    3    3    0    0 -0.66911417980E+02  0.31513710407E+02  0.22286595515E+02  0.11195129877E+03  0.81031778683E+02 0.  0.
          6    2    1    2  501    0  0.67681730259E+01 -0.20264694879E+01  0.38981865004E+03  0.42613566234E+03  0.17199740710E+03 0.  0.
         24    2    5    5    0    0  0.55079276813E+01  0.57255700132E+02  0.14775338565E+03  0.17686944706E+03  0.78378478346E+02 0.  0.
          5    1    5    5  501    0  0.12602453445E+01 -0.59282169620E+02  0.24206526439E+03  0.24926621527E+03  0.47000000000E+01 0. -1.
        -13    1    6    6    0    0  0.38618581523E+02  0.38530284500E+02  0.11239822005E+03  0.12493733443E+03  0.00000000000E+00 0.  1.
         14    1    6    6    0    0 -0.33110653842E+02  0.18725415631E+02  0.35355165600E+02  0.51932112637E+02  0.00000000000E+00 0. -1.
         -5    1    3    3    0  503  0.60143244954E+02 -0.29487240919E+02 -0.14025674843E+02  0.68596769935E+02  0.47000000000E+01 0.  1.
         11    1    4    4    0    0 -0.58854467098E+02 -0.99465039889E+01 -0.76566605046E+01  0.60178116363E+02  0.00000000000E+00 0. -1.
        -12    1    4    4    0    0 -0.80569508824E+01  0.41460214396E+02  0.29943256019E+02  0.51773182405E+02  0.00000000000E+00 0.  1.
</event>
<event>
12    1  0.1040325E-001  0.1926541E+03  0.7818608E-02  0.1156330E+00
         21   -1    0    0  503  502  0.00000000000E+00  0.00000000000E+00  0.49184253465E+02  0.49184253465E+02  0.00000000000E+00 0.  1.
         21   -1    0    0  501  503 -0.00000000000E+00 -0.00000000000E+00 -0.82846109717E+03  0.82846109717E+03  0.00000000000E+00 0.  1.
          6    2    1    2  501    0  0.78248671103E+02 -0.36715731968E+02 -0.52535445138E+03  0.55956490592E+03  0.17217631908E+03 0.  0.
         24    2    3    3    0    0  0.10471553847E+03 -0.66347524004E+02 -0.45918453301E+03  0.48224035442E+03  0.79611469890E+02 0.  0.
         -6    2    1    2    0  502 -0.78248671103E+02  0.36715731968E+02 -0.25392239233E+03  0.31808044472E+03  0.17096107300E+03 0.  0.
        -24    2    5    5    0    0 -0.31152532753E+02 -0.43717394357E+02 -0.13779612236E+03  0.16910079968E+03  0.82009866784E+02 0.  0.
          5    1    3    3  501    0 -0.26466867369E+02  0.29631792036E+02 -0.66169918372E+02  0.77324551502E+02  0.47000000000E+01 0. -1.
        -11    1    4    4    0    0  0.77063990914E+02 -0.23916054187E+01 -0.26187986049E+03  0.27299384572E+03  0.00000000000E+00 0.  1.
         12    1    4    4    0    0  0.27651547558E+02 -0.63955918586E+02 -0.19730467251E+03  0.20924650869E+03  0.00000000000E+00 0. -1.
         -5    1    5    5    0  502 -0.47096138350E+02  0.80433126325E+02 -0.11612626997E+03  0.14897964504E+03  0.47000000000E+01 0.  1.
         13    1    6    6    0    0  0.25550579470E+02 -0.38131561325E+01 -0.21079920365E+02  0.33342695055E+02  0.00000000000E+00 0. -1.
        -14    1    6    6    0    0 -0.56703112223E+02 -0.39904238224E+02 -0.11671620199E+03  0.13575810463E+03  0.00000000000E+00 0.  1.
</event>
<event>
12    1  0.1040325E-001  0.1731826E+03  0.7818608E-02  0.1174640E+00
         21   -1    0    0  503  502  0.00000000000E+00  0.00000000000E+00  0.73654840401E+03  0.73654840401E+03  0.00000000000E+00 0.  1.
         21   -1    0    0  501  503 -0.00000000000E+00 -0.00000000000E+00 -0.94683860575E+02  0.94683860575E+02  0.00000000000E+00 0.  1.
          6    2    1    2  501    0 -0.27046426642E+01 -0.19372524418E+02  0.70869947219E+01  0.17332758324E+03  0.17207444849E+03 0.  0.
         24    2    3    3    0    0 -0.29753703153E+02 -0.32124045236E+02  0.62377197161E+02  0.11029307331E+03  0.79727098031E+02 0.  0.
         -6    2    1    2    0  502  0.27046426642E+01  0.19372524418E+02  0.63477754871E+03  0.65790468135E+03  0.17179471352E+03 0.  0.
        -24    2    5    5    0    0  0.16232076510E+02 -0.24407231719E+01  0.62484747562E+03  0.62998505405E+03  0.78596202821E+02 0.  0.
          5    1    3    3  501    0  0.27049060489E+02  0.12751520818E+02 -0.55290202439E+02  0.63034509931E+02  0.47000000000E+01 0. -1.
        -11    1    4    4    0    0 -0.10639742327E+02 -0.29570155406E+02 -0.11861990342E+02  0.33590251895E+02  0.00000000000E+00 0.  1.
         12    1    4    4    0    0 -0.19113960826E+02 -0.25538898299E+01  0.74239187503E+02  0.76702821413E+02  0.00000000000E+00 0. -1.
         -5    1    5    5    0  502 -0.13527433846E+02  0.21813247589E+02  0.99300730948E+01  0.27919627299E+02  0.47000000000E+01 0.  1.
         11    1    6    6    0    0  0.26626072790E+00  0.11678167226E+02  0.11928040398E+02  0.16695167932E+02  0.00000000000E+00 0. -1.
        -12    1    6    6    0    0  0.15965815783E+02 -0.14118890398E+02  0.61291943522E+03  0.61328988611E+03  0.00000000000E+00 0.  1.
</event>
<event>
12    1  0.1040325E-001  0.1985586E+03  0.7818608E-02  0.1151470E+00
         21   -1    0    0  503  502  0.00000000000E+00  0.00000000000E+00  0.10323465323E+04  0.10323465323E+04  0.00000000000E+00 0.  1.
         21   -1    0    0  501  503 -0.00000000000E+00 -0.00000000000E+00 -0.56494750905E+02  0.56494750905E+02  0.00000000000E+00 0.  1.
          6    2    1    2  501    0  0.91054648277E+02  0.26999734411E+02  0.17224609826E+03  0.26106860381E+03  0.17166293396E+03 0.  0.
         24    2    3    3    0    0  0.30615803744E+02 -0.42322880919E+02  0.50632599534E+02  0.10852217810E+03  0.80528562109E+02 0.  0.
         -6    2    1    2    0  502 -0.91054648277E+02 -0.26999734411E+02  0.80360568316E+03  0.82777267942E+03  0.17437195920E+03 0.  0.
        -24    2    5    5    0    0 -0.55680880314E+02 -0.76394118957E+02  0.66425474204E+03  0.67568098512E+03  0.79837394012E+02 0.  0.
          5    1    3    3  501    0  0.60438844533E+02  0.69322615330E+02  0.12161349872E+03  0.15254642571E+03  0.47000000000E+01 0. -1.
        -11    1    4    4    0    0  0.11155417588E+02  0.22538352168E+02  0.21533808789E+01  0.25240002164E+02  0.00000000000E+00 0.  1.
         12    1    4    4    0    0  0.19460386156E+02 -0.64861233087E+02  0.48479218655E+02  0.83282175934E+02  0.00000000000E+00 0. -1.
         -5    1    5    5    0  502 -0.35373767963E+02  0.49394384546E+02  0.13935094111E+03  0.15209169430E+03  0.47000000000E+01 0.  1.
         11    1    6    6    0    0 -0.17604851091E+02  0.15310699042E+02  0.94433167664E+02  0.97272665442E+02  0.00000000000E+00 0. -1.
        -12    1    6    6    0    0 -0.38076029223E+02 -0.91704817998E+02  0.56982157438E+03  0.57840831968E+03  0.00000000000E+00 0.  1.
</event>
<event>
12    1  0.1040325E-001  0.2485135E+03  0.7818608E-02  0.1114403E+00
         21   -1    0    0  503  502  0.00000000000E+00  0.00000000000E+00  0.17073615464E+03  0.17073615464E+03  0.00000000000E+00 0. -1.
         21   -1    0    0  501  503 -0.00000000000E+00 -0.00000000000E+00 -0.38842121180E+03  0.38842121180E+03  0.00000000000E+00 0. -1.
          6    2    1    2  501    0  0.16777412943E+03  0.61440405724E+02 -0.18425087583E+03  0.30936600327E+03  0.17273059014E+03 0.  0.
         24    2    3    3    0    0  0.22988410290E+02  0.28890136636E+02 -0.11046367445E+03  0.14356773557E+03  0.83942625172E+02 0.  0.
         -6    2    1    2    0  502 -0.16777412943E+03 -0.61440405724E+02 -0.33434181325E+02  0.24979136317E+03  0.17133242154E+03 0.  0.
        -24    2    5    5    0    0 -0.81188741429E+02 -0.10152815491E+03 -0.63007095792E+01  0.15048188558E+03  0.75534899038E+02 0.  0.
          5    1    3    3  501    0  0.14478571914E+03  0.32550269088E+02 -0.73787201385E+02  0.16579826770E+03  0.47000000000E+01 0. -1.
        -11    1    4    4    0    0  0.91335763746E+01  0.15929803262E+02  0.10481665010E+02  0.21143465911E+02  0.00000000000E+00 0.  1.
         12    1    4    4    0    0  0.13854833916E+02  0.12960333374E+02 -0.12094533946E+03  0.12242426966E+03  0.00000000000E+00 0. -1.
         -5    1    5    5    0  502 -0.86585388001E+02  0.40087749185E+02 -0.27133471746E+02  0.99309477589E+02  0.47000000000E+01 0.  1.
         11    1    6    6    0    0 -0.23240486176E+02  0.91222487329E+01  0.34122515323E+01  0.25198791244E+02  0.00000000000E+00 0. -1.
        -12    1    6    6    0    0 -0.57948255253E+02 -0.11065040364E+03 -0.97129611115E+01  0.12528309434E+03  0.00000000000E+00 0.  1.
</event>
<event>
12    1  0.1040325E-001  0.3124586E+03  0.7818608E-02  0.1079799E+00
         21   -1    0    0  503  502  0.00000000000E+00  0.00000000000E+00  0.63806175227E+03  0.63806175227E+03  0.00000000000E+00 0. -1.
         21   -1    0    0  501  503 -0.00000000000E+00 -0.00000000000E+00 -0.53979402380E+03  0.53979402380E+03  0.00000000000E+00 0.  1.
          6    2    1    2  501    0  0.82659546755E+02  0.24626788346E+03 -0.45090445529E+03  0.54858473731E+03  0.17363730911E+03 0.  0.
         24    2    3    3    0    0  0.78502029564E+02  0.10724963560E+03 -0.33060113751E+03  0.36463274233E+03  0.77426556660E+02 0.  0.
         -6    2    1    2    0  502 -0.82659546755E+02 -0.24626788346E+03  0.54917218376E+03  0.62927103877E+03  0.16404719358E+03 0.  0.
        -24    2    5    5    0    0 -0.11955541906E+03 -0.17874169756E+03  0.42087541371E+03  0.47959391166E+03  0.81437789496E+02 0.  0.
          5    1    3    3  501    0  0.41575171912E+01  0.13901824786E+03 -0.12030331778E+03  0.18395199498E+03  0.47000000000E+01 0. -1.
        -11    1    4    4    0    0  0.26451274926E+02  0.76496356190E+02 -0.25666862684E+03  0.26912849433E+03  0.00000000000E+00 0.  1.
         12    1    4    4    0    0  0.52050754637E+02  0.30753279413E+02 -0.73932510667E+02  0.95504248003E+02  0.00000000000E+00 0. -1.
         -5    1    5    5    0  502  0.36895872304E+02 -0.67526185903E+02  0.12829677004E+03  0.14967712711E+03  0.47000000000E+01 0.  1.
         13    1    6    6    0    0 -0.60209906874E+02 -0.34693359041E+02  0.17757460006E+03  0.19068718004E+03  0.00000000000E+00 0. -1.
        -14    1    6    6    0    0 -0.59345512184E+02 -0.14404833852E+03  0.24330081366E+03  0.28890673162E+03  0.00000000000E+00 0.  1.
</event>
<event>
12    1  0.1040325E-001  0.2005557E+03  0.7818608E-02  0.1151794E+00
         21   -1    0    0  503  502  0.00000000000E+00  0.00000000000E+00  0.64443048194E+03  0.64443048194E+03  0.00000000000E+00 0. -1.
         21   -1    0    0  501  503 -0.00000000000E+00 -0.00000000000E+00 -0.71353423376E+02  0.71353423376E+02  0.00000000000E+00 0. -1.
          6    2    1    2  501    0 -0.31090104660E+02  0.75992509306E+02  0.42924593069E+03  0.46898445024E+03  0.17015548617E+03 0.  0.
         24    2    3    3    0    0 -0.41830866451E+02  0.11410734606E+03  0.36249820352E+03  0.39123193370E+03  0.82988978705E+02 0.  0.
         -6    2    1    2    0  502  0.31090104660E+02 -0.75992509306E+02  0.14383112787E+03  0.24679945508E+03  0.18297847306E+03 0.  0.
        -24    2    5    5    0    0  0.23672987347E+01 -0.43364803883E+02 -0.28329649234E+01  0.93756935309E+02  0.83043524185E+02 0.  0.
          5    1    3    3  501    0  0.10740761792E+02 -0.38114836750E+02  0.66747727173E+02  0.77752516533E+02  0.47000000000E+01 0. -1.
        -11    1    4    4    0    0 -0.18033118501E+02  0.11083536728E+03  0.22296277130E+03  0.24964388514E+03  0.00000000000E+00 0.  1.
         12    1    4    4    0    0 -0.23797747950E+02  0.32719787780E+01  0.13953543221E+03  0.14158804856E+03  0.00000000000E+00 0. -1.
         -5    1    5    5    0  502  0.28722805925E+02 -0.32627705422E+02  0.14666409280E+03  0.15304251977E+03  0.47000000000E+01 0.  1.
         11    1    6    6    0    0  0.21943090408E+02 -0.61022751058E+02 -0.11795188133E+02  0.65912076484E+02  0.00000000000E+00 0. -1.
        -12    1    6    6    0    0 -0.19575791674E+02  0.17657947175E+02  0.89622232098E+01  0.27844858824E+02  0.00000000000E+00 0.  1.
</event>
<event>
12    1  0.1040325E-001  0.1790266E+03  0.7818608E-02  0.1168939E+00
         21   -1    0    0  503  502  0.00000000000E+00  0.00000000000E+00  0.11726722202E+03  0.11726722202E+03  0.00000000000E+00 0.  1.
         21   -1    0    0  501  503 -0.00000000000E+00 -0.00000000000E+00 -0.27212644202E+03  0.27212644202E+03  0.00000000000E+00 0.  1.
          6    2    1    2  501    0 -0.35408023651E+02 -0.32472280747E+02 -0.77784903942E+02  0.19448094483E+03  0.17165130196E+03 0.  0.
         24    2    3    3    0    0 -0.39329043383E+02 -0.10793852390E+02 -0.11827048179E+03  0.14815060201E+03  0.79356241789E+02 0.  0.
         -6    2    1    2    0  502  0.35408023651E+02  0.32472280747E+02 -0.77074316065E+02  0.19491271921E+03  0.17245967865E+03 0.  0.
        -24    2    5    5    0    0  0.58597870412E+01 -0.43355795704E+02 -0.13622734707E+02  0.91611273716E+02  0.79328333184E+02 0.  0.
          5    1    3    3  501    0  0.39210197318E+01 -0.21678428358E+02  0.40485577847E+02  0.46330342815E+02  0.47000000000E+01 0. -1.
        -11    1    4    4    0    0  0.13061140264E+02 -0.48604273745E+01 -0.84267116704E+02  0.85411732783E+02  0.00000000000E+00 0.  1.
         12    1    4    4    0    0 -0.52390183647E+02 -0.59334250151E+01 -0.34003365084E+02  0.62738869228E+02  0.00000000000E+00 0. -1.
         -5    1    5    5    0  502  0.29548236610E+02  0.75828076452E+02 -0.63451581358E+02  0.10330144550E+03  0.47000000000E+01 0.  1.
         11    1    6    6    0    0 -0.28117098964E+02 -0.44991314020E+02 -0.20552511662E+02  0.56896356009E+02  0.00000000000E+00 0. -1.
        -12    1    6    6    0    0  0.33976886005E+02  0.16355183162E+01  0.69297769554E+01  0.34714917707E+02  0.00000000000E+00 0.  1.
</event>
<event>
12    1  0.1040325E-001  0.2133824E+03  0.7818608E-02  0.1139189E+00
         21   -1    0    0  501  502  0.00000000000E+00  0.00000000000E+00  0.38927626642E+03  0.38927626642E+03  0.00000000000E+00 0.  1.
         21   -1    0    0  502  503 -0.00000000000E+00 -0.00000000000E+00 -0.14066744754E+03  0.14066744754E+03  0.00000000000E+00 0.  1.
         -6    2    1    2    0  503 -0.10533660350E+03 -0.67787307162E+02  0.14127776744E+02  0.21384954877E+03  0.17274581437E+03 0.  0.
        -24    2    3    3    0    0 -0.84556454604E+02 -0.11348582490E+03  0.16322338358E+02  0.16338099210E+03  0.79988145259E+02 0.  0.
          6    2    1    2  501    0  0.10533660350E+03  0.67787307162E+02  0.23448104213E+03  0.31609416519E+03  0.17100655864E+03 0.  0.
         24    2    5    5    0    0  0.79609150160E+02  0.11189959540E+03  0.16023668096E+03  0.22586051850E+03  0.80486294807E+02 0.  0.
          5    1    5    5  501    0  0.25727453337E+02 -0.44112288240E+02  0.74244361171E+02  0.90233646688E+02  0.47000000000E+01 0. -1.
        -13    1    6    6    0    0  0.98690403237E+01  0.82073393878E+02  0.73258191488E+02  0.11045452711E+03  0.00000000000E+00 0.  1.
         14    1    6    6    0    0  0.69740109836E+02  0.29826201525E+02  0.86978489474E+02  0.11540599139E+03  0.00000000000E+00 0. -1.
         -5    1    3    3    0  503 -0.20780148893E+02  0.45698517737E+02 -0.21945616138E+01  0.50468556667E+02  0.47000000000E+01 0.  1.
         13    1    4    4    0    0 -0.34788894212E+02 -0.75421070216E+02 -0.26852006174E+02  0.87290521986E+02  0.00000000000E+00 0. -1.
        -14    1    4    4    0    0 -0.49767560391E+02 -0.38064754683E+02  0.43174344532E+02  0.76090470114E+02  0.00000000000E+00 0.  1.
</event>
<event>
12    1  0.1040325E-001  0.2137971E+03  0.7818608E-02  0.1138619E+00
         21   -1    0    0  503  502  0.00000000000E+00  0.00000000000E+00  0.26316522860E+03  0.26316522860E+03  0.00000000000E+00 0. -1.
         21   -1    0    0  501  503 -0.00000000000E+00 -0.00000000000E+00 -0.28534057506E+03  0.28534057506E+03  0.00000000000E+00 0. -1.
          6    2    1    2  501    0 -0.64529568393E+02 -0.10897416115E+03 -0.18272277962E+03  0.28124154775E+03  0.17224912480E+03 0.  0.
         24    2    3    3    0    0 -0.66048650617E+02 -0.71596746819E+02 -0.35654824249E+02  0.12941779398E+03  0.77389795853E+02 0.  0.
         -6    2    1    2    0  502  0.64529568393E+02  0.10897416115E+03  0.16054743317E+03  0.26726425591E+03  0.17209088062E+03 0.  0.
        -24    2    5    5    0    0  0.47292460832E+02  0.14499136976E+03  0.11969442146E+03  0.20994570953E+03  0.80569052767E+02 0.  0.
          5    1    3    3  501    0  0.15190822235E+01 -0.37377414327E+02 -0.14706795538E+03  0.15182375378E+03  0.47000000000E+01 0. -1.
        -13    1    4    4    0    0 -0.18604466925E+02 -0.24868123563E+02  0.24593809195E+02  0.39615719226E+02  0.00000000000E+00 0.  1.
         14    1    4    4    0    0 -0.47444183692E+02 -0.46728623256E+02 -0.60248633444E+02  0.89802074750E+02  0.00000000000E+00 0. -1.
         -5    1    5    5    0  502  0.17237107561E+02 -0.36017208615E+02  0.40853011706E+02  0.57318546378E+02  0.47000000000E+01 0.  1.
         13    1    6    6    0    0  0.39610110168E+02  0.51362558724E+02  0.10175701250E+02  0.65655298050E+02  0.00000000000E+00 0. -1.
        -14    1    6    6    0    0  0.76823506644E+01  0.93628811037E+02  0.10951872021E+03  0.14429041148E+03  0.00000000000E+00 0.  1.
</event>
<event>
12    1  0.1040325E-001  0.2550311E+03  0.7818608E-02  0.1111967E+00
         21   -1    0    0  503  502  0.00000000000E+00  0.00000000000E+00  0.68832905790E+03  0.68832905790E+03  0.00000000000E+00 0. -1.
         21   -1    0    0  501  503 -0.00000000000E+00 -0.00000000000E+00 -0.90711660520E+02  0.90711660520E+02  0.00000000000E+00 0.  1.
          6    2    1    2  501    0 -0.17394523547E+03  0.72627529568E+02  0.31793943779E+03  0.40054285180E+03  0.15432882762E+03 0.  0.
         24    2    3    3    0    0 -0.14042864320E+03  0.97089889628E+02  0.19799958682E+03  0.27354117123E+03  0.80462944759E+02 0.  0.
         -6    2    1    2    0  502  0.17394523547E+03 -0.72627529568E+02  0.27967795959E+03  0.37849786662E+03  0.17178233599E+03 0.  0.
        -24    2    5    5    0    0  0.19192117762E+03 -0.83038223906E+02  0.27767828545E+03  0.35710614510E+03  0.81795376455E+02 0.  0.
          5    1    3    3  501    0 -0.33516592276E+02 -0.24462360061E+02  0.11993985097E+03  0.12700168057E+03  0.47000000000E+01 0. -1.
        -13    1    4    4    0    0 -0.90689767818E+02  0.51584327356E+02  0.61011244474E+02  0.12086334750E+03  0.00000000000E+00 0.  1.
         14    1    4    4    0    0 -0.49738875380E+02  0.45505562272E+02  0.13698834235E+03  0.15267782374E+03  0.00000000000E+00 0. -1.
         -5    1    5    5    0  502 -0.17975942146E+02  0.10410694338E+02  0.19996741373E+01  0.21391721513E+02  0.47000000000E+01 0.  1.
         11    1    6    6    0    0 -0.54264626967E+01 -0.66007867257E+01  0.76232846998E+00  0.85789292742E+01  0.00000000000E+00 0. -1.
        -12    1    6    6    0    0  0.19734764032E+03 -0.76437437180E+02  0.27691595698E+03  0.34852721583E+03  0.00000000000E+00 0.  1.
</event>
<event>
12    1  0.1040325E-001  0.1767508E+03  0.7818608E-02  0.1172050E+00
         21   -1    0    0  501  502  0.00000000000E+00  0.00000000000E+00  0.12679177440E+03  0.12679177440E+03  0.00000000000E+00 0. -1.
         21   -1    0    0  502  503 -0.00000000000E+00 -0.00000000000E+00 -0.32472999484E+03  0.32472999484E+03  0.00000000000E+00 0. -1.
         -6    2    1    2    0  503 -0.13421652181E+02  0.29551894980E+02 -0.21303951025E+03  0.27412700361E+03  0.16942941284E+03 0.  0.
        -24    2    3    3    0    0  0.55686491831E+02  0.12341973908E+01 -0.11810625350E+03  0.15324590168E+03  0.80204181006E+02 0.  0.
          6    2    1    2  501    0  0.13421652181E+02 -0.29551894980E+02  0.15101289815E+02  0.17739476563E+03  0.17374521195E+03 0.  0.
         24    2    5    5    0    0  0.46501224476E+02  0.37101593505E+02  0.18992886349E+02  0.10273433331E+03  0.81576475724E+02 0.  0.
          5    1    5    5  501    0 -0.33079572295E+02 -0.66653488484E+02 -0.38915965337E+01  0.74660432318E+02  0.47000000000E+01 0. -1.
        -11    1    6    6    0    0  0.44631472531E+02  0.76220374876E+01 -0.23476797292E+02  0.51002194138E+02  0.00000000000E+00 0.  1.
         12    1    6    6    0    0  0.18697519446E+01  0.29479556017E+02  0.42469683641E+02  0.51732139177E+02  0.00000000000E+00 0. -1.
         -5    1    3    3    0  503 -0.69108144012E+02  0.28317697589E+02 -0.94933256747E+02  0.12088110192E+03  0.47000000000E+01 0.  1.
         11    1    4    4    0    0  0.11401641284E+02 -0.27436502954E+02 -0.87157090044E+02  0.92082123473E+02  0.00000000000E+00 0. -1.
        -12    1    4    4    0    0  0.44284850548E+02  0.28670700345E+02 -0.30949163459E+02  0.61163778212E+02  0.00000000000E+00 0.  1.
</event>
<event>
12    1  0.1040325E-001  0.1788917E+03  0.7818608E-02  0.1169122E+00
         21   -1    0    0  501  502  0.00000000000E+00  0.00000000000E+00  0.69420736782E+02  0.69420736782E+02  0.00000000000E+00 0. -1.
         21   -1    0    0  502  503 -0.00000000000E+00 -0.00000000000E+00 -0.65275962622E+03  0.65275962622E+03  0.00000000000E+00 0. -1.
         -6    2    1    2    0  503 -0.38929209730E+02  0.21285514565E+02 -0.48924981153E+03  0.52092957111E+03  0.17330228930E+03 0.  0.
        -24    2    3    3    0    0  0.60851641734E+01 -0.14114139899E+01 -0.78784350287E+02  0.10735318240E+03  0.72654735631E+02 0.  0.
          6    2    1    2  501    0  0.38929209730E+02 -0.21285514565E+02 -0.94089077908E+02  0.20125079189E+03  0.17228049847E+03 0.  0.
         24    2    5    5    0    0 -0.34161098725E+02 -0.38012083092E+02 -0.77305104364E+02  0.12427181390E+03  0.82797979695E+02 0.  0.
          5    1    5    5  501    0  0.73090308455E+02  0.16726568527E+02 -0.16783973544E+02  0.76978977992E+02  0.47000000000E+01 0. -1.
        -11    1    6    6    0    0 -0.36255835484E+02  0.18528614693E+02 -0.31725310427E+02  0.51616765598E+02  0.00000000000E+00 0.  1.
         12    1    6    6    0    0  0.20947367591E+01 -0.56540697785E+02 -0.45579793937E+02  0.72655048299E+02  0.00000000000E+00 0. -1.
         -5    1    3    3    0  503 -0.45014373903E+02  0.22696928555E+02 -0.41046546124E+03  0.41357638870E+03  0.47000000000E+01 0.  1.
         11    1    4    4    0    0 -0.63173122022E+01  0.32076463340E+02 -0.56449451113E+02  0.65233032007E+02  0.00000000000E+00 0. -1.
        -12    1    4    4    0    0  0.12402476376E+02 -0.33487877330E+02 -0.22334899173E+02  0.42120150396E+02  0.00000000000E+00 0.  1.
</event>
<event>
12    1  0.1040325E-001  0.1783795E+03  0.7818608E-02  0.1169657E+00
         21   -1    0    0  501  502  0.00000000000E+00  0.00000000000E+00  0.36726420063E+02  0.36726420063E+02  0.00000000000E+00 0.  1.
         21   -1    0    0  502  503 -0.00000000000E+00 -0.00000000000E+00 -0.90214875435E+03  0.90214875435E+03  0.00000000000E+00 0. -1.
         -6    2    1    2    0  503  0.48006856927E+02  0.11672963361E+01 -0.53174063312E+03  0.56050668659E+03  0.17062714878E+03 0.  0.
        -24    2    3    3    0    0  0.61542034199E+02  0.37699022091E+02 -0.21018020720E+03  0.23656075664E+03  0.81096447779E+02 0.  0.
          6    2    1    2  501    0 -0.48006856927E+02 -0.11672963361E+01 -0.33368170116E+03  0.37836848783E+03  0.17179410350E+03 0.  0.
         24    2    5    5    0    0 -0.43835136178E+02  0.55760958083E+01 -0.70932412782E+02  0.11545756159E+03  0.79664479766E+02 0.  0.
          5    1    5    5  501    0 -0.41717207491E+01 -0.67433921443E+01 -0.26274928838E+03  0.26291092624E+03  0.47000000000E+01 0. -1.
        -11    1    6    6    0    0 -0.63261176912E+02 -0.67412568011E+01 -0.66503117061E+02  0.92033068113E+02  0.00000000000E+00 0.  1.
         12    1    6    6    0    0  0.19426040734E+02  0.12317352609E+02 -0.44292957219E+01  0.23424493474E+02  0.00000000000E+00 0. -1.
         -5    1    3    3    0  503 -0.13535177272E+02 -0.36531725755E+02 -0.32156042592E+03  0.32394592995E+03  0.47000000000E+01 0.  1.
         13    1    4    4    0    0 -0.16790973231E+01 -0.14784407413E+02 -0.52614159060E+01  0.15782286517E+02  0.00000000000E+00 0. -1.
        -14    1    4    4    0    0  0.63221131522E+02  0.52483429503E+02 -0.20491879129E+03  0.22077847012E+03  0.00000000000E+00 0.  1.
</event>
<event>
12    1  0.1040325E-001  0.1786840E+03  0.7818608E-02  0.1169652E+00
         21   -1    0    0  503  502  0.00000000000E+00  0.00000000000E+00  0.25647617593E+03  0.25647617593E+03  0.00000000000E+00 0.  1.
         21   -1    0    0  501  503 -0.00000000000E+00 -0.00000000000E+00 -0.15690083918E+03  0.15690083918E+03  0.00000000000E+00 0.  1.
          6    2    1    2  501    0 -0.20564874536E+02 -0.43336131853E+02 -0.46708650776E+02  0.18245069845E+03  0.16972219925E+03 0.  0.
         24    2    3    3    0    0  0.16322258772E+02 -0.81126631692E+02 -0.87123011944E+01  0.11722344139E+03  0.82568059916E+02 0.  0.
         -6    2    1    2    0  502  0.20564874536E+02  0.43336131853E+02  0.14628398752E+03  0.23092631666E+03  0.17212502530E+03 0.  0.
        -24    2    5    5    0    0 -0.56989698074E+01 -0.40224515079E+02  0.89582666240E+02  0.12647871702E+03  0.79506741215E+02 0.  0.
          5    1    3    3  501    0 -0.36887133308E+02  0.37790499838E+02 -0.37996349582E+02  0.65227257058E+02  0.47000000000E+01 0. -1.
        -13    1    4    4    0    0  0.33483795642E+02 -0.46589671927E+02 -0.37983096497E+02  0.68807541159E+02  0.00000000000E+00 0.  1.
         14    1    4    4    0    0 -0.17161536870E+02 -0.34536959765E+02  0.29270795303E+02  0.48415900231E+02  0.00000000000E+00 0. -1.
         -5    1    5    5    0  502  0.26263844344E+02  0.83560646932E+02  0.56701321283E+02  0.10444759964E+03  0.47000000000E+01 0.  1.
         13    1    6    6    0    0 -0.55450823799E+01 -0.34789338995E+02 -0.14745243843E+01  0.35259328815E+02  0.00000000000E+00 0. -1.
        -14    1    6    6    0    0 -0.15388742747E+00 -0.54351760838E+01  0.91057190624E+02  0.91219388207E+02  0.00000000000E+00 0.  1.
</event>
<event>
12    1  0.1040325E-001  0.1760295E+03  0.7818608E-02  0.1172296E+00
         21   -1    0    0  501  502  0.00000000000E+00  0.00000000000E+00  0.31799601296E+03  0.31799601296E+03  0.00000000000E+00 0.  1.
         21   -1    0    0  502  503 -0.00000000000E+00 -0.00000000000E+00 -0.16613541948E+03  0.16613541948E+03  0.00000000000E+00 0.  1.
         -6    2    1    2    0  503 -0.23313251977E+02  0.10359991290E+02 -0.81490560213E+02  0.19183165685E+03  0.17177845042E+03 0.  0.
        -24    2    3    3    0    0  0.11638090642E+02  0.70104124792E+02 -0.38654159524E+02  0.11029635736E+03  0.74974055063E+02 0.  0.
          6    2    1    2  501    0  0.23313251977E+02 -0.10359991290E+02  0.23335115369E+03  0.29229977560E+03  0.17417106748E+03 0.  0.
         24    2    5    5    0    0  0.73417180047E+02  0.10579406807E+00  0.20886363531E+03  0.23536415557E+03  0.79888510150E+02 0.  0.
          5    1    5    5  501    0 -0.50103928070E+02 -0.10465785358E+02  0.24487518386E+02  0.56935620027E+02  0.47000000000E+01 0. -1.
        -13    1    6    6    0    0  0.64958119108E+02 -0.24646502732E+02  0.90220262945E+02  0.11387143268E+03  0.00000000000E+00 0.  1.
         14    1    6    6    0    0  0.84590609384E+01  0.24752296800E+02  0.11864337236E+03  0.12149272289E+03  0.00000000000E+00 0. -1.
         -5    1    3    3    0  503 -0.34951342619E+02 -0.59744133502E+02 -0.42836400688E+02  0.81535299489E+02  0.47000000000E+01 0.  1.
         11    1    4    4    0    0  0.10554369689E+02 -0.10615598385E+02  0.80868055453E+01  0.17014172696E+02  0.00000000000E+00 0. -1.
        -12    1    4    4    0    0  0.10837209530E+01  0.80719723177E+02 -0.46740965070E+02  0.93282184668E+02  0.00000000000E+00 0.  1.
</event>
<event>
12    1  0.1040325E-001  0.1872543E+03  0.7818608E-02  0.1161359E+00
         21   -1    0    0  501  502  0.00000000000E+00  0.00000000000E+00  0.90848418641E+02  0.90848418641E+02  0.00000000000E+00 0.  1.
         21   -1    0    0  502  503 -0.00000000000E+00 -0.00000000000E+00 -0.40008481981E+03  0.40008481981E+03  0.00000000000E+00 0.  1.
         -6    2    1    2    0  503 -0.15127291220E+01  0.70203664163E+02 -0.20687946009E+03  0.27903996175E+03  0.17358959196E+03 0.  0.
        -24    2    3    3    0    0  0.22391443497E+01  0.10054658793E+03 -0.21143321563E+03  0.24777342586E+03  0.81074260880E+02 0.  0.
          6    2    1    2  501    0  0.15127291220E+01 -0.70203664163E+02 -0.10235694108E+03  0.21189327670E+03  0.17172936415E+03 0.  0.
         24    2    5    5    0    0  0.46066268655E+02 -0.78972387138E+01 -0.18238363343E+02  0.98028735872E+02  0.84217145952E+02 0.  0.
          5    1    5    5  501    0 -0.44553539533E+02 -0.62306425449E+02 -0.84118577738E+02  0.11386454083E+03  0.47000000000E+01 0. -1.
        -11    1    6    6    0    0  0.59704446793E+02 -0.84372768014E+01  0.14967177156E+02  0.62127489879E+02  0.00000000000E+00 0.  1.
         12    1    6    6    0    0 -0.13638178138E+02  0.54003808758E+00 -0.33205540499E+02  0.35901245993E+02  0.00000000000E+00 0. -1.
         -5    1    3    3    0  503 -0.37518734717E+01 -0.30342923769E+02  0.45537555410E+01  0.31266535896E+02  0.47000000000E+01 0.  1.
         13    1    4    4    0    0  0.94582794986E+01 -0.35797785076E+01  0.18861996437E+01  0.10287449360E+02  0.00000000000E+00 0. -1.
        -14    1    4    4    0    0 -0.72191351489E+01  0.10412636644E+03 -0.21331941527E+03  0.23748597650E+03  0.00000000000E+00 0.  1.
</event>
<event>
12    1  0.1040325E-001  0.2647364E+03  0.7818608E-02  0.1104362E+00
         21   -1    0    0  503  502  0.00000000000E+00  0.00000000000E+00  0.19428689291E+03  0.19428689291E+03  0.00000000000E+00 0.  1.
         21   -1    0    0  501  503 -0.00000000000E+00 -0.00000000000E+00 -0.54639574895E+03  0.54639574895E+03  0.00000000000E+00 0. -1.
          6    2    1    2  501    0  0.86324776772E+02  0.18177804959E+03 -0.39215418349E+03  0.47314929649E+03  0.17201780936E+03 0.  0.
         24    2    3    3    0    0  0.11074804051E+03  0.16724332275E+03 -0.38791996839E+03  0.44403276040E+03  0.80297776760E+02 0.  0.
         -6    2    1    2    0  502 -0.86324776772E+02 -0.18177804959E+03  0.40045327458E+02  0.26753334537E+03  0.17168353514E+03 0.  0.
        -24    2    5    5    0    0 -0.76817161685E+02 -0.20594896293E+03  0.22189949138E+02  0.23566592736E+03  0.82037697524E+02 0.  0.
          5    1    3    3  501    0 -0.24423263740E+02  0.14534726843E+02 -0.42342151033E+01  0.29116536086E+02  0.47000000000E+01 0. -1.
        -11    1    4    4    0    0  0.66282941040E+02  0.33077673375E+02 -0.15001973848E+03  0.16731252996E+03  0.00000000000E+00 0.  1.
         12    1    4    4    0    0  0.44465099472E+02  0.13416564937E+03 -0.23790022991E+03  0.27672023044E+03  0.00000000000E+00 0. -1.
         -5    1    5    5    0  502 -0.95076150866E+01  0.24170913334E+02  0.17855378320E+02  0.31867418016E+02  0.47000000000E+01 0.  1.
         11    1    6    6    0    0 -0.47466665720E+02 -0.47140065392E+02 -0.17930405625E+02  0.69258714727E+02  0.00000000000E+00 0. -1.
        -12    1    6    6    0    0 -0.29350495965E+02 -0.15880889753E+03  0.40120354763E+02  0.16640721263E+03  0.00000000000E+00 0.  1.
</event>
<event>
12    1  0.1040325E-001  0.1989717E+03  0.7818608E-02  0.1151919E+00
         21   -1    0    0  503  502  0.00000000000E+00  0.00000000000E+00  0.49172680473E+02  0.49172680473E+02  0.00000000000E+00 0. -1.
         21   -1    0    0  501  503 -0.00000000000E+00 -0.00000000000E+00 -0.95881419665E+03  0.95881419665E+03  0.00000000000E+00 0. -1.
          6    2    1    2  501    0  0.93027709451E+02 -0.33751229467E+02 -0.66625669469E+03  0.69362100206E+03  0.16558626472E+03 0.  0.
         24    2    3    3    0    0  0.11318069190E+03 -0.43123473113E+02 -0.64913482143E+03  0.66517403040E+03  0.80068541749E+02 0.  0.
         -6    2    1    2    0  502 -0.93027709451E+02  0.33751229467E+02 -0.24338482148E+03  0.31436587506E+03  0.17261642986E+03 0.  0.
        -24    2    5    5    0    0 -0.83014146217E+02  0.59169434417E+02 -0.72608503772E+02  0.14135432261E+03  0.65701440302E+02 0.  0.
          5    1    3    3  501    0 -0.20152982449E+02  0.93722436462E+01 -0.17121873262E+02  0.28446971659E+02  0.47000000000E+01 0. -1.
        -13    1    4    4    0    0 -0.39046464458E+01 -0.49185709347E+01 -0.18100752004E+03  0.18111642917E+03  0.00000000000E+00 0.  1.
         14    1    4    4    0    0  0.11708533835E+03 -0.38204902178E+02 -0.46812730139E+03  0.48405760123E+03  0.00000000000E+00 0. -1.
         -5    1    5    5    0  502 -0.10013563234E+02 -0.25418204950E+02 -0.17077631771E+03  0.17301155245E+03  0.47000000000E+01 0.  1.
         13    1    6    6    0    0 -0.58083704615E+02  0.80339916261E+01 -0.58313906383E+02  0.82696876851E+02  0.00000000000E+00 0. -1.
        -14    1    6    6    0    0 -0.24930441602E+02  0.51135442791E+02 -0.14294597389E+02  0.58657445754E+02  0.00000000000E+00 0.  1.
</event>
<event>
12    1  0.1040325E-001  0.3571820E+03  0.7818608E-02  0.1059835E+00
         21   -1    0    0  501  502  0.00000000000E+00  0.00000000000E+00  0.36139776860E+04  0.36139776860E+04  0.00000000000E+00 0. -1.
         21   -1    0    0  502  503 -0.00000000000E+00 -0.00000000000E+00 -0.15576422502E+03  0.15576422502E+03  0.00000000000E+00 0. -1.
         -6    2    1    2    0  503  0.27747364168E+03  0.14408585698E+03  0.69945318264E+02  0.36269920786E+03  0.17001768093E+03 0.  0.
        -24    2    3    3    0    0  0.22472556120E+03  0.17083631720E+03  0.75887221683E+02  0.30307250803E+03  0.80046546325E+02 0.  0.
          6    2    1    2  501    0 -0.27747364168E+03 -0.14408585698E+03  0.33882681427E+04  0.34070427032E+04  0.17270384532E+03 0.  0.
         24    2    5    5    0    0 -0.19927989976E+03 -0.57760644947E+02  0.26874150553E+04  0.26965615678E+04  0.78713652733E+02 0.  0.
          5    1    5    5  501    0 -0.78193741925E+02 -0.86325212029E+02  0.70085308749E+03  0.71048113539E+03  0.47000000000E+01 0. -1.
        -11    1    6    6    0    0 -0.31146351670E+02  0.16808958472E+02  0.30218671483E+03  0.30425227514E+03  0.00000000000E+00 0.  1.
         12    1    6    6    0    0 -0.16813354809E+03 -0.74569603419E+02  0.23852283404E+04  0.23923092927E+04  0.00000000000E+00 0. -1.
         -5    1    3    3    0  503  0.52748080484E+02 -0.26750460220E+02 -0.59419034189E+01  0.59626699833E+02  0.47000000000E+01 0.  1.
         13    1    4    4    0    0  0.18991429350E+03  0.10076669793E+03  0.60387874904E+02  0.22331157992E+03  0.00000000000E+00 0. -1.
        -14    1    4    4    0    0  0.34811267692E+02  0.70069619268E+02  0.15499346779E+02  0.79760928112E+02  0.00000000000E+00 0.  1.
</event>
<event>
12    1  0.1040325E-001  0.2500656E+03  0.7818608E-02  0.1113528E+00
         21   -1    0    0  501  502  0.00000000000E+00  0.00000000000E+00  0.79624886305E+02  0.79624886305E+02  0.00000000000E+00 0. -1.
         21   -1    0    0  502  503 -0.00000000000E+00 -0.00000000000E+00 -0.25255376827E+04  0.25255376827E+04  0.00000000000E+00 0.  1.
         -6    2    1    2    0  503 -0.17692336579E+03  0.26894642731E+02 -0.23070964238E+04  0.23206091250E+04  0.17466425776E+03 0.  0.
        -24    2    3    3    0    0 -0.20477567927E+03  0.17714386758E+02 -0.19886967127E+04  0.20008271766E+04  0.78408527556E+02 0.  0.
          6    2    1    2  501    0  0.17692336579E+03 -0.26894642731E+02 -0.13881637254E+03  0.28455344399E+03  0.17226571926E+03 0.  0.
         24    2    5    5    0    0  0.12972255953E+03 -0.38927374090E+02 -0.23243026052E+02  0.15904650732E+03  0.80076652806E+02 0.  0.
          5    1    5    5  501    0  0.47200806258E+02  0.12032731360E+02 -0.11557334649E+03  0.12550693667E+03  0.47000000000E+01 0. -1.
        -11    1    6    6    0    0  0.16180903967E+02 -0.40678893159E+02 -0.59059028994E+01  0.44175487443E+02  0.00000000000E+00 0.  1.
         12    1    6    6    0    0  0.11354165557E+03  0.17515190685E+01 -0.17337123153E+02  0.11487101988E+03  0.00000000000E+00 0. -1.
         -5    1    3    3    0  503  0.27852313475E+02  0.91802559725E+01 -0.31839971114E+03  0.31978194840E+03  0.47000000000E+01 0.  1.
         11    1    4    4    0    0 -0.23644415904E+01  0.22340543393E+01 -0.20703271575E+01  0.38558834739E+01  0.00000000000E+00 0. -1.
        -12    1    4    4    0    0 -0.20241123768E+03  0.15480332419E+02 -0.19866263855E+04  0.19969712931E+04  0.00000000000E+00 0.  1.
</event>
<event>
12    1  0.1040325E-001  0.2261029E+03  0.7818608E-02  0.1130198E+00
         21   -1    0    0  503  502  0.00000000000E+00  0.00000000000E+00  0.10855489169E+03  0.10855489169E+03  0.00000000000E+00 0. -1.
         21   -1    0    0  501  503 -0.00000000000E+00 -0.00000000000E+00 -0.96235397241E+03  0.96235397241E+03  0.00000000000E+00 0. -1.
          6    2    1    2  501    0 -0.58939033115E+02  0.13105790245E+03 -0.81496497672E+03  0.84574843452E+03  0.17456379290E+03 0.  0.
         24    2    3    3    0    0  0.12410097158E+02  0.45090705552E+02 -0.55892705161E+03  0.56635880259E+03  0.78585380407E+02 0.  0.
         -6    2    1    2    0  502  0.58939033115E+02 -0.13105790245E+03 -0.38834104000E+02  0.22516042958E+03  0.16893533673E+03 0.  0.
        -24    2    5    5    0    0  0.62161914756E+02 -0.83887180556E+01 -0.17719911195E+02  0.10055699903E+03  0.76571800062E+02 0.  0.
          5    1    3    3  501    0 -0.71349130273E+02  0.85967196899E+02 -0.25603792511E+03  0.27938963193E+03  0.47000000000E+01 0. -1.
        -11    1    4    4    0    0  0.91306573455E+01 -0.17722292445E+02 -0.54622610390E+02  0.58147038780E+02  0.00000000000E+00 0.  1.
         12    1    4    4    0    0  0.32794398120E+01  0.62812997998E+02 -0.50430444122E+03  0.50821176381E+03  0.00000000000E+00 0. -1.
         -5    1    5    5    0  502 -0.32228816407E+01 -0.12266918440E+03 -0.21114192805E+02  0.12460343055E+03  0.47000000000E+01 0.  1.
         11    1    6    6    0    0  0.17283871199E+02 -0.38818457153E+02  0.27944301017E+01  0.42584194943E+02  0.00000000000E+00 0. -1.
        -12    1    6    6    0    0  0.44878043557E+02  0.30429739098E+02 -0.20514341297E+02  0.57972804089E+02  0.00000000000E+00 0.  1.
</event>
<event>
12    1  0.1040325E-001  0.1979641E+03  0.7818608E-02  0.1154712E+00
         21   -1    0    0  501  502  0.00000000000E+00  0.00000000000E+00  0.66065724903E+03  0.66065724903E+03  0.00000000000E+00 0. -1.
         21   -1    0    0  502  503 -0.00000000000E+00 -0.00000000000E+00 -0.86864981417E+02  0.86864981417E+02  0.00000000000E+00 0. -1.
         -6    2    1    2    0  503 -0.78753878991E+01  0.64565648777E+02  0.53805207079E+02  0.19112637958E+03  0.17147462764E+03 0.  0.
        -24    2    3    3    0    0  0.53504991354E+02  0.18881395797E+02 -0.88269502094E+00  0.96959195465E+02  0.78619432889E+02 0.  0.
          6    2    1    2  501    0  0.78753878991E+01 -0.64565648777E+02  0.51998706054E+03  0.55639585087E+03  0.18697340721E+03 0.  0.
         24    2    5    5    0    0  0.18848281802E+02 -0.67131957803E+02  0.13931198946E+03  0.17552501964E+03  0.80865596066E+02 0.  0.
          5    1    5    5  501    0 -0.10972893903E+02  0.25663090255E+01  0.38067507108E+03  0.38087083123E+03  0.47000000000E+01 0. -1.
        -13    1    6    6    0    0 -0.21963972979E+02 -0.24173456714E+01  0.65846736109E+02  0.69455398101E+02  0.00000000000E+00 0.  1.
         14    1    6    6    0    0  0.40812254781E+02 -0.64714612132E+02  0.73465253349E+02  0.10606962154E+03  0.00000000000E+00 0. -1.
         -5    1    3    3    0  503 -0.61380379253E+02  0.45684252981E+02  0.54687902100E+02  0.94167184113E+02  0.47000000000E+01 0.  1.
         11    1    4    4    0    0  0.50878923964E+02 -0.12213347351E+02 -0.24546647735E+02  0.57795922627E+02  0.00000000000E+00 0. -1.
        -12    1    4    4    0    0  0.26260673894E+01  0.31094743148E+02  0.23663952714E+02  0.39163272838E+02  0.00000000000E+00 0.  1.
</event>
<event>
12    1  0.1040325E-001  0.2366551E+03  0.7818608E-02  0.1122215E+00
         21   -1    0    0  501  502  0.00000000000E+00  0.00000000000E+00  0.19191474881E+02  0.19191474881E+02  0.00000000000E+00 0. -1.
         21   -1    0    0  502  503 -0.00000000000E+00 -0.00000000000E+00 -0.32609714381E+04  0.32609714381E+04  0.00000000000E+00 0. -1.
         -6    2    1    2    0  503  0.75368922565E+01 -0.15965583407E+03 -0.10764130611E+04  0.11019022624E+04  0.17313788647E+03 0.  0.
        -24    2    3    3    0    0  0.13935978467E+02 -0.25127490732E+02 -0.62985779272E+03  0.63545556538E+03  0.79103313697E+02 0.  0.
          6    2    1    2  501    0 -0.75368922565E+01  0.15965583407E+03 -0.21653669021E+04  0.21782606506E+04  0.17452464262E+03 0.  0.
         24    2    5    5    0    0 -0.42290445404E+02  0.67430467327E+02 -0.63575065308E+03  0.64546539774E+03  0.78175041389E+02 0.  0.
          5    1    5    5  501    0  0.34753553147E+02  0.92225366739E+02 -0.15296162491E+04  0.15327952528E+04  0.47000000000E+01 0. -1.
        -11    1    6    6    0    0 -0.20243029193E+01 -0.14000895161E+02 -0.32954380237E+02  0.35862432215E+02  0.00000000000E+00 0.  1.
         12    1    6    6    0    0 -0.40266142485E+02  0.81431362488E+02 -0.60279627284E+03  0.60960296553E+03  0.00000000000E+00 0. -1.
         -5    1    3    3    0  503 -0.63990862108E+01 -0.13452834333E+03 -0.44655526841E+03  0.46644669707E+03  0.47000000000E+01 0.  1.
         13    1    4    4    0    0  0.13198275457E+02 -0.52488703781E+02 -0.48709043777E+03  0.49008810745E+03  0.00000000000E+00 0. -1.
        -14    1    4    4    0    0  0.73770300999E+00  0.27361213049E+02 -0.14276735495E+03  0.14536745793E+03  0.00000000000E+00 0.  1.
</event>
<event>
12    1  0.1040325E-001  0.2966512E+03  0.7818608E-02  0.1087123E+00
         21   -1    0    0  501  502  0.00000000000E+00  0.00000000000E+00  0.91801656909E+02  0.91801656909E+02  0.00000000000E+00 0.  1.
         21   -1    0    0  502  503 -0.00000000000E+00 -0.00000000000E+00 -0.15194676669E+04  0.15194676669E+04  0.00000000000E+00 0. -1.
         -6    2    1    2    0  503  0.59208223056E+02 -0.23390884936E+03 -0.22103365965E+03  0.36870602795E+03  0.16990966090E+03 0.  0.
        -24    2    3    3    0    0  0.10359448593E+03 -0.15126059926E+03 -0.13385892360E+03  0.24055612284E+03  0.79608105128E+02 0.  0.
          6    2    1    2  501    0 -0.59208223056E+02  0.23390884936E+03 -0.12066323504E+04  0.12425632959E+04  0.17257737922E+03 0.  0.
         24    2    5    5    0    0 -0.31208609072E+02  0.85062766506E+02 -0.29976024995E+03  0.32311877266E+03  0.79623377640E+02 0.  0.
          5    1    5    5  501    0 -0.27999613984E+02  0.14884608286E+03 -0.90687210040E+03  0.91944452321E+03  0.47000000000E+01 0. -1.
        -13    1    6    6    0    0 -0.55828899399E+02  0.49024148187E+02 -0.15438219492E+03  0.17133036865E+03  0.00000000000E+00 0.  1.
         14    1    6    6    0    0  0.24620290327E+02  0.36038618319E+02 -0.14537805504E+03  0.15178840401E+03  0.00000000000E+00 0. -1.
         -5    1    3    3    0  503 -0.44386262877E+02 -0.82648250102E+02 -0.87174736045E+02  0.12814990512E+03  0.47000000000E+01 0.  1.
         13    1    4    4    0    0  0.10915123298E+02 -0.60768375139E+01 -0.45080456754E+02  0.46779434071E+02  0.00000000000E+00 0. -1.
        -14    1    4    4    0    0  0.92679362635E+02 -0.14518376175E+03 -0.88778466847E+02  0.19377668877E+03  0.00000000000E+00 0.  1.
</event>
<event>
12    1  0.1040325E-001  0.1881616E+03  0.7818608E-02  0.1160245E+00
         21   -1    0    0  503  502  0.00000000000E+00  0.00000000000E+00  0.38557004742E+03  0.38557004742E+03  0.00000000000E+00 0.  1.
         21   -1    0    0  501  503 -0.00000000000E+00 -0.00000000000E+00 -0.10658155388E+03  0.10658155388E+03  0.00000000000E+00 0. -1.
          6    2    1    2  501    0 -0.47296287449E+02 -0.61155880443E+02  0.47329943496E+02  0.19402297370E+03  0.17154535917E+03 0.  0.
         24    2    3    3    0    0 -0.13826435858E+01  0.22418493247E+02  0.52027558401E+02  0.98435860470E+02  0.80487584449E+02 0.  0.
         -6    2    1    2    0  502  0.47296287449E+02  0.61155880443E+02  0.23165855004E+03  0.29812862760E+03  0.17099126956E+03 0.  0.
        -24    2    5    5    0    0 -0.16502733589E+02  0.27263184648E+01  0.48613451892E+02  0.95614611404E+02  0.80617077476E+02 0.  0.
          5    1    3    3  501    0 -0.45913643863E+02 -0.83574373690E+02 -0.46976149047E+01  0.95587113234E+02  0.47000000000E+01 0. -1.
        -11    1    4    4    0    0 -0.23913197994E+02  0.45311997736E+02  0.28577074501E+02  0.58665725634E+02  0.00000000000E+00 0.  1.
         12    1    4    4    0    0  0.22530554408E+02 -0.22893504489E+02  0.23450483901E+02  0.39770134836E+02  0.00000000000E+00 0. -1.
         -5    1    5    5    0  502  0.63799021038E+02  0.58429561978E+02  0.18304509815E+03  0.20251401619E+03  0.47000000000E+01 0.  1.
         13    1    6    6    0    0  0.67425793174E+01  0.37861859391E+02  0.33033428954E+02  0.50697043314E+02  0.00000000000E+00 0. -1.
        -14    1    6    6    0    0 -0.23245312906E+02 -0.35135540926E+02  0.15580022939E+02  0.44917568089E+02  0.00000000000E+00 0.  1.
</event>
<event>
12    1  0.1040325E-001  0.1935687E+03  0.7818608E-02  0.1155917E+00
         21   -1    0    0  501  502  0.00000000000E+00  0.00000000000E+00  0.53028608600E+02  0.53028608600E+02  0.00000000000E+00 0.  1.
         21   -1    0    0  502  503 -0.00000000000E+00 -0.00000000000E+00 -0.12427622388E+04  0.12427622388E+04  0.00000000000E+00 0. -1.
         -6    2    1    2    0  503 -0.48179546285E+02  0.64408814017E+02 -0.10220581690E+04  0.10396973265E+04  0.17290999381E+03 0.  0.
        -24    2    3    3    0    0 -0.78269262289E+02  0.96717148458E+02 -0.80625549521E+03  0.81937460074E+03  0.76462595778E+02 0.  0.
          6    2    1    2  501    0  0.48179546285E+02 -0.64408814017E+02 -0.16767546118E+03  0.25609352086E+03  0.17606551945E+03 0.  0.
         24    2    5    5    0    0 -0.90339351878E+01  0.20981137089E+02 -0.10269786948E+03  0.13440127117E+03  0.83636291143E+02 0.  0.
          5    1    5    5  501    0  0.57213481473E+02 -0.85389951106E+02 -0.64977591701E+02  0.12169224969E+03  0.47000000000E+01 0. -1.
        -13    1    6    6    0    0 -0.23192147791E+02  0.58251829262E+01  0.52474672142E+01  0.24481511135E+02  0.00000000000E+00 0.  1.
         14    1    6    6    0    0  0.14158212603E+02  0.15155954162E+02 -0.10794533670E+03  0.10991976003E+03  0.00000000000E+00 0. -1.
         -5    1    3    3    0  503  0.30089716003E+02 -0.32308334440E+02 -0.21580267379E+03  0.22032272578E+03  0.47000000000E+01 0.  1.
         13    1    4    4    0    0 -0.24708411041E+02 -0.78525813855E+01 -0.21512128404E+03  0.21667795332E+03  0.00000000000E+00 0. -1.
        -14    1    4    4    0    0 -0.53560851248E+02  0.10456972984E+03 -0.59113421117E+03  0.60269664742E+03  0.00000000000E+00 0.  1.
</event>
<event>
12    1  0.1040325E-001  0.1958175E+03  0.7818608E-02  0.1153760E+00
         21   -1    0    0  503  502  0.00000000000E+00  0.00000000000E+00  0.74661101110E+03  0.74661101110E+03  0.00000000000E+00 0. -1.
         21   -1    0    0  501  503 -0.00000000000E+00 -0.00000000000E+00 -0.51391564353E+02  0.51391564353E+02  0.00000000000E+00 0.  1.
          6    2    1    2  501    0  0.32001204600E+02 -0.87038544707E+02  0.30396142843E+03  0.36047849725E+03  0.17015408207E+03 0.  0.
         24    2    3    3    0    0  0.58292769195E+02 -0.23576164699E+01  0.11306054316E+03  0.14993789790E+03  0.79341549725E+02 0.  0.
         -6    2    1    2    0  502 -0.32001204600E+02  0.87038544707E+02  0.39125801831E+03  0.43752407820E+03  0.17246650906E+03 0.  0.
        -24    2    5    5    0    0  0.36674278813E+02  0.72309921632E+02  0.16223051917E+03  0.19792245107E+03  0.79251673761E+02 0.  0.
          5    1    3    3  501    0 -0.26291564595E+02 -0.84680928237E+02  0.19090088527E+03  0.21054059935E+03  0.47000000000E+01 0. -1.
        -13    1    4    4    0    0 -0.18386744086E+02  0.61775262958E+01  0.12058499979E+02  0.22839474840E+02  0.00000000000E+00 0.  1.
         14    1    4    4    0    0  0.76679513281E+02 -0.85351427656E+01  0.10100204318E+03  0.12709842306E+03  0.00000000000E+00 0. -1.
         -5    1    5    5    0  502 -0.68675483413E+02  0.14728623075E+02  0.22902749914E+03  0.23960162713E+03  0.47000000000E+01 0.  1.
         11    1    6    6    0    0  0.22168969799E+02  0.80452424183E+02  0.85751200199E+02  0.11965502127E+03  0.00000000000E+00 0. -1.
        -12    1    6    6    0    0  0.14505309014E+02 -0.81425025509E+01  0.76479318975E+02  0.78267429805E+02  0.00000000000E+00 0.  1.
</event>
<event>
12    1  0.1040325E-001  0.2140607E+03  0.7818608E-02  0.1139043E+00
         21   -1    0    0  503  502  0.00000000000E+00  0.00000000000E+00  0.14282528245E+03  0.14282528245E+03  0.00000000000E+00 0.  1.
         21   -1    0    0  501  503 -0.00000000000E+00 -0.00000000000E+00 -0.33625840499E+03  0.33625840499E+03  0.00000000000E+00 0. -1.
          6    2    1    2  501    0 -0.50752309322E+02  0.11510078126E+03 -0.15648426777E+03  0.26515902691E+03  0.17319929776E+03 0.  0.
         24    2    3    3    0    0 -0.37640060843E+02 -0.88910670024E+01 -0.71513908231E+02  0.11420220694E+03  0.80200247794E+02 0.  0.
         -6    2    1    2    0  502  0.50752309322E+02 -0.11510078126E+03 -0.36948854771E+02  0.21392466053E+03  0.16904010107E+03 0.  0.
        -24    2    5    5    0    0  0.67503489619E+02 -0.42324239571E+02 -0.65128710387E+02  0.13396703848E+03  0.85775032018E+02 0.  0.
          5    1    3    3  501    0 -0.13112248478E+02  0.12399184826E+03 -0.84970359541E+02  0.15095681997E+03  0.47000000000E+01 0. -1.
        -13    1    4    4    0    0  0.14588243948E+02 -0.33213643661E+01 -0.58095116008E+02  0.59990756177E+02  0.00000000000E+00 0.  1.
         14    1    4    4    0    0 -0.52228304792E+02 -0.55697026364E+01 -0.13418792223E+02  0.54211450761E+02  0.00000000000E+00 0. -1.
         -5    1    5    5    0  502 -0.16751180298E+02 -0.72776541688E+02  0.28179855616E+02  0.79957622050E+02  0.47000000000E+01 0.  1.
         13    1    6    6    0    0  0.50334514295E+02 -0.53115654179E+02 -0.80299971395E+02  0.10864125116E+03  0.00000000000E+00 0. -1.
        -14    1    6    6    0    0  0.17168975324E+02  0.10791414608E+02  0.15171261008E+02  0.25325787322E+02  0.00000000000E+00 0.  1.
</event>
<event>
12    1  0.1040325E-001  0.1731045E+03  0.7818608E-02  0.1174688E+00
         21   -1    0    0  503  502  0.00000000000E+00  0.00000000000E+00  0.18989842053E+03  0.18989842053E+03  0.00000000000E+00 0. -1.
         21   -1    0    0  501  503 -0.00000000000E+00 -0.00000000000E+00 -0.15940846494E+03  0.15940846494E+03  0.00000000000E+00 0. -1.
          6    2    1    2  501    0 -0.11161551270E+02  0.95141960624E+01 -0.30779948267E+01  0.17297768818E+03  0.17232732344E+03 0.  0.
         24    2    3    3    0    0  0.41871440691E+02  0.45901410106E+02  0.22261958317E+02  0.10369038193E+03  0.79974642992E+02 0.  0.
         -6    2    1    2    0  502  0.11161551270E+02 -0.95141960624E+01  0.33567950417E+02  0.17632919729E+03  0.17248211029E+03 0.  0.
        -24    2    5    5    0    0  0.26225472777E+00  0.41154529608E+02  0.70415915336E+02  0.11256418381E+03  0.77579187022E+02 0.  0.
          5    1    3    3  501    0 -0.53032991961E+02 -0.36387214043E+02 -0.25339953144E+02  0.69287306251E+02  0.47000000000E+01 0. -1.
        -13    1    4    4    0    0  0.22342328518E+02 -0.20722692804E+02 -0.94314820840E+00  0.30487688814E+02  0.00000000000E+00 0.  1.
         14    1    4    4    0    0  0.19529112173E+02  0.66624102910E+02  0.23205106526E+02  0.73202693118E+02  0.00000000000E+00 0. -1.
         -5    1    5    5    0  502  0.10899296542E+02 -0.50668725670E+02 -0.36847964918E+02  0.63765013485E+02  0.47000000000E+01 0.  1.
         13    1    6    6    0    0 -0.62941043453E+01 -0.22731594740E+02  0.19712878370E+02  0.30739855604E+02  0.00000000000E+00 0. -1.
        -14    1    6    6    0    0  0.65563590730E+01  0.63886124348E+02  0.50703036965E+02  0.81824328204E+02  0.00000000000E+00 0.  1.
</event>
<event>
12    1  0.1040325E-001  0.1747230E+03  0.7818608E-02  0.1173555E+00
         21   -1    0    0  503  502  0.00000000000E+00  0.00000000000E+00  0.22428056594E+02  0.22428056594E+02  0.00000000000E+00 0. -1.
         21   -1    0    0  501  503 -0.00000000000E+00 -0.00000000000E+00 -0.28123986301E+04  0.28123986301E+04  0.00000000000E+00 0. -1.
          6    2    1    2  501    0  0.30951015493E+01 -0.29418417386E+02 -0.24231469916E+04  0.24294380963E+04  0.17220074869E+03 0.  0.
         24    2    3    3    0    0  0.14231199790E+02 -0.48980097853E+02 -0.23664538780E+04  0.23682590871E+04  0.77107523840E+02 0.  0.
         -6    2    1    2    0  502 -0.30951015493E+01  0.29418417386E+02 -0.36682358194E+03  0.40538859044E+03  0.17001572297E+03 0.  0.
        -24    2    5    5    0    0 -0.48171367559E+02  0.64133667617E+02 -0.27300359113E+03  0.29556464482E+03  0.79961806659E+02 0.  0.
          5    1    3    3  501    0 -0.11136098241E+02  0.19561680468E+02 -0.56693113612E+02  0.61179009128E+02  0.47000000000E+01 0. -1.
        -13    1    4    4    0    0  0.19347569976E+02 -0.29952239728E+02 -0.37137375666E+03  0.37308166970E+03  0.00000000000E+00 0.  1.
         14    1    4    4    0    0 -0.51163701853E+01 -0.19027858125E+02 -0.19950801213E+04  0.19951774174E+04  0.00000000000E+00 0. -1.
         -5    1    5    5    0  502  0.45076266009E+02 -0.34715250231E+02 -0.93819990812E+02  0.10982394562E+03  0.47000000000E+01 0.  1.
         13    1    6    6    0    0  0.22118867852E+02  0.18444008459E+02 -0.56997526982E+02  0.63860346422E+02  0.00000000000E+00 0. -1.
        -14    1    6    6    0    0 -0.70290235411E+02  0.45689659158E+02 -0.21600606415E+03  0.23170429840E+03  0.00000000000E+00 0.  1.
</event>
<event>
12    1  0.1040325E-001  0.1839580E+03  0.7818608E-02  0.1164178E+00
         21   -1    0    0  501  502  0.00000000000E+00  0.00000000000E+00  0.20016551170E+03  0.20016551170E+03  0.00000000000E+00 0. -1.
         21   -1    0    0  502  503 -0.00000000000E+00 -0.00000000000E+00 -0.35995952815E+03  0.35995952815E+03  0.00000000000E+00 0. -1.
         -6    2    1    2    0  503  0.60455993138E+02  0.24532819934E+02 -0.28409830998E+03  0.33810681592E+03  0.17131136237E+03 0.  0.
        -24    2    3    3    0    0  0.10588796599E+03  0.23201249522E+02 -0.23834132131E+03  0.27344129768E+03  0.78822576145E+02 0.  0.
          6    2    1    2  501    0 -0.60455993138E+02 -0.24532819934E+02  0.12430429353E+03  0.22201822394E+03  0.17199926748E+03 0.  0.
         24    2    5    5    0    0  0.69534593923E+01 -0.12941817605E+02  0.12658469237E+03  0.15342029508E+03  0.85429862224E+02 0.  0.
          5    1    5    5  501    0 -0.67409452530E+02 -0.11591002329E+02 -0.22803988408E+01  0.68597928863E+02  0.47000000000E+01 0. -1.
        -13    1    6    6    0    0  0.97547910843E+01 -0.47792451437E+02  0.92602425743E+02  0.10466366904E+03  0.00000000000E+00 0.  1.
         14    1    6    6    0    0 -0.28013316920E+01  0.34850633832E+02  0.33982266627E+02  0.48756626040E+02  0.00000000000E+00 0. -1.
         -5    1    3    3    0  503 -0.45431972853E+02  0.13315704116E+01 -0.45756988665E+02  0.64665518236E+02  0.47000000000E+01 0.  1.
         13    1    4    4    0    0  0.14205495194E+01  0.28663603425E+01 -0.94261659343E+02  0.94315928690E+02  0.00000000000E+00 0. -1.
        -14    1    4    4    0    0  0.10446741647E+03  0.20334889180E+02 -0.14407966197E+03  0.17912536899E+03  0.00000000000E+00 0.  1.
</event>
<event>
12    1  0.1040325E-001  0.2365865E+03  0.7818608E-02  0.1122246E+00
         21   -1    0    0  501  502  0.00000000000E+00  0.00000000000E+00  0.34004053040E+03  0.34004053040E+03  0.00000000000E+00 0. -1.
         21   -1    0    0  502  503 -0.00000000000E+00 -0.00000000000E+00 -0.31781012969E+03  0.31781012969E+03  0.00000000000E+00 0. -1.
         -6    2    1    2    0  503 -0.15215656327E+03  0.57126394986E+02 -0.21775025734E+03  0.32085824545E+03  0.17064522949E+03 0.  0.
        -24    2    3    3    0    0 -0.14317662047E+03  0.25515291477E+01 -0.10167779006E+03  0.19219604037E+03  0.78069776433E+02 0.  0.
          6    2    1    2  501    0  0.15215656327E+03 -0.57126394986E+02  0.23998065805E+03  0.33699241464E+03  0.17192476998E+03 0.  0.
         24    2    5    5    0    0  0.12378013939E+03 -0.99596344692E+02  0.21847919618E+03  0.28137478323E+03  0.78725184623E+02 0.  0.
          5    1    5    5  501    0  0.28376423877E+02  0.42469949706E+02  0.21501461876E+02  0.55617631403E+02  0.47000000000E+01 0. -1.
        -13    1    6    6    0    0  0.20241471212E+02 -0.50432981178E+02  0.11397251248E+03  0.12626534104E+03  0.00000000000E+00 0.  1.
         14    1    6    6    0    0  0.10353866818E+03 -0.49163363514E+02  0.10450668370E+03  0.15510944220E+03  0.00000000000E+00 0. -1.
         -5    1    3    3    0  503 -0.89799427933E+01  0.54574865838E+02 -0.11607246728E+03  0.12866220507E+03  0.47000000000E+01 0.  1.
         11    1    4    4    0    0 -0.16846704254E+02 -0.12243317108E+01 -0.54885379634E+02  0.57425737522E+02  0.00000000000E+00 0. -1.
        -12    1    4    4    0    0 -0.12632991622E+03  0.37758608585E+01 -0.46792410428E+02  0.13477030285E+03  0.00000000000E+00 0.  1.
</event>
<event>
12    1  0.1040325E-001  0.1883780E+03  0.7818608E-02  0.1162835E+00
         21   -1    0    0  501  502  0.00000000000E+00  0.00000000000E+00  0.13049169161E+04  0.13049169161E+04  0.00000000000E+00 0.  1.
         21   -1    0    0  502  503 -0.00000000000E+00 -0.00000000000E+00 -0.60120423681E+02  0.60120423681E+02  0.00000000000E+00 0.  1.
         -6    2    1    2    0  503 -0.38497533868E+02  0.15082324166E+02  0.11310140158E+03  0.21972299792E+03  0.18378447203E+03 0.  0.
        -24    2    3    3    0    0 -0.39074097296E+02 -0.47889301431E+02  0.11821010996E+03  0.15636728029E+03  0.81589986982E+02 0.  0.
          6    2    1    2  501    0  0.38497533868E+02 -0.15082324166E+02  0.11316950908E+04  0.11453143419E+04  0.17117717849E+03 0.  0.
         24    2    5    5    0    0  0.23716243410E+02  0.39451274449E+02  0.77305307274E+03  0.78221850455E+03  0.11016293541E+03 0.  0.
          5    1    5    5  501    0  0.14781290458E+02 -0.54533598615E+02  0.35864201809E+03  0.36309583730E+03  0.47000000000E+01 0. -1.
        -11    1    6    6    0    0 -0.77000110642E+01 -0.24408548868E+02  0.47870702910E+03  0.47939074578E+03  0.00000000000E+00 0.  1.
         12    1    6    6    0    0  0.31416254474E+02  0.63859823317E+02  0.29434604363E+03  0.30282775877E+03  0.00000000000E+00 0. -1.
         -5    1    3    3    0  503  0.57656342882E+00  0.62971625597E+02 -0.51087083764E+01  0.63355717635E+02  0.47000000000E+01 0.  1.
         13    1    4    4    0    0  0.15618605257E+02  0.12791380539E+02  0.17721360467E+02  0.26862741169E+02  0.00000000000E+00 0. -1.
        -14    1    4    4    0    0 -0.54692702554E+02 -0.60680681970E+02  0.10048874949E+03  0.12950453912E+03  0.00000000000E+00 0.  1.
</event>
<event>
12    1  0.1040325E-001  0.1951568E+03  0.7818608E-02  0.1154100E+00
         21   -1    0    0  503  502  0.00000000000E+00  0.00000000000E+00  0.11287397167E+03  0.11287397167E+03  0.00000000000E+00 0. -1.
         21   -1    0    0  501  503 -0.00000000000E+00 -0.00000000000E+00 -0.33603207373E+03  0.33603207373E+03  0.00000000000E+00 0. -1.
          6    2    1    2  501    0 -0.66524976210E+02 -0.65306312193E+02 -0.11756067037E+03  0.22701197884E+03  0.17036267328E+03 0.  0.
         24    2    3    3    0    0 -0.64834643297E+02 -0.10954218056E+03 -0.85925864422E+02  0.17239952401E+03  0.78328292503E+02 0.  0.
         -6    2    1    2    0  502  0.66524976210E+02  0.65306312193E+02 -0.10559743169E+03  0.22189406655E+03  0.17145166176E+03 0.  0.
        -24    2    5    5    0    0  0.91124853822E+02  0.16911099937E+01 -0.78534170919E+02  0.14836476618E+03  0.86821017072E+02 0.  0.
          5    1    3    3  501    0 -0.16903329132E+01  0.44235868372E+02 -0.31634805951E+02  0.54612454839E+02  0.47000000000E+01 0. -1.
        -13    1    4    4    0    0  0.14799415875E+02 -0.40203250685E+02 -0.15887212381E+02  0.45691657807E+02  0.00000000000E+00 0.  1.
         14    1    4    4    0    0 -0.79634059172E+02 -0.69338929879E+02 -0.70038652041E+02  0.12670786620E+03  0.00000000000E+00 0. -1.
         -5    1    5    5    0  502 -0.24599877612E+02  0.63615202199E+02 -0.27063260769E+02  0.73529300369E+02  0.47000000000E+01 0.  1.
         11    1    6    6    0    0  0.92159506737E+02  0.30451050333E+02 -0.62059275897E+02  0.11520414434E+03  0.00000000000E+00 0. -1.
        -12    1    6    6    0    0 -0.10346529145E+01 -0.28759940339E+02 -0.16474895021E+02  0.33160621842E+02  0.00000000000E+00 0.  1.
</event>
<event>
12    1  0.1040325E-001  0.2117444E+03  0.7818608E-02  0.1140486E+00
         21   -1    0    0  503  502  0.00000000000E+00  0.00000000000E+00  0.73495575831E+03  0.73495575831E+03  0.00000000000E+00 0. -1.
         21   -1    0    0  501  503 -0.00000000000E+00 -0.00000000000E+00 -0.10714148877E+03  0.10714148877E+03  0.00000000000E+00 0. -1.
          6    2    1    2  501    0 -0.44342060387E+02 -0.11438204736E+03  0.36955073508E+02  0.21494507704E+03  0.17258689871E+03 0.  0.
         24    2    3    3    0    0 -0.53062189641E+02 -0.56126210699E-01  0.37769004349E+02  0.10018790130E+03  0.76128304571E+02 0.  0.
         -6    2    1    2    0  502  0.44342060387E+02  0.11438204736E+03  0.59085919602E+03  0.62715217004E+03  0.17075064795E+03 0.  0.
        -24    2    5    5    0    0  0.78555171623E+02  0.11850528682E+03  0.55011928988E+03  0.57358568764E+03  0.78453106823E+02 0.  0.
          5    1    3    3  501    0  0.87201292548E+01 -0.11432592115E+03 -0.81393084088E+00  0.11475717575E+03  0.47000000000E+01 0. -1.
        -13    1    4    4    0    0  0.17455354900E+02  0.11813538075E+02  0.58213527274E+01  0.21866349584E+02  0.00000000000E+00 0.  1.
         14    1    4    4    0    0 -0.70517544542E+02 -0.11869664286E+02  0.31947651622E+02  0.78321551712E+02  0.00000000000E+00 0. -1.
         -5    1    5    5    0  502 -0.34213111236E+02 -0.41232394580E+01  0.40739906144E+02  0.53566482400E+02  0.47000000000E+01 0.  1.
         11    1    6    6    0    0  0.10617095839E+01  0.38149483026E+02  0.25898968234E+03  0.26178648904E+03  0.00000000000E+00 0. -1.
        -12    1    6    6    0    0  0.77493462039E+02  0.80355803796E+02  0.29112960754E+03  0.31179919860E+03  0.00000000000E+00 0.  1.
</event>
<event>
12    1  0.1040325E-001  0.2067879E+03  0.7818608E-02  0.1144193E+00
         21   -1    0    0  503  502  0.00000000000E+00  0.00000000000E+00  0.37711857948E+03  0.37711857948E+03  0.00000000000E+00 0.  1.
         21   -1    0    0  501  503 -0.00000000000E+00 -0.00000000000E+00 -0.12720986753E+03  0.12720986753E+03  0.00000000000E+00 0.  1.
          6    2    1    2  501    0 -0.14605523129E+01  0.11323233236E+03  0.20846438900E+03  0.29342828612E+03  0.17268197159E+03 0.  0.
         24    2    3    3    0    0  0.67193117881E+02  0.44196572262E+02  0.11222740481E+03  0.15645051519E+03  0.73576635035E+02 0.  0.
         -6    2    1    2    0  502  0.14605523129E+01 -0.11323233236E+03  0.41444322956E+02  0.21090016089E+03  0.17302471400E+03 0.  0.
        -24    2    5    5    0    0 -0.44263273994E+02 -0.12772292070E+03  0.22987135873E+02  0.15929199102E+03  0.81074953526E+02 0.  0.
          5    1    3    3  501    0 -0.68653670194E+02  0.69035760094E+02  0.96236984190E+02  0.13697777093E+03  0.47000000000E+01 0. -1.
        -11    1    4    4    0    0  0.20148099536E+02 -0.16274862145E+02  0.55090536311E+02  0.60875152926E+02  0.00000000000E+00 0.  1.
         12    1    4    4    0    0  0.47045018345E+02  0.60471434406E+02  0.57136868497E+02  0.95575362264E+02  0.00000000000E+00 0. -1.
         -5    1    5    5    0  502  0.45723826307E+02  0.14490588345E+02  0.18457187083E+02  0.51608169874E+02  0.47000000000E+01 0.  1.
         13    1    6    6    0    0 -0.50434202122E+01 -0.11538226653E+03  0.24844650530E+02  0.11813450036E+03  0.00000000000E+00 0. -1.
        -14    1    6    6    0    0 -0.39219853781E+02 -0.12340654174E+02 -0.18575146567E+01  0.41157490652E+02  0.00000000000E+00 0.  1.
</event>
<event>
12    1  0.1040325E-001  0.2242441E+03  0.7818608E-02  0.1131345E+00
         21   -1    0    0  501  502  0.00000000000E+00  0.00000000000E+00  0.41741441979E+03  0.41741441979E+03  0.00000000000E+00 0.  1.
         21   -1    0    0  502  503 -0.00000000000E+00 -0.00000000000E+00 -0.11877012937E+03  0.11877012937E+03  0.00000000000E+00 0. -1.
         -6    2    1    2    0  503 -0.11506956881E+03 -0.86121037479E+02  0.14722213498E+03  0.26825315463E+03  0.17212657894E+03 0.  0.
        -24    2    3    3    0    0 -0.14262049026E+03 -0.90610683638E+02  0.95041254523E+02  0.20888864941E+03  0.77786422725E+02 0.  0.
          6    2    1    2  501    0  0.11506956881E+03  0.86121037479E+02  0.15142215544E+03  0.26793139452E+03  0.16793071265E+03 0.  0.
         24    2    5    5    0    0  0.51797980111E+02  0.76576234399E+02  0.16200397942E+03  0.20290476766E+03  0.79863038834E+02 0.  0.
          5    1    5    5  501    0  0.63271588701E+02  0.95448030801E+01 -0.10581823984E+02  0.65026626865E+02  0.47000000000E+01 0. -1.
        -11    1    6    6    0    0  0.65131061364E+02  0.34325133167E+02  0.74041939831E+02  0.10441493560E+03  0.00000000000E+00 0.  1.
         12    1    6    6    0    0 -0.13333081252E+02  0.42251101232E+02  0.87962039592E+02  0.98489832065E+02  0.00000000000E+00 0. -1.
         -5    1    3    3    0  503  0.27550921443E+02  0.44896461594E+01  0.52180880456E+02  0.59364505221E+02  0.47000000000E+01 0.  1.
         13    1    4    4    0    0 -0.43842052302E+02  0.34374284818E+01  0.24612192729E+01  0.44045420476E+02  0.00000000000E+00 0. -1.
        -14    1    4    4    0    0 -0.98778437953E+02 -0.94048112120E+02  0.92580035250E+02  0.16484322893E+03  0.00000000000E+00 0.  1.
</event>
<event>
12    1  0.1040325E-001  0.3020323E+03  0.7818608E-02  0.1084291E+00
         21   -1    0    0  503  502  0.00000000000E+00  0.00000000000E+00  0.39055591499E+03  0.39055591499E+03  0.00000000000E+00 0. -1.
         21   -1    0    0  501  503 -0.00000000000E+00 -0.00000000000E+00 -0.31738646154E+03  0.31738646154E+03  0.00000000000E+00 0. -1.
          6    2    1    2  501    0  0.17901588045E+03  0.17283929117E+03 -0.14575677663E+03  0.33491130824E+03  0.17029515679E+03 0.  0.
         24    2    3    3    0    0  0.27382256735E+02  0.99595968992E+02 -0.81114992337E+02  0.15447297982E+03  0.81321058095E+02 0.  0.
         -6    2    1    2    0  502 -0.17901588045E+03 -0.17283929117E+03  0.21892623008E+03  0.37303106829E+03  0.17118229367E+03 0.  0.
        -24    2    5    5    0    0 -0.91404646399E+02 -0.38723352633E+02  0.15772826866E+03  0.20147905348E+03  0.76559093752E+02 0.  0.
          5    1    3    3  501    0  0.15163362371E+03  0.73243322183E+02 -0.64641784294E+02  0.18043832842E+03  0.47000000000E+01 0. -1.
        -13    1    4    4    0    0 -0.21275268086E+02  0.15628488865E+02  0.23067915760E+01  0.26499207228E+02  0.00000000000E+00 0.  1.
         14    1    4    4    0    0  0.48657524821E+02  0.83967480127E+02 -0.83421783913E+02  0.12797377259E+03  0.00000000000E+00 0. -1.
         -5    1    5    5    0  502 -0.87611234051E+02 -0.13411593854E+03  0.61197961425E+02  0.17155201481E+03  0.47000000000E+01 0.  1.
         13    1    6    6    0    0 -0.39303707742E+02 -0.22211263529E+02  0.13313125987E+02  0.47067621497E+02  0.00000000000E+00 0. -1.
        -14    1    6    6    0    0 -0.52100938657E+02 -0.16512089103E+02  0.14441514267E+03  0.15441143198E+03  0.00000000000E+00 0.  1.
</event>
<event>
12    1  0.1040325E-001  0.2204258E+03  0.7818608E-02  0.1135055E+00
         21   -1    0    0  501  502  0.00000000000E+00  0.00000000000E+00  0.70244554136E+02  0.70244554136E+02  0.00000000000E+00 0. -1.
         21   -1    0    0  502  503 -0.00000000000E+00 -0.00000000000E+00 -0.16722284995E+04  0.16722284995E+04  0.00000000000E+00 0. -1.
         -6    2    1    2    0  503  0.98398436879E+02  0.74660392912E+02 -0.14821459316E+04  0.14984472327E+04  0.18256812375E+03 0.  0.
        -24    2    3    3    0    0  0.99547893690E+02  0.11850768438E+03 -0.11089764467E+04  0.11226794045E+04  0.81402896269E+02 0.  0.
          6    2    1    2  501    0 -0.98398436879E+02 -0.74660392912E+02 -0.11983801369E+03  0.24402582092E+03  0.17300585279E+03 0.  0.
         24    2    5    5    0    0  0.37005653466E+01 -0.70597296724E+02 -0.91580948309E+02  0.13790670506E+03  0.75056756655E+02 0.  0.
          5    1    5    5  501    0 -0.10209900223E+03 -0.40630961878E+01 -0.28257065382E+02  0.10611911586E+03  0.47000000000E+01 0. -1.
        -11    1    6    6    0    0  0.27232339187E+02 -0.26410129982E+01 -0.43534600793E+02  0.51418252726E+02  0.00000000000E+00 0.  1.
         12    1    6    6    0    0 -0.23531773841E+02 -0.67956283726E+02 -0.48046347517E+02  0.86488452337E+02  0.00000000000E+00 0. -1.
         -5    1    3    3    0  503 -0.11494568111E+01 -0.43847291467E+02 -0.37316948496E+03  0.37576782822E+03  0.47000000000E+01 0.  1.
         13    1    4    4    0    0 -0.12872877611E+02  0.13825055286E+02 -0.19180555168E+03  0.19273352792E+03  0.00000000000E+00 0. -1.
        -14    1    4    4    0    0  0.11242077130E+03  0.10468262909E+03 -0.91717089500E+03  0.92994587653E+03  0.00000000000E+00 0.  1.
</event>
<event>
12    1  0.1040325E-001  0.3929894E+03  0.7818608E-02  0.1046267E+00
         21   -1    0    0  503  502  0.00000000000E+00  0.00000000000E+00  0.99995270559E+02  0.99995270559E+02  0.00000000000E+00 0. -1.
         21   -1    0    0  501  503 -0.00000000000E+00 -0.00000000000E+00 -0.18241850123E+04  0.18241850123E+04  0.00000000000E+00 0. -1.
          6    2    1    2  501    0 -0.31480618235E+03 -0.15990771608E+03 -0.12401475368E+04  0.13009252930E+04  0.17253201077E+03 0.  0.
         24    2    3    3    0    0 -0.11935561426E+03 -0.12797844561E+02 -0.36458153880E+03  0.39181575846E+03  0.78678730721E+02 0.  0.
         -6    2    1    2    0  502  0.31480618235E+03  0.15990771608E+03 -0.48404220491E+03  0.62325498986E+03  0.17168726263E+03 0.  0.
        -24    2    5    5    0    0  0.31793430071E+03  0.16198924337E+03 -0.49172160139E+03  0.61349891429E+03  0.85252859331E+02 0.  0.
          5    1    3    3  501    0 -0.19545056809E+03 -0.14710987152E+03 -0.87556599803E+03  0.90910953452E+03  0.47000000000E+01 0. -1.
        -13    1    4    4    0    0 -0.93427216915E+02  0.23538048375E+02 -0.28104186847E+03  0.29709799127E+03  0.00000000000E+00 0.  1.
         14    1    4    4    0    0 -0.25928397345E+02 -0.36335892936E+02 -0.83539670327E+02  0.94717767196E+02  0.00000000000E+00 0. -1.
         -5    1    5    5    0  502 -0.31281183617E+01 -0.20815272915E+01  0.76793964790E+01  0.97560755753E+01  0.47000000000E+01 0.  1.
         13    1    6    6    0    0  0.14700596796E+03  0.12179311117E+03 -0.24232995132E+03  0.30849330925E+03  0.00000000000E+00 0. -1.
        -14    1    6    6    0    0  0.17092833275E+03  0.40196132196E+02 -0.24939165007E+03  0.30500560504E+03  0.00000000000E+00 0.  1.
</event>
<event>
12    1  0.1040325E-001  0.2338119E+03  0.7818608E-02  0.1124425E+00
         21   -1    0    0  501  502  0.00000000000E+00  0.00000000000E+00  0.95154758397E+03  0.95154758397E+03  0.00000000000E+00 0.  1.
         21   -1    0    0  502  503 -0.00000000000E+00 -0.00000000000E+00 -0.38036668299E+03  0.38036668299E+03  0.00000000000E+00 0. -1.
         -6    2    1    2    0  503 -0.13450248864E+03  0.80765483611E+02 -0.32837140750E+03  0.40310766725E+03  0.17336097411E+03 0.  0.
        -24    2    3    3    0    0 -0.14472244823E+03  0.72028329162E+02 -0.33992412226E+03  0.38476807456E+03  0.79783426114E+02 0.  0.
          6    2    1    2  501    0  0.13450248864E+03 -0.80765483611E+02  0.89955230847E+03  0.92880659970E+03  0.16992163248E+03 0.  0.
         24    2    5    5    0    0  0.18884373751E+02  0.42891715170E+01  0.43566781774E+03  0.44320104620E+03  0.79029762613E+02 0.  0.
          5    1    5    5  501    0  0.11561811488E+03 -0.85054655128E+02  0.46388449073E+03  0.48560555350E+03  0.47000000000E+01 0. -1.
        -11    1    6    6    0    0  0.31897501583E+02 -0.15876326692E+02  0.38988001020E+03  0.39150470075E+03  0.00000000000E+00 0.  1.
         12    1    6    6    0    0 -0.13013127832E+02  0.20165498209E+02  0.45787807539E+02  0.51696345453E+02  0.00000000000E+00 0. -1.
         -5    1    3    3    0  503  0.10219959594E+02  0.87371544489E+01  0.11552714760E+02  0.18339592697E+02  0.47000000000E+01 0.  1.
         11    1    4    4    0    0 -0.33631014492E+02 -0.17200710356E+02 -0.72778431148E+02  0.81997619556E+02  0.00000000000E+00 0. -1.
        -12    1    4    4    0    0 -0.11109143374E+03  0.89229039518E+02 -0.26714569111E+03  0.30277045500E+03  0.00000000000E+00 0.  1.
</event>
<event>
12    1  0.1040325E-001  0.1869794E+03  0.7818608E-02  0.1161339E+00
         21   -1    0    0  501  502  0.00000000000E+00  0.00000000000E+00  0.47446183654E+02  0.47446183654E+02  0.00000000000E+00 0. -1.
         21   -1    0    0  502  503 -0.00000000000E+00 -0.00000000000E+00 -0.13289355276E+04  0.13289355276E+04  0.00000000000E+00 0.  1.
         -6    2    1    2    0  503 -0.42699738159E+02 -0.59338523749E+02 -0.11004085584E+04  0.11160904592E+04  0.17150682118E+03 0.  0.
        -24    2    3    3    0    0 -0.89589082276E+02 -0.66767245506E+02 -0.87628596060E+03  0.88694678083E+03  0.79457149122E+02 0.  0.
          6    2    1    2  501    0  0.42699738159E+02  0.59338523749E+02 -0.18108078553E+03  0.26029125202E+03  0.17209577843E+03 0.  0.
         24    2    5    5    0    0  0.51522940479E+00  0.31845614429E+01 -0.16690347642E+02  0.81464222941E+02  0.79670854282E+02 0.  0.
          5    1    5    5  501    0  0.42184508754E+02  0.56153962306E+02 -0.16439043789E+03  0.17882702908E+03  0.47000000000E+01 0. -1.
        -11    1    6    6    0    0 -0.20118892177E+01 -0.36769845632E+02 -0.18855485384E+02  0.41371470545E+02  0.00000000000E+00 0.  1.
         12    1    6    6    0    0  0.25271186225E+01  0.39954407075E+02  0.21651377418E+01  0.40092752396E+02  0.00000000000E+00 0. -1.
         -5    1    3    3    0  503  0.46889344117E+02  0.74287217569E+01 -0.22412259778E+03  0.22914367837E+03  0.47000000000E+01 0.  1.
         13    1    4    4    0    0 -0.88836884188E+02 -0.78835359552E+02 -0.68047089328E+03  0.69075874407E+03  0.00000000000E+00 0. -1.
        -14    1    4    4    0    0 -0.75219808747E+00  0.12068114047E+02 -0.19581506732E+03  0.19618803676E+03  0.00000000000E+00 0.  1.
</event>
<event>
12    1  0.1040325E-001  0.1812021E+03  0.7818608E-02  0.1166785E+00
         21   -1    0    0  501  502  0.00000000000E+00  0.00000000000E+00  0.21687962839E+03  0.21687962839E+03  0.00000000000E+00 0.  1.
         21   -1    0    0  502  503 -0.00000000000E+00 -0.00000000000E+00 -0.15642814038E+03  0.15642814038E+03  0.00000000000E+00 0.  1.
         -6    2    1    2    0  503  0.42077257478E+02  0.34733315567E+02  0.65251410942E+02  0.19204206230E+03  0.17217871023E+03 0.  0.
        -24    2    3    3    0    0 -0.53099433736E+01  0.65422454044E+02  0.83601016134E+02  0.13249235168E+03  0.79099939082E+02 0.  0.
          6    2    1    2  501    0 -0.42077257478E+02 -0.34733315567E+02 -0.47999229239E+01  0.18126570647E+03  0.17279270318E+03 0.  0.
         24    2    5    5    0    0 -0.88485031018E+02 -0.29875184147E+02  0.28179218669E+02  0.12393337121E+03  0.76441381412E+02 0.  0.
          5    1    5    5  501    0  0.46407773541E+02 -0.48581314209E+01 -0.32979141593E+02  0.57332335258E+02  0.47000000000E+01 0. -1.
        -13    1    6    6    0    0 -0.17062076854E+02 -0.23796651758E+02  0.41734302246E+02  0.50981830934E+02  0.00000000000E+00 0.  1.
         14    1    6    6    0    0 -0.71422954165E+02 -0.60785323886E+01 -0.13555083577E+02  0.72951540274E+02  0.00000000000E+00 0. -1.
         -5    1    3    3    0  503  0.47387200851E+02 -0.30689138477E+02 -0.18349605192E+02  0.59549710626E+02  0.47000000000E+01 0.  1.
         13    1    4    4    0    0 -0.12956344785E+02  0.78052158542E+02  0.44677888374E+02  0.90863194049E+02  0.00000000000E+00 0. -1.
        -14    1    4    4    0    0  0.76464014109E+01 -0.12629704498E+02  0.38923127760E+02  0.41629157629E+02  0.00000000000E+00 0.  1.
</event>
<event>
12    1  0.1040325E-001  0.2063545E+03  0.7818608E-02  0.1144575E+00
         21   -1    0    0  503  502  0.00000000000E+00  0.00000000000E+00  0.98165756930E+02  0.98165756930E+02  0.00000000000E+00 0.  1.
         21   -1    0    0  501  503 -0.00000000000E+00 -0.00000000000E+00 -0.57521751245E+03  0.57521751245E+03  0.00000000000E+00 0.  1.
          6    2    1    2  501    0 -0.83592230638E+02 -0.77813592782E+02 -0.40583543607E+03  0.45508541666E+03  0.17134094385E+03 0.  0.
         24    2    3    3    0    0 -0.65801545952E+02 -0.11964116700E+03 -0.34116668599E+03  0.37590087483E+03  0.79138535373E+02 0.  0.
         -6    2    1    2    0  502  0.83592230638E+02  0.77813592782E+02 -0.71216319452E+02  0.21829785272E+03  0.17187080061E+03 0.  0.
        -24    2    5    5    0    0 -0.16073561118E+02  0.81678988236E+01 -0.44380468505E+02  0.93694298885E+02  0.80522802488E+02 0.  0.
          5    1    3    3  501    0 -0.17790684685E+02  0.41827574222E+02 -0.64668750087E+02  0.79184541829E+02  0.47000000000E+01 0. -1.
        -11    1    4    4    0    0 -0.72336067443E+02 -0.75261607728E+02 -0.28802210167E+03  0.30635526322E+03  0.00000000000E+00 0.  1.
         12    1    4    4    0    0  0.65345214907E+01 -0.44379559276E+02 -0.53144584315E+02  0.69545611613E+02  0.00000000000E+00 0. -1.
         -5    1    5    5    0  502  0.99665791755E+02  0.69645693959E+02 -0.26835850946E+02  0.12460355384E+03  0.47000000000E+01 0.  1.
         13    1    6    6    0    0 -0.31350314337E+02  0.19262324468E+01 -0.62031543352E+02  0.69530316777E+02  0.00000000000E+00 0. -1.
        -14    1    6    6    0    0  0.15276753219E+02  0.62416663768E+01  0.17651074846E+02  0.24163982108E+02  0.00000000000E+00 0.  1.
</event>
<event>
12    1  0.1040325E-001  0.2196953E+03  0.7818608E-02  0.1134236E+00
         21   -1    0    0  501  502  0.00000000000E+00  0.00000000000E+00  0.13960674103E+03  0.13960674103E+03  0.00000000000E+00 0.  1.
         21   -1    0    0  502  503 -0.00000000000E+00 -0.00000000000E+00 -0.34522216952E+03  0.34522216952E+03  0.00000000000E+00 0.  1.
         -6    2    1    2    0  503 -0.26247947676E+02 -0.13128527405E+03 -0.92941011623E+02  0.23792495188E+03  0.17333630072E+03 0.  0.
        -24    2    3    3    0    0  0.61573801836E+01 -0.13840713695E+03 -0.20099205469E+02  0.15774487375E+03  0.72698130969E+02 0.  0.
          6    2    1    2  501    0  0.26247947676E+02  0.13128527405E+03 -0.11267441686E+03  0.24690395867E+03  0.17418743539E+03 0.  0.
         24    2    5    5    0    0  0.39400798267E+02  0.12794117243E+03 -0.24457642179E+02  0.15752571842E+03  0.79339833597E+02 0.  0.
          5    1    5    5  501    0 -0.13152850591E+02  0.33441016230E+01 -0.88216774683E+02  0.89378240248E+02  0.47000000000E+01 0. -1.
        -13    1    6    6    0    0  0.55451647337E-01  0.77685138066E+02 -0.45854708255E+02  0.90208857771E+02  0.00000000000E+00 0.  1.
         14    1    6    6    0    0  0.39345346620E+02  0.50256034364E+02  0.21397066076E+02  0.67316860646E+02  0.00000000000E+00 0. -1.
         -5    1    3    3    0  503 -0.32405327860E+02  0.71218628940E+01 -0.72841806154E+02  0.80180078128E+02  0.47000000000E+01 0.  1.
         11    1    4    4    0    0 -0.24273591270E+01 -0.11722888533E+02  0.21094746357E+02  0.24255030648E+02  0.00000000000E+00 0. -1.
        -12    1    4    4    0    0  0.85847393106E+01 -0.12668424841E+03 -0.41193951826E+02  0.13348984310E+03  0.00000000000E+00 0.  1.
</event>
<event>
12    1  0.1040325E-001  0.2069760E+03  0.7818608E-02  0.1144036E+00
         21   -1    0    0  503  502  0.00000000000E+00  0.00000000000E+00  0.20269051387E+02  0.20269051387E+02  0.00000000000E+00 0.  1.
         21   -1    0    0  501  503 -0.00000000000E+00 -0.00000000000E+00 -0.23830599661E+04  0.23830599661E+04  0.00000000000E+00 0. -1.
          6    2    1    2  501    0 -0.11158233623E+03 -0.27037060974E+02 -0.15868751681E+04  0.16002821207E+04  0.17189661509E+03 0.  0.
         24    2    3    3    0    0 -0.14659708166E+03 -0.35064692561E+02 -0.13080126923E+04  0.13190760651E+04  0.79650646156E+02 0.  0.
         -6    2    1    2    0  502  0.11158233623E+03  0.27037060974E+02 -0.77591574658E+03  0.80304689676E+03  0.17221339138E+03 0.  0.
        -24    2    5    5    0    0  0.13321528555E+03  0.57675641702E+02 -0.68664354519E+03  0.70610194811E+03  0.77638978831E+02 0.  0.
          5    1    3    3  501    0  0.35014745429E+02  0.80276315865E+01 -0.27886247589E+03  0.28120605564E+03  0.47000000000E+01 0. -1.
        -13    1    4    4    0    0 -0.47145114370E+02 -0.47761370006E+02 -0.65223960171E+03  0.65568308527E+03  0.00000000000E+00 0.  1.
         14    1    4    4    0    0 -0.99451967290E+02  0.12696677445E+02 -0.65577309055E+03  0.66339297984E+03  0.00000000000E+00 0. -1.
         -5    1    5    5    0  502 -0.21632949317E+02 -0.30638580728E+02 -0.89272201398E+02  0.96944948644E+02  0.47000000000E+01 0.  1.
         13    1    6    6    0    0  0.98979788739E+02  0.33891217957E+02 -0.60951526556E+03  0.61842903569E+03  0.00000000000E+00 0. -1.
        -14    1    6    6    0    0  0.34235496810E+02  0.23784423745E+02 -0.77128279623E+02  0.87672912421E+02  0.00000000000E+00 0.  1.
</event>
<event>
12    1  0.1040325E-001  0.1783256E+03  0.7818608E-02  0.1170004E+00
         21   -1    0    0  503  502  0.00000000000E+00  0.00000000000E+00  0.20843138886E+03  0.20843138886E+03  0.00000000000E+00 0.  1.
         21   -1    0    0  501  503 -0.00000000000E+00 -0.00000000000E+00 -0.73597264662E+03  0.73597264662E+03  0.00000000000E+00 0.  1.
          6    2    1    2  501    0  0.32737890848E+01  0.45063920326E+02 -0.68524894473E+03  0.70807211439E+03  0.17250660365E+03 0.  0.
         24    2    3    3    0    0 -0.50413144867E+02  0.71049759016E+02 -0.44715356076E+03  0.46257455318E+03  0.80245603723E+02 0.  0.
         -6    2    1    2    0  502 -0.32737890848E+01 -0.45063920326E+02  0.15770768697E+03  0.23633192109E+03  0.17011639482E+03 0.  0.
        -24    2    5    5    0    0  0.62401578465E+01  0.40699924124E+02  0.73291919994E+02  0.11552602755E+03  0.79240987566E+02 0.  0.
          5    1    3    3  501    0  0.53686933952E+02 -0.25985838690E+02 -0.23809538397E+03  0.24549756121E+03  0.47000000000E+01 0. -1.
        -13    1    4    4    0    0 -0.20972732790E+02  0.28883434940E+02 -0.35703436767E+03  0.35881422496E+03  0.00000000000E+00 0.  1.
         14    1    4    4    0    0 -0.29440412077E+02  0.42166324076E+02 -0.90119193089E+02  0.10376032822E+03  0.00000000000E+00 0. -1.
         -5    1    5    5    0  502 -0.95139469313E+01 -0.85763844449E+02  0.84415766978E+02  0.12080589355E+03  0.47000000000E+01 0.  1.
         13    1    6    6    0    0  0.37069125781E+02  0.25030752991E+02  0.66718349422E+02  0.80324322786E+02  0.00000000000E+00 0. -1.
        -14    1    6    6    0    0 -0.30828967935E+02  0.15669171132E+02  0.65735705720E+01  0.35201704759E+02  0.00000000000E+00 0.  1.
</event>
<event>
12    1  0.1040325E-001  0.2060842E+03  0.7818608E-02  0.1144867E+00
         21   -1    0    0  501  502  0.00000000000E+00  0.00000000000E+00  0.81369906484E+02  0.81369906484E+02  0.00000000000E+00 0. -1.
         21   -1    0    0  502  503 -0.00000000000E+00 -0.00000000000E+00 -0.52567823657E+03  0.52567823657E+03  0.00000000000E+00 0. -1.
         -6    2    1    2    0  503  0.10137141153E+03  0.38659336051E+02 -0.25433287437E+03  0.32734676731E+03  0.17521411971E+03 0.  0.
        -24    2    3    3    0    0  0.80801946650E+02  0.43873831547E+02 -0.65866824490E+02  0.13763162346E+03  0.78422940088E+02 0.  0.
          6    2    1    2  501    0 -0.10137141153E+03 -0.38659336051E+02 -0.18997545572E+03  0.27970137574E+03  0.17427414747E+03 0.  0.
         24    2    5    5    0    0 -0.69116047559E+00 -0.60422223377E+02 -0.11682221796E+03  0.15327502401E+03  0.78705016335E+02 0.  0.
          5    1    5    5  501    0 -0.10068025105E+03  0.21762887326E+02 -0.73153237759E+02  0.12642635173E+03  0.47000000000E+01 0. -1.
        -11    1    6    6    0    0 -0.33837116341E+01 -0.49703403547E+02 -0.12812337374E+03  0.13746809349E+03  0.00000000000E+00 0.  1.
         12    1    6    6    0    0  0.26925511586E+01 -0.10718819830E+02  0.11301155787E+02  0.15806930518E+02  0.00000000000E+00 0. -1.
         -5    1    3    3    0  503  0.20569464881E+02 -0.52144954965E+01 -0.18846604988E+03  0.18971514385E+03  0.47000000000E+01 0.  1.
         13    1    4    4    0    0  0.90052798887E+02  0.16285374106E+02 -0.46232879990E+02  0.10252901633E+03  0.00000000000E+00 0. -1.
        -14    1    4    4    0    0 -0.92508522373E+01  0.27588457441E+02 -0.19633944500E+02  0.35102607136E+02  0.00000000000E+00 0.  1.
</event>
<event>
12    1  0.1040325E-001  0.1746003E+03  0.7818608E-02  0.1173652E+00
         21   -1    0    0  503  502  0.00000000000E+00  0.00000000000E+00  0.79615629297E+03  0.79615629297E+03  0.00000000000E+00 0. -1.
         21   -1    0    0  501  503 -0.00000000000E+00 -0.00000000000E+00 -0.57710791532E+02  0.57710791532E+02  0.00000000000E+00 0. -1.
          6    2    1    2  501    0  0.17045706957E+02  0.16531130555E+02  0.12015559870E+03  0.21194959651E+03  0.17297811757E+03 0.  0.
         24    2    3    3    0    0 -0.25062077073E+02 -0.37852587755E+02  0.10816662050E+03  0.14197474466E+03  0.79974272269E+02 0.  0.
         -6    2    1    2    0  502 -0.17045706957E+02 -0.16531130555E+02  0.61828990274E+03  0.64191748799E+03  0.17091466632E+03 0.  0.
        -24    2    5    5    0    0  0.33762687899E+02 -0.56503281301E+02  0.44787451735E+03  0.45959151782E+03  0.79374051605E+02 0.  0.
          5    1    3    3  501    0  0.42107784030E+02  0.54383718310E+02  0.11988978208E+02  0.69974851851E+02  0.47000000000E+01 0. -1.
        -11    1    4    4    0    0 -0.39655939949E+02  0.58213538427E+01  0.75622259986E+02  0.85587428628E+02  0.00000000000E+00 0.  1.
         12    1    4    4    0    0  0.14593862876E+02 -0.43673941598E+02  0.32544360511E+02  0.56387316033E+02  0.00000000000E+00 0. -1.
         -5    1    5    5    0  502 -0.50808394856E+02  0.39972150747E+02  0.17041538539E+03  0.18232597018E+03  0.47000000000E+01 0.  1.
         13    1    6    6    0    0  0.10219776592E+02 -0.40752996793E+02  0.41075862002E+03  0.41290179765E+03  0.00000000000E+00 0. -1.
        -14    1    6    6    0    0  0.23542911307E+02 -0.15750284509E+02  0.37115897327E+02  0.46689720168E+02  0.00000000000E+00 0.  1.
</event>
<event>
12    1  0.1040325E-001  0.2152335E+03  0.7818608E-02  0.1138104E+00
         21   -1    0    0  501  502  0.00000000000E+00  0.00000000000E+00  0.46637166702E+03  0.46637166702E+03  0.00000000000E+00 0. -1.
         21   -1    0    0  502  503 -0.00000000000E+00 -0.00000000000E+00 -0.97879029243E+02  0.97879029243E+02  0.00000000000E+00 0. -1.
         -6    2    1    2    0  503 -0.71708685073E+01  0.12548731868E+03  0.18622707555E+03  0.28221136837E+03  0.17077542056E+03 0.  0.
        -24    2    3    3    0    0 -0.64171897174E+02  0.72659662320E+02  0.15273545177E+03  0.19745490898E+03  0.79138258366E+02 0.  0.
          6    2    1    2  501    0  0.71708685073E+01 -0.12548731868E+03  0.18226556223E+03  0.28203932789E+03  0.17471965773E+03 0.  0.
         24    2    5    5    0    0  0.50569888370E+02 -0.29635479957E+02  0.48219422598E+02  0.11156496776E+03  0.81768294794E+02 0.  0.
          5    1    5    5  501    0 -0.43399019863E+02 -0.95851838726E+02  0.13404613963E+03  0.17047436013E+03  0.47000000000E+01 0. -1.
        -13    1    6    6    0    0  0.40318739997E+02 -0.58631143054E+01  0.67803806026E+02  0.79103305973E+02  0.00000000000E+00 0.  1.
         14    1    6    6    0    0  0.10251148373E+02 -0.23772365652E+02 -0.19584383428E+02  0.32461661786E+02  0.00000000000E+00 0. -1.
         -5    1    3    3    0  503  0.57001028667E+02  0.52827656363E+02  0.33491623781E+02  0.84756459396E+02  0.47000000000E+01 0.  1.
         13    1    4    4    0    0 -0.40098640384E+02  0.74614314129E+02  0.15112923597E+03  0.17324907734E+03  0.00000000000E+00 0. -1.
        -14    1    4    4    0    0 -0.24073256790E+02 -0.19546518087E+01  0.16062157978E+01  0.24205831639E+02  0.00000000000E+00 0.  1.
</event>
<event>
12    1  0.1040325E-001  0.2344033E+03  0.7818608E-02  0.1123894E+00
         21   -1    0    0  503  502  0.00000000000E+00  0.00000000000E+00  0.15777396849E+03  0.15777396849E+03  0.00000000000E+00 0.  1.
         21   -1    0    0  501  503 -0.00000000000E+00 -0.00000000000E+00 -0.59590054280E+03  0.59590054280E+03  0.00000000000E+00 0. -1.
          6    2    1    2  501    0  0.14161585352E+03 -0.74394724824E+02 -0.46382259870E+03  0.51968865583E+03  0.17133379959E+03 0.  0.
         24    2    3    3    0    0  0.11667020909E+03  0.96096578672E+01 -0.23240048848E+03  0.27218652536E+03  0.79820012077E+02 0.  0.
         -6    2    1    2    0  502 -0.14161585352E+03  0.74394724824E+02  0.25696024399E+02  0.23398585546E+03  0.16881785994E+03 0.  0.
        -24    2    5    5    0    0 -0.51598136740E+02  0.70703652441E+02 -0.35981130857E+02  0.12470193701E+03  0.81206878608E+02 0.  0.
          5    1    3    3  501    0  0.24945644427E+02 -0.84004382691E+02 -0.23142211022E+03  0.24750213047E+03  0.47000000000E+01 0. -1.
        -11    1    4    4    0    0  0.93510287211E+02  0.20591792914E+02 -0.22646688265E+03  0.24587688929E+03  0.00000000000E+00 0.  1.
         12    1    4    4    0    0  0.23159921884E+02 -0.10982135047E+02 -0.59336058247E+01  0.26309636066E+02  0.00000000000E+00 0. -1.
         -5    1    5    5    0  502 -0.90017716781E+02  0.36910723833E+01  0.61677155257E+02  0.10928391844E+03  0.47000000000E+01 0.  1.
         13    1    6    6    0    0 -0.41368522811E+02 -0.20856238035E+01 -0.29621273244E+02  0.50922729059E+02  0.00000000000E+00 0. -1.
        -14    1    6    6    0    0 -0.10229613929E+02  0.72789276244E+02 -0.63598576132E+01  0.73779207953E+02  0.00000000000E+00 0.  1.
</event>
<event>
12    1  0.1040325E-001  0.2263307E+03  0.7818608E-02  0.1129535E+00
         21   -1    0    0  503  502  0.00000000000E+00  0.00000000000E+00  0.13516156525E+04  0.13516156525E+04  0.00000000000E+00 0. -1.
         21   -1    0    0  501  503 -0.00000000000E+00 -0.00000000000E+00 -0.51798644110E+02  0.51798644110E+02  0.00000000000E+00 0.  1.
          6    2    1    2  501    0  0.14174289253E+03 -0.38458600106E+02  0.10151807859E+04  0.10397614585E+04  0.17012275288E+03 0.  0.
         24    2    3    3    0    0  0.89335344786E+02  0.39436224700E+02  0.68573347672E+03  0.69716581593E+03  0.79207033528E+02 0.  0.
         -6    2    1    2    0  502 -0.14174289253E+03  0.38458600106E+02  0.28463622246E+03  0.36365283806E+03  0.17220771176E+03 0.  0.
        -24    2    5    5    0    0 -0.17151309376E+03  0.27759749050E+02  0.21905938633E+03  0.29069297422E+03  0.79549013328E+02 0.  0.
          5    1    3    3  501    0  0.52407547748E+02 -0.77894824806E+02  0.32944730919E+03  0.34259564260E+03  0.47000000000E+01 0. -1.
        -13    1    4    4    0    0 -0.10231359586E+02  0.66749717307E+01  0.21630469834E+02  0.24841763058E+02  0.00000000000E+00 0.  1.
         14    1    4    4    0    0  0.99566704371E+02  0.32761252969E+02  0.66410300689E+03  0.67232405288E+03  0.00000000000E+00 0. -1.
         -5    1    5    5    0  502  0.29770201231E+02  0.10698851057E+02  0.65576836128E+02  0.72959863842E+02  0.47000000000E+01 0.  1.
         13    1    6    6    0    0 -0.85750343708E+01 -0.92018508388E+01  0.55414936136E+02  0.56824470259E+02  0.00000000000E+00 0. -1.
        -14    1    6    6    0    0 -0.16293805939E+03  0.36961599888E+02  0.16364445019E+03  0.23386850396E+03  0.00000000000E+00 0.  1.
</event>
<event>
12    1  0.1040325E-001  0.2327205E+03  0.7818608E-02  0.1125329E+00
         21   -1    0    0  503  502  0.00000000000E+00  0.00000000000E+00  0.78134069786E+03  0.78134069786E+03  0.00000000000E+00 0.  1.
         21   -1    0    0  501  503 -0.00000000000E+00 -0.00000000000E+00 -0.81494827358E+02  0.81494827358E+02  0.00000000000E+00 0. -1.
          6    2    1    2  501    0  0.46312188970E+02 -0.14911309660E+03  0.17856405833E+03  0.29333248378E+03  0.17256676589E+03 0.  0.
         24    2    3    3    0    0  0.38926736747E+02 -0.30719413999E+02  0.14052907960E+03  0.16867150917E+03  0.79010648412E+02 0.  0.
         -6    2    1    2    0  502 -0.46312188970E+02  0.14911309660E+03  0.52128181217E+03  0.56950304144E+03  0.16798646397E+03 0.  0.
        -24    2    5    5    0    0 -0.85627932122E+02  0.67768275967E+02  0.35640809899E+03  0.38143885345E+03  0.80896130373E+02 0.  0.
          5    1    3    3  501    0  0.73854522236E+01 -0.11839368260E+03  0.38034978728E+02  0.12466097461E+03  0.47000000000E+01 0. -1.
        -11    1    4    4    0    0 -0.22495856791E+02 -0.21595360084E+02  0.46409304450E+02  0.55912849055E+02  0.00000000000E+00 0.  1.
         12    1    4    4    0    0  0.61422593538E+02 -0.91240539150E+01  0.94119775152E+02  0.11275866012E+03  0.00000000000E+00 0. -1.
         -5    1    5    5    0  502  0.39315743152E+02  0.81344820633E+02  0.16487371319E+03  0.18806418799E+03  0.47000000000E+01 0.  1.
         13    1    6    6    0    0  0.90874947580E+01  0.33834245449E+02  0.10262421696E+03  0.10843923936E+03  0.00000000000E+00 0. -1.
        -14    1    6    6    0    0 -0.94715426880E+02  0.33934030518E+02  0.25378388203E+03  0.27299961409E+03  0.00000000000E+00 0.  1.
</event>
<event>
12    1  0.1040325E-001  0.1753812E+03  0.7818608E-02  0.1172526E+00
         21   -1    0    0  501  502  0.00000000000E+00  0.00000000000E+00  0.52105400199E+02  0.52105400199E+02  0.00000000000E+00 0.  1.
         21   -1    0    0  502  503 -0.00000000000E+00 -0.00000000000E+00 -0.15393152923E+04  0.15393152923E+04  0.00000000000E+00 0.  1.
         -6    2    1    2    0  503 -0.33260684528E+02  0.13895530520E+01 -0.13685880390E+04  0.13796903789E+04  0.17147628732E+03 0.  0.
        -24    2    3    3    0    0  0.16031675265E+02  0.41959925738E+02 -0.10908034456E+04  0.10946253649E+04  0.79591975446E+02 0.  0.
          6    2    1    2  501    0  0.33260684528E+02 -0.13895530520E+01 -0.11862185312E+03  0.21173031363E+03  0.17219285026E+03 0.  0.
         24    2    5    5    0    0 -0.12472527836E+02 -0.54389977165E+02 -0.38466720387E+02  0.10520563587E+03  0.80465543396E+02 0.  0.
          5    1    5    5  501    0  0.45733212364E+02  0.53000424113E+02 -0.80155132733E+02  0.10652467776E+03  0.47000000000E+01 0. -1.
        -11    1    6    6    0    0 -0.23325724246E+01 -0.52081677054E+02  0.12150577627E+02  0.53531098583E+02  0.00000000000E+00 0.  1.
         12    1    6    6    0    0 -0.10139955412E+02 -0.23083001112E+01 -0.50617298014E+02  0.51674537283E+02  0.00000000000E+00 0. -1.
         -5    1    3    3    0  503 -0.49292359793E+02 -0.40570372686E+02 -0.27778459340E+03  0.28506501400E+03  0.47000000000E+01 0.  1.
         13    1    4    4    0    0  0.47372948722E+02  0.31485809995E+02 -0.59114273179E+03  0.59387311932E+03  0.00000000000E+00 0. -1.
        -14    1    4    4    0    0 -0.31341273457E+02  0.10474115744E+02 -0.49966071383E+03  0.50075224560E+03  0.00000000000E+00 0.  1.
</event>
<event>
12    1  0.1040325E-001  0.1888302E+03  0.7818608E-02  0.1159704E+00
         21   -1    0    0  503  502  0.00000000000E+00  0.00000000000E+00  0.45093127294E+02  0.45093127294E+02  0.00000000000E+00 0. -1.
         21   -1    0    0  501  503 -0.00000000000E+00 -0.00000000000E+00 -0.84797507331E+03  0.84797507331E+03  0.00000000000E+00 0. -1.
          6    2    1    2  501    0  0.90904554045E+01  0.77044157843E+02 -0.52001908681E+03  0.55296785832E+03  0.17127510924E+03 0.  0.
         24    2    3    3    0    0  0.61300380423E+02  0.39759536750E+02 -0.19541143874E+03  0.22204757422E+03  0.76032476113E+02 0.  0.
         -6    2    1    2    0  502 -0.90904554045E+01 -0.77044157843E+02 -0.28286285920E+03  0.34010034229E+03  0.17215808744E+03 0.  0.
        -24    2    5    5    0    0  0.40531502834E+02 -0.81315094398E+02 -0.25788222874E+03  0.28418342591E+03  0.77472758856E+02 0.  0.
          5    1    3    3  501    0 -0.52209925018E+02  0.37284621094E+02 -0.32460764807E+03  0.33092028410E+03  0.47000000000E+01 0. -1.
        -11    1    4    4    0    0  0.40017580014E+01 -0.16108664818E+00  0.69245587431E+01  0.79993455855E+01  0.00000000000E+00 0.  1.
         12    1    4    4    0    0  0.57298622421E+02  0.39920623398E+02 -0.20233599749E+03  0.21404822864E+03  0.00000000000E+00 0. -1.
         -5    1    5    5    0  502 -0.49621958239E+02  0.42709365543E+01 -0.24980630466E+02  0.55916916376E+02  0.47000000000E+01 0.  1.
         13    1    6    6    0    0  0.35773953885E+02 -0.29981120809E+02 -0.43894755878E+02  0.64073340596E+02  0.00000000000E+00 0. -1.
        -14    1    6    6    0    0  0.47575489494E+01 -0.51333973588E+02 -0.21398747286E+03  0.22011008532E+03  0.00000000000E+00 0.  1.
</event>
<event>
12    1  0.1040325E-001  0.2018687E+03  0.7818608E-02  0.1148728E+00
         21   -1    0    0  501  502  0.00000000000E+00  0.00000000000E+00  0.57305387778E+03  0.57305387778E+03  0.00000000000E+00 0. -1.
         21   -1    0    0  502  503 -0.00000000000E+00 -0.00000000000E+00 -0.10127568179E+03  0.10127568179E+03  0.00000000000E+00 0. -1.
         -6    2    1    2    0  503 -0.65125236174E+02 -0.83601995180E+02  0.50151032827E+02  0.20800504949E+03  0.17181497180E+03 0.  0.
        -24    2    3    3    0    0 -0.48661243969E+02 -0.11402946606E+03  0.75187227453E+02  0.16504233234E+03  0.78836644386E+02 0.  0.
          6    2    1    2  501    0  0.65125236174E+02  0.83601995180E+02  0.42162716316E+03  0.46632451008E+03  0.16869645521E+03 0.  0.
         24    2    5    5    0    0  0.72105248371E+02  0.39725266057E+01  0.16589959851E+03  0.19835389572E+03  0.81281260776E+02 0.  0.
          5    1    5    5  501    0 -0.69800121971E+01  0.79629468575E+02  0.25572756465E+03  0.26797061436E+03  0.47000000000E+01 0. -1.
        -11    1    6    6    0    0 -0.12669323589E+02  0.49850696733E+01  0.19137919178E+01  0.13748646455E+02  0.00000000000E+00 0.  1.
         12    1    6    6    0    0  0.84774571959E+02 -0.10125430676E+01  0.16398580659E+03  0.18460524927E+03  0.00000000000E+00 0. -1.
         -5    1    3    3    0  503 -0.16463992204E+02  0.30427470881E+02 -0.25036194625E+02  0.42962717149E+02  0.47000000000E+01 0.  1.
         13    1    4    4    0    0 -0.12468981976E+02 -0.69112207935E+02 -0.61105238761E-01  0.70228032373E+02  0.00000000000E+00 0. -1.
        -14    1    4    4    0    0 -0.36192261993E+02 -0.44917258127E+02  0.75248332692E+02  0.94814299969E+02  0.00000000000E+00 0.  1.
</event>
<event>
12    1  0.1040325E-001  0.2282875E+03  0.7818608E-02  0.1128090E+00
         21   -1    0    0  501  502  0.00000000000E+00  0.00000000000E+00  0.44561507149E+03  0.44561507149E+03  0.00000000000E+00 0. -1.
         21   -1    0    0  502  503 -0.00000000000E+00 -0.00000000000E+00 -0.12139493721E+03  0.12139493721E+03  0.00000000000E+00 0. -1.
         -6    2    1    2    0  503 -0.11053938309E+03 -0.99096127871E+02  0.10428138863E+03  0.25097763879E+03  0.17342482345E+03 0.  0.
        -24    2    3    3    0    0 -0.90743531318E+02 -0.51198523878E+02 -0.68308005279E+00  0.13382096634E+03  0.83975634029E+02 0.  0.
          6    2    1    2  501    0  0.11053938309E+03  0.99096127871E+02  0.21993874565E+03  0.31603236990E+03  0.17165200031E+03 0.  0.
         24    2    5    5    0    0  0.92271549810E+02  0.13490736940E+03  0.20087502480E+03  0.27129229607E+03  0.80837473338E+02 0.  0.
          5    1    5    5  501    0  0.18267833283E+02 -0.35811241534E+02  0.19063720856E+02  0.44740073826E+02  0.47000000000E+01 0. -1.
        -13    1    6    6    0    0  0.23388789656E+02  0.11031000800E+02  0.51406194106E+00  0.25864700267E+02  0.00000000000E+00 0.  1.
         14    1    6    6    0    0  0.68882760154E+02  0.12387636860E+03  0.20036096286E+03  0.24542759580E+03  0.00000000000E+00 0. -1.
         -5    1    3    3    0  503 -0.19795851775E+02 -0.47897603993E+02  0.10496446868E+03  0.11715667245E+03  0.47000000000E+01 0.  1.
         13    1    4    4    0    0 -0.93394973005E+02 -0.68158370211E+02 -0.62093848531E+01  0.11578748150E+03  0.00000000000E+00 0. -1.
        -14    1    4    4    0    0  0.26514416870E+01  0.16959846333E+02  0.55263048003E+01  0.18033484838E+02  0.00000000000E+00 0.  1.
</event>
<event>
12    1  0.1040325E-001  0.1877383E+03  0.7818608E-02  0.1161086E+00
         21   -1    0    0  501  502  0.00000000000E+00  0.00000000000E+00  0.18365305449E+04  0.18365305449E+04  0.00000000000E+00 0. -1.
         21   -1    0    0  502  503 -0.00000000000E+00 -0.00000000000E+00 -0.19079550575E+02  0.19079550575E+02  0.00000000000E+00 0. -1.
         -6    2    1    2    0  503  0.24213959272E+02  0.66372910186E+02  0.99400501804E+03  0.10115787872E+04  0.17393673521E+03 0.  0.
        -24    2    3    3    0    0  0.12937827439E+02  0.10937414359E+03  0.61427011671E+03  0.62922169954E+03  0.80387064992E+02 0.  0.
          6    2    1    2  501    0 -0.24213959272E+02 -0.66372910186E+02  0.82344597633E+03  0.84403130829E+03  0.17127140570E+03 0.  0.
         24    2    5    5    0    0 -0.29416360538E+02 -0.88052402964E+02  0.80575865540E+03  0.81518695516E+03  0.81634632153E+02 0.  0.
          5    1    5    5  501    0  0.52024012663E+01  0.21679492779E+02  0.17687320927E+02  0.28844353133E+02  0.47000000000E+01 0. -1.
        -13    1    6    6    0    0 -0.27551024920E+02 -0.60306246903E+01  0.80399533346E+02  0.85202772082E+02  0.00000000000E+00 0.  1.
         14    1    6    6    0    0 -0.18653356186E+01 -0.82021778274E+02  0.72535912206E+03  0.72998418307E+03  0.00000000000E+00 0. -1.
         -5    1    3    3    0  503  0.11276131833E+02 -0.43001233400E+02  0.37973490133E+03  0.38235708769E+03  0.47000000000E+01 0.  1.
         13    1    4    4    0    0  0.27738708706E+02  0.77377903747E+02  0.24818931244E+03  0.26144733841E+03  0.00000000000E+00 0. -1.
        -14    1    4    4    0    0 -0.14800881268E+02  0.31996239838E+02  0.36608080427E+03  0.36777436113E+03  0.00000000000E+00 0.  1.
</event>
<event>
12    1  0.1040325E-001  0.1869355E+03  0.7818608E-02  0.1161492E+00
         21   -1    0    0  501  502  0.00000000000E+00  0.00000000000E+00  0.11414818957E+03  0.11414818957E+03  0.00000000000E+00 0.  1.
         21   -1    0    0  502  503 -0.00000000000E+00 -0.00000000000E+00 -0.59803795299E+03  0.59803795299E+03  0.00000000000E+00 0. -1.
         -6    2    1    2    0  503  0.50793962639E+02  0.53986146071E+02 -0.49110160300E+03  0.52511153481E+03  0.17048990855E+03 0.  0.
        -24    2    3    3    0    0 -0.23267259932E+02  0.10974855177E+02 -0.14858963987E+03  0.17202291885E+03  0.82771919776E+02 0.  0.
          6    2    1    2  501    0 -0.50793962639E+02 -0.53986146071E+02  0.72118395764E+01  0.18707460774E+03  0.17161109411E+03 0.  0.
         24    2    5    5    0    0 -0.35004032793E+02  0.31287613963E+02  0.23920490469E+02  0.98631377082E+02  0.83377224597E+02 0.  0.
          5    1    5    5  501    0 -0.15789929846E+02 -0.85273760033E+02 -0.16708650893E+02  0.88443230659E+02  0.47000000000E+01 0. -1.
        -11    1    6    6    0    0 -0.59307774592E+02  0.83400371118E+01  0.25668730299E+02  0.65160203048E+02  0.00000000000E+00 0.  1.
         12    1    6    6    0    0  0.24303741799E+02  0.22947576851E+02 -0.17482398295E+01  0.33471174034E+02  0.00000000000E+00 0. -1.
         -5    1    3    3    0  503  0.74061222571E+02  0.43011290893E+02 -0.34251196313E+03  0.35308861596E+03  0.47000000000E+01 0.  1.
         11    1    4    4    0    0 -0.59604956421E+01  0.16378796056E+02 -0.15248538073E+03  0.15347828448E+03  0.00000000000E+00 0. -1.
        -12    1    4    4    0    0 -0.17306764290E+02 -0.54039408785E+01  0.38957408660E+01  0.18544634375E+02  0.00000000000E+00 0.  1.
</event>
<event>
12    1  0.1040325E-001  0.1995348E+03  0.7818608E-02  0.1151637E+00
         21   -1    0    0  503  502  0.00000000000E+00  0.00000000000E+00  0.24380579596E+03  0.24380579596E+03  0.00000000000E+00 0. -1.
         21   -1    0    0  501  503 -0.00000000000E+00 -0.00000000000E+00 -0.22430317726E+03  0.22430317726E+03  0.00000000000E+00 0. -1.
          6    2    1    2  501    0 -0.58400311811E+02 -0.80612121324E+02 -0.11795348858E+03  0.22581097227E+03  0.16482918190E+03 0.  0.
         24    2    3    3    0    0 -0.54264374770E+02  0.63039488703E+01 -0.79708412814E+02  0.13064645654E+03  0.87924418644E+02 0.  0.
         -6    2    1    2    0  502  0.58400311811E+02  0.80612121324E+02  0.13745610728E+03  0.24229800094E+03  0.17293128493E+03 0.  0.
        -24    2    5    5    0    0  0.22284778702E+02  0.15144705161E+02  0.14241901661E+03  0.16721781194E+03  0.83382533448E+02 0.  0.
          5    1    3    3  501    0 -0.41359370412E+01 -0.86916070195E+02 -0.38245075764E+02  0.95164515727E+02  0.47000000000E+01 0. -1.
        -13    1    4    4    0    0 -0.67953272429E+02 -0.13920123975E+02 -0.30626846515E+02  0.75824935297E+02  0.00000000000E+00 0.  1.
         14    1    4    4    0    0  0.13688897659E+02  0.20224072845E+02 -0.49081566299E+02  0.54821521248E+02  0.00000000000E+00 0. -1.
         -5    1    5    5    0  502  0.36115533109E+02  0.65467416163E+02 -0.49629093275E+01  0.75080188997E+02  0.47000000000E+01 0.  1.
         11    1    6    6    0    0  0.52631487226E+02  0.19256489793E+02  0.10345227284E+03  0.11765737802E+03  0.00000000000E+00 0. -1.
        -12    1    6    6    0    0 -0.30346708524E+02 -0.41117846324E+01  0.38966743769E+02  0.49560433927E+02  0.00000000000E+00 0.  1.
</event>
<event>
12    1  0.1040325E-001  0.1942017E+03  0.7818608E-02  0.1154907E+00
         21   -1    0    0  501  502  0.00000000000E+00  0.00000000000E+00  0.19846743478E+03  0.19846743478E+03  0.00000000000E+00 0. -1.
         21   -1    0    0  502  503 -0.00000000000E+00 -0.00000000000E+00 -0.19000763735E+03  0.19000763735E+03  0.00000000000E+00 0. -1.
         -6    2    1    2    0  503 -0.75588286155E+02 -0.43620249597E+02 -0.82687000719E+01  0.19437763814E+03  0.17348769302E+03 0.  0.
        -24    2    3    3    0    0 -0.72201546695E+02 -0.93132957023E+02  0.72901320746E+01  0.14215555988E+03  0.79172256182E+02 0.  0.
          6    2    1    2  501    0  0.75588286155E+02  0.43620249597E+02  0.16728497500E+02  0.19409743399E+03  0.17256203544E+03 0.  0.
         24    2    5    5    0    0 -0.98549196993E+01  0.49678902777E+02  0.44043016761E+02  0.10406731865E+03  0.79530539183E+02 0.  0.
          5    1    5    5  501    0  0.85443205855E+02 -0.60586531800E+01 -0.27314519261E+02  0.90030115337E+02  0.47000000000E+01 0. -1.
        -11    1    6    6    0    0 -0.33557779363E+02 -0.53182643165E+01  0.11258528897E+02  0.35793336866E+02  0.00000000000E+00 0.  1.
         12    1    6    6    0    0  0.23702859663E+02  0.54997167093E+02  0.32784487864E+02  0.68273981787E+02  0.00000000000E+00 0. -1.
         -5    1    3    3    0  503 -0.33867394603E+01  0.49512707426E+02 -0.15558832146E+02  0.52222078268E+02  0.47000000000E+01 0.  1.
         11    1    4    4    0    0 -0.49243551466E+02 -0.93901406741E+02 -0.18485557098E+02  0.10762953763E+03  0.00000000000E+00 0. -1.
        -12    1    4    4    0    0 -0.22957995229E+02  0.76844971777E+00  0.25775689173E+02  0.34526022248E+02  0.00000000000E+00 0.  1.
</event>
<event>
12    1  0.1040325E-001  0.1864193E+03  0.7818608E-02  0.1162039E+00
         21   -1    0    0  501  502  0.00000000000E+00  0.00000000000E+00  0.82684645189E+02  0.82684645189E+02  0.00000000000E+00 0.  1.
         21   -1    0    0  502  503 -0.00000000000E+00 -0.00000000000E+00 -0.45217242020E+03  0.45217242020E+03  0.00000000000E+00 0. -1.
         -6    2    1    2    0  503 -0.15256392894E+02  0.70426865588E+02 -0.25839293017E+03  0.31784500556E+03  0.17048706776E+03 0.  0.
        -24    2    3    3    0    0  0.15406054224E+02 -0.67101224531E+01 -0.19729689996E+03  0.21466983657E+03  0.82913809163E+02 0.  0.
          6    2    1    2  501    0  0.15256392894E+02 -0.70426865588E+02 -0.11109484484E+03  0.21701205984E+03  0.17192867313E+03 0.  0.
         24    2    5    5    0    0  0.42963867427E+02  0.17544810880E+02 -0.34563126597E+02  0.97070766266E+02  0.77938499153E+02 0.  0.
          5    1    5    5  501    0 -0.27707474533E+02 -0.87971676468E+02 -0.76531718244E+02  0.11994129357E+03  0.47000000000E+01 0. -1.
        -13    1    6    6    0    0  0.19676798733E+02  0.16768366677E+02  0.23230905175E+02  0.34756718554E+02  0.00000000000E+00 0.  1.
         14    1    6    6    0    0  0.23287068694E+02  0.77644420353E+00 -0.57794031771E+02  0.62314047713E+02  0.00000000000E+00 0. -1.
         -5    1    3    3    0  503 -0.30662447119E+02  0.77136988041E+02 -0.61096030216E+02  0.10317516899E+03  0.47000000000E+01 0.  1.
         13    1    4    4    0    0 -0.11782613384E+02  0.32532371893E+02 -0.10806965433E+03  0.11347350081E+03  0.00000000000E+00 0. -1.
        -14    1    4    4    0    0  0.27188667609E+02 -0.39242494346E+02 -0.89227245628E+02  0.10119633576E+03  0.00000000000E+00 0.  1.
</event>
<event>
12    1  0.1040325E-001  0.1984259E+03  0.7818608E-02  0.1151569E+00
         21   -1    0    0  503  502  0.00000000000E+00  0.00000000000E+00  0.12961833152E+02  0.12961833152E+02  0.00000000000E+00 0.  1.
         21   -1    0    0  501  503 -0.00000000000E+00 -0.00000000000E+00 -0.30899495796E+04  0.30899495796E+04  0.00000000000E+00 0.  1.
          6    2    1    2  501    0  0.93496460454E+02  0.86426678491E+01 -0.18084289564E+04  0.18192823070E+04  0.17480428583E+03 0.  0.
         24    2    3    3    0    0  0.18258233154E+02 -0.93743544414E+01 -0.14671410344E+04  0.14693038225E+04  0.77004326043E+02 0.  0.
         -6    2    1    2    0  502 -0.93496460454E+02 -0.86426678491E+01 -0.12685587900E+04  0.12836291057E+04  0.17218011946E+03 0.  0.
        -24    2    5    5    0    0 -0.17169282193E+02  0.21423208254E+02 -0.30023712172E+03  0.31182730581E+03  0.79625380916E+02 0.  0.
          5    1    3    3  501    0  0.75238227300E+02  0.18017022290E+02 -0.34128792199E+03  0.34997848453E+03  0.47000000000E+01 0. -1.
        -11    1    4    4    0    0  0.14020789906E+02  0.33351686580E+02 -0.58382636629E+03  0.58494627405E+03  0.00000000000E+00 0.  1.
         12    1    4    4    0    0  0.42374432483E+01 -0.42726041022E+02 -0.88331466813E+03  0.88435754841E+03  0.00000000000E+00 0. -1.
         -5    1    5    5    0  502 -0.76327178261E+02 -0.30065876104E+02 -0.96832166831E+03  0.97180179994E+03  0.47000000000E+01 0.  1.
         11    1    6    6    0    0 -0.95328145615E+00 -0.10501739433E+02 -0.24952479677E+03  0.24974751146E+03  0.00000000000E+00 0. -1.
        -12    1    6    6    0    0 -0.16216000736E+02  0.31924947687E+02 -0.50712324953E+02  0.62079794353E+02  0.00000000000E+00 0.  1.
</event>
<event>
12    1  0.1040325E-001  0.2016714E+03  0.7818608E-02  0.1148826E+00
         21   -1    0    0  501  502  0.00000000000E+00  0.00000000000E+00  0.32757117489E+02  0.32757117489E+02  0.00000000000E+00 0. -1.
         21   -1    0    0  502  503 -0.00000000000E+00 -0.00000000000E+00 -0.12419442539E+04  0.12419442539E+04  0.00000000000E+00 0. -1.
         -6    2    1    2    0  503  0.72287950309E+02 -0.69146860211E+02 -0.53885158767E+03  0.57535413135E+03  0.17511284044E+03 0.  0.
        -24    2    3    3    0    0 -0.26689669165E+02 -0.10664037928E+02 -0.17096346828E+03  0.18989263126E+03  0.77489636572E+02 0.  0.
          6    2    1    2  501    0 -0.72287950309E+02  0.69146860211E+02 -0.67033554876E+03  0.69934724007E+03  0.17242383308E+03 0.  0.
         24    2    5    5    0    0 -0.64758698043E+02  0.48588076109E+02 -0.66711918797E+03  0.67672450327E+03  0.79709172984E+02 0.  0.
          5    1    5    5  501    0 -0.75292522660E+01  0.20558784102E+02 -0.32163607962E+01  0.22622736797E+02  0.47000000000E+01 0. -1.
        -11    1    6    6    0    0 -0.13751119296E+02  0.56700316133E+02 -0.43718606204E+03  0.44106198201E+03  0.00000000000E+00 0.  1.
         12    1    6    6    0    0 -0.51007578747E+02 -0.81122400238E+01 -0.22993312593E+03  0.23566252126E+03  0.00000000000E+00 0. -1.
         -5    1    3    3    0  503  0.98977619475E+02 -0.58482822283E+02 -0.36788811939E+03  0.38546150009E+03  0.47000000000E+01 0.  1.
         13    1    4    4    0    0  0.11020981518E+02  0.23194128948E+02 -0.26966005545E+02  0.37237012586E+02  0.00000000000E+00 0. -1.
        -14    1    4    4    0    0 -0.37710650684E+02 -0.33858166876E+02 -0.14399746273E+03  0.15265561867E+03  0.00000000000E+00 0.  1.
</event>
<event>
12    1  0.1040325E-001  0.2461470E+03  0.7818608E-02  0.1115860E+00
         21   -1    0    0  503  502  0.00000000000E+00  0.00000000000E+00  0.44574659949E+03  0.44574659949E+03  0.00000000000E+00 0. -1.
         21   -1    0    0  501  503 -0.00000000000E+00 -0.00000000000E+00 -0.30077794012E+03  0.30077794012E+03  0.00000000000E+00 0.  1.
          6    2    1    2  501    0 -0.43533753252E+02  0.17037445360E+03 -0.20416613158E+03  0.31934372468E+03  0.17138834003E+03 0.  0.
         24    2    3    3    0    0 -0.78472677603E+02  0.69835292453E+02 -0.14962279237E+03  0.19965280100E+03  0.80245446911E+02 0.  0.
         -6    2    1    2    0  502  0.43533753252E+02 -0.17037445360E+03  0.34913479095E+03  0.42718081492E+03  0.17223734867E+03 0.  0.
        -24    2    5    5    0    0 -0.18026130045E+02 -0.11210169446E+03  0.28969186573E+03  0.32354257368E+03  0.88694355218E+02 0.  0.
          5    1    3    3  501    0  0.34938924350E+02  0.10053916115E+03 -0.54543339213E+02  0.11969092368E+03  0.47000000000E+01 0. -1.
        -13    1    4    4    0    0 -0.38559657032E+02  0.51863035405E+02 -0.14090718782E+03  0.15502082819E+03  0.00000000000E+00 0.  1.
         14    1    4    4    0    0 -0.39913020571E+02  0.17972257048E+02 -0.87156045406E+01  0.44631972811E+02  0.00000000000E+00 0. -1.
         -5    1    5    5    0  502  0.61559883298E+02 -0.58272759146E+02  0.59442925218E+02  0.10363824125E+03  0.47000000000E+01 0.  1.
         13    1    6    6    0    0  0.29520758993E+02 -0.17168689513E+02  0.10609560452E+03  0.11145634307E+03  0.00000000000E+00 0. -1.
        -14    1    6    6    0    0 -0.47546889038E+02 -0.94933004943E+02  0.18359626120E+03  0.21208623061E+03  0.00000000000E+00 0.  1.
</event>
<event>
12    1  0.1040325E-001  0.1888656E+03  0.7818608E-02  0.1160650E+00
         21   -1    0    0  501  502  0.00000000000E+00  0.00000000000E+00  0.43094492483E+02  0.43094492483E+02  0.00000000000E+00 0. -1.
         21   -1    0    0  502  503 -0.00000000000E+00 -0.00000000000E+00 -0.81438216447E+03  0.81438216447E+03  0.00000000000E+00 0. -1.
         -6    2    1    2    0  503  0.39381842757E+02  0.51476763492E+02 -0.43482107038E+03  0.47406704646E+03  0.17739620790E+03 0.  0.
        -24    2    3    3    0    0  0.24776312200E+02  0.10079031377E+03 -0.25694490936E+03  0.28884510817E+03  0.81475499849E+02 0.  0.
          6    2    1    2  501    0 -0.39381842757E+02 -0.51476763492E+02 -0.33646660161E+03  0.38340961049E+03  0.17202432590E+03 0.  0.
         24    2    5    5    0    0 -0.26598224029E+02 -0.35692778714E+01 -0.32002964818E+03  0.33096143107E+03  0.79976795886E+02 0.  0.
          5    1    5    5  501    0 -0.12783618727E+02 -0.47907485620E+02 -0.16436953434E+02  0.52448179420E+02  0.47000000000E+01 0. -1.
        -11    1    6    6    0    0  0.10647654030E+02  0.22499937337E+02 -0.21602600625E+03  0.21745540944E+03  0.00000000000E+00 0.  1.
         12    1    6    6    0    0 -0.37245878059E+02 -0.26069215209E+02 -0.10400364192E+03  0.11350602163E+03  0.00000000000E+00 0. -1.
         -5    1    3    3    0  503  0.14605530557E+02 -0.49313550275E+02 -0.17787616102E+03  0.18522193829E+03  0.47000000000E+01 0.  1.
         13    1    4    4    0    0  0.43721708082E+02  0.64892967210E+02 -0.22164905104E+03  0.23505528451E+03  0.00000000000E+00 0. -1.
        -14    1    4    4    0    0 -0.18945395882E+02  0.35897346557E+02 -0.35295858316E+02  0.53789823658E+02  0.00000000000E+00 0.  1.
</event>
<event>
12    1  0.1040325E-001  0.2052218E+03  0.7818608E-02  0.1147902E+00
         21   -1    0    0  501  502  0.00000000000E+00  0.00000000000E+00  0.86713623338E+03  0.86713623338E+03  0.00000000000E+00 0. -1.
         21   -1    0    0  502  503 -0.00000000000E+00 -0.00000000000E+00 -0.76776445441E+02  0.76776445441E+02  0.00000000000E+00 0. -1.
         -6    2    1    2    0  503  0.84671858115E+02  0.42399649490E+01  0.10251091581E+03  0.22940028120E+03  0.18689221572E+03 0.  0.
        -24    2    3    3    0    0 -0.13554646579E+01 -0.42855523194E+02 -0.38705777236E+01  0.84632199664E+02  0.72864220956E+02 0.  0.
          6    2    1    2  501    0 -0.84671858115E+02 -0.42399649490E+01  0.68784887213E+03  0.71451239762E+03  0.17379469093E+03 0.  0.
         24    2    5    5    0    0 -0.13117063396E+03 -0.20561228293E+02  0.48930970124E+03  0.50989467558E+03  0.54222662578E+02 0.  0.
          5    1    5    5  501    0  0.46498775844E+02  0.16321263344E+02  0.19853917089E+03  0.20461772204E+03  0.47000000000E+01 0. -1.
        -11    1    6    6    0    0 -0.97019358161E+02  0.10070439086E+02  0.33192710033E+03  0.34596209262E+03  0.00000000000E+00 0.  1.
         12    1    6    6    0    0 -0.34151275797E+02 -0.30631667379E+02  0.15738260091E+03  0.16393258296E+03  0.00000000000E+00 0. -1.
         -5    1    3    3    0  503  0.86027322772E+02  0.47095488143E+02  0.10638149353E+03  0.14476808154E+03  0.47000000000E+01 0.  1.
         13    1    4    4    0    0 -0.14004283717E+02 -0.18495751852E+02 -0.35716643705E+02  0.42589804373E+02  0.00000000000E+00 0. -1.
        -14    1    4    4    0    0  0.12648819059E+02 -0.24359771341E+02  0.31846065981E+02  0.42042395292E+02  0.00000000000E+00 0.  1.
</event>
<event>
12    1  0.1040325E-001  0.1849775E+03  0.7818608E-02  0.1163429E+00
         21   -1    0    0  501  502  0.00000000000E+00  0.00000000000E+00  0.54906967955E+03  0.54906967955E+03  0.00000000000E+00 0.  1.
         21   -1    0    0  502  503 -0.00000000000E+00 -0.00000000000E+00 -0.87098461885E+02  0.87098461885E+02  0.00000000000E+00 0.  1.
         -6    2    1    2    0  503 -0.63088341475E+02 -0.55440005159E+01  0.60250671827E+02  0.19454256068E+03  0.17379812913E+03 0.  0.
        -24    2    3    3    0    0 -0.97763929936E+02 -0.14318356555E+02  0.83158321788E+02  0.15180807595E+03  0.79797143491E+02 0.  0.
          6    2    1    2  501    0  0.63088341475E+02  0.55440005159E+01  0.40172054584E+03  0.44162558075E+03  0.17217108310E+03 0.  0.
         24    2    5    5    0    0  0.85112281582E+02 -0.23567841836E+02  0.38127978731E+03  0.39952489297E+03  0.80288979574E+02 0.  0.
          5    1    5    5  501    0 -0.22023940107E+02  0.29111842352E+02  0.20440758524E+02  0.42100687785E+02  0.47000000000E+01 0. -1.
        -11    1    6    6    0    0  0.79134483687E+02 -0.23621605664E+02  0.17873568470E+03  0.19689258936E+03  0.00000000000E+00 0.  1.
         12    1    6    6    0    0  0.59777978947E+01  0.53763828590E-01  0.20254410262E+03  0.20263230360E+03  0.00000000000E+00 0. -1.
         -5    1    3    3    0  503  0.34675588461E+02  0.87743560387E+01 -0.22907649961E+02  0.42734484737E+02  0.47000000000E+01 0.  1.
         13    1    4    4    0    0 -0.21424189860E+02  0.21508967060E+02  0.55142987580E+02  0.62947443589E+02  0.00000000000E+00 0. -1.
        -14    1    4    4    0    0 -0.76339740076E+02 -0.35827323615E+02  0.28015334207E+02  0.88860632358E+02  0.00000000000E+00 0.  1.
</event>
<event>
12    1  0.1040325E-001  0.1751313E+03  0.7818608E-02  0.1172974E+00
         21   -1    0    0  501  502  0.00000000000E+00  0.00000000000E+00  0.54063411677E+03  0.54063411677E+03  0.00000000000E+00 0. -1.
         21   -1    0    0  502  503 -0.00000000000E+00 -0.00000000000E+00 -0.10991768302E+03  0.10991768302E+03  0.00000000000E+00 0. -1.
         -6    2    1    2    0  503 -0.90968439066E+01 -0.27601801395E+02 -0.11455453386E+02  0.17550553288E+03  0.17270307655E+03 0.  0.
        -24    2    3    3    0    0  0.56509405999E+02 -0.42654471522E+02 -0.11096794537E+02  0.10802974804E+03  0.80836691572E+02 0.  0.
          6    2    1    2  501    0  0.90968439066E+01  0.27601801395E+02  0.44217188713E+03  0.47504626691E+03  0.17119686308E+03 0.  0.
         24    2    5    5    0    0 -0.87274114760E+01  0.92453746973E+00  0.90948434488E+02  0.12232912219E+03  0.81337407879E+02 0.  0.
          5    1    5    5  501    0  0.17824255383E+02  0.26677263925E+02  0.35122345264E+03  0.35271714472E+03  0.47000000000E+01 0. -1.
        -11    1    6    6    0    0 -0.23806366818E+02  0.35781088378E+02  0.39425099671E+02  0.58321247163E+02  0.00000000000E+00 0.  1.
         12    1    6    6    0    0  0.15078955342E+02 -0.34856550908E+02  0.51523334817E+02  0.64007875032E+02  0.00000000000E+00 0. -1.
         -5    1    3    3    0  503 -0.65606249906E+02  0.15052670127E+02 -0.35865884870E+00  0.67475784848E+02  0.47000000000E+01 0.  1.
         13    1    4    4    0    0 -0.24857706315E+01 -0.39943354614E+02 -0.25223561358E+02  0.47306222434E+02  0.00000000000E+00 0. -1.
        -14    1    4    4    0    0  0.58995176631E+02 -0.27111169083E+01  0.14126766821E+02  0.60723525601E+02  0.00000000000E+00 0.  1.
</event>
<event>
12    1  0.1040325E-001  0.2243683E+03  0.7818608E-02  0.1130944E+00
         21   -1    0    0  501  502  0.00000000000E+00  0.00000000000E+00  0.58725100661E+02  0.58725100661E+02  0.00000000000E+00 0.  1.
         21   -1    0    0  502  503 -0.00000000000E+00 -0.00000000000E+00 -0.88266088692E+03  0.88266088692E+03  0.00000000000E+00 0. -1.
         -6    2    1    2    0  503 -0.14224061260E+03  0.43201095865E+01 -0.50182735126E+03  0.54970157200E+03  0.17346490300E+03 0.  0.
        -24    2    3    3    0    0 -0.37002749860E+02 -0.41510274696E+02 -0.15164248043E+03  0.18115447103E+03  0.82031665233E+02 0.  0.
          6    2    1    2  501    0  0.14224061260E+03 -0.43201095865E+01 -0.32210843500E+03  0.39168441558E+03  0.17149863641E+03 0.  0.
         24    2    5    5    0    0  0.66337213318E+02 -0.69734321464E+02 -0.19182524927E+03  0.22725770357E+03  0.74737113364E+02 0.  0.
          5    1    5    5  501    0  0.75903399280E+02  0.65414211878E+02 -0.13028318573E+03  0.16442671201E+03  0.47000000000E+01 0. -1.
        -13    1    6    6    0    0  0.26963821648E+02 -0.36710570561E+02 -0.23482246896E+02  0.51245776295E+02  0.00000000000E+00 0.  1.
         14    1    6    6    0    0  0.39373391670E+02 -0.33023750903E+02 -0.16834300237E+03  0.17601192727E+03  0.00000000000E+00 0. -1.
         -5    1    3    3    0  503 -0.10523786274E+03  0.45830384283E+02 -0.35018487083E+03  0.36854710098E+03  0.47000000000E+01 0.  1.
         11    1    4    4    0    0 -0.18424736032E+02 -0.47775772305E+02 -0.15315683870E+03  0.16148997665E+03  0.00000000000E+00 0. -1.
        -12    1    4    4    0    0 -0.18578013828E+02  0.62654976087E+01  0.15143582774E+01  0.19664494376E+02  0.00000000000E+00 0.  1.
</event>
<event>
12    1  0.1040325E-001  0.2476418E+03  0.7818608E-02  0.1115522E+00
         21   -1    0    0  503  502  0.00000000000E+00  0.00000000000E+00  0.10616220091E+04  0.10616220091E+04  0.00000000000E+00 0.  1.
         21   -1    0    0  501  503 -0.00000000000E+00 -0.00000000000E+00 -0.19665926262E+03  0.19665926262E+03  0.00000000000E+00 0.  1.
          6    2    1    2  501    0 -0.11330030713E+03  0.13752872002E+03 -0.99328630347E+02  0.26269887229E+03  0.16550955341E+03 0.  0.
         24    2    3    3    0    0 -0.65206967725E+02  0.18264887920E+02 -0.11536904361E+02  0.10692240394E+03  0.81937448889E+02 0.  0.
         -6    2    1    2    0  502  0.11330030713E+03 -0.13752872002E+03  0.96429137684E+03  0.99558239943E+03  0.17197484171E+03 0.  0.
        -24    2    5    5    0    0  0.49442401125E+02 -0.51360381449E+02  0.22543802732E+03  0.24897060149E+03  0.77984719217E+02 0.  0.
          5    1    3    3  501    0 -0.48093339409E+02  0.11926383210E+03 -0.87791725987E+02  0.15577646836E+03  0.47000000000E+01 0. -1.
        -13    1    4    4    0    0 -0.78735082634E+02  0.22616031009E+02 -0.26681594420E+02  0.86154544725E+02  0.00000000000E+00 0.  1.
         14    1    4    4    0    0  0.13528114909E+02 -0.43511430889E+01  0.15144690059E+02  0.20767859210E+02  0.00000000000E+00 0. -1.
         -5    1    5    5    0  502  0.63857906008E+02 -0.86168338569E+02  0.73885334951E+03  0.74661179794E+03  0.47000000000E+01 0.  1.
         11    1    6    6    0    0  0.43798937231E+02  0.57361069593E+01  0.65060786534E+02  0.78639403419E+02  0.00000000000E+00 0. -1.
        -12    1    6    6    0    0  0.56434638942E+01 -0.57096488409E+02  0.16037724079E+03  0.17033119807E+03  0.00000000000E+00 0.  1.
</event>
<event>
12    1  0.1040325E-001  0.1786464E+03  0.7818608E-02  0.1169887E+00
         21   -1    0    0  501  502  0.00000000000E+00  0.00000000000E+00  0.12829403408E+04  0.12829403408E+04  0.00000000000E+00 0.  1.
         21   -1    0    0  502  503 -0.00000000000E+00 -0.00000000000E+00 -0.50525776278E+02  0.50525776278E+02  0.00000000000E+00 0.  1.
         -6    2    1    2    0  503 -0.27590333189E+02 -0.36252274778E+02  0.13457508216E+03  0.22118644379E+03  0.16952149204E+03 0.  0.
        -24    2    3    3    0    0  0.17759018615E+02 -0.78438406523E+02  0.91361642605E+02  0.14551792471E+03  0.79753058327E+02 0.  0.
          6    2    1    2  501    0  0.27590333189E+02  0.36252274778E+02  0.10978394823E+04  0.11122796733E+04  0.17273994522E+03 0.  0.
         24    2    5    5    0    0  0.36693098380E+02  0.17139181083E+01  0.10462341537E+04  0.10493435282E+04  0.71879167764E+02 0.  0.
          5    1    5    5  501    0 -0.91027651903E+01  0.34538356670E+02  0.51605328610E+02  0.62936145072E+02  0.47000000000E+01 0. -1.
        -13    1    6    6    0    0 -0.13182070424E+01  0.72414329263E+01  0.80793367706E+03  0.80796720388E+03  0.00000000000E+00 0.  1.
         14    1    6    6    0    0  0.38011305422E+02 -0.55275148181E+01  0.23830047668E+03  0.24137632432E+03  0.00000000000E+00 0. -1.
         -5    1    3    3    0  503 -0.45349351804E+02  0.42186131745E+02  0.43213439556E+02  0.75668519075E+02  0.47000000000E+01 0.  1.
         13    1    4    4    0    0  0.36513371110E+02 -0.12711894235E+02  0.57370965413E+02  0.69182701575E+02  0.00000000000E+00 0. -1.
        -14    1    4    4    0    0 -0.18754352495E+02 -0.65726512289E+02  0.33990677192E+02  0.76335223136E+02  0.00000000000E+00 0.  1.
</event>
<event>
12    1  0.1040325E-001  0.3796078E+03  0.7818608E-02  0.1051232E+00
         21   -1    0    0  503  502  0.00000000000E+00  0.00000000000E+00  0.63691731127E+03  0.63691731127E+03  0.00000000000E+00 0.  1.
         21   -1    0    0  501  503 -0.00000000000E+00 -0.00000000000E+00 -0.33380253714E+03  0.33380253714E+03  0.00000000000E+00 0.  1.
          6    2    1    2  501    0 -0.30992648453E+03 -0.13581073114E+03 -0.12542564957E+03  0.39822620578E+03  0.16838508512E+03 0.  0.
         24    2    3    3    0    0 -0.27936347727E+03 -0.94418419405E+02 -0.15425471003E+03  0.33906012080E+03  0.64872641365E+02 0.  0.
         -6    2    1    2    0  502  0.30992648453E+03  0.13581073114E+03  0.42854042370E+03  0.57249364264E+03  0.17205550154E+03 0.  0.
        -24    2    5    5    0    0  0.16920107903E+03  0.72918299249E+02  0.13933237026E+03  0.24473994561E+03  0.80858197256E+02 0.  0.
          5    1    3    3  501    0 -0.30563007267E+02 -0.41392311736E+02  0.28829060464E+02  0.59166084975E+02  0.47000000000E+01 0. -1.
        -13    1    4    4    0    0 -0.17003136658E+02 -0.15775125474E+02  0.27515783909E+01  0.23356635536E+02  0.00000000000E+00 0.  1.
         14    1    4    4    0    0 -0.26236034061E+03 -0.78643293932E+02 -0.15700628842E+03  0.31570348527E+03  0.00000000000E+00 0. -1.
         -5    1    5    5    0  502  0.14072540550E+03  0.62892431892E+02  0.28920805344E+03  0.32775369703E+03  0.47000000000E+01 0.  1.
         11    1    6    6    0    0  0.16506259830E+03  0.47764470131E+02  0.13577239274E+03  0.21900056757E+03  0.00000000000E+00 0. -1.
        -12    1    6    6    0    0  0.41384807324E+01  0.25153829118E+02  0.35599775204E+01  0.25739378042E+02  0.00000000000E+00 0.  1.
</event>
<event>
12    1  0.1040325E-001  0.2434607E+03  0.7818608E-02  0.1117542E+00
         21   -1    0    0  503  502  0.00000000000E+00  0.00000000000E+00  0.23145072946E+03  0.23145072946E+03  0.00000000000E+00 0.  1.
         21   -1    0    0  501  503 -0.00000000000E+00 -0.00000000000E+00 -0.38723021259E+03  0.38723021259E+03  0.00000000000E+00 0. -1.
          6    2    1    2  501    0  0.13118338240E+03 -0.11135026384E+03 -0.25807530835E+03  0.35479001854E+03  0.17223568562E+03 0.  0.
         24    2    3    3    0    0  0.90847180136E+02 -0.54414728667E+01 -0.86041553689E+02  0.14872841620E+03  0.80213297260E+02 0.  0.
         -6    2    1    2    0  502 -0.13118338240E+03  0.11135026384E+03  0.10229582522E+03  0.26389092350E+03  0.17194773210E+03 0.  0.
        -24    2    5    5    0    0 -0.48790919551E+02  0.12183419953E+03  0.92650825856E+02  0.18014400204E+03  0.81508036015E+02 0.  0.
          5    1    3    3  501    0  0.40336202259E+02 -0.10590879098E+03 -0.17203375466E+03  0.20606160235E+03  0.47000000000E+01 0. -1.
        -11    1    4    4    0    0  0.10510679550E+03  0.82339284568E+00 -0.79708364620E+02  0.13191489615E+03  0.00000000000E+00 0.  1.
         12    1    4    4    0    0 -0.14259615360E+02 -0.62648657124E+01 -0.63331890687E+01  0.16813520048E+02  0.00000000000E+00 0. -1.
         -5    1    5    5    0  502 -0.82392462845E+02 -0.10483935685E+02  0.96449993604E+01  0.83746921458E+02  0.47000000000E+01 0.  1.
         11    1    6    6    0    0  0.74033308004E+01  0.33753300850E+01 -0.10525576948E+02  0.13303756245E+02  0.00000000000E+00 0. -1.
        -12    1    6    6    0    0 -0.56194250351E+02  0.11845886944E+03  0.10317640280E+03  0.16684024580E+03  0.00000000000E+00 0.  1.
</event>
<event>
12    1  0.1040325E-001  0.2103069E+03  0.7818608E-02  0.1141464E+00
         21   -1    0    0  503  502  0.00000000000E+00  0.00000000000E+00  0.15285198907E+03  0.15285198907E+03  0.00000000000E+00 0.  1.
         21   -1    0    0  501  503 -0.00000000000E+00 -0.00000000000E+00 -0.29826304792E+03  0.29826304792E+03  0.00000000000E+00 0.  1.
          6    2    1    2  501    0 -0.14074597593E+01 -0.11962238552E+03 -0.11364996345E+03  0.23842335599E+03  0.17209847887E+03 0.  0.
         24    2    3    3    0    0 -0.36453175194E+02 -0.85785810389E+01 -0.46724769115E+02  0.10403585538E+03  0.85075431946E+02 0.  0.
         -6    2    1    2    0  502  0.14074597593E+01  0.11962238552E+03 -0.31761095402E+02  0.21269168101E+03  0.17296672492E+03 0.  0.
        -24    2    5    5    0    0  0.32056718634E+02  0.10891916176E+03 -0.75237529502E+02  0.15822860736E+03  0.80526947880E+02 0.  0.
          5    1    3    3  501    0  0.35045715435E+02 -0.11104380448E+03 -0.66925194335E+02  0.13438750061E+03  0.47000000000E+01 0. -1.
        -13    1    4    4    0    0  0.10219530060E+02 -0.36679294266E+02 -0.23986490550E+02  0.45001790536E+02  0.00000000000E+00 0.  1.
         14    1    4    4    0    0 -0.46672705254E+02  0.28100713227E+02 -0.22738278564E+02  0.59034064841E+02  0.00000000000E+00 0. -1.
         -5    1    5    5    0  502 -0.30649258875E+02  0.10703223760E+02  0.43476434101E+02  0.54463073642E+02  0.47000000000E+01 0.  1.
         11    1    6    6    0    0 -0.22881881667E+02  0.98254258237E+01 -0.21172959124E+02  0.32686598161E+02  0.00000000000E+00 0. -1.
        -12    1    6    6    0    0  0.54938600301E+02  0.99093735934E+02 -0.54064570378E+02  0.12554200920E+03  0.00000000000E+00 0.  1.
</event>
<event>
12    1  0.1040325E-001  0.2263370E+03  0.7818608E-02  0.1129394E+00
         21   -1    0    0  503  502  0.00000000000E+00  0.00000000000E+00  0.34722205317E+03  0.34722205317E+03  0.00000000000E+00 0.  1.
         21   -1    0    0  501  503 -0.00000000000E+00 -0.00000000000E+00 -0.28106041151E+03  0.28106041151E+03  0.00000000000E+00 0. -1.
          6    2    1    2  501    0 -0.14702115590E+03  0.10028003273E+02 -0.18384689298E+03  0.29159579468E+03  0.17179245118E+03 0.  0.
         24    2    3    3    0    0 -0.17026988046E+03 -0.41469027340E+01 -0.18566521824E+03  0.26390414503E+03  0.78516211749E+02 0.  0.
         -6    2    1    2    0  502  0.14702115590E+03 -0.10028003273E+02  0.25000853463E+03  0.33668667000E+03  0.17069816997E+03 0.  0.
        -24    2    5    5    0    0  0.36456503483E+02  0.47386226050E+02  0.93984008656E+02  0.13697017393E+03  0.79707613180E+02 0.  0.
          5    1    3    3  501    0  0.23248724550E+02  0.14174906007E+02  0.18183252628E+01  0.27691649649E+02  0.47000000000E+01 0. -1.
        -13    1    4    4    0    0 -0.84812740775E+02 -0.32451092837E+02 -0.58214715433E+02  0.10786671181E+03  0.00000000000E+00 0.  1.
         14    1    4    4    0    0 -0.85457139680E+02  0.28304190103E+02 -0.12745050281E+03  0.15603743322E+03  0.00000000000E+00 0. -1.
         -5    1    5    5    0  502  0.11056465242E+03 -0.57414229324E+02  0.15602452598E+03  0.19971649606E+03  0.47000000000E+01 0.  1.
         11    1    6    6    0    0 -0.30394915421E+00 -0.21295778154E+02  0.15125463238E+02  0.26122446104E+02  0.00000000000E+00 0. -1.
        -12    1    6    6    0    0  0.36760452637E+02  0.68682004205E+02  0.78858545418E+02  0.11084772783E+03  0.00000000000E+00 0.  1.
</event>
<event>
12    1  0.1040325E-001  0.1766780E+03  0.7818608E-02  0.1172248E+00
         21   -1    0    0  503  502  0.00000000000E+00  0.00000000000E+00  0.17398016798E+03  0.17398016798E+03  0.00000000000E+00 0.  1.
         21   -1    0    0  501  503 -0.00000000000E+00 -0.00000000000E+00 -0.18100481919E+03  0.18100481919E+03  0.00000000000E+00 0. -1.
          6    2    1    2  501    0 -0.20968891630E+02 -0.66507887201E+01 -0.36741403970E+02  0.17582529251E+03  0.17053057002E+03 0.  0.
         24    2    3    3    0    0 -0.56224592689E+01 -0.62302605893E+02  0.10594074958E+02  0.10102305119E+03  0.78614220710E+02 0.  0.
         -6    2    1    2    0  502  0.20968891630E+02  0.66507887201E+01  0.29716752756E+02  0.17915969466E+03  0.17530311860E+03 0.  0.
        -24    2    5    5    0    0 -0.20728925998E+02  0.56091590264E+02 -0.11304969670E+02  0.10242656907E+03  0.82385950504E+02 0.  0.
          5    1    3    3  501    0 -0.15346432361E+02  0.55651817173E+02 -0.47335478928E+02  0.74802241318E+02  0.47000000000E+01 0. -1.
        -11    1    4    4    0    0 -0.13655764991E+01  0.18614430137E+02 -0.28677641248E+01  0.18883481659E+02  0.00000000000E+00 0.  1.
         12    1    4    4    0    0 -0.42568827698E+01 -0.80917036031E+02  0.13461839083E+02  0.82139569529E+02  0.00000000000E+00 0. -1.
         -5    1    5    5    0  502  0.41697817629E+02 -0.49440801544E+02  0.41021722426E+02  0.76733125592E+02  0.47000000000E+01 0.  1.
         11    1    6    6    0    0  0.50038562054E+01 -0.20429758840E+02 -0.12523541445E+01  0.21070880714E+02  0.00000000000E+00 0. -1.
        -12    1    6    6    0    0 -0.25732782204E+02  0.76521349104E+02 -0.10052615526E+02  0.81355688354E+02  0.00000000000E+00 0.  1.
</event>
<event>
12    1  0.1040325E-001  0.1866891E+03  0.7818608E-02  0.1161566E+00
         21   -1    0    0  501  502  0.00000000000E+00  0.00000000000E+00  0.18503890495E+03  0.18503890495E+03  0.00000000000E+00 0. -1.
         21   -1    0    0  502  503 -0.00000000000E+00 -0.00000000000E+00 -0.25660397110E+03  0.25660397110E+03  0.00000000000E+00 0. -1.
         -6    2    1    2    0  503  0.11151648694E+02 -0.71213686439E+02 -0.14999589822E+03  0.23948192939E+03  0.17221230101E+03 0.  0.
        -24    2    3    3    0    0 -0.39588559934E+02  0.68568072391E+01 -0.96292688368E+02  0.13189152321E+03  0.80677271760E+02 0.  0.
          6    2    1    2  501    0 -0.11151648694E+02  0.71213686439E+02  0.78430832059E+02  0.20216094666E+03  0.17181939510E+03 0.  0.
         24    2    5    5    0    0 -0.66862344312E+02  0.10662323284E+02  0.33571557052E+02  0.10832814994E+03  0.77612372731E+02 0.  0.
          5    1    5    5  501    0  0.55710695618E+02  0.60551363155E+02  0.44859275007E+02  0.93832796721E+02  0.47000000000E+01 0. -1.
        -11    1    6    6    0    0 -0.64181299553E+02  0.38377732887E+02  0.28489581804E+02  0.80023408233E+02  0.00000000000E+00 0.  1.
         12    1    6    6    0    0 -0.26810447588E+01 -0.27715409603E+02  0.50819752475E+01  0.28304741703E+02  0.00000000000E+00 0. -1.
         -5    1    3    3    0  503  0.50740208628E+02 -0.78070493678E+02 -0.53703209848E+02  0.10759040618E+03  0.47000000000E+01 0.  1.
         11    1    4    4    0    0 -0.37836851620E+01 -0.29317442326E+02 -0.66843766751E+02  0.73088424879E+02  0.00000000000E+00 0. -1.
        -12    1    4    4    0    0 -0.35804874772E+02  0.36174249565E+02 -0.29448921617E+02  0.58803098332E+02  0.00000000000E+00 0.  1.
</event>
<event>
12    1  0.1040325E-001  0.2019412E+03  0.7818608E-02  0.1148572E+00
         21   -1    0    0  503  502  0.00000000000E+00  0.00000000000E+00  0.23268828201E+03  0.23268828201E+03  0.00000000000E+00 0.  1.
         21   -1    0    0  501  503 -0.00000000000E+00 -0.00000000000E+00 -0.19671482128E+03  0.19671482128E+03  0.00000000000E+00 0. -1.
          6    2    1    2  501    0  0.64956652739E+02 -0.74676283210E+02  0.92058206786E+02  0.22193459257E+03  0.17602368003E+03 0.  0.
         24    2    3    3    0    0 -0.56037381473E+01 -0.80597601397E+02  0.98425307970E+02  0.15068530661E+03  0.80567643307E+02 0.  0.
         -6    2    1    2    0  502 -0.64956652739E+02  0.74676283210E+02 -0.56084746051E+02  0.20746851073E+03  0.17349861727E+03 0.  0.
        -24    2    5    5    0    0 -0.50902692674E+02 -0.39557876486E+01 -0.81790183592E+02  0.12342461814E+03  0.77053681643E+02 0.  0.
          5    1    3    3  501    0  0.70560390887E+02  0.59213181879E+01 -0.63671011846E+01  0.71249285952E+02  0.47000000000E+01 0. -1.
        -13    1    4    4    0    0  0.23967666542E+02 -0.39270771822E+02  0.76284906931E+01  0.46635141570E+02  0.00000000000E+00 0.  1.
         14    1    4    4    0    0 -0.29571404689E+02 -0.41326829575E+02  0.90796817277E+02  0.10405016504E+03  0.00000000000E+00 0. -1.
         -5    1    5    5    0  502 -0.14053960065E+02  0.78632070858E+02  0.25705437541E+02  0.84043892581E+02  0.47000000000E+01 0.  1.
         13    1    6    6    0    0 -0.65868761331E+02  0.34293336903E+01 -0.83768207913E+02  0.10661879152E+03  0.00000000000E+00 0. -1.
        -14    1    6    6    0    0  0.14966068657E+02 -0.73851213388E+01  0.19780243204E+01  0.16805826622E+02  0.00000000000E+00 0.  1.
</event>
<event>
12    1  0.1040325E-001  0.2095422E+03  0.7818608E-02  0.1142171E+00
         21   -1    0    0  501  502  0.00000000000E+00  0.00000000000E+00  0.89587527830E+03  0.89587527830E+03  0.00000000000E+00 0.  1.
         21   -1    0    0  502  503 -0.00000000000E+00 -0.00000000000E+00 -0.13826337223E+03  0.13826337223E+03  0.00000000000E+00 0.  1.
         -6    2    1    2    0  503  0.72001644953E+02 -0.95132074905E+02 -0.37678369806E+02  0.21170654046E+03  0.17077953967E+03 0.  0.
        -24    2    3    3    0    0  0.76943005103E+02 -0.21289802643E+01  0.76027677269E+00  0.11084221473E+03  0.79753745709E+02 0.  0.
          6    2    1    2  501    0 -0.72001644953E+02  0.95132074905E+02  0.79529027587E+03  0.82243211007E+03  0.17226028049E+03 0.  0.
         24    2    5    5    0    0  0.15768520507E+02  0.23984347471E+02  0.47597544213E+03  0.48368492690E+03  0.81083856799E+02 0.  0.
          5    1    5    5  501    0 -0.87770165460E+02  0.71147727435E+02  0.31931483374E+03  0.33874718317E+03  0.47000000000E+01 0. -1.
        -13    1    6    6    0    0  0.19433081377E+02 -0.26023446519E+02  0.25687563065E+03  0.25892074858E+03  0.00000000000E+00 0.  1.
         14    1    6    6    0    0 -0.36645608699E+01  0.50007793990E+02  0.21909981148E+03  0.22476417832E+03  0.00000000000E+00 0. -1.
         -5    1    3    3    0  503 -0.49413601502E+01 -0.93003094641E+02 -0.38438646579E+02  0.10086432572E+03  0.47000000000E+01 0.  1.
         13    1    4    4    0    0  0.26385802273E+02  0.24043732958E+02 -0.29554312061E+02  0.46344028931E+02  0.00000000000E+00 0. -1.
        -14    1    4    4    0    0  0.50557202831E+02 -0.26172713223E+02  0.30314588833E+02  0.64498185801E+02  0.00000000000E+00 0.  1.
</event>
<event>
12    1  0.1040325E-001  0.2606442E+03  0.7818608E-02  0.1107169E+00
         21   -1    0    0  501  502  0.00000000000E+00  0.00000000000E+00  0.57585586347E+03  0.57585586347E+03  0.00000000000E+00 0.  1.
         21   -1    0    0  502  503 -0.00000000000E+00 -0.00000000000E+00 -0.12663235878E+03  0.12663235878E+03  0.00000000000E+00 0. -1.
         -6    2    1    2    0  503  0.14549292759E+03  0.13075919387E+03  0.32169923929E+03  0.41231962688E+03  0.16808008625E+03 0.  0.
        -24    2    3    3    0    0  0.51529413171E+02  0.23016298597E+02  0.65398794045E+02  0.11880696658E+03  0.81566308137E+02 0.  0.
          6    2    1    2  501    0 -0.14549292759E+03 -0.13075919387E+03  0.12752426539E+03  0.29016859537E+03  0.17224754488E+03 0.  0.
         24    2    5    5    0    0 -0.12960251255E+03 -0.15059614668E+03  0.14421203691E+03  0.25940202740E+03  0.83763294908E+02 0.  0.
          5    1    5    5  501    0 -0.15890415036E+02  0.19836952817E+02 -0.16687771511E+02  0.30766567977E+02  0.47000000000E+01 0. -1.
        -13    1    6    6    0    0 -0.27455234760E+02  0.18740175764E+01  0.39393568224E+02  0.48053668695E+02  0.00000000000E+00 0.  1.
         14    1    6    6    0    0 -0.10214727779E+03 -0.15247016426E+03  0.10481846868E+03  0.21134835870E+03  0.00000000000E+00 0. -1.
         -5    1    3    3    0  503  0.93963514416E+02  0.10774289527E+03  0.25630044525E+03  0.29351266030E+03  0.47000000000E+01 0.  1.
         11    1    4    4    0    0  0.46316036954E+02 -0.20434250931E+02  0.16636996502E+02  0.53287179911E+02  0.00000000000E+00 0. -1.
        -12    1    4    4    0    0  0.52133762171E+01  0.43450549528E+02  0.48761797543E+02  0.65519786671E+02  0.00000000000E+00 0.  1.
</event>
<event>
12    1  0.1040325E-001  0.1904464E+03  0.7818608E-02  0.1158464E+00
         21   -1    0    0  503  502  0.00000000000E+00  0.00000000000E+00  0.89029944836E+02  0.89029944836E+02  0.00000000000E+00 0. -1.
         21   -1    0    0  501  503 -0.00000000000E+00 -0.00000000000E+00 -0.49135856087E+03  0.49135856087E+03  0.00000000000E+00 0.  1.
          6    2    1    2  501    0  0.14309229054E+02 -0.78702885005E+02 -0.32304425995E+03  0.37409781643E+03  0.17085866741E+03 0.  0.
         24    2    3    3    0    0 -0.66526986656E+01 -0.44263832270E+02 -0.32055889856E+03  0.33343188735E+03  0.80095385690E+02 0.  0.
         -6    2    1    2    0  502 -0.14309229054E+02  0.78702885005E+02 -0.79284356087E+02  0.20629068927E+03  0.17283211859E+03 0.  0.
        -24    2    5    5    0    0  0.43798884757E+02  0.61896348244E+02 -0.99422625021E+01  0.11415259449E+03  0.84749430749E+02 0.  0.
          5    1    3    3  501    0  0.20961927720E+02 -0.34439052735E+02 -0.24853613886E+01  0.40665929083E+02  0.47000000000E+01 0. -1.
        -11    1    4    4    0    0  0.24089683427E+02 -0.54178937068E+02 -0.21673126260E+03  0.22469559466E+03  0.00000000000E+00 0.  1.
         12    1    4    4    0    0 -0.30742382092E+02  0.99151047976E+01 -0.10382763595E+03  0.10873629269E+03  0.00000000000E+00 0. -1.
         -5    1    5    5    0  502 -0.58108113811E+02  0.16806536761E+02 -0.69342093585E+02  0.92138094788E+02  0.47000000000E+01 0.  1.
         11    1    6    6    0    0  0.54431887574E+01 -0.13630262211E+02  0.19559986744E+02  0.24454149611E+02  0.00000000000E+00 0. -1.
        -12    1    6    6    0    0  0.38355695999E+02  0.75526610454E+02 -0.29502249246E+02  0.89698444874E+02  0.00000000000E+00 0.  1.
</event>
<event>
12    1  0.1040325E-001  0.2544609E+03  0.7818608E-02  0.1110628E+00
         21   -1    0    0  501  502  0.00000000000E+00  0.00000000000E+00  0.35357089410E+03  0.35357089410E+03  0.00000000000E+00 0. -1.
         21   -1    0    0  502  503 -0.00000000000E+00 -0.00000000000E+00 -0.53346749413E+03  0.53346749413E+03  0.00000000000E+00 0.  1.
         -6    2    1    2    0  503 -0.18487484623E+03 -0.32980891017E+02 -0.44958709739E+03  0.51625096752E+03  0.17064599437E+03 0.  0.
        -24    2    3    3    0    0 -0.15674234948E+03 -0.78237417107E+02 -0.39885576018E+03  0.44252614740E+03  0.77808843663E+02 0.  0.
          6    2    1    2  501    0  0.18487484623E+03  0.32980891017E+02  0.26969049736E+03  0.37078742070E+03  0.17170876228E+03 0.  0.
         24    2    5    5    0    0  0.12163664879E+03  0.38539552787E+02  0.79937171057E+02  0.17064151598E+03  0.80298220401E+02 0.  0.
          5    1    5    5  501    0  0.63238197432E+02 -0.55586617701E+01  0.18975332630E+03  0.20014590473E+03  0.47000000000E+01 0. -1.
        -13    1    6    6    0    0  0.63042700203E+02 -0.18672136315E+02  0.18615434501E+02  0.68334216357E+02  0.00000000000E+00 0.  1.
         14    1    6    6    0    0  0.58593948591E+02  0.57211689102E+02  0.61321736556E+02  0.10230729962E+03  0.00000000000E+00 0. -1.
         -5    1    3    3    0  503 -0.28132496743E+02  0.45256526090E+02 -0.50731337209E+02  0.73724820120E+02  0.47000000000E+01 0.  1.
         11    1    4    4    0    0  0.62764088839E+01  0.51469565988E+01 -0.24077809884E+02  0.25409159757E+02  0.00000000000E+00 0. -1.
        -12    1    4    4    0    0 -0.16301875837E+03 -0.83384373706E+02 -0.37477795029E+03  0.41711698765E+03  0.00000000000E+00 0.  1.
</event>
<event>
12    1  0.1040325E-001  0.2241592E+03  0.7818608E-02  0.1131489E+00
         21   -1    0    0  503  502  0.00000000000E+00  0.00000000000E+00  0.45695998334E+03  0.45695998334E+03  0.00000000000E+00 0. -1.
         21   -1    0    0  501  503 -0.00000000000E+00 -0.00000000000E+00 -0.15585877125E+03  0.15585877125E+03  0.00000000000E+00 0.  1.
          6    2    1    2  501    0  0.76639235503E+02  0.12360742217E+03 -0.19779995114E+02  0.22139561300E+03  0.16574800758E+03 0.  0.
         24    2    3    3    0    0  0.40191629627E+02  0.94771549962E+01  0.23629900800E+02  0.93878339965E+02  0.80929518372E+02 0.  0.
         -6    2    1    2    0  502 -0.76639235503E+02 -0.12360742217E+03  0.32088120720E+03  0.39142314158E+03  0.17057244619E+03 0.  0.
        -24    2    5    5    0    0 -0.91450972355E+02 -0.14248331482E+03  0.22654725331E+03  0.29397227330E+03  0.80195162840E+02 0.  0.
          5    1    3    3  501    0  0.36447605876E+02  0.11413026718E+03 -0.43409895914E+02  0.12751727304E+03  0.47000000000E+01 0. -1.
        -13    1    4    4    0    0 -0.20300585992E+02  0.16679178890E+02 -0.47050406300E+01  0.26691687983E+02  0.00000000000E+00 0.  1.
         14    1    4    4    0    0  0.60492215619E+02 -0.72020238942E+01  0.28334941430E+02  0.67186651982E+02  0.00000000000E+00 0. -1.
         -5    1    5    5    0  502  0.14811736853E+02  0.18875892646E+02  0.94333953889E+02  0.97450868277E+02  0.47000000000E+01 0.  1.
         13    1    6    6    0    0 -0.76417284771E+02 -0.45040869262E+02  0.10423461955E+03  0.13686905139E+03  0.00000000000E+00 0. -1.
        -14    1    6    6    0    0 -0.15033687584E+02 -0.97442445557E+02  0.12231263376E+03  0.15710322192E+03  0.00000000000E+00 0.  1.
</event>
<event>
12    1  0.1040325E-001  0.1899069E+03  0.7818608E-02  0.1158757E+00
         21   -1    0    0  501  502  0.00000000000E+00  0.00000000000E+00  0.11236083419E+03  0.11236083419E+03  0.00000000000E+00 0.  1.
         21   -1    0    0  502  503 -0.00000000000E+00 -0.00000000000E+00 -0.69343570786E+03  0.69343570786E+03  0.00000000000E+00 0.  1.
         -6    2    1    2    0  503 -0.36691990981E+02 -0.73271528367E+02 -0.58611203755E+03  0.61582283240E+03  0.17028041953E+03 0.  0.
        -24    2    3    3    0    0  0.26173642489E+02 -0.53200137324E+02 -0.19551388154E+03  0.21966130210E+03  0.80685163408E+02 0.  0.
          6    2    1    2  501    0  0.36691990981E+02  0.73271528367E+02  0.50371638798E+01  0.18997370965E+03  0.17131730288E+03 0.  0.
         24    2    5    5    0    0 -0.43166410459E+02  0.62422786039E+02  0.56830762808E+01  0.10924226167E+03  0.78368559829E+02 0.  0.
          5    1    5    5  501    0  0.79858401440E+02  0.10848742329E+02 -0.64591240100E+00  0.80731447983E+02  0.47000000000E+01 0. -1.
        -13    1    6    6    0    0 -0.47891901519E+02  0.61801267130E+02  0.30535329976E+02  0.83937102802E+02  0.00000000000E+00 0.  1.
         14    1    6    6    0    0  0.47254910604E+01  0.62151890904E+00 -0.24852253696E+02  0.25305158867E+02  0.00000000000E+00 0. -1.
         -5    1    3    3    0  503 -0.62865633471E+02 -0.20071391043E+02 -0.39059815602E+03  0.39616153030E+03  0.47000000000E+01 0.  1.
         13    1    4    4    0    0 -0.72893011148E+00  0.10118455711E+02  0.21476034618E+01  0.10369507496E+02  0.00000000000E+00 0. -1.
        -14    1    4    4    0    0  0.26902572601E+02 -0.63318593036E+02 -0.19766148500E+03  0.20929179460E+03  0.00000000000E+00 0.  1.
</event>
<event>
12    1  0.1040325E-001  0.1944910E+03  0.7818608E-02  0.1159076E+00
         21   -1    0    0  503  502  0.00000000000E+00  0.00000000000E+00  0.15179688227E+04  0.15179688227E+04  0.00000000000E+00 0.  1.
         21   -1    0    0  501  503 -0.00000000000E+00 -0.00000000000E+00 -0.94768034199E+02  0.94768034199E+02  0.00000000000E+00 0.  1.
          6    2    1    2  501    0 -0.10056761840E+02  0.27937782542E+02  0.16444856259E+02  0.19518500613E+03  0.19221106932E+03 0.  0.
         24    2    3    3    0    0 -0.70272416127E+02  0.45730431383E+02 -0.29588548430E+02  0.11718713615E+03  0.76340407766E+02 0.  0.
         -6    2    1    2    0  502  0.10056761840E+02 -0.27937782542E+02  0.14067559323E+04  0.14175518508E+04  0.17207364289E+03 0.  0.
        -24    2    5    5    0    0 -0.34746369766E+02  0.21491392484E+02  0.55302940198E+03  0.56120983825E+03  0.86288892249E+02 0.  0.
          5    1    3    3  501    0  0.60215654287E+02 -0.17792648841E+02  0.46033404688E+02  0.77997869979E+02  0.47000000000E+01 0. -1.
        -11    1    4    4    0    0 -0.60705127805E+02 -0.57259985249E+01 -0.13762764005E+02  0.62508505613E+02  0.00000000000E+00 0.  1.
         12    1    4    4    0    0 -0.95672883224E+01  0.51456429908E+02 -0.15825784424E+02  0.54678630536E+02  0.00000000000E+00 0. -1.
         -5    1    5    5    0  502  0.44803131607E+02 -0.49429175026E+02  0.85372653028E+03  0.85634201255E+03  0.47000000000E+01 0.  1.
         11    1    6    6    0    0  0.83748831856E+01 -0.25685900235E+02  0.25359103000E+03  0.25502610580E+03  0.00000000000E+00 0. -1.
        -12    1    6    6    0    0 -0.43121252952E+02  0.47177292718E+02  0.29943837198E+03  0.30618373245E+03  0.00000000000E+00 0.  1.
</event>
<event>
12    1  0.1040325E-001  0.2023045E+03  0.7818608E-02  0.1147943E+00
         21   -1    0    0  501  502  0.00000000000E+00  0.00000000000E+00  0.50937204458E+02  0.50937204458E+02  0.00000000000E+00 0.  1.
         21   -1    0    0  502  503 -0.00000000000E+00 -0.00000000000E+00 -0.83749168667E+03  0.83749168667E+03  0.00000000000E+00 0.  1.
         -6    2    1    2    0  503 -0.10214580818E+03  0.29774855027E+02 -0.48669621598E+03  0.52706764001E+03  0.17206621509E+03 0.  0.
        -24    2    3    3    0    0 -0.38213723249E+02  0.78760739368E+02 -0.33876257598E+03  0.35856428636E+03  0.78388276276E+02 0.  0.
          6    2    1    2  501    0  0.10214580818E+03 -0.29774855027E+02 -0.29985826623E+03  0.36136125112E+03  0.17130868589E+03 0.  0.
         24    2    5    5    0    0  0.66259418570E+02 -0.80874872106E+02 -0.16247014725E+03  0.21037572220E+03  0.83248665199E+02 0.  0.
          5    1    5    5  501    0  0.35886389610E+02  0.51100017079E+02 -0.13738811898E+03  0.15098552891E+03  0.47000000000E+01 0. -1.
        -11    1    6    6    0    0  0.67395991561E+02 -0.42770129556E+02 -0.56602702667E+02  0.97853817554E+02  0.00000000000E+00 0.  1.
         12    1    6    6    0    0 -0.11365729916E+01 -0.38104742550E+02 -0.10586744459E+03  0.11252190465E+03  0.00000000000E+00 0. -1.
         -5    1    3    3    0  503 -0.63932084930E+02 -0.48985884341E+02 -0.14793364001E+03  0.16850335366E+03  0.47000000000E+01 0.  1.
         11    1    4    4    0    0 -0.15733420943E+02  0.68287574209E+02 -0.12446557400E+03  0.14283701354E+03  0.00000000000E+00 0. -1.
        -12    1    4    4    0    0 -0.22480302306E+02  0.10473165158E+02 -0.21429700198E+03  0.21572727282E+03  0.00000000000E+00 0.  1.
</event>
<event>
12    1  0.1040325E-001  0.2208082E+03  0.7818608E-02  0.1133453E+00
         21   -1    0    0  503  502  0.00000000000E+00  0.00000000000E+00  0.36728042830E+02  0.36728042830E+02  0.00000000000E+00 0.  1.
         21   -1    0    0  501  503 -0.00000000000E+00 -0.00000000000E+00 -0.13392807680E+04  0.13392807680E+04  0.00000000000E+00 0.  1.
          6    2    1    2  501    0  0.44129261469E+01  0.13677367068E+03 -0.57168096862E+03  0.61251042574E+03  0.17211444115E+03 0.  0.
         24    2    3    3    0    0  0.15549655980E+02  0.39722379531E+02 -0.42703711155E+03  0.43790539932E+03  0.87067702822E+02 0.  0.
         -6    2    1    2    0  502 -0.44129261469E+01 -0.13677367068E+03 -0.73087175657E+03  0.76349838511E+03  0.17329093630E+03 0.  0.
        -24    2    5    5    0    0 -0.34515139425E+02 -0.15162339574E+03 -0.67992249989E+03  0.70230545794E+03  0.82203414854E+02 0.  0.
          5    1    3    3  501    0 -0.11136729834E+02  0.97051291144E+02 -0.14464385707E+03  0.17460502642E+03  0.47000000000E+01 0. -1.
        -11    1    4    4    0    0  0.41672067209E+01 -0.27146350220E+02 -0.89455272669E+02  0.93576363204E+02  0.00000000000E+00 0.  1.
         12    1    4    4    0    0  0.11382449259E+02  0.66868729751E+02 -0.33758183888E+03  0.34432903612E+03  0.00000000000E+00 0. -1.
         -5    1    5    5    0  502  0.30102213278E+02  0.14849725067E+02 -0.50949256683E+02  0.61192927168E+02  0.47000000000E+01 0.  1.
         11    1    6    6    0    0 -0.38826240577E+02 -0.84600586381E+02 -0.24240374855E+03  0.25966192151E+03  0.00000000000E+00 0. -1.
        -12    1    6    6    0    0  0.43111011526E+01 -0.67022809362E+02 -0.43751875134E+03  0.44264353643E+03  0.00000000000E+00 0.  1.
</event>
<event>
12    1  0.1040325E-001  0.2334469E+03  0.7818608E-02  0.1124272E+00
         21   -1    0    0  503  502  0.00000000000E+00  0.00000000000E+00  0.67277286990E+03  0.67277286990E+03  0.00000000000E+00 0. -1.
         21   -1    0    0  501  503 -0.00000000000E+00 -0.00000000000E+00 -0.10398375264E+03  0.10398375264E+03  0.00000000000E+00 0. -1.
          6    2    1    2  501    0 -0.13002700764E+03  0.89346024788E+02  0.10143856102E+03  0.25434489930E+03  0.17179002088E+03 0.  0.
         24    2    3    3    0    0 -0.10968376821E+03  0.30442860830E+02  0.36533133858E+01  0.13829544962E+03  0.78453730965E+02 0.  0.
         -6    2    1    2    0  502  0.13002700764E+03 -0.89346024788E+02  0.46735055624E+03  0.52241172324E+03  0.17206897251E+03 0.  0.
        -24    2    5    5    0    0  0.12671876599E+03 -0.12593696994E+03  0.40215768921E+03  0.44743144822E+03  0.80909380281E+02 0.  0.
          5    1    3    3  501    0 -0.20343239423E+02  0.58903163958E+02  0.97785247636E+02  0.11604944967E+03  0.47000000000E+01 0. -1.
        -11    1    4    4    0    0 -0.65800950765E+02 -0.18611383023E+02 -0.14745513996E+02  0.69954119841E+02  0.00000000000E+00 0.  1.
         12    1    4    4    0    0 -0.43882817448E+02  0.49054243853E+02  0.18398827382E+02  0.68341329781E+02  0.00000000000E+00 0. -1.
         -5    1    5    5    0  502  0.33082416460E+01  0.36590945150E+02  0.65192867036E+02  0.74980275020E+02  0.47000000000E+01 0.  1.
         11    1    6    6    0    0  0.11303256612E+03 -0.60315383837E+02  0.24227226071E+03  0.27406231926E+03  0.00000000000E+00 0. -1.
        -12    1    6    6    0    0  0.13686199869E+02 -0.65621586102E+02  0.15988542850E+03  0.17336912896E+03  0.00000000000E+00 0.  1.
</event>
<event>
12    1  0.1040325E-001  0.1902874E+03  0.7818608E-02  0.1158267E+00
         21   -1    0    0  501  502  0.00000000000E+00  0.00000000000E+00  0.86367452391E+02  0.86367452391E+02  0.00000000000E+00 0. -1.
         21   -1    0    0  502  503 -0.00000000000E+00 -0.00000000000E+00 -0.46452454381E+03  0.46452454381E+03  0.00000000000E+00 0. -1.
         -6    2    1    2    0  503  0.45357929447E+02  0.65212961397E+02 -0.10261413514E+03  0.21619195277E+03  0.17291393124E+03 0.  0.
        -24    2    3    3    0    0  0.70472686472E+02  0.97146641069E+02 -0.56548091382E+02  0.15459096816E+03  0.79352450421E+02 0.  0.
          6    2    1    2  501    0 -0.45357929447E+02 -0.65212961397E+02 -0.27554295628E+03  0.33470004343E+03  0.17259816401E+03 0.  0.
         24    2    5    5    0    0  0.39573975082E+02 -0.43574937146E+02 -0.17478443704E+03  0.20107369236E+03  0.80100909343E+02 0.  0.
          5    1    5    5  501    0 -0.84931904529E+02 -0.21638024251E+02 -0.10075851924E+03  0.13362635107E+03  0.47000000000E+01 0. -1.
        -13    1    6    6    0    0  0.26021996513E+02 -0.42670999037E+02 -0.17978309664E+03  0.18660096543E+03  0.00000000000E+00 0.  1.
         14    1    6    6    0    0  0.13551978569E+02 -0.90393810858E+00  0.49986595961E+01  0.14472726937E+02  0.00000000000E+00 0. -1.
         -5    1    3    3    0  503 -0.25114757025E+02 -0.31933679671E+02 -0.46066043761E+02  0.61600984616E+02  0.47000000000E+01 0.  1.
         13    1    4    4    0    0  0.15303944682E+02 -0.13331126609E+02 -0.99630430787E+01  0.22609553001E+02  0.00000000000E+00 0. -1.
        -14    1    4    4    0    0  0.55168741790E+02  0.11047776768E+03 -0.46585048304E+02  0.13198141516E+03  0.00000000000E+00 0.  1.
</event>
<event>
12    1  0.1040325E-001  0.2054893E+03  0.7818608E-02  0.1146785E+00
         21   -1    0    0  503  502  0.00000000000E+00  0.00000000000E+00  0.51795259513E+03  0.51795259513E+03  0.00000000000E+00 0.  1.
         21   -1    0    0  501  503 -0.00000000000E+00 -0.00000000000E+00 -0.78966442702E+02  0.78966442702E+02  0.00000000000E+00 0.  1.
          6    2    1    2  501    0  0.60443406681E+02  0.84141281431E+02  0.20084064174E+03  0.28733747395E+03  0.17746182662E+03 0.  0.
         24    2    3    3    0    0  0.75253062589E+02  0.12209992282E+03  0.17181131637E+03  0.23708833370E+03  0.78232569700E+02 0.  0.
         -6    2    1    2    0  502 -0.60443406681E+02 -0.84141281431E+02  0.23814551069E+03  0.30958156389E+03  0.16850608234E+03 0.  0.
        -24    2    5    5    0    0 -0.74880725695E+02 -0.63577886719E+02  0.25069236550E+03  0.28110696208E+03  0.80778655906E+02 0.  0.
          5    1    3    3  501    0 -0.14809655908E+02 -0.37958641389E+02  0.29029325368E+02  0.50249140247E+02  0.47000000000E+01 0. -1.
        -11    1    4    4    0    0  0.72132707196E+02  0.67874275512E+02  0.14728883604E+03  0.17749379129E+03  0.00000000000E+00 0.  1.
         12    1    4    4    0    0  0.31203553925E+01  0.54225647308E+02  0.24522480332E+02  0.59594542413E+02  0.00000000000E+00 0. -1.
         -5    1    5    5    0  502  0.14437319014E+02 -0.20563394712E+02 -0.12546854810E+02  0.28474601806E+02  0.47000000000E+01 0.  1.
         11    1    6    6    0    0  0.92305456480E+01 -0.23378278765E+02  0.19452844443E+02  0.31783015085E+02  0.00000000000E+00 0. -1.
        -12    1    6    6    0    0 -0.84111271343E+02 -0.40199607954E+02  0.23123952106E+03  0.24932394700E+03  0.00000000000E+00 0.  1.
</event>
<event>
12    1  0.1040325E-001  0.2553081E+03  0.7818608E-02  0.1110112E+00
         21   -1    0    0  503  502  0.00000000000E+00  0.00000000000E+00  0.11197401867E+04  0.11197401867E+04  0.00000000000E+00 0.  1.
         21   -1    0    0  501  503 -0.00000000000E+00 -0.00000000000E+00 -0.66998208254E+02  0.66998208254E+02  0.00000000000E+00 0. -1.
          6    2    1    2  501    0  0.18220623816E+03  0.58504758187E+02  0.30870499339E+03  0.40011697845E+03  0.16784785832E+03 0.  0.
         24    2    3    3    0    0  0.57748444887E+02 -0.25984828130E+02  0.15229788130E+03  0.18306051756E+03  0.79412935086E+02 0.  0.
         -6    2    1    2    0  502 -0.18220623816E+03 -0.58504758187E+02  0.74403698501E+03  0.78662141646E+03  0.16899792252E+03 0.  0.
        -24    2    5    5    0    0 -0.16496804309E+03 -0.85047063172E+02  0.48193462030E+03  0.52257333578E+03  0.79840183060E+02 0.  0.
          5    1    3    3  501    0  0.12445779327E+03  0.84489586318E+02  0.15640711209E+03  0.21705646089E+03  0.47000000000E+01 0. -1.
        -13    1    4    4    0    0 -0.11685050132E+02  0.44335099353E+01  0.70257448910E+02  0.71360391915E+02  0.00000000000E+00 0.  1.
         14    1    4    4    0    0  0.69433495018E+02 -0.30418338066E+02  0.82040432391E+02  0.11170012564E+03  0.00000000000E+00 0. -1.
         -5    1    5    5    0  502 -0.17238195068E+02  0.26542304985E+02  0.26210236471E+03  0.26404808068E+03  0.47000000000E+01 0.  1.
         11    1    6    6    0    0 -0.60935238240E+01 -0.27307406409E+02  0.35457572305E+02  0.45167077735E+02  0.00000000000E+00 0. -1.
        -12    1    6    6    0    0 -0.15887451927E+03 -0.57739656763E+02  0.44647704800E+03  0.47740625805E+03  0.00000000000E+00 0.  1.
</event>
<event>
12    1  0.1040325E-001  0.2404867E+03  0.7818608E-02  0.1122188E+00
         21   -1    0    0  503  502  0.00000000000E+00  0.00000000000E+00  0.14197923612E+03  0.14197923612E+03  0.00000000000E+00 0. -1.
         21   -1    0    0  501  503 -0.00000000000E+00 -0.00000000000E+00 -0.40449508593E+03  0.40449508593E+03  0.00000000000E+00 0. -1.
          6    2    1    2  501    0  0.81545463961E+02 -0.14616931952E+03 -0.20121809964E+03  0.31356431203E+03  0.17268098185E+03 0.  0.
         24    2    3    3    0    0  0.96917472123E+02 -0.17033089192E+03 -0.17744957962E+03  0.27605281033E+03  0.79443008749E+02 0.  0.
         -6    2    1    2    0  502 -0.81545463961E+02  0.14616931952E+03 -0.61297750170E+02  0.23291001003E+03  0.14991506240E+03 0.  0.
        -24    2    5    5    0    0 -0.48322571569E+02  0.13713898676E+03 -0.89168294744E+02  0.18836604586E+03  0.79928779760E+02 0.  0.
          5    1    3    3  501    0 -0.15372008162E+02  0.24161572399E+02 -0.23768520026E+02  0.37511501702E+02  0.47000000000E+01 0. -1.
        -11    1    4    4    0    0 -0.47644833658E+01 -0.15821229939E+02  0.39416745625E+01  0.16986712951E+02  0.00000000000E+00 0.  1.
         12    1    4    4    0    0  0.10168195549E+03 -0.15450966198E+03 -0.18139125418E+03  0.25906609738E+03  0.00000000000E+00 0. -1.
         -5    1    5    5    0  502 -0.33222892392E+02  0.90303327550E+01  0.27870544574E+02  0.44543964163E+02  0.47000000000E+01 0.  1.
         13    1    6    6    0    0 -0.68074823494E+02  0.77817071220E+02 -0.54603243917E+02  0.11692387444E+03  0.00000000000E+00 0. -1.
        -14    1    6    6    0    0  0.19752251925E+02  0.59321915542E+02 -0.34565050827E+02  0.71442171428E+02  0.00000000000E+00 0.  1.
</event>
<event>
12    1  0.1040325E-001  0.2027365E+03  0.7818608E-02  0.1147568E+00
         21   -1    0    0  501  502  0.00000000000E+00  0.00000000000E+00  0.89661257170E+03  0.89661257170E+03  0.00000000000E+00 0.  1.
         21   -1    0    0  502  503 -0.00000000000E+00 -0.00000000000E+00 -0.45928182039E+02  0.45928182039E+02  0.00000000000E+00 0.  1.
         -6    2    1    2    0  503  0.96424539992E+02  0.41207800306E+02  0.39373032123E+03  0.44286077124E+03  0.17351173487E+03 0.  0.
        -24    2    3    3    0    0  0.11884276348E+03 -0.87160471134E+01  0.25958307601E+03  0.29790374077E+03  0.84638605288E+02 0.  0.
          6    2    1    2  501    0 -0.96424539992E+02 -0.41207800306E+02  0.45695406843E+03  0.49967998249E+03  0.17285048315E+03 0.  0.
         24    2    5    5    0    0 -0.84197043258E+01 -0.41966742383E+02  0.11354500283E+03  0.14514182738E+03  0.79634059922E+02 0.  0.
          5    1    5    5  501    0 -0.88004835667E+02  0.75894207668E+00  0.34340906560E+03  0.35453815511E+03  0.47000000000E+01 0. -1.
        -13    1    6    6    0    0 -0.20079574492E+01 -0.62848812086E+02  0.58356492544E+02  0.85787442530E+02  0.00000000000E+00 0.  1.
         14    1    6    6    0    0 -0.64117468766E+01  0.20882069703E+02  0.55188510289E+02  0.59354384851E+02  0.00000000000E+00 0. -1.
         -5    1    3    3    0  503 -0.22418223485E+02  0.49923847420E+02  0.13414724521E+03  0.14495703047E+03  0.47000000000E+01 0.  1.
         11    1    4    4    0    0  0.42810271035E+02  0.18381735848E+02  0.17455111342E+03  0.18066183525E+03  0.00000000000E+00 0. -1.
        -12    1    4    4    0    0  0.76032492442E+02 -0.27097782961E+02  0.85031962590E+02  0.11724190552E+03  0.00000000000E+00 0.  1.
</event>
<event>
12    1  0.1040325E-001  0.2322763E+03  0.7818608E-02  0.1125104E+00
         21   -1    0    0  501  502  0.00000000000E+00  0.00000000000E+00  0.52989422289E+02  0.52989422289E+02  0.00000000000E+00 0. -1.
         21   -1    0    0  502  503 -0.00000000000E+00 -0.00000000000E+00 -0.10589455939E+04  0.10589455939E+04  0.00000000000E+00 0.  1.
         -6    2    1    2    0  503  0.48580308970E+02  0.14713140036E+03 -0.39234672210E+03  0.45594764278E+03  0.17304510170E+03 0.  0.
        -24    2    3    3    0    0  0.46066070778E+02  0.15302268491E+03 -0.40401752224E+03  0.44182934957E+03  0.80280700596E+02 0.  0.
          6    2    1    2  501    0 -0.48580308970E+02 -0.14713140036E+03 -0.61360944950E+03  0.65598737340E+03  0.17261280993E+03 0.  0.
         24    2    5    5    0    0  0.37284976813E+02 -0.35119658778E+02 -0.24700892361E+03  0.26312923979E+03  0.74833338587E+02 0.  0.
          5    1    5    5  501    0 -0.85865285782E+02 -0.11201174158E+03 -0.36660052589E+03  0.39285813360E+03  0.47000000000E+01 0. -1.
        -13    1    6    6    0    0 -0.13607103710E+02 -0.31066072585E+02 -0.14677488112E+03  0.15064235747E+03  0.00000000000E+00 0.  1.
         14    1    6    6    0    0  0.50892080523E+02 -0.40535861927E+01 -0.10023404249E+03  0.11248688233E+03  0.00000000000E+00 0. -1.
         -5    1    3    3    0  503  0.25142381919E+01 -0.58912845543E+01  0.11670800139E+02  0.14118293214E+02  0.47000000000E+01 0.  1.
         11    1    4    4    0    0 -0.11421374198E+02  0.32851851378E+01 -0.73813663405E+01  0.13990167941E+02  0.00000000000E+00 0. -1.
        -12    1    4    4    0    0  0.57487444976E+02  0.14973749977E+03 -0.39663615590E+03  0.42783918163E+03  0.00000000000E+00 0.  1.
</event>
<event>
12    1  0.1040325E-001  0.2110337E+03  0.7818608E-02  0.1140909E+00
         21   -1    0    0  501  502  0.00000000000E+00  0.00000000000E+00  0.83939907496E+03  0.83939907496E+03  0.00000000000E+00 0. -1.
         21   -1    0    0  502  503 -0.00000000000E+00 -0.00000000000E+00 -0.53828962494E+02  0.53828962494E+02  0.00000000000E+00 0.  1.
         -6    2    1    2    0  503 -0.78600878296E+02 -0.93283402840E+02  0.33192342170E+03  0.39289761815E+03  0.17121766602E+03 0.  0.
        -24    2    3    3    0    0 -0.72675250466E+02 -0.12634715329E+03  0.21866035564E+03  0.27466506428E+03  0.79895251648E+02 0.  0.
          6    2    1    2  501    0  0.78600878296E+02  0.93283402840E+02  0.45364669076E+03  0.50033041931E+03  0.17220719244E+03 0.  0.
         24    2    5    5    0    0  0.34800665147E+02  0.71231063709E+02  0.12538143273E+03  0.16838925891E+03  0.79683675307E+02 0.  0.
          5    1    5    5  501    0  0.43800213149E+02  0.22052339130E+02  0.32826525804E+03  0.33194116040E+03  0.47000000000E+01 0. -1.
        -13    1    6    6    0    0  0.26380974043E+01  0.73514647875E+02  0.11081345805E+03  0.13300746406E+03  0.00000000000E+00 0.  1.
         14    1    6    6    0    0  0.32162567743E+02 -0.22835841655E+01  0.14567974676E+02  0.35381794847E+02  0.00000000000E+00 0. -1.
         -5    1    3    3    0  503 -0.59256278296E+01  0.33063750451E+02  0.11326306606E+03  0.11823255386E+03  0.47000000000E+01 0.  1.
         11    1    4    4    0    0 -0.45363361065E+02 -0.12384983747E+03  0.20564362616E+03  0.24430701535E+03  0.00000000000E+00 0. -1.
        -12    1    4    4    0    0 -0.27311889401E+02 -0.24973158196E+01  0.13016729482E+02  0.30358048938E+02  0.00000000000E+00 0.  1.
</event>
<event>
12    1  0.1040325E-001  0.2362875E+03  0.7818608E-02  0.1122548E+00
         21   -1    0    0  503  502  0.00000000000E+00  0.00000000000E+00  0.28729536040E+03  0.28729536040E+03  0.00000000000E+00 0. -1.
         21   -1    0    0  501  503 -0.00000000000E+00 -0.00000000000E+00 -0.20569197808E+03  0.20569197808E+03  0.00000000000E+00 0.  1.
          6    2    1    2  501    0 -0.15631533831E+03  0.33575427135E+02 -0.20069476042E+02  0.23713826560E+03  0.17398269697E+03 0.  0.
         24    2    3    3    0    0 -0.61217881473E+02  0.76852255096E+02 -0.32929633735E+02  0.13176329803E+03  0.81383707236E+02 0.  0.
         -6    2    1    2    0  502  0.15631533831E+03 -0.33575427135E+02  0.10167285836E+03  0.25584907288E+03  0.17192900764E+03 0.  0.
        -24    2    5    5    0    0  0.12772179480E+03  0.18767578895E+02  0.11886524531E+03  0.19359917987E+03  0.81771737296E+02 0.  0.
          5    1    3    3  501    0 -0.95097456837E+02 -0.43276827961E+02  0.12860157693E+02  0.10537496757E+03  0.47000000000E+01 0. -1.
        -11    1    4    4    0    0 -0.62687585799E+02  0.55696252485E+02 -0.55682665153E+02  0.10065965007E+03  0.00000000000E+00 0.  1.
         12    1    4    4    0    0  0.14697043261E+01  0.21156002611E+02  0.22753031419E+02  0.31103647953E+02  0.00000000000E+00 0. -1.
         -5    1    5    5    0  502  0.28593543506E+02 -0.52343006030E+02 -0.17192386945E+02  0.62249893006E+02  0.47000000000E+01 0.  1.
         13    1    6    6    0    0  0.32260795427E+02  0.47346474057E+01  0.85499721447E+02  0.91506164684E+02  0.00000000000E+00 0. -1.
        -14    1    6    6    0    0  0.95460999377E+02  0.14032931489E+02  0.33365523861E+02  0.10209301519E+03  0.00000000000E+00 0.  1.
</event>
<event>
12    1  0.1040325E-001  0.2493318E+03  0.7818608E-02  0.1113764E+00
         21   -1    0    0  501  502  0.00000000000E+00  0.00000000000E+00  0.38250212944E+03  0.38250212944E+03  0.00000000000E+00 0. -1.
         21   -1    0    0  502  503 -0.00000000000E+00 -0.00000000000E+00 -0.17016884337E+03  0.17016884337E+03  0.00000000000E+00 0.  1.
         -6    2    1    2    0  503  0.11689684629E+03  0.13780520707E+03  0.16534821978E+03  0.29917618515E+03  0.17178826562E+03 0.  0.
        -24    2    3    3    0    0  0.24122865515E+02  0.64830013203E+01  0.87424111917E+02  0.12043953580E+03  0.78985849955E+02 0.  0.
          6    2    1    2  501    0 -0.11689684629E+03 -0.13780520707E+03  0.46985066286E+02  0.25349478767E+03  0.17145513451E+03 0.  0.
         24    2    5    5    0    0 -0.10725142337E+03 -0.66267833364E+02  0.84555739964E+02  0.17198236198E+03  0.80832951927E+02 0.  0.
          5    1    5    5  501    0 -0.96454229143E+01 -0.71537373710E+02 -0.37570673678E+02  0.81512425686E+02  0.47000000000E+01 0. -1.
        -13    1    6    6    0    0  0.65193918770E+01 -0.16454794914E+02 -0.55412348260E+01  0.18546375104E+02  0.00000000000E+00 0.  1.
         14    1    6    6    0    0 -0.11377081525E+03 -0.49813038450E+02  0.90096974790E+02  0.15343598688E+03  0.00000000000E+00 0. -1.
         -5    1    3    3    0  503  0.92773980772E+02  0.13132220575E+03  0.77924107860E+02  0.17873664934E+03  0.47000000000E+01 0.  1.
         13    1    4    4    0    0  0.13620544657E+02  0.21047519414E+02  0.96931925176E+02  0.10012150333E+03  0.00000000000E+00 0. -1.
        -14    1    4    4    0    0  0.10502320858E+02 -0.14564518093E+02 -0.95078132590E+01  0.20318032475E+02  0.00000000000E+00 0.  1.
</event>
<event>
12    1  0.1040325E-001  0.1843251E+03  0.7818608E-02  0.1163688E+00
         21   -1    0    0  503  502  0.00000000000E+00  0.00000000000E+00  0.43871524132E+03  0.43871524132E+03  0.00000000000E+00 0.  1.
         21   -1    0    0  501  503 -0.00000000000E+00 -0.00000000000E+00 -0.77881938209E+02  0.77881938209E+02  0.00000000000E+00 0. -1.
          6    2    1    2  501    0  0.13211867373E+02  0.65892942784E+02  0.20001732924E+03  0.27198007033E+03  0.17160942081E+03 0.  0.
         24    2    3    3    0    0  0.35545913177E+02 -0.23066305355E+02  0.82012215377E+02  0.12244795227E+03  0.80448313583E+02 0.  0.
         -6    2    1    2    0  502 -0.13211867373E+02 -0.65892942784E+02  0.16081597387E+03  0.24461710920E+03  0.17163717347E+03 0.  0.
        -24    2    5    5    0    0 -0.16804698664E+02 -0.11082618597E+03  0.13602294844E+03  0.19295775487E+03  0.78521406433E+02 0.  0.
          5    1    3    3  501    0 -0.22334045804E+02  0.88959248139E+02  0.11800511387E+03  0.14953211806E+03  0.47000000000E+01 0. -1.
        -13    1    4    4    0    0  0.11218483670E+02 -0.17081078439E+02  0.92907519256E+02  0.95128464462E+02  0.00000000000E+00 0.  1.
         14    1    4    4    0    0  0.24327429507E+02 -0.59852269161E+01 -0.10895303879E+02  0.27319487811E+02  0.00000000000E+00 0. -1.
         -5    1    5    5    0  502  0.35928312912E+01  0.44933243188E+02  0.24793025426E+02  0.51659354331E+02  0.47000000000E+01 0.  1.
         11    1    6    6    0    0  0.25163869090E+02 -0.65618910247E+02  0.46605761557E+02  0.84327686437E+02  0.00000000000E+00 0. -1.
        -12    1    6    6    0    0 -0.41968567754E+02 -0.45207275725E+02  0.89417186884E+02  0.10863006843E+03  0.00000000000E+00 0.  1.
</event>
<event>
12    1  0.1040325E-001  0.2199611E+03  0.7818608E-02  0.1134038E+00
         21   -1    0    0  503  502  0.00000000000E+00  0.00000000000E+00  0.19468798395E+04  0.19468798395E+04  0.00000000000E+00 0. -1.
         21   -1    0    0  501  503 -0.00000000000E+00 -0.00000000000E+00 -0.36642021738E+02  0.36642021738E+02  0.00000000000E+00 0.  1.
          6    2    1    2  501    0 -0.14278273854E+02  0.13372180902E+03  0.39172120392E+03  0.44925313833E+03  0.17406174016E+03 0.  0.
         24    2    3    3    0    0  0.28243671874E+02  0.14738282796E+03  0.34372699490E+03  0.38352435159E+03  0.80145357080E+02 0.  0.
         -6    2    1    2    0  502  0.14278273854E+02 -0.13372180902E+03  0.15185166138E+04  0.15342687229E+04  0.17321205578E+03 0.  0.
        -24    2    5    5    0    0 -0.24925297123E+01 -0.16474391309E+03  0.12067318833E+04  0.12204607577E+04  0.78586598394E+02 0.  0.
          5    1    3    3  501    0 -0.42521945727E+02 -0.13661018941E+02  0.47994209024E+02  0.65728786744E+02  0.47000000000E+01 0. -1.
        -13    1    4    4    0    0 -0.29424983060E+01  0.13058568200E+03  0.30034070678E+03  0.32751460851E+03  0.00000000000E+00 0.  1.
         14    1    4    4    0    0  0.31186170180E+02  0.16797145955E+02  0.43386288122E+02  0.56009743079E+02  0.00000000000E+00 0. -1.
         -5    1    5    5    0  502  0.16770803566E+02  0.31022104070E+02  0.31178473056E+03  0.31380796517E+03  0.47000000000E+01 0.  1.
         13    1    6    6    0    0  0.32974433944E+02 -0.79279116426E+02  0.71111571224E+03  0.71628070460E+03  0.00000000000E+00 0. -1.
        -14    1    6    6    0    0 -0.35466963656E+02 -0.85464796662E+02  0.49561617104E+03  0.50418005314E+03  0.00000000000E+00 0.  1.
</event>
<event>
12    1  0.1040325E-001  0.2074031E+03  0.7818608E-02  0.1143907E+00
         21   -1    0    0  503  502  0.00000000000E+00  0.00000000000E+00  0.23933164052E+03  0.23933164052E+03  0.00000000000E+00 0.  1.
         21   -1    0    0  501  503 -0.00000000000E+00 -0.00000000000E+00 -0.19676895841E+03  0.19676895841E+03  0.00000000000E+00 0.  1.
          6    2    1    2  501    0 -0.11046090357E+03 -0.24230660782E+02 -0.45064803654E+02  0.21094589917E+03  0.17227477967E+03 0.  0.
         24    2    3    3    0    0 -0.30690883696E+01 -0.61235777691E+01 -0.26127434595E+02  0.10030421456E+03  0.96599043018E+02 0.  0.
         -6    2    1    2    0  502  0.11046090357E+03  0.24230660782E+02  0.87627485755E+02  0.22515469976E+03  0.17386007714E+03 0.  0.
        -24    2    5    5    0    0  0.29191533476E+02  0.43409342478E+00 -0.20357936445E+02  0.87845091424E+02  0.80311770291E+02 0.  0.
          5    1    3    3  501    0 -0.10739181520E+03 -0.18107083013E+02 -0.18937369059E+02  0.11064168461E+03  0.47000000000E+01 0. -1.
        -11    1    4    4    0    0  0.10843854618E+02 -0.47599331280E+02  0.99958909452E+00  0.48829137814E+02  0.00000000000E+00 0.  1.
         12    1    4    4    0    0 -0.13912942988E+02  0.41475753511E+02 -0.27127023689E+02  0.51475076747E+02  0.00000000000E+00 0. -1.
         -5    1    5    5    0  502  0.81269370090E+02  0.23796567357E+02  0.10798542220E+03  0.13730960833E+03  0.47000000000E+01 0.  1.
         11    1    6    6    0    0  0.45796712282E+02  0.27347109768E+02 -0.82097557471E+01  0.53968540446E+02  0.00000000000E+00 0. -1.
        -12    1    6    6    0    0 -0.16605178806E+02 -0.26913016343E+02 -0.12148180698E+02  0.33876550978E+02  0.00000000000E+00 0.  1.
</event>
<event>
12    1  0.1040325E-001  0.2507754E+03  0.7818608E-02  0.1112888E+00
         21   -1    0    0  501  502  0.00000000000E+00  0.00000000000E+00  0.68068185431E+03  0.68068185431E+03  0.00000000000E+00 0.  1.
         21   -1    0    0  502  503 -0.00000000000E+00 -0.00000000000E+00 -0.95433217972E+02  0.95433217972E+02  0.00000000000E+00 0.  1.
         -6    2    1    2    0  503 -0.18173066636E+03  0.14424894565E+02  0.22115888924E+03  0.33401818318E+03  0.17153069616E+03 0.  0.
        -24    2    3    3    0    0 -0.11236382548E+03 -0.51339507063E+02  0.96283808365E+02  0.17668862156E+03  0.81773608060E+02 0.  0.
          6    2    1    2  501    0  0.18173066636E+03 -0.14424894565E+02  0.36408974710E+03  0.44209688911E+03  0.17220395679E+03 0.  0.
         24    2    5    5    0    0  0.15360299746E+03 -0.71628657926E+02  0.26277229809E+03  0.32230226579E+03  0.78134015815E+02 0.  0.
          5    1    5    5  501    0  0.28127668901E+02  0.57203763361E+02  0.10131744902E+03  0.11979462332E+03  0.47000000000E+01 0. -1.
        -13    1    6    6    0    0  0.98825922811E+02 -0.12399742049E+02  0.18572047843E+03  0.21074252711E+03  0.00000000000E+00 0.  1.
         14    1    6    6    0    0  0.54777074645E+02 -0.59228915878E+02  0.77051819652E+02  0.11155973868E+03  0.00000000000E+00 0. -1.
         -5    1    3    3    0  503 -0.69366840882E+02  0.65764401628E+02  0.12487508087E+03  0.15732956162E+03  0.47000000000E+01 0.  1.
         13    1    4    4    0    0 -0.11024166153E+02 -0.35787578134E+02  0.54162679055E+02  0.65847390156E+02  0.00000000000E+00 0. -1.
        -14    1    4    4    0    0 -0.10133965932E+03 -0.15551928929E+02  0.42121129311E+02  0.11084123141E+03  0.00000000000E+00 0.  1.
</event>
<event>
12    1  0.1040325E-001  0.1743014E+03  0.7818608E-02  0.1173642E+00
         21   -1    0    0  501  502  0.00000000000E+00  0.00000000000E+00  0.67319958475E+03  0.67319958475E+03  0.00000000000E+00 0.  1.
         21   -1    0    0  502  503 -0.00000000000E+00 -0.00000000000E+00 -0.59269840012E+02  0.59269840012E+02  0.00000000000E+00 0.  1.
         -6    2    1    2    0  503 -0.23955658620E+02  0.97198803637E+01  0.12620076498E+03  0.21453069242E+03  0.17154718084E+03 0.  0.
        -24    2    3    3    0    0  0.24507885834E+02  0.15483589504E+02  0.13876878100E+03  0.16391468200E+03  0.82285298712E+02 0.  0.
          6    2    1    2  501    0  0.23955658620E+02 -0.97198803637E+01  0.48772897975E+03  0.51793873234E+03  0.17237349887E+03 0.  0.
         24    2    5    5    0    0  0.66478001738E+02  0.70661001442E+01  0.19495601855E+03  0.22158081425E+03  0.81369242264E+02 0.  0.
          5    1    5    5  501    0 -0.42522343117E+02 -0.16785980508E+02  0.29277296120E+03  0.29635791809E+03  0.47000000000E+01 0. -1.
        -11    1    6    6    0    0  0.48334210577E+02  0.42795463364E+02  0.10776571490E+03  0.12562283592E+03  0.00000000000E+00 0.  1.
         12    1    6    6    0    0  0.18143791160E+02 -0.35729363220E+02  0.87190303655E+02  0.95957978330E+02  0.00000000000E+00 0. -1.
         -5    1    3    3    0  503 -0.48463544454E+02 -0.57637091405E+01 -0.12568016015E+02  0.50616010418E+02  0.47000000000E+01 0.  1.
         13    1    4    4    0    0  0.15681001037E+02  0.44040594003E+02  0.42740450653E+02  0.63342038455E+02  0.00000000000E+00 0. -1.
        -14    1    4    4    0    0  0.88268847970E+01 -0.28557004498E+02  0.96028330346E+02  0.10057264355E+03  0.00000000000E+00 0.  1.
</event>
<event>
12    1  0.1040325E-001  0.2370243E+03  0.7818608E-02  0.1122431E+00
         21   -1    0    0  501  502  0.00000000000E+00  0.00000000000E+00  0.16890838618E+03  0.16890838618E+03  0.00000000000E+00 0.  1.
         21   -1    0    0  502  503 -0.00000000000E+00 -0.00000000000E+00 -0.34733987747E+03  0.34733987747E+03  0.00000000000E+00 0.  1.
         -6    2    1    2    0  503 -0.15971406304E+03 -0.22966053607E+02 -0.15043184220E+03  0.27757592529E+03  0.16847146228E+03 0.  0.
        -24    2    3    3    0    0 -0.76241279701E+02  0.49475145324E+01 -0.14840440179E+03  0.18941089051E+03  0.89528812914E+02 0.  0.
          6    2    1    2  501    0  0.15971406304E+03  0.22966053607E+02 -0.27999649086E+02  0.23867233836E+03  0.17362166684E+03 0.  0.
         24    2    5    5    0    0  0.16715140931E+03  0.61278111230E+02 -0.96771156946E+01  0.19530261264E+03  0.79717396999E+02 0.  0.
          5    1    5    5  501    0 -0.74373462745E+01 -0.38312057623E+02 -0.18322533391E+02  0.43369725717E+02  0.47000000000E+01 0. -1.
        -13    1    6    6    0    0  0.10122655522E+03  0.14768946258E+01 -0.26662076057E+02  0.10468936431E+03  0.00000000000E+00 0.  1.
         14    1    6    6    0    0  0.65924854090E+02  0.59801216604E+02  0.16984960363E+02  0.90613248328E+02  0.00000000000E+00 0. -1.
         -5    1    3    3    0  503 -0.83472783336E+02 -0.27913568139E+02 -0.20274404116E+01  0.88165034786E+02  0.47000000000E+01 0.  1.
         11    1    4    4    0    0  0.19127435404E+02  0.10814038900E+02 -0.31919329225E+02  0.38751074832E+02  0.00000000000E+00 0. -1.
        -12    1    4    4    0    0 -0.95368715105E+02 -0.58665243674E+01 -0.11648507256E+03  0.15065981567E+03  0.00000000000E+00 0.  1.
</event>
<event>
12    1  0.1040325E-001  0.2190281E+03  0.7818608E-02  0.1135024E+00
         21   -1    0    0  503  502  0.00000000000E+00  0.00000000000E+00  0.15399782455E+03  0.15399782455E+03  0.00000000000E+00 0.  1.
         21   -1    0    0  501  503 -0.00000000000E+00 -0.00000000000E+00 -0.32634790300E+03  0.32634790300E+03  0.00000000000E+00 0. -1.
          6    2    1    2  501    0  0.32926391440E+02 -0.12806227236E+03 -0.29438789767E+02  0.21881761898E+03  0.17184415957E+03 0.  0.
         24    2    3    3    0    0 -0.48346472964E+02 -0.70099305063E+02 -0.18696705775E+02  0.11830659255E+03  0.79972426589E+02 0.  0.
         -6    2    1    2    0  502 -0.32926391440E+02  0.12806227236E+03 -0.14291128869E+03  0.26152810857E+03  0.17461163272E+03 0.  0.
        -24    2    5    5    0    0  0.22909966641E+02  0.12426555366E+03 -0.14042182048E+03  0.20531066102E+03  0.80420056351E+02 0.  0.
          5    1    3    3  501    0  0.81272864403E+02 -0.57962967300E+02 -0.10742083992E+02  0.10051102644E+03  0.47000000000E+01 0. -1.
        -13    1    4    4    0    0  0.14804107407E+02 -0.21156502914E+02  0.16877853229E+02  0.30848357189E+02  0.00000000000E+00 0.  1.
         14    1    4    4    0    0 -0.63150580371E+02 -0.48942802149E+02 -0.35574559004E+02  0.87458235357E+02  0.00000000000E+00 0. -1.
         -5    1    5    5    0  502 -0.55836358081E+02  0.37967186996E+01 -0.24894682095E+01  0.56217447546E+02  0.47000000000E+01 0.  1.
         13    1    6    6    0    0 -0.23195012621E+02  0.85450287171E+02 -0.94830216215E+02  0.12974024085E+03  0.00000000000E+00 0. -1.
        -14    1    6    6    0    0  0.46104979263E+02  0.38815266493E+02 -0.45591604266E+02  0.75570420174E+02  0.00000000000E+00 0.  1.
</event>
<event>
12    1  0.1040325E-001  0.1853173E+03  0.7818608E-02  0.1162883E+00
         21   -1    0    0  503  502  0.00000000000E+00  0.00000000000E+00  0.41631455072E+03  0.41631455072E+03  0.00000000000E+00 0.  1.
         21   -1    0    0  501  503 -0.00000000000E+00 -0.00000000000E+00 -0.24548034659E+03  0.24548034659E+03  0.00000000000E+00 0.  1.
          6    2    1    2  501    0 -0.41900091726E+01  0.69737871163E+02 -0.18437008113E+03  0.26140931414E+03  0.17164374691E+03 0.  0.
         24    2    3    3    0    0  0.51829141830E+02  0.38371045554E+02 -0.16549726804E+03  0.19432506784E+03  0.78830762915E+02 0.  0.
         -6    2    1    2    0  502  0.41900091726E+01 -0.69737871163E+02  0.35520428526E+03  0.40038558317E+03  0.17104854309E+03 0.  0.
        -24    2    5    5    0    0 -0.30588708711E+01 -0.10461977139E+03  0.18891608447E+03  0.23025872184E+03  0.79844466030E+02 0.  0.
          5    1    3    3  501    0 -0.56019151002E+02  0.31366825609E+02 -0.18872813089E+02  0.67084246300E+02  0.47000000000E+01 0. -1.
        -11    1    4    4    0    0  0.48148605130E+02  0.34982767601E+02 -0.17431062362E+03  0.18419086761E+03  0.00000000000E+00 0.  1.
         12    1    4    4    0    0  0.36805367001E+01  0.33882779535E+01  0.88133555728E+01  0.10134200232E+02  0.00000000000E+00 0. -1.
         -5    1    5    5    0  502  0.72488800437E+01  0.34881900224E+02  0.16628820079E+03  0.17012686134E+03  0.47000000000E+01 0.  1.
         11    1    6    6    0    0 -0.36850881135E+02 -0.43810851854E+02  0.55188418604E+02  0.79518172317E+02  0.00000000000E+00 0. -1.
        -12    1    6    6    0    0  0.33792010264E+02 -0.60808919533E+02  0.13372766586E+03  0.15074054952E+03  0.00000000000E+00 0.  1.
</event>
<event>
12    1  0.1040325E-001  0.1822295E+03  0.7818608E-02  0.1165750E+00
         21   -1    0    0  501  502  0.00000000000E+00  0.00000000000E+00  0.13901490492E+04  0.13901490492E+04  0.00000000000E+00 0.  1.
         21   -1    0    0  502  503 -0.00000000000E+00 -0.00000000000E+00 -0.23966760835E+02  0.23966760835E+02  0.00000000000E+00 0.  1.
         -6    2    1    2    0  503  0.58294310535E+02  0.38830972783E+01  0.63233372139E+03  0.65806802786E+03  0.17261022275E+03 0.  0.
        -24    2    3    3    0    0  0.45869417952E+01 -0.53340819312E+02  0.25475546367E+03  0.27239136433E+03  0.80189937349E+02 0.  0.
          6    2    1    2  501    0 -0.58294310535E+02 -0.38830972783E+01  0.73384856701E+03  0.75604778222E+03  0.17222434381E+03 0.  0.
         24    2    5    5    0    0  0.27156739793E+02 -0.19333937167E+02  0.48413256461E+03  0.49162240085E+03  0.78720742229E+02 0.  0.
          5    1    5    5  501    0 -0.85451050327E+02  0.15450839889E+02  0.24971600241E+03  0.26442538137E+03  0.47000000000E+01 0. -1.
        -11    1    6    6    0    0  0.33387953881E+02  0.21863750961E+02  0.16382364161E+03  0.16861484105E+03  0.00000000000E+00 0.  1.
         12    1    6    6    0    0 -0.62312140877E+01 -0.41197688128E+02  0.32030892300E+03  0.32300755980E+03  0.00000000000E+00 0. -1.
         -5    1    3    3    0  503  0.53707368739E+02  0.57223916591E+02  0.37757825772E+03  0.38567666353E+03  0.47000000000E+01 0.  1.
         11    1    4    4    0    0 -0.12288558124E+02  0.18446469464E+02  0.47773298405E+02  0.52664683963E+02  0.00000000000E+00 0. -1.
        -12    1    4    4    0    0  0.16875499919E+02 -0.71787288776E+02  0.20698216527E+03  0.21972668037E+03  0.00000000000E+00 0.  1.
</event>
<event>
12    1  0.1040325E-001  0.1841574E+03  0.7818608E-02  0.1164144E+00
         21   -1    0    0  501  502  0.00000000000E+00  0.00000000000E+00  0.42036394121E+03  0.42036394121E+03  0.00000000000E+00 0. -1.
         21   -1    0    0  502  503 -0.00000000000E+00 -0.00000000000E+00 -0.20333732231E+03  0.20333732231E+03  0.00000000000E+00 0. -1.
         -6    2    1    2    0  503  0.13089067818E+02 -0.64605735865E+02 -0.13440400348E+03  0.22694263152E+03  0.17056757326E+03 0.  0.
        -24    2    3    3    0    0 -0.17234750518E+02 -0.99352431607E+01 -0.14141758571E+03  0.16385794981E+03  0.80341449358E+02 0.  0.
          6    2    1    2  501    0 -0.13089067818E+02  0.64605735865E+02  0.35143062238E+03  0.39675863200E+03  0.17195553180E+03 0.  0.
         24    2    5    5    0    0 -0.48906769133E+02 -0.40473777611E+01  0.26344276547E+03  0.27945513375E+03  0.79276905632E+02 0.  0.
          5    1    5    5  501    0  0.35817701316E+02  0.68653113626E+02  0.87987856909E+02  0.11730349825E+03  0.47000000000E+01 0. -1.
        -13    1    6    6    0    0 -0.32366044537E+02  0.28413094570E+02  0.66899708575E+02  0.79564035779E+02  0.00000000000E+00 0.  1.
         14    1    6    6    0    0 -0.16540724597E+02 -0.32460472331E+02  0.19654305690E+03  0.19989109797E+03  0.00000000000E+00 0. -1.
         -5    1    3    3    0  503  0.30323818336E+02 -0.54670492704E+02  0.70135822333E+01  0.63084681712E+02  0.47000000000E+01 0.  1.
         11    1    4    4    0    0  0.72169215196E+01 -0.26422703448E+02 -0.12897182374E+03  0.13184830121E+03  0.00000000000E+00 0. -1.
        -12    1    4    4    0    0 -0.24451672038E+02  0.16487460288E+02 -0.12445761971E+02  0.32009648595E+02  0.00000000000E+00 0.  1.
</event>
<event>
12    1  0.1040325E-001  0.2142453E+03  0.7818608E-02  0.1138347E+00
         21   -1    0    0  501  502  0.00000000000E+00  0.00000000000E+00  0.96422554359E+02  0.96422554359E+02  0.00000000000E+00 0.  1.
         21   -1    0    0  502  503 -0.00000000000E+00 -0.00000000000E+00 -0.50708768109E+03  0.50708768109E+03  0.00000000000E+00 0. -1.
         -6    2    1    2    0  503 -0.11752957515E+03 -0.48019550501E+02 -0.28159779573E+03  0.35383378434E+03  0.17257447700E+03 0.  0.
        -24    2    3    3    0    0 -0.14178190477E+03 -0.23921355459E+01 -0.22867103585E+03  0.27971652319E+03  0.76439910228E+02 0.  0.
          6    2    1    2  501    0  0.11752957515E+03  0.48019550501E+02 -0.12906733100E+03  0.24967645111E+03  0.17193276606E+03 0.  0.
         24    2    5    5    0    0  0.66270400560E+02  0.81945289468E+02 -0.13353536932E+03  0.18786615981E+03  0.79719525130E+02 0.  0.
          5    1    5    5  501    0  0.51259174587E+02 -0.33925738966E+02  0.44680383251E+01  0.61810291297E+02  0.47000000000E+01 0. -1.
        -13    1    6    6    0    0  0.39384287146E+02  0.44385121652E+02 -0.15819309587E+02  0.61411820148E+02  0.00000000000E+00 0.  1.
         14    1    6    6    0    0  0.26886113413E+02  0.37560167816E+02 -0.11771605973E+03  0.12645433966E+03  0.00000000000E+00 0. -1.
         -5    1    3    3    0  503  0.24252329628E+02 -0.45627414955E+02 -0.52926759881E+02  0.74117261143E+02  0.47000000000E+01 0.  1.
         11    1    4    4    0    0  0.71138496791E+01 -0.44743206831E+00 -0.33370731951E+02  0.34123493427E+02  0.00000000000E+00 0. -1.
        -12    1    4    4    0    0 -0.14889575445E+03 -0.19447034776E+01 -0.19530030390E+03  0.24559302977E+03  0.00000000000E+00 0.  1.
</event>
<event>
12    1  0.1040325E-001  0.1886369E+03  0.7818608E-02  0.1160340E+00
         21   -1    0    0  501  502  0.00000000000E+00  0.00000000000E+00  0.15267102629E+04  0.15267102629E+04  0.00000000000E+00 0. -1.
         21   -1    0    0  502  503 -0.00000000000E+00 -0.00000000000E+00 -0.23727658522E+02  0.23727658522E+02  0.00000000000E+00 0. -1.
         -6    2    1    2    0  503  0.75591644110E+02 -0.12704152269E+02  0.88525206488E+03  0.90454713977E+03  0.16928915363E+03 0.  0.
        -24    2    3    3    0    0  0.10320706444E+03  0.17451068172E+02  0.78044043773E+03  0.79194378304E+03  0.84447858007E+02 0.  0.
          6    2    1    2  501    0 -0.75591644110E+02  0.12704152269E+02  0.61773053950E+03  0.64589078166E+03  0.17236122028E+03 0.  0.
         24    2    5    5    0    0 -0.46501364762E+02 -0.35216347934E+02  0.54423988505E+03  0.55334033604E+03  0.81153600818E+02 0.  0.
          5    1    5    5  501    0 -0.29090279348E+02  0.47920500204E+02  0.73490654448E+02  0.92550445615E+02  0.47000000000E+01 0. -1.
        -13    1    6    6    0    0 -0.55255147201E+02 -0.99275142500E+01  0.48617214539E+03  0.48940273986E+03  0.00000000000E+00 0.  1.
         14    1    6    6    0    0  0.87537824386E+01 -0.25288833685E+02  0.58067739661E+02  0.63937596181E+02  0.00000000000E+00 0. -1.
         -5    1    3    3    0  503 -0.27615420328E+02 -0.30155220441E+02  0.10481162715E+03  0.11260335673E+03  0.47000000000E+01 0.  1.
         13    1    4    4    0    0  0.59735428179E+02  0.44286755176E+01  0.66815816487E+03  0.67083773585E+03  0.00000000000E+00 0. -1.
        -14    1    4    4    0    0  0.43471636258E+02  0.13022392654E+02  0.11228227285E+03  0.12110604719E+03  0.00000000000E+00 0.  1.
</event>
<event>
12    1  0.1040325E-001  0.2124958E+03  0.7818608E-02  0.1139642E+00
         21   -1    0    0  501  502  0.00000000000E+00  0.00000000000E+00  0.52617474358E+02  0.52617474358E+02  0.00000000000E+00 0.  1.
         21   -1    0    0  502  503 -0.00000000000E+00 -0.00000000000E+00 -0.19369383547E+04  0.19369383547E+04  0.00000000000E+00 0.  1.
         -6    2    1    2    0  503  0.11773393316E+03 -0.36398685030E+02 -0.16850001513E+04  0.16983462423E+04  0.17311356206E+03 0.  0.
        -24    2    3    3    0    0  0.78372728587E+02 -0.10691075539E+02 -0.51387984194E+03  0.52627326900E+03  0.81452305240E+02 0.  0.
          6    2    1    2  501    0 -0.11773393316E+03  0.36398685030E+02 -0.19932072903E+03  0.29120958681E+03  0.17288182998E+03 0.  0.
         24    2    5    5    0    0 -0.44819725423E+01 -0.14592953346E+02 -0.11430591909E+03  0.14062485426E+03  0.80476481844E+02 0.  0.
          5    1    5    5  501    0 -0.11325196062E+03  0.50991638376E+02 -0.85014809942E+02  0.15058473255E+03  0.47000000000E+01 0. -1.
        -13    1    6    6    0    0 -0.41683963077E+02 -0.16001988836E+02 -0.60342115304E+02  0.75065220334E+02  0.00000000000E+00 0.  1.
         14    1    6    6    0    0  0.37201990534E+02  0.14090354899E+01 -0.53963803788E+02  0.65559633922E+02  0.00000000000E+00 0. -1.
         -5    1    3    3    0  503  0.39361204573E+02 -0.25707609491E+02 -0.11711203094E+04  0.11720729733E+04  0.47000000000E+01 0.  1.
         11    1    4    4    0    0 -0.50243012148E+01 -0.27636617970E+02 -0.14611998514E+03  0.14879541765E+03  0.00000000000E+00 0. -1.
        -12    1    4    4    0    0  0.83397029802E+02  0.16945542431E+02 -0.36775985680E+03  0.37747785135E+03  0.00000000000E+00 0.  1.
</event>
<event>
12    1  0.1040325E-001  0.2785512E+03  0.7818608E-02  0.1096723E+00
         21   -1    0    0  501  502  0.00000000000E+00  0.00000000000E+00  0.23603644495E+03  0.23603644495E+03  0.00000000000E+00 0. -1.
         21   -1    0    0  502  503 -0.00000000000E+00 -0.00000000000E+00 -0.35197080791E+03  0.35197080791E+03  0.00000000000E+00 0. -1.
         -6    2    1    2    0  503 -0.21524330386E+03  0.37242721289E+02 -0.13695486905E+03  0.31039880722E+03  0.17284120811E+03 0.  0.
        -24    2    3    3    0    0 -0.11205079005E+03  0.38803336979E+02 -0.14813043405E+03  0.20648483471E+03  0.81438829579E+02 0.  0.
          6    2    1    2  501    0  0.21524330386E+03 -0.37242721289E+02  0.21020506089E+02  0.27760844564E+03  0.17002319626E+03 0.  0.
         24    2    5    5    0    0  0.23205658962E+03 -0.51250500289E+02  0.56013814255E+01  0.25042860281E+03  0.78779661488E+02 0.  0.
          5    1    5    5  501    0 -0.16813285761E+02  0.14007779000E+02  0.15419124664E+02  0.27179842825E+02  0.47000000000E+01 0. -1.
        -11    1    6    6    0    0  0.69872873633E+02 -0.31727277575E+02 -0.31435777008E+02  0.82927960834E+02  0.00000000000E+00 0.  1.
         12    1    6    6    0    0  0.16218371599E+03 -0.19523222715E+02  0.37037158433E+02  0.16750064198E+03  0.00000000000E+00 0. -1.
         -5    1    3    3    0  503 -0.10319251382E+03 -0.15606156902E+01  0.11175565006E+02  0.10391397251E+03  0.47000000000E+01 0.  1.
         13    1    4    4    0    0 -0.89644298528E+02  0.58177355379E+02 -0.84294156044E+02  0.13611101969E+03  0.00000000000E+00 0. -1.
        -14    1    4    4    0    0 -0.22406491518E+02 -0.19374018399E+02 -0.63836278010E+02  0.70373815026E+02  0.00000000000E+00 0.  1.
</event>
<event>
12    1  0.1040325E-001  0.1731162E+03  0.7818608E-02  0.1174668E+00
         21   -1    0    0  501  502  0.00000000000E+00  0.00000000000E+00  0.14342035024E+03  0.14342035024E+03  0.00000000000E+00 0. -1.
         21   -1    0    0  502  503 -0.00000000000E+00 -0.00000000000E+00 -0.22632468983E+03  0.22632468983E+03  0.00000000000E+00 0. -1.
         -6    2    1    2    0  503 -0.14486275103E+02 -0.38786819286E+01 -0.92895771225E+02  0.19646588694E+03  0.17246542865E+03 0.  0.
        -24    2    3    3    0    0 -0.59796283223E+02  0.41653950578E+02 -0.69406933843E+02  0.12790910069E+03  0.78947884635E+02 0.  0.
          6    2    1    2  501    0  0.14486275103E+02  0.38786819286E+01  0.99914316345E+01  0.17327915313E+03  0.17233960620E+03 0.  0.
         24    2    5    5    0    0  0.60244491022E+02  0.32535972721E+02 -0.24947152329E+02  0.10879776598E+03  0.80787407765E+02 0.  0.
          5    1    5    5  501    0 -0.45758215919E+02 -0.28657290792E+02  0.34938583963E+02  0.64481387152E+02  0.47000000000E+01 0. -1.
        -13    1    6    6    0    0  0.31269852934E+02  0.58240820562E+02 -0.23086211059E+02  0.70019783085E+02  0.00000000000E+00 0.  1.
         14    1    6    6    0    0  0.28974638088E+02 -0.25704847841E+02 -0.18609412695E+01  0.38777982894E+02  0.00000000000E+00 0. -1.
         -5    1    3    3    0  503  0.45310008120E+02 -0.45532632506E+02 -0.23488837382E+02  0.68556786246E+02  0.47000000000E+01 0.  1.
         13    1    4    4    0    0 -0.18710623394E+02  0.55150993240E+02 -0.18485209134E+02  0.61101738436E+02  0.00000000000E+00 0. -1.
        -14    1    4    4    0    0 -0.41085659829E+02 -0.13497042663E+02 -0.50921724709E+02  0.66807362256E+02  0.00000000000E+00 0.  1.
</event>
<event>
12    1  0.1040325E-001  0.1928199E+03  0.7818608E-02  0.1156227E+00
         21   -1    0    0  503  502  0.00000000000E+00  0.00000000000E+00  0.52612231809E+02  0.52612231809E+02  0.00000000000E+00 0.  1.
         21   -1    0    0  501  503 -0.00000000000E+00 -0.00000000000E+00 -0.70734623540E+03  0.70734623540E+03  0.00000000000E+00 0.  1.
          6    2    1    2  501    0 -0.50180252705E+02  0.66088996035E+02 -0.29317725781E+03  0.35019905079E+03  0.17262866946E+03 0.  0.
         24    2    3    3    0    0 -0.35407537007E+02  0.80996052513E+02 -0.96043900514E+02  0.15189598975E+03  0.77678225234E+02 0.  0.
         -6    2    1    2    0  502  0.50180252705E+02 -0.66088996035E+02 -0.36155674579E+03  0.40975941642E+03  0.17405081374E+03 0.  0.
        -24    2    5    5    0    0  0.92791217003E+02 -0.78772881323E+02 -0.21896238792E+03  0.26032108092E+03  0.70761296336E+02 0.  0.
          5    1    3    3  501    0 -0.14772715698E+02 -0.14907056478E+02 -0.19713335729E+03  0.19830306104E+03  0.47000000000E+01 0. -1.
        -11    1    4    4    0    0 -0.36836447757E+02  0.24983389815E+02 -0.47274356369E+01  0.44759829063E+02  0.00000000000E+00 0.  1.
         12    1    4    4    0    0  0.14289107499E+01  0.56012662697E+02 -0.91316464877E+02  0.10713616068E+03  0.00000000000E+00 0. -1.
         -5    1    5    5    0  502 -0.42610964298E+02  0.12683885288E+02 -0.14259435786E+03  0.14943833551E+03  0.47000000000E+01 0.  1.
         13    1    6    6    0    0  0.56581507437E+02 -0.18859684471E+02 -0.15267829551E+03  0.16391405248E+03  0.00000000000E+00 0. -1.
        -14    1    6    6    0    0  0.36209709566E+02 -0.59913196852E+02 -0.66284092416E+02  0.96407028434E+02  0.00000000000E+00 0.  1.
</event>
<event>
12    1  0.1040325E-001  0.2177080E+03  0.7818608E-02  0.1135876E+00
         21   -1    0    0  503  502  0.00000000000E+00  0.00000000000E+00  0.14132965446E+04  0.14132965446E+04  0.00000000000E+00 0. -1.
         21   -1    0    0  501  503 -0.00000000000E+00 -0.00000000000E+00 -0.34092705814E+02  0.34092705814E+02  0.00000000000E+00 0.  1.
          6    2    1    2  501    0  0.13356219482E+03  0.17320660375E+02  0.80112978669E+03  0.83018412874E+03  0.17104937102E+03 0.  0.
         24    2    3    3    0    0  0.13390718402E+03  0.63652713585E+02  0.67040422256E+03  0.69141078372E+03  0.81389485385E+02 0.  0.
         -6    2    1    2    0  502 -0.13356219482E+03 -0.17320660375E+02  0.57807405209E+03  0.61720512167E+03  0.16921491469E+03 0.  0.
        -24    2    5    5    0    0 -0.15977428428E+03 -0.14883345740E+02  0.41163614446E+03  0.44863264102E+03  0.77958933179E+02 0.  0.
          5    1    3    3  501    0 -0.34498919754E+00 -0.46332053210E+02  0.13072556412E+03  0.13877334502E+03  0.47000000000E+01 0. -1.
        -11    1    4    4    0    0  0.71816729494E+01  0.32650409594E+02  0.21881416986E+03  0.22135326202E+03  0.00000000000E+00 0.  1.
         12    1    4    4    0    0  0.12672551107E+03  0.31002303990E+02  0.45159005270E+03  0.47005752170E+03  0.00000000000E+00 0. -1.
         -5    1    5    5    0  502  0.26212089462E+02 -0.24373146354E+01  0.16643790762E+03  0.16857248064E+03  0.47000000000E+01 0.  1.
         13    1    6    6    0    0 -0.57420254748E+01 -0.30655223365E+01  0.10574128466E+03  0.10594143460E+03  0.00000000000E+00 0. -1.
        -14    1    6    6    0    0 -0.15403225881E+03 -0.11817823403E+02  0.30589485980E+03  0.34269120642E+03  0.00000000000E+00 0.  1.
</event>
<event>
12    1  0.1040325E-001  0.3187800E+03  0.7818608E-02  0.1076846E+00
         21   -1    0    0  503  502  0.00000000000E+00  0.00000000000E+00  0.90620054957E+03  0.90620054957E+03  0.00000000000E+00 0. -1.
         21   -1    0    0  501  503 -0.00000000000E+00 -0.00000000000E+00 -0.49918633178E+03  0.49918633178E+03  0.00000000000E+00 0.  1.
          6    2    1    2  501    0  0.22927043258E+03 -0.13929245383E+03 -0.41714364149E+03  0.52172583973E+03  0.16193120530E+03 0.  0.
         24    2    3    3    0    0  0.92820795865E+02 -0.11305482402E+03 -0.14376916262E+03  0.21502955302E+03  0.64583613806E+02 0.  0.
         -6    2    1    2    0  502 -0.22927043258E+03  0.13929245383E+03  0.82415785929E+03  0.88366104163E+03  0.17220145328E+03 0.  0.
        -24    2    5    5    0    0 -0.24455042485E+03  0.12645574798E+03  0.80841326681E+03  0.85781067658E+03  0.80691885669E+02 0.  0.
          5    1    3    3  501    0  0.13644963672E+03 -0.26237629801E+02 -0.27337447888E+03  0.30669628671E+03  0.47000000000E+01 0. -1.
        -13    1    4    4    0    0  0.37649674379E+02 -0.67444614848E+02 -0.11354533007E+03  0.13732740452E+03  0.00000000000E+00 0.  1.
         14    1    4    4    0    0  0.55171121486E+02 -0.45610209177E+02 -0.30223832549E+02  0.77702148497E+02  0.00000000000E+00 0. -1.
         -5    1    5    5    0  502  0.15279992268E+02  0.12836705845E+02  0.15744592484E+02  0.25850365049E+02  0.47000000000E+01 0.  1.
         11    1    6    6    0    0 -0.20449879253E+03  0.12865665040E+03  0.62523046246E+03  0.67028756592E+03  0.00000000000E+00 0. -1.
        -12    1    6    6    0    0 -0.40051632319E+02 -0.22009024233E+01  0.18318280434E+03  0.18752311065E+03  0.00000000000E+00 0.  1.
</event>
<event>
12    1  0.1040325E-001  0.1789654E+03  0.7818608E-02  0.1170290E+00
         21   -1    0    0  503  502  0.00000000000E+00  0.00000000000E+00  0.28593701604E+03  0.28593701604E+03  0.00000000000E+00 0.  1.
         21   -1    0    0  501  503 -0.00000000000E+00 -0.00000000000E+00 -0.15266514485E+03  0.15266514485E+03  0.00000000000E+00 0. -1.
          6    2    1    2  501    0  0.44448777883E+02 -0.22579345272E+02  0.18403296141E+03  0.25257716558E+03  0.16565498180E+03 0.  0.
         24    2    3    3    0    0 -0.12819493095E+02 -0.81133379966E+00  0.17205346377E+03  0.18997445359E+03  0.79516670922E+02 0.  0.
         -6    2    1    2    0  502 -0.44448777883E+02  0.22579345272E+02 -0.50761090219E+02  0.18602499531E+03  0.17188103419E+03 0.  0.
        -24    2    5    5    0    0  0.40523742297E+02  0.57706476619E+01 -0.11143892113E+02  0.90660044273E+02  0.80122301714E+02 0.  0.
          5    1    3    3  501    0  0.57268270977E+02 -0.21768011472E+02  0.11979497636E+02  0.62602711985E+02  0.47000000000E+01 0. -1.
        -13    1    4    4    0    0  0.15994281460E+02 -0.33408178113E+02  0.78482653812E+02  0.86783929121E+02  0.00000000000E+00 0.  1.
         14    1    4    4    0    0 -0.28813774555E+02  0.32596844314E+02  0.93570809963E+02  0.10319052447E+03  0.00000000000E+00 0. -1.
         -5    1    5    5    0  502 -0.84972520180E+02  0.16808697610E+02 -0.39617198106E+02  0.95364951040E+02  0.47000000000E+01 0.  1.
         13    1    6    6    0    0  0.42807263318E+02 -0.83265325905E+01 -0.39545809676E+02  0.58869890442E+02  0.00000000000E+00 0. -1.
        -14    1    6    6    0    0 -0.22835210201E+01  0.14097180252E+02  0.28401917563E+02  0.31790153831E+02  0.00000000000E+00 0.  1.
</event>
<event>
12    1  0.1040325E-001  0.2230172E+03  0.7818608E-02  0.1131710E+00
         21   -1    0    0  501  502  0.00000000000E+00  0.00000000000E+00  0.10751041355E+03  0.10751041355E+03  0.00000000000E+00 0.  1.
         21   -1    0    0  502  503 -0.00000000000E+00 -0.00000000000E+00 -0.55640350682E+03  0.55640350682E+03  0.00000000000E+00 0.  1.
         -6    2    1    2    0  503  0.12444702089E+03 -0.68569399844E+02 -0.36132451176E+03  0.42460814438E+03  0.17189488029E+03 0.  0.
        -24    2    3    3    0    0  0.57716366499E+02 -0.95343714182E+02 -0.15721619937E+03  0.20815459894E+03  0.78675287867E+02 0.  0.
          6    2    1    2  501    0 -0.12444702089E+03  0.68569399844E+02 -0.87568581511E+02  0.23930577600E+03  0.17149394845E+03 0.  0.
         24    2    5    5    0    0 -0.13112430640E+03  0.37043751975E+02 -0.11569196601E+03  0.19627709520E+03  0.81081710714E+02 0.  0.
          5    1    5    5  501    0  0.66772855104E+01  0.31525647870E+02  0.28123384501E+02  0.43028680797E+02  0.47000000000E+01 0. -1.
        -11    1    6    6    0    0 -0.77872793766E+02 -0.20120447410E+02 -0.59095078785E+02  0.99805975519E+02  0.00000000000E+00 0.  1.
         12    1    6    6    0    0 -0.53251512634E+02  0.57164199385E+02 -0.56596887227E+02  0.96471119683E+02  0.00000000000E+00 0. -1.
         -5    1    3    3    0  503  0.66730654390E+02  0.26774314338E+02 -0.20410831239E+03  0.21645354543E+03  0.47000000000E+01 0.  1.
         13    1    4    4    0    0  0.69044461035E+02 -0.41130543043E+02 -0.10307953959E+03  0.13070673530E+03  0.00000000000E+00 0. -1.
        -14    1    4    4    0    0 -0.11328094536E+02 -0.54213171140E+02 -0.54136659778E+02  0.77447863642E+02  0.00000000000E+00 0.  1.
</event>
<event>
12    1  0.1040325E-001  0.2243385E+03  0.7818608E-02  0.1133425E+00
         21   -1    0    0  501  502  0.00000000000E+00  0.00000000000E+00  0.27074230901E+03  0.27074230901E+03  0.00000000000E+00 0. -1.
         21   -1    0    0  502  503 -0.00000000000E+00 -0.00000000000E+00 -0.30003296299E+03  0.30003296299E+03  0.00000000000E+00 0. -1.
         -6    2    1    2    0  503  0.15169795379E+02 -0.11730133231E+03 -0.19980227270E+03  0.30041424082E+03  0.19062539877E+03 0.  0.
        -24    2    3    3    0    0 -0.34842329301E+02 -0.13214080887E+03 -0.18987802240E+03  0.24710379697E+03  0.79570357562E+02 0.  0.
          6    2    1    2  501    0 -0.15169795379E+02  0.11730133231E+03  0.17051161871E+03  0.27036103119E+03  0.17329497920E+03 0.  0.
         24    2    5    5    0    0  0.47944190297E+02  0.81795327187E+02  0.15228507837E+03  0.19553891975E+03  0.77817755739E+02 0.  0.
          5    1    5    5  501    0 -0.63113985676E+02  0.35506005126E+02  0.18226540344E+02  0.74822111444E+02  0.47000000000E+01 0. -1.
        -13    1    6    6    0    0  0.58286732815E+01 -0.10918749458E+02  0.39838164920E-01  0.12377160782E+02  0.00000000000E+00 0.  1.
         14    1    6    6    0    0  0.42115517016E+02  0.92714076645E+02  0.15224524021E+03  0.18316175896E+03  0.00000000000E+00 0. -1.
         -5    1    3    3    0  503  0.50012124681E+02  0.14839476558E+02 -0.99242502942E+01  0.53310443850E+02  0.47000000000E+01 0.  1.
         13    1    4    4    0    0 -0.60009335285E+02 -0.89009516717E+02 -0.14113535356E+03  0.17732174828E+03  0.00000000000E+00 0. -1.
        -14    1    4    4    0    0  0.25167005984E+02 -0.43131292155E+02 -0.48742668842E+02  0.69782048687E+02  0.00000000000E+00 0.  1.
</event>
<event>
12    1  0.1040325E-001  0.1728223E+03  0.7818608E-02  0.1175110E+00
         21   -1    0    0  501  502  0.00000000000E+00  0.00000000000E+00  0.99153477180E+03  0.99153477180E+03  0.00000000000E+00 0.  1.
         21   -1    0    0  502  503 -0.00000000000E+00 -0.00000000000E+00 -0.49002384937E+02  0.49002384937E+02  0.00000000000E+00 0.  1.
         -6    2    1    2    0  503  0.10011311118E+02 -0.83133076006E+01  0.14788750995E+03  0.22746044919E+03  0.17233166545E+03 0.  0.
        -24    2    3    3    0    0  0.70642374224E+02  0.11953570218E+02  0.83905551499E+02  0.13689194939E+03  0.81031051819E+02 0.  0.
          6    2    1    2  501    0 -0.10011311118E+02  0.83133076006E+01  0.79464487692E+03  0.81307670754E+03  0.17165055929E+03 0.  0.
         24    2    5    5    0    0  0.45107214077E+02 -0.18277269503E+02  0.64205820596E+03  0.64860819151E+03  0.78007223503E+02 0.  0.
          5    1    5    5  501    0 -0.55118525195E+02  0.26590577104E+02  0.15258667096E+03  0.16446851603E+03  0.47000000000E+01 0. -1.
        -11    1    6    6    0    0  0.14979043888E+02  0.33159233986E+01  0.53670799107E+03  0.53692721554E+03  0.00000000000E+00 0.  1.
         12    1    6    6    0    0  0.30128170189E+02 -0.21593192902E+02  0.10535021489E+03  0.11168097598E+03  0.00000000000E+00 0. -1.
         -5    1    3    3    0  503 -0.60631063106E+02 -0.20266877819E+02  0.63981958446E+02  0.90568499803E+02  0.47000000000E+01 0.  1.
         11    1    4    4    0    0  0.32571180915E+02  0.57639305417E+01  0.91750819218E+02  0.97531110670E+02  0.00000000000E+00 0. -1.
        -12    1    4    4    0    0  0.38071193308E+02  0.61896396764E+01 -0.78452677184E+01  0.39360838721E+02  0.00000000000E+00 0.  1.
</event>
<event>
12    1  0.1040325E-001  0.1875351E+03  0.7818608E-02  0.1161120E+00
         21   -1    0    0  503  502  0.00000000000E+00  0.00000000000E+00  0.18632860087E+03  0.18632860087E+03  0.00000000000E+00 0.  1.
         21   -1    0    0  501  503 -0.00000000000E+00 -0.00000000000E+00 -0.19419219914E+03  0.19419219914E+03  0.00000000000E+00 0.  1.
          6    2    1    2  501    0 -0.75430617383E+01  0.66815496675E+02 -0.40694099524E+02  0.19013368243E+03  0.17312885110E+03 0.  0.
         24    2    3    3    0    0  0.46131937721E+02  0.48863941645E+02  0.21419142122E+02  0.10597069364E+03  0.79089618725E+02 0.  0.
         -6    2    1    2    0  502  0.75430617383E+01 -0.66815496675E+02  0.32830501256E+02  0.19038711758E+03  0.17506628560E+03 0.  0.
        -24    2    5    5    0    0  0.25690050450E+02 -0.54032623727E+02 -0.44347811099E+02  0.10994274589E+03  0.80877536465E+02 0.  0.
          5    1    3    3  501    0 -0.53674999459E+02  0.17951555030E+02 -0.62113241646E+02  0.84162988794E+02  0.47000000000E+01 0. -1.
        -13    1    4    4    0    0  0.13311163800E+02  0.81586349670E+01 -0.29252213839E+02  0.33157841014E+02  0.00000000000E+00 0.  1.
         14    1    4    4    0    0  0.32820773921E+02  0.40705306678E+02  0.50671355960E+02  0.72812852625E+02  0.00000000000E+00 0. -1.
         -5    1    5    5    0  502 -0.18146988711E+02 -0.12782872948E+02  0.77178312355E+02  0.80444371699E+02  0.47000000000E+01 0.  1.
         13    1    6    6    0    0  0.27895437270E+02 -0.63502451672E+02 -0.51425055810E+01  0.69549709938E+02  0.00000000000E+00 0. -1.
        -14    1    6    6    0    0 -0.22053868206E+01  0.94698279445E+01 -0.39205305518E+02  0.40393035948E+02  0.00000000000E+00 0.  1.
</event>
<event>
12    1  0.1040325E-001  0.1772483E+03  0.7818608E-02  0.1171159E+00
         21   -1    0    0  501  502  0.00000000000E+00  0.00000000000E+00  0.61300767055E+03  0.61300767055E+03  0.00000000000E+00 0.  1.
         21   -1    0    0  502  503 -0.00000000000E+00 -0.00000000000E+00 -0.43442120956E+03  0.43442120956E+03  0.00000000000E+00 0.  1.
         -6    2    1    2    0  503 -0.42990044420E+02 -0.14766794739E+02 -0.40297358422E+03  0.44023253304E+03  0.17132066840E+03 0.  0.
        -24    2    3    3    0    0 -0.80659328849E+02 -0.50926241543E+02 -0.26824203906E+03  0.29566019874E+03  0.79760592991E+02 0.  0.
          6    2    1    2  501    0  0.42990044420E+02  0.14766794739E+02  0.58156004521E+03  0.60719634706E+03  0.16855003872E+03 0.  0.
         24    2    5    5    0    0 -0.34800087661E+02 -0.11907656406E+02  0.24379309974E+03  0.25953065930E+03  0.81044736127E+02 0.  0.
          5    1    5    5  501    0  0.77790132081E+02  0.26674451145E+02  0.33776694547E+03  0.34766568776E+03  0.47000000000E+01 0. -1.
        -13    1    6    6    0    0 -0.60631799122E+02 -0.18556759816E+01  0.15247471061E+03  0.16409812910E+03  0.00000000000E+00 0.  1.
         14    1    6    6    0    0  0.25831711461E+02 -0.10051980424E+02  0.91318389128E+02  0.95432530200E+02  0.00000000000E+00 0. -1.
         -5    1    3    3    0  503  0.37669284429E+02  0.36159446803E+02 -0.13473154516E+03  0.14457233430E+03  0.47000000000E+01 0.  1.
         13    1    4    4    0    0 -0.84704226626E+02 -0.18585687404E+02 -0.15266698492E+03  0.17557745319E+03  0.00000000000E+00 0. -1.
        -14    1    4    4    0    0  0.40448977766E+01 -0.32340554139E+02 -0.11557505414E+03  0.12008274555E+03  0.00000000000E+00 0.  1.
</event>
<event>
12    1  0.1040325E-001  0.1919908E+03  0.7818608E-02  0.1157337E+00
         21   -1    0    0  503  502  0.00000000000E+00  0.00000000000E+00  0.25320710696E+03  0.25320710696E+03  0.00000000000E+00 0. -1.
         21   -1    0    0  501  503 -0.00000000000E+00 -0.00000000000E+00 -0.14344595553E+03  0.14344595553E+03  0.00000000000E+00 0. -1.
          6    2    1    2  501    0  0.27815024250E+02 -0.82808765921E+02  0.49473008174E+02  0.19541904904E+03  0.16766054665E+03 0.  0.
         24    2    3    3    0    0  0.28876505095E+02  0.25119989125E+01 -0.17481411329E+02  0.86856882775E+02  0.79989722205E+02 0.  0.
         -6    2    1    2    0  502 -0.27815024250E+02  0.82808765921E+02  0.60288143253E+02  0.20123401346E+03  0.17096637291E+03 0.  0.
        -24    2    5    5    0    0 -0.51431244706E+02 -0.99106207816E+01  0.33070741344E+02  0.10164743050E+03  0.80592387091E+02 0.  0.
          5    1    3    3  501    0 -0.10614808448E+01 -0.85320764833E+02  0.66954419503E+02  0.10856216627E+03  0.47000000000E+01 0. -1.
        -13    1    4    4    0    0  0.38509878911E+02  0.12512145917E+02  0.21237798019E+02  0.45723173926E+02  0.00000000000E+00 0.  1.
         14    1    4    4    0    0 -0.96333738163E+01 -0.10000147005E+02 -0.38719209348E+02  0.41133708849E+02  0.00000000000E+00 0. -1.
         -5    1    5    5    0  502  0.23616220456E+02  0.92719386702E+02  0.27217401909E+02  0.99586582960E+02  0.47000000000E+01 0.  1.
         13    1    6    6    0    0 -0.14287182440E+02  0.34965233787E+02  0.10846191141E+02  0.39297977278E+02  0.00000000000E+00 0. -1.
        -14    1    6    6    0    0 -0.37144062266E+02 -0.44875854568E+02  0.22224550203E+02  0.62349453218E+02  0.00000000000E+00 0.  1.
</event>
<event>
12    1  0.1040325E-001  0.2134315E+03  0.7818608E-02  0.1139308E+00
         21   -1    0    0  501  502  0.00000000000E+00  0.00000000000E+00  0.10923593864E+03  0.10923593864E+03  0.00000000000E+00 0.  1.
         21   -1    0    0  502  503 -0.00000000000E+00 -0.00000000000E+00 -0.43010861661E+03  0.43010861661E+03  0.00000000000E+00 0. -1.
         -6    2    1    2    0  503 -0.86024403463E+02 -0.87726647446E+02 -0.21388053890E+03  0.30059717964E+03  0.17180691728E+03 0.  0.
        -24    2    3    3    0    0 -0.61572220433E+02 -0.55970341450E+01 -0.17914007971E+03  0.20801115402E+03  0.85761336957E+02 0.  0.
          6    2    1    2  501    0  0.86024403463E+02  0.87726647446E+02 -0.10699213908E+03  0.23874737561E+03  0.17451884962E+03 0.  0.
         24    2    5    5    0    0  0.11199777919E+03  0.69174360857E+02 -0.32003555970E+02  0.15711293937E+03  0.79571687032E+02 0.  0.
          5    1    5    5  501    0 -0.25973375732E+02  0.18552286589E+02 -0.74988583108E+02  0.81634436245E+02  0.47000000000E+01 0. -1.
        -13    1    6    6    0    0  0.14085649268E+01  0.38753182281E+02 -0.35613956897E+01  0.38941966197E+02  0.00000000000E+00 0.  1.
         14    1    6    6    0    0  0.11058921427E+03  0.30421178576E+02 -0.28442160280E+02  0.11817097317E+03  0.00000000000E+00 0. -1.
         -5    1    3    3    0  503 -0.24452183030E+02 -0.82129613301E+02 -0.34740459191E+02  0.92586025623E+02  0.47000000000E+01 0.  1.
         11    1    4    4    0    0 -0.33217663590E+02  0.46099093635E+01 -0.17429064434E+03  0.17748772673E+03  0.00000000000E+00 0. -1.
        -12    1    4    4    0    0 -0.28354556843E+02 -0.10206943508E+02 -0.48494353737E+01  0.30523427281E+02  0.00000000000E+00 0.  1.
</event>
<event>
12    1  0.1040325E-001  0.1887297E+03  0.7818608E-02  0.1159917E+00
         21   -1    0    0  503  502  0.00000000000E+00  0.00000000000E+00  0.55289349581E+03  0.55289349581E+03  0.00000000000E+00 0.  1.
         21   -1    0    0  501  503 -0.00000000000E+00 -0.00000000000E+00 -0.63967582545E+02  0.63967582545E+02  0.00000000000E+00 0. -1.
          6    2    1    2  501    0  0.74080461362E+02  0.17903889214E+02  0.24490848935E+03  0.30919097687E+03  0.17265696633E+03 0.  0.
         24    2    3    3    0    0  0.32455512370E+02  0.68059076618E+02  0.20450566393E+03  0.23236222247E+03  0.80524764247E+02 0.  0.
         -6    2    1    2    0  502 -0.74080461362E+02 -0.17903889214E+02  0.24401742392E+03  0.30767010148E+03  0.17119557285E+03 0.  0.
        -24    2    5    5    0    0  0.23976559620E+02  0.80631329181E+01  0.78508871525E+02  0.11349328382E+03  0.77956353430E+02 0.  0.
          5    1    3    3  501    0  0.41624948992E+02 -0.50155187404E+02  0.40402825416E+02  0.76828754407E+02  0.47000000000E+01 0. -1.
        -11    1    4    4    0    0  0.51377586108E+01 -0.16723114937E+02  0.61002780220E+02  0.63461786386E+02  0.00000000000E+00 0.  1.
         12    1    4    4    0    0  0.27317753759E+02  0.84782191555E+02  0.14350288371E+03  0.16890043608E+03  0.00000000000E+00 0. -1.
         -5    1    5    5    0  502 -0.98057020982E+02 -0.25967022132E+02  0.16550855239E+03  0.19417681766E+03  0.47000000000E+01 0.  1.
         11    1    6    6    0    0 -0.97898464070E+01 -0.29701865573E+02  0.31329753438E+02  0.44267317082E+02  0.00000000000E+00 0. -1.
        -12    1    6    6    0    0  0.33766406027E+02  0.37764998492E+02  0.47179118088E+02  0.69225966736E+02  0.00000000000E+00 0.  1.
</event>
<event>
12    1  0.1040325E-001  0.2581151E+03  0.7818608E-02  0.1108571E+00
         21   -1    0    0  503  502  0.00000000000E+00  0.00000000000E+00  0.56678311828E+02  0.56678311828E+02  0.00000000000E+00 0.  1.
         21   -1    0    0  501  503 -0.00000000000E+00 -0.00000000000E+00 -0.15203626822E+04  0.15203626822E+04  0.00000000000E+00 0. -1.
          6    2    1    2  501    0  0.11934019686E+03 -0.14960581362E+03 -0.11100121092E+04  0.11391968564E+04  0.17034850496E+03 0.  0.
         24    2    3    3    0    0  0.84587479904E+02 -0.13998868983E+02 -0.41809627685E+03  0.43324600560E+03  0.74475462842E+02 0.  0.
         -6    2    1    2    0  502 -0.11934019686E+03  0.14960581362E+03 -0.35367226122E+03  0.43784413762E+03  0.17320345965E+03 0.  0.
        -24    2    5    5    0    0 -0.73696960067E+02  0.45742721654E+02 -0.79393810676E+02  0.14099130308E+03  0.77791592503E+02 0.  0.
          5    1    3    3  501    0  0.34752716954E+02 -0.13560694463E+03 -0.69191583230E+03  0.70595085081E+03  0.47000000000E+01 0. -1.
        -13    1    4    4    0    0  0.88697817818E+02 -0.14067517662E+02 -0.25957439974E+03  0.27467083379E+03  0.00000000000E+00 0.  1.
         14    1    4    4    0    0 -0.41103379137E+01  0.68648678840E-01 -0.15852187711E+03  0.15857517181E+03  0.00000000000E+00 0. -1.
         -5    1    5    5    0  502 -0.45643236791E+02  0.10386309196E+03 -0.27427845055E+03  0.29685283453E+03  0.47000000000E+01 0.  1.
         11    1    6    6    0    0 -0.83657561313E+02  0.19247632671E+02 -0.71187903435E+02  0.11152029647E+03  0.00000000000E+00 0. -1.
        -12    1    6    6    0    0  0.99606012467E+01  0.26495088983E+02 -0.82059072412E+01  0.29471006618E+02  0.00000000000E+00 0.  1.
</event>
<event>
12    1  0.1040325E-001  0.2074222E+03  0.7818608E-02  0.1144413E+00
         21   -1    0    0  503  502  0.00000000000E+00  0.00000000000E+00  0.33725027319E+03  0.33725027319E+03  0.00000000000E+00 0.  1.
         21   -1    0    0  501  503 -0.00000000000E+00 -0.00000000000E+00 -0.12961555047E+03  0.12961555047E+03  0.00000000000E+00 0.  1.
          6    2    1    2  501    0 -0.67881354985E+02  0.79492288060E+02  0.61656429404E+02  0.21639198381E+03  0.17915656046E+03 0.  0.
         24    2    3    3    0    0 -0.10267299806E+03  0.10099776444E+03  0.40219823549E+02  0.16997472396E+03  0.80817570033E+02 0.  0.
         -6    2    1    2    0  502  0.67881354985E+02 -0.79492288060E+02  0.14597829332E+03  0.25047383984E+03  0.17464415280E+03 0.  0.
        -24    2    5    5    0    0  0.37821923724E+02  0.76716841379E+00  0.11102722865E+02  0.90603081832E+02  0.81575495835E+02 0.  0.
          5    1    3    3  501    0  0.34791643074E+02 -0.21505476378E+02  0.21436605854E+02  0.46417259856E+02  0.47000000000E+01 0. -1.
        -11    1    4    4    0    0 -0.40168488368E+02  0.72163575099E+01 -0.16236596257E+02  0.43922776910E+02  0.00000000000E+00 0.  1.
         12    1    4    4    0    0 -0.62504509692E+02  0.93781406929E+02  0.56456419806E+02  0.12605194705E+03  0.00000000000E+00 0. -1.
         -5    1    5    5    0  502  0.30059431261E+02 -0.80259456474E+02  0.13487557045E+03  0.15987075801E+03  0.47000000000E+01 0.  1.
         13    1    6    6    0    0  0.28668004334E+00  0.20409273276E+02 -0.26848304384E+02  0.33726133330E+02  0.00000000000E+00 0. -1.
        -14    1    6    6    0    0  0.37535243681E+02 -0.19642104863E+02  0.37951027249E+02  0.56876948502E+02  0.00000000000E+00 0.  1.
</event>
<event>
12    1  0.1040325E-001  0.2982981E+03  0.7818608E-02  0.1086250E+00
         21   -1    0    0  501  502  0.00000000000E+00  0.00000000000E+00  0.16868787028E+03  0.16868787028E+03  0.00000000000E+00 0. -1.
         21   -1    0    0  502  503 -0.00000000000E+00 -0.00000000000E+00 -0.62584521083E+03  0.62584521083E+03  0.00000000000E+00 0. -1.
         -6    2    1    2    0  503 -0.23952329597E+03  0.48882164678E+02 -0.38740111574E+03  0.48818739397E+03  0.16877923988E+03 0.  0.
        -24    2    3    3    0    0 -0.15349564834E+03 -0.13496261860E+02 -0.31335219784E+03  0.35858354951E+03  0.81544459958E+02 0.  0.
          6    2    1    2  501    0  0.23952329597E+03 -0.48882164678E+02 -0.69756224804E+02  0.30634568715E+03  0.17094114133E+03 0.  0.
         24    2    5    5    0    0  0.53272360652E+02 -0.62750654477E+02 -0.64156402303E+02  0.11943609957E+03  0.58080537860E+02 0.  0.
          5    1    5    5  501    0  0.18625093532E+03  0.13868489798E+02 -0.55998225010E+01  0.18690958758E+03  0.47000000000E+01 0. -1.
        -11    1    6    6    0    0  0.56547813431E+02 -0.63056468027E+02 -0.37586755653E+02  0.92663571938E+02  0.00000000000E+00 0.  1.
         12    1    6    6    0    0 -0.32754527791E+01  0.30581355008E+00 -0.26569646650E+02  0.26772527635E+02  0.00000000000E+00 0. -1.
         -5    1    3    3    0  503 -0.86027647633E+02  0.62378426538E+02 -0.74048917906E+02  0.12960384446E+03  0.47000000000E+01 0.  1.
         11    1    4    4    0    0 -0.12673714466E+03  0.70511236631E+01 -0.17506285482E+03  0.21623835303E+03  0.00000000000E+00 0. -1.
        -12    1    4    4    0    0 -0.26758503672E+02 -0.20547385523E+02 -0.13828934301E+03  0.14234519648E+03  0.00000000000E+00 0.  1.
</event>
<event>
12    1  0.1040325E-001  0.1900338E+03  0.7818608E-02  0.1158818E+00
         21   -1    0    0  501  502  0.00000000000E+00  0.00000000000E+00  0.72529769032E+02  0.72529769032E+02  0.00000000000E+00 0. -1.
         21   -1    0    0  502  503 -0.00000000000E+00 -0.00000000000E+00 -0.11332538442E+04  0.11332538442E+04  0.00000000000E+00 0. -1.
         -6    2    1    2    0  503 -0.49929713955E+02  0.61394890912E+02 -0.98232257534E+03  0.10002121031E+04  0.17089265696E+03 0.  0.
        -24    2    3    3    0    0 -0.20190474362E+02  0.40265535662E+02 -0.93938857070E+03  0.94367635530E+03  0.77750936835E+02 0.  0.
          6    2    1    2  501    0  0.49929713955E+02 -0.61394890912E+02 -0.78401499836E+02  0.20557151014E+03  0.17277309292E+03 0.  0.
         24    2    5    5    0    0  0.41686965981E+02 -0.27814717606E+02 -0.11936838349E+03  0.15175751112E+03  0.79183770791E+02 0.  0.
          5    1    5    5  501    0  0.82427479744E+01 -0.33580173306E+02  0.40966883657E+02  0.53813999015E+02  0.47000000000E+01 0. -1.
        -11    1    6    6    0    0 -0.12041889236E+02  0.16733192393E+02 -0.46452833575E+02  0.50821969375E+02  0.00000000000E+00 0.  1.
         12    1    6    6    0    0  0.53728855217E+02 -0.44547909999E+02 -0.72915549917E+02  0.10093554175E+03  0.00000000000E+00 0. -1.
         -5    1    3    3    0  503 -0.29739239594E+02  0.21129355250E+02 -0.42934004642E+02  0.56535747802E+02  0.47000000000E+01 0.  1.
         11    1    4    4    0    0 -0.33733672119E+02  0.43655507907E+02 -0.36756506874E+03  0.37168245016E+03  0.00000000000E+00 0. -1.
        -12    1    4    4    0    0  0.13543197757E+02 -0.33899722445E+01 -0.57182350196E+03  0.57199390513E+03  0.00000000000E+00 0.  1.
</event>
<event>
12    1  0.1040325E-001  0.2321098E+03  0.7818608E-02  0.1125604E+00
         21   -1    0    0  503  502  0.00000000000E+00  0.00000000000E+00  0.15476263804E+03  0.15476263804E+03  0.00000000000E+00 0.  1.
         21   -1    0    0  501  503 -0.00000000000E+00 -0.00000000000E+00 -0.42257998717E+03  0.42257998717E+03  0.00000000000E+00 0. -1.
          6    2    1    2  501    0 -0.14762961372E+03  0.46904733103E+02 -0.25870811955E+03  0.34756990155E+03  0.17285944726E+03 0.  0.
         24    2    3    3    0    0 -0.25013833074E+02  0.16777997381E+02 -0.34663404234E+02  0.90353311240E+02  0.77813727696E+02 0.  0.
         -6    2    1    2    0  502  0.14762961372E+03 -0.46904733103E+02 -0.91092295849E+01  0.22977272366E+03  0.16946377088E+03 0.  0.
        -24    2    5    5    0    0  0.55767034432E+02 -0.64056237961E+02  0.42776678258E+02  0.12278139212E+03  0.77667639963E+02 0.  0.
          5    1    3    3  501    0 -0.12261578064E+03  0.30126735722E+02 -0.22404471532E+03  0.25721659031E+03  0.47000000000E+01 0. -1.
        -11    1    4    4    0    0 -0.28319707277E+02 -0.13751288987E+02 -0.47569622477E+02  0.57043603951E+02  0.00000000000E+00 0.  1.
         12    1    4    4    0    0  0.33058742035E+01  0.30529286368E+02  0.12906218243E+02  0.33309707290E+02  0.00000000000E+00 0. -1.
         -5    1    5    5    0  502  0.91862579285E+02  0.17151504859E+02 -0.51885907843E+02  0.10699133154E+03  0.47000000000E+01 0.  1.
         11    1    6    6    0    0  0.10982144041E+02 -0.59578526288E+02 -0.15319048303E+00  0.60582437635E+02  0.00000000000E+00 0. -1.
        -12    1    6    6    0    0  0.44784890391E+02 -0.44777116732E+01  0.42929868741E+02  0.62198954487E+02  0.00000000000E+00 0.  1.
</event>
<event>
12    1  0.1040325E-001  0.2380863E+03  0.7818608E-02  0.1121253E+00
         21   -1    0    0  503  502  0.00000000000E+00  0.00000000000E+00  0.51617484399E+03  0.51617484399E+03  0.00000000000E+00 0.  1.
         21   -1    0    0  501  503 -0.00000000000E+00 -0.00000000000E+00 -0.11042024513E+03  0.11042024513E+03  0.00000000000E+00 0.  1.
          6    2    1    2  501    0 -0.10637489694E+03  0.12266604361E+03  0.17220032908E+03  0.29383334810E+03  0.17413358714E+03 0.  0.
         24    2    3    3    0    0 -0.92053802420E+02  0.15808356100E+03  0.14609994877E+03  0.24732728250E+03  0.79757600492E+02 0.  0.
         -6    2    1    2    0  502  0.10637489694E+03 -0.12266604361E+03  0.23355426979E+03  0.33276174101E+03  0.17268526976E+03 0.  0.
        -24    2    5    5    0    0  0.25368727838E+01 -0.94431726226E+02  0.90754486878E+02  0.15389480741E+03  0.80767866235E+02 0.  0.
          5    1    3    3  501    0 -0.14321094525E+02 -0.35417517391E+02  0.26100380302E+02  0.46506065609E+02  0.47000000000E+01 0. -1.
        -13    1    4    4    0    0 -0.66041049250E+02  0.38151592579E+02  0.65209655831E+02  0.10034571947E+03  0.00000000000E+00 0.  1.
         14    1    4    4    0    0 -0.26012753170E+02  0.11993196842E+03  0.80890292943E+02  0.14698156303E+03  0.00000000000E+00 0. -1.
         -5    1    5    5    0  502  0.10383802416E+03 -0.28234317383E+02  0.14279978291E+03  0.17886693361E+03  0.47000000000E+01 0.  1.
         11    1    6    6    0    0  0.13353800948E+02 -0.67027650536E+00 -0.93470386552E+01  0.16313810161E+02  0.00000000000E+00 0. -1.
        -12    1    6    6    0    0 -0.10816928164E+02 -0.93761449721E+02  0.10010152553E+03  0.13758099724E+03  0.00000000000E+00 0.  1.
</event>
<event>
12    1  0.1040325E-001  0.2248838E+03  0.7818608E-02  0.1131371E+00
         21   -1    0    0  503  502  0.00000000000E+00  0.00000000000E+00  0.56461657379E+03  0.56461657379E+03  0.00000000000E+00 0.  1.
         21   -1    0    0  501  503 -0.00000000000E+00 -0.00000000000E+00 -0.89434555081E+02  0.89434555081E+02  0.00000000000E+00 0.  1.
          6    2    1    2  501    0  0.86025610194E+02  0.10205809188E+03  0.18954674294E+03  0.29411001391E+03  0.18098749348E+03 0.  0.
         24    2    3    3    0    0  0.11202766506E+02 -0.16383830196E+02  0.90352074876E+02  0.12238750807E+03  0.80132844871E+02 0.  0.
         -6    2    1    2    0  502 -0.86025610194E+02 -0.10205809188E+03  0.28563527577E+03  0.35994111496E+03  0.17364859846E+03 0.  0.
        -24    2    5    5    0    0 -0.98757218695E+02 -0.86764406447E+02  0.29826613231E+03  0.33590740517E+03  0.81179114887E+02 0.  0.
          5    1    3    3  501    0  0.74822843688E+02  0.11844192207E+03  0.99194668067E+02  0.17172250585E+03  0.47000000000E+01 0. -1.
        -11    1    4    4    0    0  0.10536128634E+02  0.10850985497E+02  0.93724122979E+02  0.94936637401E+02  0.00000000000E+00 0.  1.
         12    1    4    4    0    0  0.66663787165E+00 -0.27234815693E+02 -0.33720481025E+01  0.27450870666E+02  0.00000000000E+00 0. -1.
         -5    1    5    5    0  502  0.12731608501E+02 -0.15293685429E+02 -0.12630856544E+02  0.24033709786E+02  0.47000000000E+01 0.  1.
         13    1    6    6    0    0  0.12600195838E+02 -0.11116349093E+02  0.59252586737E+02  0.61589018398E+02  0.00000000000E+00 0. -1.
        -14    1    6    6    0    0 -0.11135741453E+03 -0.75648057354E+02  0.23901354557E+03  0.27431838677E+03  0.00000000000E+00 0.  1.
</event>
<event>
12    1  0.1040325E-001  0.1797868E+03  0.7818608E-02  0.1170982E+00
         21   -1    0    0  501  502  0.00000000000E+00  0.00000000000E+00  0.62571836627E+02  0.62571836627E+02  0.00000000000E+00 0. -1.
         21   -1    0    0  502  503 -0.00000000000E+00 -0.00000000000E+00 -0.62305897329E+03  0.62305897329E+03  0.00000000000E+00 0. -1.
         -6    2    1    2    0  503  0.11082508458E+02 -0.13442510472E+02 -0.45001146116E+03  0.48459632268E+03  0.17894065413E+03 0.  0.
        -24    2    3    3    0    0  0.38838760837E+02 -0.67436490589E+02 -0.22080653063E+03  0.24744078382E+03  0.80095492514E+02 0.  0.
          6    2    1    2  501    0 -0.11082508458E+02  0.13442510472E+02 -0.11047567550E+03  0.20103448724E+03  0.16705228852E+03 0.  0.
         24    2    5    5    0    0  0.13436762194E+02  0.56173617242E+02 -0.11556898304E+03  0.15128336764E+03  0.78704800574E+02 0.  0.
          5    1    5    5  501    0 -0.24519270651E+02 -0.42731106770E+02  0.50933075320E+01  0.49751119592E+02  0.47000000000E+01 0. -1.
        -11    1    6    6    0    0 -0.32436965629E+02  0.14083191344E+02 -0.41187185562E+02  0.54285147804E+02  0.00000000000E+00 0.  1.
         12    1    6    6    0    0  0.45873727822E+02  0.42090425898E+02 -0.74381797475E+02  0.96998219840E+02  0.00000000000E+00 0. -1.
         -5    1    3    3    0  503 -0.27756252379E+02  0.53993980117E+02 -0.22920493053E+03  0.23715553886E+03  0.47000000000E+01 0.  1.
         11    1    4    4    0    0  0.19168681335E+02 -0.47480197966E+02 -0.21195951376E+03  0.21805651336E+03  0.00000000000E+00 0. -1.
        -12    1    4    4    0    0  0.19670079502E+02 -0.19956292624E+02 -0.88470168634E+01  0.29384270457E+02  0.00000000000E+00 0.  1.
</event>
<event>
12    1  0.1040325E-001  0.2261821E+03  0.7818608E-02  0.1129561E+00
         21   -1    0    0  503  502  0.00000000000E+00  0.00000000000E+00  0.25897811623E+03  0.25897811623E+03  0.00000000000E+00 0.  1.
         21   -1    0    0  501  503 -0.00000000000E+00 -0.00000000000E+00 -0.20311454113E+03  0.20311454113E+03  0.00000000000E+00 0.  1.
          6    2    1    2  501    0  0.69196771945E+02 -0.12998865396E+03  0.69533911772E+02  0.23662901468E+03  0.17167726203E+03 0.  0.
         24    2    3    3    0    0  0.10694009988E+03 -0.74675317230E+02  0.22688347157E+02  0.15477108319E+03  0.80166945368E+02 0.  0.
         -6    2    1    2    0  502 -0.69196771945E+02  0.12998865396E+03 -0.13670336676E+02  0.22546364268E+03  0.17018146979E+03 0.  0.
        -24    2    5    5    0    0 -0.91979834360E+02  0.15009577768E+03 -0.22407880558E+02  0.19349805132E+03  0.77138514035E+02 0.  0.
          5    1    3    3  501    0 -0.37743327937E+02 -0.55313336726E+02  0.46845564615E+02  0.81857931489E+02  0.47000000000E+01 0. -1.
        -11    1    4    4    0    0  0.51040766468E+02 -0.24166611314E+02  0.49205410643E+02  0.74902318926E+02  0.00000000000E+00 0.  1.
         12    1    4    4    0    0  0.55899333414E+02 -0.50508705916E+02 -0.26517063486E+02  0.79868764266E+02  0.00000000000E+00 0. -1.
         -5    1    5    5    0  502  0.22783062415E+02 -0.20107123727E+02  0.87375438819E+01  0.31965591355E+02  0.47000000000E+01 0.  1.
         13    1    6    6    0    0 -0.21133781778E+01  0.73140670731E+02 -0.16667073579E+02  0.75045422405E+02  0.00000000000E+00 0. -1.
        -14    1    6    6    0    0 -0.89866456182E+02  0.76955106952E+02 -0.57408069790E+01  0.11845262892E+03  0.00000000000E+00 0.  1.
</event>
<event>
12    1  0.1040325E-001  0.2107100E+03  0.7818608E-02  0.1141838E+00
         21   -1    0    0  501  502  0.00000000000E+00  0.00000000000E+00  0.81620866795E+03  0.81620866795E+03  0.00000000000E+00 0.  1.
         21   -1    0    0  502  503 -0.00000000000E+00 -0.00000000000E+00 -0.66295384054E+02  0.66295384054E+02  0.00000000000E+00 0.  1.
         -6    2    1    2    0  503 -0.76181697210E+02  0.89226426048E+02  0.18279178455E+03  0.27894716913E+03  0.17502479988E+03 0.  0.
        -24    2    3    3    0    0 -0.44748144914E+02  0.93513897049E+02  0.45399842099E+02  0.13786178198E+03  0.78724074172E+02 0.  0.
          6    2    1    2  501    0  0.76181697210E+02 -0.89226426048E+02  0.56712149934E+03  0.60355688287E+03  0.16996796681E+03 0.  0.
         24    2    5    5    0    0  0.67121183279E+02 -0.11555038760E+03  0.54959042912E+03  0.57032328108E+03  0.73224721574E+02 0.  0.
          5    1    5    5  501    0  0.90605139316E+01  0.26323961547E+02  0.17531070226E+02  0.33233601784E+02  0.47000000000E+01 0. -1.
        -13    1    6    6    0    0 -0.98342031164E+01 -0.35484287145E+02  0.20498133241E+03  0.20826231734E+03  0.00000000000E+00 0.  1.
         14    1    6    6    0    0  0.76955386395E+02 -0.80066100450E+02  0.34460909671E+03  0.36206096375E+03  0.00000000000E+00 0. -1.
         -5    1    3    3    0  503 -0.31433552297E+02 -0.42874710014E+01  0.13739194245E+03  0.14108538715E+03  0.47000000000E+01 0.  1.
         11    1    4    4    0    0 -0.16475565356E+01 -0.39809253246E+01 -0.14818144785E+02  0.15431773192E+02  0.00000000000E+00 0. -1.
        -12    1    4    4    0    0 -0.43100588378E+02  0.97494822374E+02  0.60217986884E+02  0.12243000879E+03  0.00000000000E+00 0.  1.
</event>
<event>
12    1  0.1040325E-001  0.2061440E+03  0.7818608E-02  0.1144760E+00
         21   -1    0    0  501  502  0.00000000000E+00  0.00000000000E+00  0.14986496981E+03  0.14986496981E+03  0.00000000000E+00 0. -1.
         21   -1    0    0  502  503 -0.00000000000E+00 -0.00000000000E+00 -0.71704465899E+03  0.71704465899E+03  0.00000000000E+00 0. -1.
         -6    2    1    2    0  503 -0.48843823948E+02 -0.10338290164E+03 -0.62074659146E+03  0.65391954599E+03  0.17091137563E+03 0.  0.
        -24    2    3    3    0    0  0.37167594143E+02 -0.68479291110E+02 -0.35174896912E+03  0.36931800541E+03  0.81225663924E+02 0.  0.
          6    2    1    2  501    0  0.48843823948E+02  0.10338290164E+03  0.53566902284E+02  0.21299008281E+03  0.17152731230E+03 0.  0.
         24    2    5    5    0    0 -0.25623421744E+02  0.16908216232E+02  0.58140396487E+01  0.89193201634E+02  0.83541466606E+02 0.  0.
          5    1    5    5  501    0  0.74467245692E+02  0.86474685413E+02  0.47752862635E+02  0.12379688117E+03  0.47000000000E+01 0. -1.
        -13    1    6    6    0    0 -0.21164176672E+02 -0.32646511498E+02 -0.13227874245E+01  0.38928997595E+02  0.00000000000E+00 0.  1.
         14    1    6    6    0    0 -0.44592450719E+01  0.49554727730E+02  0.71368270732E+01  0.50264204039E+02  0.00000000000E+00 0. -1.
         -5    1    3    3    0  503 -0.86011418091E+02 -0.34903610534E+02 -0.26899762235E+03  0.28460154058E+03  0.47000000000E+01 0.  1.
         13    1    4    4    0    0 -0.16964171020E+02 -0.39899124431E+02 -0.82502780079E+02  0.93201029767E+02  0.00000000000E+00 0. -1.
        -14    1    4    4    0    0  0.54131765163E+02 -0.28580166679E+02 -0.26924618904E+03  0.27611697564E+03  0.00000000000E+00 0.  1.
</event>
<event>
12    1  0.1040325E-001  0.1908212E+03  0.7818608E-02  0.1159898E+00
         21   -1    0    0  501  502  0.00000000000E+00  0.00000000000E+00  0.99458671271E+03  0.99458671271E+03  0.00000000000E+00 0.  1.
         21   -1    0    0  502  503 -0.00000000000E+00 -0.00000000000E+00 -0.17028184150E+03  0.17028184150E+03  0.00000000000E+00 0.  1.
         -6    2    1    2    0  503  0.47722266059E+02  0.33723198593E+02 -0.10942932906E+03  0.21183535895E+03  0.17171130551E+03 0.  0.
        -24    2    3    3    0    0 -0.11836180328E+02 -0.57821165201E+01 -0.20912069265E+01  0.82794896603E+02  0.81713485551E+02 0.  0.
          6    2    1    2  501    0 -0.47722266059E+02 -0.33723198593E+02  0.93373420026E+03  0.95303319526E+03  0.18165364222E+03 0.  0.
         24    2    5    5    0    0  0.39659120176E+02 -0.16584785267E+01  0.57648458766E+03  0.58382725187E+03  0.83331769746E+02 0.  0.
          5    1    5    5  501    0 -0.87381386235E+02 -0.32064720066E+02  0.35724961260E+03  0.36920594339E+03  0.47000000000E+01 0. -1.
        -11    1    6    6    0    0 -0.59129733650E+01  0.21723194101E+02  0.38352647111E+03  0.38418669219E+03  0.00000000000E+00 0.  1.
         12    1    6    6    0    0  0.45572093541E+02 -0.23381672628E+02  0.19295811655E+03  0.19964055968E+03  0.00000000000E+00 0. -1.
         -5    1    3    3    0  503  0.59558446388E+02  0.39505315113E+02 -0.10733812213E+03  0.12904046234E+03  0.47000000000E+01 0.  1.
         11    1    4    4    0    0 -0.16970406310E+02  0.71560596677E+01  0.36983095033E+02  0.41315290130E+02  0.00000000000E+00 0. -1.
        -12    1    4    4    0    0  0.51342259815E+01 -0.12938176188E+02 -0.39074301960E+02  0.41479606473E+02  0.00000000000E+00 0.  1.
</event>
<event>
12    1  0.1040325E-001  0.1856174E+03  0.7818608E-02  0.1163952E+00
         21   -1    0    0  501  502  0.00000000000E+00  0.00000000000E+00  0.15971586363E+03  0.15971586363E+03  0.00000000000E+00 0.  1.
         21   -1    0    0  502  503 -0.00000000000E+00 -0.00000000000E+00 -0.38583952136E+03  0.38583952136E+03  0.00000000000E+00 0.  1.
         -6    2    1    2    0  503 -0.46529405798E+02 -0.24918978118E+02 -0.29900872888E+03  0.35193755970E+03  0.17795472711E+03 0.  0.
        -24    2    3    3    0    0 -0.16101918591E+02  0.16188658886E+02 -0.28770593247E+03  0.29934941460E+03  0.79460833008E+02 0.  0.
          6    2    1    2  501    0  0.46529405798E+02  0.24918978118E+02  0.72885071147E+02  0.19361782529E+03  0.17143420779E+03 0.  0.
         24    2    5    5    0    0  0.10605609428E+02 -0.47829189190E+02  0.57988739135E+02  0.11099333922E+03  0.80973558609E+02 0.  0.
          5    1    5    5  501    0  0.35923796371E+02  0.72748167308E+02  0.14896332012E+02  0.82624486079E+02  0.47000000000E+01 0. -1.
        -11    1    6    6    0    0  0.36737793520E+02 -0.52855081437E+02  0.54131051735E+02  0.84104077597E+02  0.00000000000E+00 0.  1.
         12    1    6    6    0    0 -0.26132184092E+02  0.50258922477E+01  0.38576874007E+01  0.26889261619E+02  0.00000000000E+00 0. -1.
         -5    1    3    3    0  503 -0.30427487208E+02 -0.41107637004E+02 -0.11302796411E+02  0.52588145095E+02  0.47000000000E+01 0.  1.
         11    1    4    4    0    0  0.26343446410E+02  0.72037836357E+01 -0.19605523791E+03  0.19794829623E+03  0.00000000000E+00 0. -1.
        -12    1    4    4    0    0 -0.42445365000E+02  0.89848752499E+01 -0.91650694562E+02  0.10140111837E+03  0.00000000000E+00 0.  1.
</event>
<event>
12    1  0.1040325E-001  0.2291328E+03  0.7818608E-02  0.1127270E+00
         21   -1    0    0  501  502  0.00000000000E+00  0.00000000000E+00  0.20620254660E+02  0.20620254660E+02  0.00000000000E+00 0.  1.
         21   -1    0    0  502  503 -0.00000000000E+00 -0.00000000000E+00 -0.25467413407E+04  0.25467413407E+04  0.00000000000E+00 0.  1.
         -6    2    1    2    0  503  0.11047727872E+03  0.10333461382E+03 -0.12969520872E+04  0.13170370409E+04  0.17210049151E+03 0.  0.
        -24    2    3    3    0    0  0.81253010181E+02  0.13778719820E+03 -0.90147458901E+03  0.91895968663E+03  0.79013336588E+02 0.  0.
          6    2    1    2  501    0 -0.11047727872E+03 -0.10333461382E+03 -0.12291689989E+04  0.12503245545E+04  0.17196450843E+03 0.  0.
         24    2    5    5    0    0  0.49825046699E+01 -0.32351251146E+02 -0.63701466647E+03  0.64283921082E+03  0.79894535850E+02 0.  0.
          5    1    5    5  501    0 -0.11545978339E+03 -0.70983362669E+02 -0.59215433243E+03  0.60748534367E+03  0.47000000000E+01 0. -1.
        -13    1    6    6    0    0 -0.29818836784E+02 -0.10709773947E+02 -0.46221991994E+03  0.46330456147E+03  0.00000000000E+00 0.  1.
         14    1    6    6    0    0  0.34801341454E+02 -0.21641477199E+02 -0.17479474653E+03  0.17953464935E+03  0.00000000000E+00 0. -1.
         -5    1    3    3    0  503  0.29224268543E+02 -0.34452584380E+02 -0.39547749814E+03  0.39807735426E+03  0.47000000000E+01 0.  1.
         11    1    4    4    0    0  0.30078256459E+02  0.11869507682E+03 -0.67286874874E+03  0.68391927579E+03  0.00000000000E+00 0. -1.
        -12    1    4    4    0    0  0.51174753721E+02  0.19092121377E+02 -0.22860584028E+03  0.23504041084E+03  0.00000000000E+00 0.  1.
</event>
<event>
12    1  0.1040325E-001  0.1986217E+03  0.7818608E-02  0.1151068E+00
         21   -1    0    0  501  502  0.00000000000E+00  0.00000000000E+00  0.24273523476E+03  0.24273523476E+03  0.00000000000E+00 0. -1.
         21   -1    0    0  502  503 -0.00000000000E+00 -0.00000000000E+00 -0.19962395302E+03  0.19962395302E+03  0.00000000000E+00 0.  1.
         -6    2    1    2    0  503  0.76689193776E+02 -0.61108460205E+02 -0.74549425870E+02  0.21215130842E+03  0.17272835441E+03 0.  0.
        -24    2    3    3    0    0 -0.46722208653E+00 -0.41213050584E+02 -0.96183779638E+02  0.12945260773E+03  0.76209739194E+02 0.  0.
          6    2    1    2  501    0 -0.76689193776E+02  0.61108460205E+02  0.11766070761E+03  0.23020787936E+03  0.17186084270E+03 0.  0.
         24    2    5    5    0    0 -0.10515611007E+02  0.83008313719E+02  0.10953979061E+03  0.15987590986E+03  0.80996188835E+02 0.  0.
          5    1    5    5  501    0 -0.66173582769E+02 -0.21899853514E+02  0.81209169943E+01  0.70331969496E+02  0.47000000000E+01 0. -1.
        -13    1    6    6    0    0  0.34059894056E+02  0.20761493454E+02  0.36976941676E+02  0.54391269605E+02  0.00000000000E+00 0.  1.
         14    1    6    6    0    0 -0.44575505063E+02  0.62246820265E+02  0.72562848935E+02  0.10548464026E+03  0.00000000000E+00 0. -1.
         -5    1    3    3    0  503  0.77156415863E+02 -0.19895409621E+02  0.21634353768E+02  0.82698700689E+02  0.47000000000E+01 0.  1.
         11    1    4    4    0    0 -0.70560196632E+01  0.21979669616E+02 -0.24377909832E+02  0.33573438574E+02  0.00000000000E+00 0. -1.
        -12    1    4    4    0    0  0.65887975766E+01 -0.63192720200E+02 -0.71805869805E+02  0.95879169157E+02  0.00000000000E+00 0.  1.
</event>
<event>
12    1  0.1040325E-001  0.2080156E+03  0.7818608E-02  0.1143870E+00
         21   -1    0    0  501  502  0.00000000000E+00  0.00000000000E+00  0.23956655410E+03  0.23956655410E+03  0.00000000000E+00 0.  1.
         21   -1    0    0  502  503 -0.00000000000E+00 -0.00000000000E+00 -0.39873201241E+03  0.39873201241E+03  0.00000000000E+00 0. -1.
         -6    2    1    2    0  503 -0.72831696746E+02 -0.86363628145E+02 -0.31759658132E+03  0.37965521269E+03  0.17466356158E+03 0.  0.
        -24    2    3    3    0    0  0.25714490679E+02 -0.54498596652E+02 -0.10162980864E+03  0.14009213501E+03  0.75271881999E+02 0.  0.
          6    2    1    2  501    0  0.72831696746E+02  0.86363628145E+02  0.15843112300E+03  0.25864335382E+03  0.17039023277E+03 0.  0.
         24    2    5    5    0    0  0.56615187567E+02  0.42967496807E+02  0.17868594363E+03  0.20786395698E+03  0.78913071892E+02 0.  0.
          5    1    5    5  501    0  0.16216509179E+02  0.43396131338E+02 -0.20254820625E+02  0.50779396841E+02  0.47000000000E+01 0. -1.
        -11    1    6    6    0    0  0.43979875027E+02  0.65378675611E+02  0.11733445208E+03  0.14133638695E+03  0.00000000000E+00 0.  1.
         12    1    6    6    0    0  0.12635312540E+02 -0.22411178803E+02  0.61351491550E+02  0.66527570027E+02  0.00000000000E+00 0. -1.
         -5    1    3    3    0  503 -0.98546187425E+02 -0.31865031493E+02 -0.21596677268E+03  0.23956307768E+03  0.47000000000E+01 0.  1.
         13    1    4    4    0    0 -0.78834932571E+01 -0.35479675941E+01 -0.71514924116E+02  0.72035560047E+02  0.00000000000E+00 0. -1.
        -14    1    4    4    0    0  0.33597983936E+02 -0.50950629058E+02 -0.30114884526E+02  0.68056574965E+02  0.00000000000E+00 0.  1.
</event>
<event>
12    1  0.1040325E-001  0.1825264E+03  0.7818608E-02  0.1165580E+00
         21   -1    0    0  503  502  0.00000000000E+00  0.00000000000E+00  0.40233810864E+02  0.40233810864E+02  0.00000000000E+00 0. -1.
         21   -1    0    0  501  503 -0.00000000000E+00 -0.00000000000E+00 -0.15019605569E+04  0.15019605569E+04  0.00000000000E+00 0. -1.
          6    2    1    2  501    0 -0.43265076476E+02  0.44570518336E+02 -0.12479025613E+04  0.12610597417E+04  0.17074094925E+03 0.  0.
         24    2    3    3    0    0 -0.45101381368E+02  0.94712113934E+02 -0.89930161446E+03  0.90883500982E+03  0.78950377987E+02 0.  0.
         -6    2    1    2    0  502  0.43265076476E+02 -0.44570518336E+02 -0.21382418477E+03  0.28113462607E+03  0.17163186778E+03 0.  0.
        -24    2    5    5    0    0 -0.30973381964E+02 -0.40376625794E+02 -0.17024674806E+03  0.19482112518E+03  0.79885501128E+02 0.  0.
          5    1    3    3  501    0  0.18363048918E+01 -0.50141595598E+02 -0.34860094681E+03  0.35222473188E+03  0.47000000000E+01 0. -1.
        -13    1    4    4    0    0 -0.94474412886E+01 -0.80269183662E+01 -0.26179191314E+02  0.28966111634E+02  0.00000000000E+00 0.  1.
         14    1    4    4    0    0 -0.35653940079E+02  0.10273903230E+03 -0.87312242315E+03  0.87986889819E+03  0.00000000000E+00 0. -1.
         -5    1    5    5    0  502  0.74238458440E+02 -0.41938925420E+01 -0.43577436708E+02  0.86313500893E+02  0.47000000000E+01 0.  1.
         13    1    6    6    0    0 -0.21324714480E+02 -0.64819049476E+02 -0.11704594551E+03  0.13548433851E+03  0.00000000000E+00 0. -1.
        -14    1    6    6    0    0 -0.96486674839E+01  0.24442423682E+02 -0.53200802552E+02  0.59336786666E+02  0.00000000000E+00 0.  1.
</event>
<event>
12    1  0.1040325E-001  0.1858351E+03  0.7818608E-02  0.1162360E+00
         21   -1    0    0  503  502  0.00000000000E+00  0.00000000000E+00  0.58560377266E+02  0.58560377266E+02  0.00000000000E+00 0. -1.
         21   -1    0    0  501  503 -0.00000000000E+00 -0.00000000000E+00 -0.72068656114E+03  0.72068656114E+03  0.00000000000E+00 0.  1.
          6    2    1    2  501    0 -0.13323020597E+02 -0.65165471674E+02 -0.49763461067E+03  0.53106927201E+03  0.17311939339E+03 0.  0.
         24    2    3    3    0    0  0.16892671637E+02  0.22474453687E+02 -0.31583213570E+03  0.32694192333E+03  0.79690776562E+02 0.  0.
         -6    2    1    2    0  502  0.13323020597E+02  0.65165471674E+02 -0.16449157321E+03  0.24817766639E+03  0.17352416219E+03 0.  0.
        -24    2    5    5    0    0 -0.60772419799E+01  0.34422358843E+02 -0.18654932238E+03  0.20539749022E+03  0.78521638112E+02 0.  0.
          5    1    3    3  501    0 -0.30215692234E+02 -0.87639925362E+02 -0.18180247497E+03  0.20412734868E+03  0.47000000000E+01 0. -1.
        -13    1    4    4    0    0 -0.22084906080E+02 -0.12854376566E+02 -0.52279396415E+02  0.58190320183E+02  0.00000000000E+00 0.  1.
         14    1    4    4    0    0  0.38977577717E+02  0.35328830253E+02 -0.26355273928E+03  0.26875160315E+03  0.00000000000E+00 0. -1.
         -5    1    5    5    0  502  0.19400262577E+02  0.30743112832E+02  0.22057749172E+02  0.42780176170E+02  0.47000000000E+01 0.  1.
         11    1    6    6    0    0  0.50754337178E+01  0.11145774903E+02  0.41716445614E+01  0.12937965217E+02  0.00000000000E+00 0. -1.
        -12    1    6    6    0    0 -0.11152675698E+02  0.23276583940E+02 -0.19072096694E+03  0.19245952501E+03  0.00000000000E+00 0.  1.
</event>
<event>
12    1  0.1040325E-001  0.1920638E+03  0.7818608E-02  0.1156655E+00
         21   -1    0    0  503  502  0.00000000000E+00  0.00000000000E+00  0.12080136701E+04  0.12080136701E+04  0.00000000000E+00 0.  1.
         21   -1    0    0  501  503 -0.00000000000E+00 -0.00000000000E+00 -0.38489505738E+02  0.38489505738E+02  0.00000000000E+00 0. -1.
          6    2    1    2  501    0  0.49153166116E+02 -0.69308347287E+02  0.30068901202E+03  0.35669251471E+03  0.17203484345E+03 0.  0.
         24    2    3    3    0    0 -0.13701257078E+02 -0.63340313072E+02  0.88604635463E+02  0.13535980424E+03  0.79194541931E+02 0.  0.
         -6    2    1    2    0  502 -0.49153166116E+02  0.69308347287E+02  0.86883515237E+03  0.88981066116E+03  0.17224636416E+03 0.  0.
        -24    2    5    5    0    0  0.32138739510E+01  0.41631414850E+02  0.21526639126E+03  0.23354658704E+03  0.80379633137E+02 0.  0.
          5    1    3    3  501    0  0.62854423194E+02 -0.59680342147E+01  0.21208437655E+03  0.22133271047E+03  0.47000000000E+01 0. -1.
        -11    1    4    4    0    0 -0.25723306902E+00 -0.53422216295E+02  0.10120130184E+03  0.11443645773E+03  0.00000000000E+00 0.  1.
         12    1    4    4    0    0 -0.13444024009E+02 -0.99180967771E+01 -0.12596666379E+02  0.20923346508E+02  0.00000000000E+00 0. -1.
         -5    1    5    5    0  502 -0.52367040067E+02  0.27676932436E+02  0.65356876112E+03  0.65626407412E+03  0.47000000000E+01 0.  1.
         13    1    6    6    0    0  0.80906300593E+01 -0.14778243203E+02  0.79350986925E+01  0.18623118917E+02  0.00000000000E+00 0. -1.
        -14    1    6    6    0    0 -0.48767561083E+01  0.56409658054E+02  0.20733129257E+03  0.21492346812E+03  0.00000000000E+00 0.  1.
</event>
<event>
12    1  0.1040325E-001  0.1835900E+03  0.7818608E-02  0.1165309E+00
         21   -1    0    0  503  502  0.00000000000E+00  0.00000000000E+00  0.18805282245E+04  0.18805282245E+04  0.00000000000E+00 0.  1.
         21   -1    0    0  501  503 -0.00000000000E+00 -0.00000000000E+00 -0.18019085161E+02  0.18019085161E+02  0.00000000000E+00 0.  1.
          6    2    1    2  501    0 -0.38293643704E+02 -0.35405538100E+02  0.78665831470E+03  0.80779736019E+03  0.17602646325E+03 0.  0.
         24    2    3    3    0    0 -0.31606286964E+02  0.10725463587E+02  0.72643097904E+03  0.73149393944E+03  0.79167058721E+02 0.  0.
         -6    2    1    2    0  502  0.38293643704E+02  0.35405538100E+02  0.10758508246E+04  0.10907499495E+04  0.17193167284E+03 0.  0.
        -24    2    5    5    0    0  0.38065388258E+02  0.53577186278E+02  0.10627951186E+04  0.10678850777E+04  0.80781102707E+02 0.  0.
          5    1    3    3  501    0 -0.66873567398E+01 -0.46131001687E+02  0.60227335664E+02  0.76303420749E+02  0.47000000000E+01 0. -1.
        -11    1    4    4    0    0 -0.95514943221E+01  0.44533450188E+02  0.38197183385E+03  0.38467771066E+03  0.00000000000E+00 0.  1.
         12    1    4    4    0    0 -0.22054792642E+02 -0.33807986601E+02  0.34445914519E+03  0.34681622878E+03  0.00000000000E+00 0. -1.
         -5    1    5    5    0  502  0.22825544563E+00 -0.18171648178E+02  0.13055706073E+02  0.22864871727E+02  0.47000000000E+01 0.  1.
         11    1    6    6    0    0 -0.14273320961E+02  0.38507253332E+02  0.25789678464E+03  0.26114610427E+03  0.00000000000E+00 0. -1.
        -12    1    6    6    0    0  0.52338709219E+02  0.15069932946E+02  0.80489833391E+03  0.80673897346E+03  0.00000000000E+00 0.  1.
</event>
<event>
12    1  0.1040325E-001  0.3062736E+03  0.7818608E-02  0.1082245E+00
         21   -1    0    0  503  502  0.00000000000E+00  0.00000000000E+00  0.31519172670E+03  0.31519172670E+03  0.00000000000E+00 0. -1.
         21   -1    0    0  501  503 -0.00000000000E+00 -0.00000000000E+00 -0.29753923697E+03  0.29753923697E+03  0.00000000000E+00 0. -1.
          6    2    1    2  501    0  0.24219121641E+03 -0.67955024781E+02 -0.62496904038E+01  0.30552612527E+03  0.17329940535E+03 0.  0.
         24    2    3    3    0    0  0.17945094505E+03 -0.72596567327E+02 -0.66046898342E+02  0.21860270124E+03  0.77149497361E+02 0.  0.
         -6    2    1    2    0  502 -0.24219121641E+03  0.67955024781E+02  0.23902180134E+02  0.30720483840E+03  0.17472557861E+03 0.  0.
        -24    2    5    5    0    0 -0.18245586790E+03  0.24607820942E+02 -0.45752160803E+02  0.20561197864E+03  0.79292729553E+02 0.  0.
          5    1    3    3  501    0  0.62740271366E+02  0.46415425462E+01  0.59797207938E+02  0.86923424032E+02  0.47000000000E+01 0.  1.
        -13    1    4    4    0    0  0.21867966733E+01 -0.10553715559E+02  0.11186641256E+02  0.15533960680E+02  0.00000000000E+00 0.  1.
         14    1    4    4    0    0  0.17726414838E+03 -0.62042851768E+02 -0.77233539598E+02  0.20306874056E+03  0.00000000000E+00 0. -1.
         -5    1    5    5    0  502 -0.59735348517E+02  0.43347203839E+02  0.69654340937E+02  0.10159285976E+03  0.47000000000E+01 0.  1.
         13    1    6    6    0    0 -0.72518558297E+02  0.41338817635E+02  0.44716128736E+01  0.83593268046E+02  0.00000000000E+00 0. -1.
        -14    1    6    6    0    0 -0.10993730960E+03 -0.16730996692E+02 -0.50223773676E+02  0.12201871059E+03  0.00000000000E+00 0.  1.
</event>
<event>
12    1  0.1040325E-001  0.2456410E+03  0.7818608E-02  0.1116137E+00
         21   -1    0    0  503  502  0.00000000000E+00  0.00000000000E+00  0.29943936296E+03  0.29943936296E+03  0.00000000000E+00 0. -1.
         21   -1    0    0  501  503 -0.00000000000E+00 -0.00000000000E+00 -0.31004820405E+03  0.31004820405E+03  0.00000000000E+00 0.  1.
          6    2    1    2  501    0 -0.12148176517E+03  0.12630935069E+03 -0.18581002941E+03  0.30800138162E+03  0.17212673445E+03 0.  0.
         24    2    3    3    0    0 -0.65757209634E+02  0.13731551277E+02 -0.14890384682E+03  0.17699320125E+03  0.68129814118E+02 0.  0.
         -6    2    1    2    0  502  0.12148176517E+03 -0.12630935069E+03  0.17520118832E+03  0.30148618539E+03  0.17171660449E+03 0.  0.
        -24    2    5    5    0    0  0.13234167362E+02 -0.78206526124E+02  0.13292036949E+03  0.17562442868E+03  0.82974161106E+02 0.  0.
          5    1    3    3  501    0 -0.55724555532E+02  0.11257779941E+03 -0.36906182582E+02  0.13100818036E+03  0.47000000000E+01 0. -1.
        -13    1    4    4    0    0 -0.23188145350E+01  0.29711982947E+02 -0.38864791048E+02  0.48976022855E+02  0.00000000000E+00 0.  1.
         14    1    4    4    0    0 -0.63438395099E+02 -0.15980431670E+02 -0.11003905578E+03  0.12801717840E+03  0.00000000000E+00 0. -1.
         -5    1    5    5    0  502  0.10824759780E+03 -0.48102824564E+02  0.42280818831E+02  0.12586175671E+03  0.47000000000E+01 0.  1.
         11    1    6    6    0    0 -0.50594931095E+01 -0.49005081197E+02  0.13142457603E+02  0.50988436390E+02  0.00000000000E+00 0. -1.
        -12    1    6    6    0    0  0.18293660471E+02 -0.29201444927E+02  0.11977791189E+03  0.12463599229E+03  0.00000000000E+00 0.  1.
</event>
<event>
12    1  0.1040325E-001  0.2568927E+03  0.7818608E-02  0.1109042E+00
         21   -1    0    0  503  502  0.00000000000E+00  0.00000000000E+00  0.79283680593E+03  0.79283680593E+03  0.00000000000E+00 0.  1.
         21   -1    0    0  501  503 -0.00000000000E+00 -0.00000000000E+00 -0.83295416843E+02  0.83295416843E+02  0.00000000000E+00 0. -1.
          6    2    1    2  501    0  0.11491405548E+03  0.15212458973E+03  0.36950904115E+03  0.44996807344E+03  0.17200931567E+03 0.  0.
         24    2    3    3    0    0  0.12477105852E+03  0.16603998596E+03  0.37060275654E+03  0.43224563076E+03  0.79704379903E+02 0.  0.
         -6    2    1    2    0  502 -0.11491405548E+03 -0.15212458973E+03  0.34003234793E+03  0.42616414933E+03  0.17218232658E+03 0.  0.
        -24    2    5    5    0    0 -0.79212885313E+02 -0.15360899516E+03  0.33972198869E+03  0.39012301542E+03  0.83153670785E+02 0.  0.
          5    1    3    3  501    0 -0.98570030482E+01 -0.13915396230E+02 -0.10937153835E+01  0.17722442683E+02  0.47000000000E+01 0. -1.
        -13    1    4    4    0    0  0.11620675566E+03  0.95583528183E+02  0.27053152798E+03  0.30956021797E+03  0.00000000000E+00 0.  1.
         14    1    4    4    0    0  0.85643028674E+01  0.70456457774E+02  0.10007122856E+03  0.12268541279E+03  0.00000000000E+00 0. -1.
         -5    1    5    5    0  502 -0.35701170163E+02  0.14844054317E+01  0.31035923649E+00  0.36041133907E+02  0.47000000000E+01 0.  1.
         11    1    6    6    0    0 -0.14614107943E+02 -0.71780726876E+02  0.71547550255E+02  0.10239676191E+03  0.00000000000E+00 0. -1.
        -12    1    6    6    0    0 -0.64598777370E+02 -0.81828268283E+02  0.26817443844E+03  0.28772625351E+03  0.00000000000E+00 0.  1.
</event>
<event>
12    1  0.1040325E-001  0.2001463E+03  0.7818608E-02  0.1150986E+00
         21   -1    0    0  503  502  0.00000000000E+00  0.00000000000E+00  0.11886569466E+04  0.11886569466E+04  0.00000000000E+00 0. -1.
         21   -1    0    0  501  503 -0.00000000000E+00 -0.00000000000E+00 -0.40823634234E+02  0.40823634234E+02  0.00000000000E+00 0.  1.
          6    2    1    2  501    0 -0.82326396941E+02  0.35800957623E+02  0.29114977844E+03  0.34972766012E+03  0.17170293698E+03 0.  0.
         24    2    3    3    0    0 -0.97897643075E+02 -0.71373488199E+01  0.12700180201E+03  0.17927881139E+03  0.79853266885E+02 0.  0.
         -6    2    1    2    0  502  0.82326396941E+02 -0.35800957623E+02  0.85668353389E+03  0.87975292068E+03  0.17888314623E+03 0.  0.
        -24    2    5    5    0    0  0.22089742183E+02 -0.75401064131E+02  0.67719620019E+03  0.68627316471E+03  0.78758401868E+02 0.  0.
          5    1    3    3  501    0  0.15571246135E+02  0.42938306443E+02  0.16414797643E+03  0.17044884873E+03  0.47000000000E+01 0. -1.
        -11    1    4    4    0    0  0.12820276359E+02  0.68598551544E+01  0.19497375457E+02  0.24322104110E+02  0.00000000000E+00 0.  1.
         12    1    4    4    0    0 -0.11071791943E+03 -0.13997203974E+02  0.10750442655E+03  0.15495670728E+03  0.00000000000E+00 0. -1.
         -5    1    5    5    0  502  0.60236654758E+02  0.39600106508E+02  0.17948733371E+03  0.19347975598E+03  0.47000000000E+01 0.  1.
         11    1    6    6    0    0 -0.16442232010E+01  0.11299425113E+02  0.22159076746E+03  0.22188476446E+03  0.00000000000E+00 0. -1.
        -12    1    6    6    0    0  0.23733965384E+02 -0.86700489244E+02  0.45560543273E+03  0.46438840024E+03  0.00000000000E+00 0.  1.
</event>
<event>
12    1  0.1040325E-001  0.1942098E+03  0.7818608E-02  0.1155929E+00
         21   -1    0    0  501  502  0.00000000000E+00  0.00000000000E+00  0.26814857708E+03  0.26814857708E+03  0.00000000000E+00 0.  1.
         21   -1    0    0  502  503 -0.00000000000E+00 -0.00000000000E+00 -0.15549123464E+03  0.15549123464E+03  0.00000000000E+00 0.  1.
         -6    2    1    2    0  503 -0.42087081105E+01 -0.81802179692E+02  0.12916369997E+03  0.22872977200E+03  0.17007274145E+03 0.  0.
        -24    2    3    3    0    0 -0.16176250716E+02 -0.27348584203E+02 -0.27232799760E+01  0.85465395352E+02  0.79292505344E+02 0.  0.
          6    2    1    2  501    0  0.42087081105E+01  0.81802179692E+02 -0.16506357529E+02  0.19491003971E+03  0.17609132265E+03 0.  0.
         24    2    5    5    0    0  0.49534711368E+02 -0.90435360965E+01 -0.12444968846E+02  0.93194871094E+02  0.77426956373E+02 0.  0.
          5    1    5    5  501    0 -0.45326003257E+02  0.90845715789E+02 -0.40613886838E+01  0.10171516862E+03  0.47000000000E+01 0. -1.
        -11    1    6    6    0    0  0.46625211858E+02 -0.29282808526E+01 -0.42032152100E+02  0.62842557393E+02  0.00000000000E+00 0.  1.
         12    1    6    6    0    0  0.29094995104E+01 -0.61152552439E+01  0.29587183254E+02  0.30352313701E+02  0.00000000000E+00 0. -1.
         -5    1    3    3    0  503  0.11967542606E+02 -0.54453595489E+02  0.13188697995E+03  0.14326437665E+03  0.47000000000E+01 0.  1.
         11    1    4    4    0    0  0.30449844785E+02 -0.14214357803E+02  0.10581444946E+02  0.35230781887E+02  0.00000000000E+00 0. -1.
        -12    1    4    4    0    0 -0.46626095501E+02 -0.13134226400E+02 -0.13304724922E+02  0.50234613466E+02  0.00000000000E+00 0.  1.
</event>
<event>
12    1  0.1040325E-001  0.1899224E+03  0.7818608E-02  0.1159857E+00
         21   -1    0    0  501  502  0.00000000000E+00  0.00000000000E+00  0.14677236024E+03  0.14677236024E+03  0.00000000000E+00 0.  1.
         21   -1    0    0  502  503 -0.00000000000E+00 -0.00000000000E+00 -0.29302605089E+03  0.29302605089E+03  0.00000000000E+00 0.  1.
         -6    2    1    2    0  503 -0.54903637729E+02 -0.35428853187E+02 -0.16719963467E+03  0.24872450698E+03  0.17215850099E+03 0.  0.
        -24    2    3    3    0    0 -0.44357202882E+02 -0.80584414957E+02 -0.68047890990E+02  0.13916443066E+03  0.79213723006E+02 0.  0.
          6    2    1    2  501    0  0.54903637729E+02  0.35428853187E+02  0.20945944018E+02  0.19107390416E+03  0.17832804380E+03 0.  0.
         24    2    5    5    0    0  0.66018105737E+02  0.48349743471E+02 -0.41932008745E+02  0.12575769064E+03  0.85794029040E+02 0.  0.
          5    1    5    5  501    0 -0.11114468008E+02 -0.12920890284E+02  0.62877952763E+02  0.65316213520E+02  0.47000000000E+01 0. -1.
        -11    1    6    6    0    0  0.56550997046E+02 -0.11641162352E+02 -0.17975354796E+02  0.60470201817E+02  0.00000000000E+00 0.  1.
         12    1    6    6    0    0  0.94671086911E+01  0.59990905823E+02 -0.23956653949E+02  0.65287488823E+02  0.00000000000E+00 0. -1.
         -5    1    3    3    0  503 -0.10546434847E+02  0.45155561770E+02 -0.99151743679E+02  0.10956007631E+03  0.47000000000E+01 0.  1.
         11    1    4    4    0    0  0.23185060147E+02 -0.22539262086E+02 -0.18278978811E+02  0.37144130300E+02  0.00000000000E+00 0. -1.
        -12    1    4    4    0    0 -0.67542263029E+02 -0.58045152872E+02 -0.49768912180E+02  0.10202030036E+03  0.00000000000E+00 0.  1.
</event>
<event>
12    1  0.1040325E-001  0.1890480E+03  0.7818608E-02  0.1159535E+00
         21   -1    0    0  501  502  0.00000000000E+00  0.00000000000E+00  0.92784162266E+03  0.92784162266E+03  0.00000000000E+00 0.  1.
         21   -1    0    0  502  503 -0.00000000000E+00 -0.00000000000E+00 -0.93694757813E+02  0.93694757813E+02  0.00000000000E+00 0.  1.
         -6    2    1    2    0  503  0.72497960086E+02 -0.22916211875E+02  0.24862376099E+02  0.19067582876E+03  0.17308387257E+03 0.  0.
        -24    2    3    3    0    0  0.56595672453E+02 -0.71155685554E+02 -0.20330462725E+02  0.12252590393E+03  0.79580573591E+02 0.  0.
          6    2    1    2  501    0 -0.72497960086E+02  0.22916211875E+02  0.80928448875E+03  0.83086055172E+03  0.17206616658E+03 0.  0.
         24    2    5    5    0    0 -0.19452979214E+02 -0.47090830004E+02  0.34217254968E+03  0.35553917672E+03  0.82037112063E+02 0.  0.
          5    1    5    5  501    0 -0.53044980872E+02  0.70007041879E+02  0.46711193907E+03  0.47532137500E+03  0.47000000000E+01 0. -1.
        -11    1    6    6    0    0  0.12745078540E+02 -0.40485184039E+02  0.73589104030E+02  0.84952006366E+02  0.00000000000E+00 0.  1.
         12    1    6    6    0    0 -0.32198057753E+02 -0.66056459653E+01  0.26858344565E+03  0.27058717035E+03  0.00000000000E+00 0. -1.
         -5    1    3    3    0  503  0.15902287632E+02  0.48239473679E+02  0.45192838825E+02  0.68149924826E+02  0.47000000000E+01 0.  1.
         13    1    4    4    0    0  0.48990597002E+02 -0.66055100304E+02  0.17094040516E+02  0.83997387412E+02  0.00000000000E+00 0. -1.
        -14    1    4    4    0    0  0.76050754517E+01 -0.51005852491E+01 -0.37424503241E+02  0.38528516522E+02  0.00000000000E+00 0.  1.
</event>
<event>
12    1  0.1040325E-001  0.3176420E+03  0.7818608E-02  0.1077035E+00
         21   -1    0    0  503  502  0.00000000000E+00  0.00000000000E+00  0.37629850118E+03  0.37629850118E+03  0.00000000000E+00 0. -1.
         21   -1    0    0  501  503 -0.00000000000E+00 -0.00000000000E+00 -0.30025804677E+03  0.30025804677E+03  0.00000000000E+00 0. -1.
          6    2    1    2  501    0 -0.25375961966E+03 -0.74452292948E+02 -0.76389524346E+02  0.32423379331E+03  0.17133331491E+03 0.  0.
         24    2    3    3    0    0 -0.60486133818E+02  0.32440805155E+01  0.24965787009E+01  0.10144134722E+03  0.81332758338E+02 0.  0.
         -6    2    1    2    0  502  0.25375961966E+03  0.74452292948E+02  0.15242997876E+03  0.35232275464E+03  0.17595265420E+03 0.  0.
        -24    2    5    5    0    0  0.53722261786E+02  0.64632136330E+02  0.69524590744E+02  0.13551229968E+03  0.80414676444E+02 0.  0.
          5    1    3    3  501    0 -0.19327348584E+03 -0.77696373464E+02 -0.78886103047E+02  0.22279244608E+03  0.47000000000E+01 0. -1.
        -13    1    4    4    0    0 -0.69079138905E+02  0.22980921771E+02  0.17902268527E+02  0.74970270212E+02  0.00000000000E+00 0.  1.
         14    1    4    4    0    0  0.85930050869E+01 -0.19736841256E+02 -0.15405689826E+02  0.26471077012E+02  0.00000000000E+00 0. -1.
         -5    1    5    5    0  502  0.20003735787E+03  0.98201566187E+01  0.82905388021E+02  0.21681045497E+03  0.47000000000E+01 0.  1.
         11    1    6    6    0    0  0.57143557524E+01 -0.55986899272E+01 -0.14106688277E+02  0.16217208289E+02  0.00000000000E+00 0. -1.
        -12    1    6    6    0    0  0.48007906034E+02  0.70230826257E+02  0.83631279020E+02  0.11929509139E+03  0.00000000000E+00 0.  1.
</event>
<event>
12    1  0.1040325E-001  0.1942980E+03  0.7818608E-02  0.1155371E+00
         21   -1    0    0  501  502  0.00000000000E+00  0.00000000000E+00  0.33168167355E+03  0.33168167355E+03  0.00000000000E+00 0.  1.
         21   -1    0    0  502  503 -0.00000000000E+00 -0.00000000000E+00 -0.14245605711E+03  0.14245605711E+03  0.00000000000E+00 0. -1.
         -6    2    1    2    0  503 -0.84610570983E+02  0.33294600560E+02 -0.14553554249E+02  0.19484231016E+03  0.17170975726E+03 0.  0.
        -24    2    3    3    0    0 -0.41158414951E+02  0.27365163133E+02 -0.75786447830E+02  0.11937837607E+03  0.77876464510E+02 0.  0.
          6    2    1    2  501    0  0.84610570983E+02 -0.33294600560E+02  0.20377917069E+03  0.27929542050E+03  0.16796577734E+03 0.  0.
         24    2    5    5    0    0  0.11706131175E+03  0.21172345871E+01  0.14329990478E+03  0.20192048755E+03  0.80803385994E+02 0.  0.
          5    1    5    5  501    0 -0.32450740771E+02 -0.35411835147E+02  0.60479265910E+02  0.77374932957E+02  0.47000000000E+01 0. -1.
        -11    1    6    6    0    0  0.51899746789E+02 -0.20636995536E+02  0.11398418297E+03  0.12693251463E+03  0.00000000000E+00 0.  1.
         12    1    6    6    0    0  0.65161564965E+02  0.22754230123E+02  0.29315721809E+02  0.74987972918E+02  0.00000000000E+00 0. -1.
         -5    1    3    3    0  503 -0.43452156032E+02  0.59294374261E+01  0.61232893581E+02  0.75463934090E+02  0.47000000000E+01 0.  1.
         13    1    4    4    0    0 -0.54405988634E+02  0.44550968419E+02 -0.54332219250E+02  0.88863887125E+02  0.00000000000E+00 0. -1.
        -14    1    4    4    0    0  0.13247573683E+02 -0.17185805285E+02 -0.21454228581E+02  0.30514488949E+02  0.00000000000E+00 0.  1.
</event>
<event>
12    1  0.1040325E-001  0.2047194E+03  0.7818608E-02  0.1146774E+00
         21   -1    0    0  501  502  0.00000000000E+00  0.00000000000E+00  0.32545903200E+02  0.32545903200E+02  0.00000000000E+00 0. -1.
         21   -1    0    0  502  503 -0.00000000000E+00 -0.00000000000E+00 -0.13608206652E+04  0.13608206652E+04  0.00000000000E+00 0. -1.
         -6    2    1    2    0  503 -0.10827096428E+03 -0.31484021753E+02 -0.48043117374E+03  0.52222997974E+03  0.17086893723E+03 0.  0.
        -24    2    3    3    0    0 -0.11829672393E+02 -0.32334537611E+02 -0.33615668135E+03  0.34862449218E+03  0.85745312746E+02 0.  0.
          6    2    1    2  501    0  0.10827096428E+03  0.31484021753E+02 -0.84784358824E+03  0.87113658863E+03  0.16530686801E+03 0.  0.
         24    2    5    5    0    0  0.92432368405E+02 -0.28639794831E+02 -0.69040763907E+03  0.70180288694E+03  0.80626319836E+02 0.  0.
          5    1    5    5  501    0  0.15838595877E+02  0.60123816585E+02 -0.15743594916E+03  0.16933370169E+03  0.47000000000E+01 0. -1.
        -11    1    6    6    0    0  0.62295201412E+02 -0.78721693874E+00 -0.19526807108E+03  0.20496568350E+03  0.00000000000E+00 0.  1.
         12    1    6    6    0    0  0.30137166994E+02 -0.27852577893E+02 -0.49513956799E+03  0.49683720344E+03  0.00000000000E+00 0. -1.
         -5    1    3    3    0  503 -0.96441291890E+02  0.85051585791E+00 -0.14427449239E+03  0.17360548756E+03  0.47000000000E+01 0.  1.
         11    1    4    4    0    0 -0.39659604275E+02 -0.33073754025E+02 -0.11942157567E+03  0.13010868592E+03  0.00000000000E+00 0. -1.
        -12    1    4    4    0    0  0.27829931882E+02  0.73921641360E+00 -0.21673510569E+03  0.21851580626E+03  0.00000000000E+00 0.  1.
</event>
<event>
12    1  0.1040325E-001  0.2421239E+03  0.7818608E-02  0.1118628E+00
         21   -1    0    0  503  502  0.00000000000E+00  0.00000000000E+00  0.59509889092E+03  0.59509889092E+03  0.00000000000E+00 0. -1.
         21   -1    0    0  501  503 -0.00000000000E+00 -0.00000000000E+00 -0.16894459500E+03  0.16894459500E+03  0.00000000000E+00 0. -1.
          6    2    1    2  501    0 -0.16999598120E+03 -0.94338269439E+01 -0.35002989594E+02  0.24318838079E+03  0.17008159382E+03 0.  0.
         24    2    3    3    0    0 -0.12409020002E+03  0.58597497236E+02 -0.27631783675E+02  0.16065337917E+03  0.78828601072E+02 0.  0.
         -6    2    1    2    0  502  0.16999598120E+03  0.94338269439E+01  0.46115728552E+03  0.52085510513E+03  0.17215216479E+03 0.  0.
        -24    2    5    5    0    0  0.75338581171E+02  0.30333134354E+02  0.37312429889E+03  0.38982571467E+03  0.78398625912E+02 0.  0.
          5    1    3    3  501    0 -0.45905781177E+02 -0.68031324180E+02 -0.73712059192E+01  0.82535001617E+02  0.47000000000E+01 0. -1.
        -13    1    4    4    0    0 -0.32414323957E+02 -0.17119266438E+02  0.58659098946E+01  0.37123666034E+02  0.00000000000E+00 0.  1.
         14    1    4    4    0    0 -0.91675876062E+02  0.75716763674E+02 -0.33497693569E+02  0.12352971314E+03  0.00000000000E+00 0. -1.
         -5    1    5    5    0  502  0.94657400024E+02 -0.20899307410E+02  0.88032986635E+02  0.13102939046E+03  0.47000000000E+01 0.  1.
         13    1    6    6    0    0  0.68949430247E+02  0.46010932905E+02  0.20911090502E+03  0.22494088218E+03  0.00000000000E+00 0. -1.
        -14    1    6    6    0    0  0.63891509244E+01 -0.15677798550E+02  0.16401339387E+03  0.16488483249E+03  0.00000000000E+00 0.  1.
</event>
<event>
12    1  0.1040325E-001  0.2221217E+03  0.7818608E-02  0.1132776E+00
         21   -1    0    0  503  502  0.00000000000E+00  0.00000000000E+00  0.26995033173E+03  0.26995033173E+03  0.00000000000E+00 0.  1.
         21   -1    0    0  501  503 -0.00000000000E+00 -0.00000000000E+00 -0.18160851337E+03  0.18160851337E+03  0.00000000000E+00 0.  1.
          6    2    1    2  501    0 -0.71900398652E+02  0.11899484597E+03  0.28534879948E+02  0.22394709655E+03  0.17322996849E+03 0.  0.
         24    2    3    3    0    0 -0.52377039695E+02  0.13459843049E+03 -0.25558809460E+02  0.16417376948E+03  0.73754200347E+02 0.  0.
         -6    2    1    2    0  502  0.71900398652E+02 -0.11899484597E+03  0.59806938411E+02  0.22761174855E+03  0.17000234558E+03 0.  0.
        -24    2    5    5    0    0  0.59384482931E+01 -0.12867334336E+03  0.26475983209E+02  0.15292778253E+03  0.78063016364E+02 0.  0.
          5    1    3    3  501    0 -0.19523358957E+02 -0.15603584513E+02  0.54093689408E+02  0.59773327065E+02  0.47000000000E+01 0. -1.
        -13    1    4    4    0    0 -0.28986256638E+02  0.13375964110E+03 -0.12658917897E+02  0.13744850986E+03  0.00000000000E+00 0.  1.
         14    1    4    4    0    0 -0.23390783057E+02  0.83878939001E+00 -0.12899891563E+02  0.26725259624E+02  0.00000000000E+00 0. -1.
         -5    1    5    5    0  502  0.65961950359E+02  0.96784973815E+01  0.33330955201E+02  0.74683966026E+02  0.47000000000E+01 0.  1.
         11    1    6    6    0    0 -0.14692133835E+02 -0.23179542254E+01 -0.12143329286E+02  0.19201358144E+02  0.00000000000E+00 0. -1.
        -12    1    6    6    0    0  0.20630582128E+02 -0.12635538913E+03  0.38619312496E+02  0.13372642439E+03  0.00000000000E+00 0.  1.
</event>
<event>
12    1  0.1040325E-001  0.3753410E+03  0.7818608E-02  0.1052694E+00
         21   -1    0    0  501  502  0.00000000000E+00  0.00000000000E+00  0.44346277755E+03  0.44346277755E+03  0.00000000000E+00 0.  1.
         21   -1    0    0  502  503 -0.00000000000E+00 -0.00000000000E+00 -0.32315067198E+03  0.32315067198E+03  0.00000000000E+00 0. -1.
         -6    2    1    2    0  503  0.28671693344E+03  0.17009870380E+03  0.11105805010E+03  0.39142656680E+03  0.17245491513E+03 0.  0.
        -24    2    3    3    0    0  0.14770576259E+03  0.12948993796E+03  0.52610003013E+01  0.21201563283E+03  0.79613529655E+02 0.  0.
          6    2    1    2  501    0 -0.28671693344E+03 -0.17009870380E+03  0.92540554640E+01  0.37518688273E+03  0.17187027222E+03 0.  0.
         24    2    5    5    0    0 -0.26438768666E+03 -0.16711984755E+03  0.49718536098E+02  0.32863655470E+03  0.87750555285E+02 0.  0.
          5    1    5    5  501    0 -0.22329246782E+02 -0.29788562513E+01 -0.40464480634E+02  0.46550328027E+02  0.47000000000E+01 0. -1.
        -13    1    6    6    0    0 -0.12019036851E+03 -0.11680329605E+03  0.53307222695E+02  0.17587039160E+03  0.00000000000E+00 0.  1.
         14    1    6    6    0    0 -0.14419731815E+03 -0.50316551494E+02 -0.35886865969E+01  0.15276616310E+03  0.00000000000E+00 0. -1.
         -5    1    3    3    0  503  0.13901117085E+03  0.40608765837E+02  0.10579704980E+03  0.17941093397E+03  0.47000000000E+01 0.  1.
         13    1    4    4    0    0  0.11056035595E+03  0.62154569050E+02  0.31631307156E+02  0.13071848513E+03  0.00000000000E+00 0. -1.
        -14    1    4    4    0    0  0.37145406642E+02  0.67335368912E+02 -0.26370306855E+02  0.81297147703E+02  0.00000000000E+00 0.  1.
</event>
<event>
12    1  0.1040325E-001  0.1919838E+03  0.7818608E-02  0.1156761E+00
         21   -1    0    0  501  502  0.00000000000E+00  0.00000000000E+00  0.71442099230E+02  0.71442099230E+02  0.00000000000E+00 0.  1.
         21   -1    0    0  502  503 -0.00000000000E+00 -0.00000000000E+00 -0.53425895158E+03  0.53425895158E+03  0.00000000000E+00 0.  1.
         -6    2    1    2    0  503 -0.32800744139E+02 -0.78163579428E+02 -0.28872844371E+03  0.34653976976E+03  0.17187281302E+03 0.  0.
        -24    2    3    3    0    0  0.19179702617E+02 -0.75768619003E+02 -0.95672448975E+02  0.14653874531E+03  0.78813969351E+02 0.  0.
          6    2    1    2  501    0  0.32800744139E+02  0.78163579428E+02 -0.17408840864E+03  0.25916128105E+03  0.17225667362E+03 0.  0.
         24    2    5    5    0    0  0.80421482247E+02  0.87146894895E+02 -0.13832063415E+03  0.19874722352E+03  0.79408217014E+02 0.  0.
          5    1    5    5  501    0 -0.47620738107E+02 -0.89833154674E+01 -0.35767774489E+02  0.60414057524E+02  0.47000000000E+01 0. -1.
        -13    1    6    6    0    0  0.28641407578E+02  0.52984123667E+02 -0.17156389332E+02  0.62625787689E+02  0.00000000000E+00 0.  1.
         14    1    6    6    0    0  0.51780074669E+02  0.34162771228E+02 -0.12116424482E+03  0.13612143583E+03  0.00000000000E+00 0. -1.
         -5    1    3    3    0  503 -0.51980446756E+02 -0.23949604243E+01 -0.19305599474E+03  0.20000102446E+03  0.47000000000E+01 0.  1.
         13    1    4    4    0    0  0.49563004475E+02 -0.53110362033E+02 -0.69016018463E+02  0.10020186012E+03  0.00000000000E+00 0. -1.
        -14    1    4    4    0    0 -0.30383301858E+02 -0.22658256970E+02 -0.26656430512E+02  0.46336885182E+02  0.00000000000E+00 0.  1.
</event>
<event>
12    1  0.1040325E-001  0.2476082E+03  0.7818608E-02  0.1115423E+00
         21   -1    0    0  503  502  0.00000000000E+00  0.00000000000E+00  0.14685757678E+03  0.14685757678E+03  0.00000000000E+00 0.  1.
         21   -1    0    0  501  503 -0.00000000000E+00 -0.00000000000E+00 -0.44720962416E+03  0.44720962416E+03  0.00000000000E+00 0. -1.
          6    2    1    2  501    0 -0.32422600550E+02  0.17478934261E+03 -0.23543401670E+03  0.34167091950E+03  0.17235806246E+03 0.  0.
         24    2    3    3    0    0 -0.15352646638E+02  0.18522303376E+03 -0.24604993534E+03  0.31854013987E+03  0.79899774911E+02 0.  0.
         -6    2    1    2    0  502  0.32422600550E+02 -0.17478934261E+03 -0.64918030682E+02  0.25239628145E+03  0.16699399051E+03 0.  0.
        -24    2    5    5    0    0 -0.25337537175E+02 -0.32341535512E+02 -0.14737180354E+02  0.90631578884E+02  0.79428791359E+02 0.  0.
          5    1    3    3  501    0 -0.17069953911E+02 -0.10433691155E+02  0.10615918641E+02  0.23130779629E+02  0.47000000000E+01 0. -1.
        -11    1    4    4    0    0 -0.37739419783E+02  0.13645556980E+03 -0.13704122604E+03  0.19703980301E+03  0.00000000000E+00 0.  1.
         12    1    4    4    0    0  0.22386773144E+02  0.48767463956E+02 -0.10900870930E+03  0.12150033686E+03  0.00000000000E+00 0. -1.
         -5    1    5    5    0  502  0.57760137725E+02 -0.14244780709E+03 -0.50180850327E+02  0.16176470256E+03  0.47000000000E+01 0.  1.
         11    1    6    6    0    0 -0.96212752596E+01 -0.14967151268E+02 -0.47289001382E+02  0.50525579723E+02  0.00000000000E+00 0. -1.
        -12    1    6    6    0    0 -0.15716261915E+02 -0.17374384244E+02  0.32551821028E+02  0.40105999161E+02  0.00000000000E+00 0.  1.
</event>
<event>
12    1  0.1040325E-001  0.2192353E+03  0.7818608E-02  0.1134762E+00
         21   -1    0    0  503  502  0.00000000000E+00  0.00000000000E+00  0.39539963908E+02  0.39539963908E+02  0.00000000000E+00 0. -1.
         21   -1    0    0  501  503 -0.00000000000E+00 -0.00000000000E+00 -0.13447265856E+04  0.13447265856E+04  0.00000000000E+00 0. -1.
          6    2    1    2  501    0 -0.13310350193E+03  0.16783694821E+02 -0.42851143602E+03  0.48059431188E+03  0.17132018904E+03 0.  0.
         24    2    3    3    0    0 -0.98159961852E+01 -0.29485196421E+02 -0.16175978222E+03  0.18307262498E+03  0.79897611254E+02 0.  0.
         -6    2    1    2    0  502  0.13310350193E+03 -0.16783694821E+02 -0.87667518569E+03  0.90367223765E+03  0.17339520540E+03 0.  0.
        -24    2    5    5    0    0  0.78916873002E+02 -0.73964021749E+02 -0.43668908809E+03  0.45666481419E+03  0.78401808068E+02 0.  0.
          5    1    3    3  501    0 -0.12328750574E+03  0.46268891242E+02 -0.26675165380E+03  0.29752168689E+03  0.47000000000E+01 0. -1.
        -13    1    4    4    0    0  0.36327397022E+01 -0.52016357961E+02 -0.13856398879E+03  0.14805025256E+03  0.00000000000E+00 0.  1.
         14    1    4    4    0    0 -0.13448735887E+02  0.22531161539E+02 -0.23195793437E+02  0.35022372427E+02  0.00000000000E+00 0. -1.
         -5    1    5    5    0  502  0.54186628927E+02  0.57180326928E+02 -0.43998609760E+03  0.44700742346E+03  0.47000000000E+01 0.  1.
         11    1    6    6    0    0  0.53786332871E+02 -0.12258104264E+02 -0.10780489137E+03  0.12109965040E+03  0.00000000000E+00 0. -1.
        -12    1    6    6    0    0  0.25130540132E+02 -0.61705917485E+02 -0.32888419671E+03  0.33556516379E+03  0.00000000000E+00 0.  1.
</event>
<event>
12    1  0.1040325E-001  0.2042243E+03  0.7818608E-02  0.1146662E+00
         21   -1    0    0  503  502  0.00000000000E+00  0.00000000000E+00  0.26370134641E+02  0.26370134641E+02  0.00000000000E+00 0.  1.
         21   -1    0    0  501  503 -0.00000000000E+00 -0.00000000000E+00 -0.21661359757E+04  0.21661359757E+04  0.00000000000E+00 0.  1.
          6    2    1    2  501    0 -0.14091357715E+02  0.10383045685E+03 -0.16432433607E+04  0.16556242428E+04  0.17281076547E+03 0.  0.
         24    2    3    3    0    0 -0.32717968934E+02 -0.99771394107E+01 -0.67025488543E+03  0.67581416801E+03  0.79455455677E+02 0.  0.
         -6    2    1    2    0  502  0.14091357715E+02 -0.10383045685E+03 -0.49652248037E+03  0.53688186758E+03  0.17529471208E+03 0.  0.
        -24    2    5    5    0    0  0.31398064839E+02  0.11307276105E+02 -0.22833471412E+03  0.24447292853E+03  0.80725325305E+02 0.  0.
          5    1    3    3  501    0  0.18626611219E+02  0.11380759627E+03 -0.97298847525E+03  0.97981007475E+03  0.47000000000E+01 0. -1.
        -11    1    4    4    0    0  0.52721008618E+01 -0.29828850928E+02 -0.47236188830E+03  0.47333213382E+03  0.00000000000E+00 0.  1.
         12    1    4    4    0    0 -0.37990069796E+02  0.19851711517E+02 -0.19789299713E+03  0.20248203419E+03  0.00000000000E+00 0. -1.
         -5    1    5    5    0  502 -0.17306707124E+02 -0.11513773296E+03 -0.26818776626E+03  0.29240893904E+03  0.47000000000E+01 0.  1.
         13    1    6    6    0    0  0.10131974546E+02  0.42540493770E+02 -0.16524346405E+03  0.17093201259E+03  0.00000000000E+00 0. -1.
        -14    1    6    6    0    0  0.21266090293E+02 -0.31233217664E+02 -0.63091250072E+02  0.73540915942E+02  0.00000000000E+00 0.  1.
</event>
<event>
12    1  0.1040325E-001  0.1948335E+03  0.7818608E-02  0.1154624E+00
         21   -1    0    0  503  502  0.00000000000E+00  0.00000000000E+00  0.15540137661E+03  0.15540137661E+03  0.00000000000E+00 0. -1.
         21   -1    0    0  501  503 -0.00000000000E+00 -0.00000000000E+00 -0.24408580344E+03  0.24408580344E+03  0.00000000000E+00 0. -1.
          6    2    1    2  501    0 -0.55990722975E+02 -0.68478807097E+02 -0.24366808319E+02  0.19431205314E+03  0.17128667364E+03 0.  0.
         24    2    3    3    0    0 -0.27448606120E+02 -0.93893337150E+02 -0.61684955533E+02  0.14069037017E+03  0.80120919746E+02 0.  0.
         -6    2    1    2    0  502  0.55990722975E+02  0.68478807097E+02 -0.64317618504E+02  0.20517512691E+03  0.17359656844E+03 0.  0.
        -24    2    5    5    0    0 -0.10913596540E+02  0.62032422696E+01 -0.80744153849E+02  0.11218934839E+03  0.76871611842E+02 0.  0.
          5    1    3    3  501    0 -0.28542116855E+02  0.25414530053E+02  0.37318147213E+02  0.53621682963E+02  0.47000000000E+01 0. -1.
        -13    1    4    4    0    0 -0.10792066791E+02 -0.73209813381E+02 -0.51315975546E+00  0.74002762204E+02  0.00000000000E+00 0.  1.
         14    1    4    4    0    0 -0.16656539329E+02 -0.20683523769E+02 -0.61171795777E+02  0.66687607968E+02  0.00000000000E+00 0. -1.
         -5    1    5    5    0  502  0.66904319515E+02  0.62275564827E+02  0.16426535345E+02  0.92985778524E+02  0.47000000000E+01 0.  1.
         13    1    6    6    0    0  0.28244722638E+02  0.21788475995E+02 -0.34618991547E+02  0.49708918906E+02  0.00000000000E+00 0. -1.
        -14    1    6    6    0    0 -0.39158319177E+02 -0.15585233725E+02 -0.46125162302E+02  0.62480429483E+02  0.00000000000E+00 0.  1.
</event>
<event>
12    1  0.1040325E-001  0.2476561E+03  0.7818608E-02  0.1115826E+00
         21   -1    0    0  503  502  0.00000000000E+00  0.00000000000E+00  0.49570814026E+03  0.49570814026E+03  0.00000000000E+00 0. -1.
         21   -1    0    0  501  503 -0.00000000000E+00 -0.00000000000E+00 -0.17054448378E+03  0.17054448378E+03  0.00000000000E+00 0.  1.
          6    2    1    2  501    0 -0.37805308587E+02 -0.17402158941E+03 -0.16233840139E+02  0.24818754942E+03  0.17210684815E+03 0.  0.
         24    2    3    3    0    0  0.81494237549E+01 -0.10225393045E+03 -0.72353070465E+02  0.14604112359E+03  0.74637548011E+02 0.  0.
         -6    2    1    2    0  502  0.37805308587E+02  0.17402158941E+03  0.34139749662E+03  0.41806507463E+03  0.16282936155E+03 0.  0.
        -24    2    5    5    0    0  0.39324558938E+00  0.48006810455E+02  0.22071779270E+03  0.23955718149E+03  0.79790291996E+02 0.  0.
          5    1    3    3  501    0 -0.45954732342E+02 -0.71767658962E+02  0.56119230326E+02  0.10214642583E+03  0.47000000000E+01 0. -1.
        -13    1    4    4    0    0 -0.21718928277E+02 -0.90486449955E+02 -0.42880194362E+02  0.10246082441E+03  0.00000000000E+00 0.  1.
         14    1    4    4    0    0  0.29868352032E+02 -0.11767480495E+02 -0.29472876102E+02  0.43580299174E+02  0.00000000000E+00 0. -1.
         -5    1    5    5    0  502  0.37412062998E+02  0.12601477896E+03  0.12067970392E+03  0.17850789314E+03  0.47000000000E+01 0.  1.
         11    1    6    6    0    0  0.20888829564E+02 -0.15735890319E+02  0.60393687374E+02  0.65813060401E+02  0.00000000000E+00 0. -1.
        -12    1    6    6    0    0 -0.20495583974E+02  0.63742700774E+02  0.16032410533E+03  0.17374412109E+03  0.00000000000E+00 0.  1.
</event>
<event>
12    1  0.1040325E-001  0.1771345E+03  0.7818608E-02  0.1171485E+00
         21   -1    0    0  501  502  0.00000000000E+00  0.00000000000E+00  0.39617357565E+03  0.39617357565E+03  0.00000000000E+00 0. -1.
         21   -1    0    0  502  503 -0.00000000000E+00 -0.00000000000E+00 -0.13781010391E+03  0.13781010391E+03  0.00000000000E+00 0. -1.
         -6    2    1    2    0  503  0.63698230912E+01 -0.39020893391E+02 -0.47974928497E+02  0.18011952686E+03  0.16905101427E+03 0.  0.
        -24    2    3    3    0    0  0.33090372296E+01 -0.24363579835E+02 -0.97494735651E+02  0.12817237534E+03  0.79488367519E+02 0.  0.
          6    2    1    2  501    0 -0.63698230912E+01  0.39020893391E+02  0.30633840024E+03  0.35386415271E+03  0.17266562583E+03 0.  0.
         24    2    5    5    0    0 -0.63223304910E+02 -0.27518242420E+01  0.21735684521E+03  0.24021079610E+03  0.80327265495E+02 0.  0.
          5    1    5    5  501    0  0.56853481819E+02  0.41772717633E+02  0.88981555026E+02  0.11365335661E+03  0.47000000000E+01 0. -1.
        -11    1    6    6    0    0 -0.30343376593E+02 -0.17237552990E+02  0.21290497179E+02  0.40879567100E+02  0.00000000000E+00 0.  1.
         12    1    6    6    0    0 -0.32879928317E+02  0.14485728748E+02  0.19606634803E+03  0.19933122900E+03  0.00000000000E+00 0. -1.
         -5    1    3    3    0  503  0.30607858617E+01 -0.14657313556E+02  0.49519807154E+02  0.51947151523E+02  0.47000000000E+01 0.  1.
         13    1    4    4    0    0 -0.16933315161E+02  0.21658210329E+02 -0.58182240847E+02  0.64350511940E+02  0.00000000000E+00 0. -1.
        -14    1    4    4    0    0  0.20242352390E+02 -0.46021790164E+02 -0.39312494804E+02  0.63821863400E+02  0.00000000000E+00 0.  1.
</event>
<event>
12    1  0.1040325E-001  0.3524726E+03  0.7818608E-02  0.1061716E+00
         21   -1    0    0  503  502  0.00000000000E+00  0.00000000000E+00  0.61990492017E+03  0.61990492017E+03  0.00000000000E+00 0. -1.
         21   -1    0    0  501  503 -0.00000000000E+00 -0.00000000000E+00 -0.26272439376E+03  0.26272439376E+03  0.00000000000E+00 0.  1.
          6    2    1    2  501    0  0.30494736185E+03 -0.41124715887E+02 -0.37604821191E+02  0.35339175506E+03  0.16966871900E+03 0.  0.
         24    2    3    3    0    0  0.32124763016E+03 -0.32835646481E+02 -0.38074105290E+02  0.33450478479E+03  0.78521296429E+02 0.  0.
         -6    2    1    2    0  502 -0.30494736185E+03  0.41124715887E+02  0.39478534760E+03  0.52923755887E+03  0.17190924140E+03 0.  0.
        -24    2    5    5    0    0 -0.10365743789E+03  0.62746162012E+02  0.20701059620E+03  0.25307353571E+03  0.80690038180E+02 0.  0.
          5    1    3    3  501    0 -0.16300268301E+02 -0.82890694059E+01  0.46928409891E+00  0.18886970267E+02  0.47000000000E+01 0. -1.
        -13    1    4    4    0    0  0.66617427134E+02 -0.36748716745E+02 -0.22635146554E+02  0.79376946526E+02  0.00000000000E+00 0.  1.
         14    1    4    4    0    0  0.25463020302E+03  0.39130702642E+01 -0.15438958736E+02  0.25512783826E+03  0.00000000000E+00 0. -1.
         -5    1    5    5    0  502 -0.20128992397E+03 -0.21621446125E+02  0.18777475140E+03  0.27616402316E+03  0.47000000000E+01 0.  1.
         13    1    6    6    0    0 -0.49733456564E+02 -0.44892633431E+01  0.12284643541E+03  0.13260775573E+03  0.00000000000E+00 0. -1.
        -14    1    6    6    0    0 -0.53923981321E+02  0.67235425355E+02  0.84164160787E+02  0.12046577998E+03  0.00000000000E+00 0.  1.
</event>
<event>
12    1  0.1040325E-001  0.1746451E+03  0.7818608E-02  0.1173318E+00
         21   -1    0    0  503  502  0.00000000000E+00  0.00000000000E+00  0.13906274199E+04  0.13906274199E+04  0.00000000000E+00 0. -1.
         21   -1    0    0  501  503 -0.00000000000E+00 -0.00000000000E+00 -0.32681861259E+02  0.32681861259E+02  0.00000000000E+00 0. -1.
          6    2    1    2  501    0  0.25662626986E+02 -0.47137148406E+01  0.26750013665E+03  0.31896688517E+03  0.17176367834E+03 0.  0.
         24    2    3    3    0    0 -0.13221436646E+02  0.26672071528E+02  0.57404809953E+02  0.10295953740E+03  0.80119587801E+02 0.  0.
         -6    2    1    2    0  502 -0.25662626986E+02  0.47137148406E+01  0.10904454220E+04  0.11043423960E+04  0.17268503035E+03 0.  0.
        -24    2    5    5    0    0  0.36927850216E+01 -0.16569030550E+02  0.25431772335E+03  0.26741568838E+03  0.80904119489E+02 0.  0.
          5    1    3    3  501    0  0.38884063632E+02 -0.31385786369E+02  0.21009532670E+03  0.21600734777E+03  0.47000000000E+01 0. -1.
        -11    1    4    4    0    0  0.14908094727E+02  0.15760918393E+02 -0.13741200793E+02  0.25680312229E+02  0.00000000000E+00 0.  1.
         12    1    4    4    0    0 -0.28129531373E+02  0.10911153136E+02  0.71146010746E+02  0.77279225171E+02  0.00000000000E+00 0. -1.
         -5    1    5    5    0  502 -0.29355412007E+02  0.21282745391E+02  0.83612769865E+03  0.83692670761E+03  0.47000000000E+01 0.  1.
         11    1    6    6    0    0  0.36043278521E+02  0.35122585105E+00  0.19061448346E+03  0.19399258385E+03  0.00000000000E+00 0. -1.
        -12    1    6    6    0    0 -0.32350493500E+02 -0.16920256401E+02  0.63703239888E+02  0.73423104528E+02  0.00000000000E+00 0.  1.
</event>
<event>
12    1  0.1040325E-001  0.2076163E+03  0.7818608E-02  0.1145641E+00
         21   -1    0    0  503  502  0.00000000000E+00  0.00000000000E+00  0.94020728213E+03  0.94020728213E+03  0.00000000000E+00 0.  1.
         21   -1    0    0  501  503 -0.00000000000E+00 -0.00000000000E+00 -0.48168174072E+02  0.48168174072E+02  0.00000000000E+00 0.  1.
          6    2    1    2  501    0 -0.38205490037E+02 -0.97070742783E+02  0.60942985266E+03  0.64382395183E+03  0.17950528423E+03 0.  0.
         24    2    3    3    0    0 -0.88740842590E+02 -0.92671878060E+02  0.51435495063E+03  0.53596061763E+03  0.78928792523E+02 0.  0.
         -6    2    1    2    0  502  0.38205490037E+02  0.97070742783E+02  0.28260925540E+03  0.34455150437E+03  0.16722846454E+03 0.  0.
        -24    2    5    5    0    0 -0.85128362200E+01  0.10616604082E+03  0.13739684516E+03  0.19166572824E+03  0.80710356953E+02 0.  0.
          5    1    3    3  501    0  0.50535352553E+02 -0.43988647232E+01  0.95074902030E+02  0.10786333420E+03  0.47000000000E+01 0. -1.
        -11    1    4    4    0    0 -0.55891917959E+02 -0.39942718732E+02  0.39966339591E+03  0.40552454587E+03  0.00000000000E+00 0.  1.
         12    1    4    4    0    0 -0.32848924632E+02 -0.52729159328E+02  0.11469155472E+03  0.13043607176E+03  0.00000000000E+00 0. -1.
         -5    1    5    5    0  502  0.46718326257E+02 -0.90952980347E+01  0.14521241024E+03  0.15288577613E+03  0.47000000000E+01 0.  1.
         11    1    6    6    0    0 -0.16228421009E+02  0.54217259381E+02  0.15107086011E+02  0.58575565818E+02  0.00000000000E+00 0. -1.
        -12    1    6    6    0    0  0.77155847895E+01  0.51948781437E+02  0.12228975915E+03  0.13309016242E+03  0.00000000000E+00 0.  1.
</event>
<event>
12    1  0.1040325E-001  0.3953229E+03  0.7818608E-02  0.1046043E+00
         21   -1    0    0  501  502  0.00000000000E+00  0.00000000000E+00  0.15577952492E+03  0.15577952492E+03  0.00000000000E+00 0.  1.
         21   -1    0    0  502  503 -0.00000000000E+00 -0.00000000000E+00 -0.22050909233E+04  0.22050909233E+04  0.00000000000E+00 0. -1.
         -6    2    1    2    0  503 -0.15296108766E+02  0.34965420310E+03 -0.18984600568E+04  0.19377436254E+04  0.16795159422E+03 0.  0.
        -24    2    3    3    0    0 -0.57446556237E+02  0.29730551307E+03 -0.13895935255E+04  0.14244364248E+04  0.79738868985E+02 0.  0.
          6    2    1    2  501    0  0.15296108766E+02 -0.34965420310E+03 -0.15085134162E+03  0.42312682282E+03  0.18381552772E+03 0.  0.
         24    2    5    5    0    0 -0.50905224277E+02 -0.17028274731E+03 -0.12132342765E+03  0.22960492909E+03  0.80071802002E+02 0.  0.
          5    1    5    5  501    0  0.66201333043E+02 -0.17937145579E+03 -0.29527913973E+02  0.19352189373E+03  0.47000000000E+01 0. -1.
        -11    1    6    6    0    0  0.12350851026E+02 -0.86808191585E+01  0.39115111372E+01  0.15594872930E+02  0.00000000000E+00 0.  1.
         12    1    6    6    0    0 -0.63256075303E+02 -0.16160192815E+03 -0.12523493879E+03  0.21401005616E+03  0.00000000000E+00 0. -1.
         -5    1    3    3    0  503  0.42150447472E+02  0.52348690029E+02 -0.50886653123E+03  0.51330720059E+03  0.47000000000E+01 0.  1.
         11    1    4    4    0    0 -0.69282332460E+02  0.26719189264E+03 -0.13048497974E+04  0.13337258125E+04  0.00000000000E+00 0. -1.
        -12    1    4    4    0    0  0.11835776222E+02  0.30113620430E+02 -0.84743728094E+02  0.90710612309E+02  0.00000000000E+00 0.  1.
</event>
<event>
12    1  0.1040325E-001  0.1770565E+03  0.7818608E-02  0.1171026E+00
         21   -1    0    0  503  502  0.00000000000E+00  0.00000000000E+00  0.14335944475E+03  0.14335944475E+03  0.00000000000E+00 0. -1.
         21   -1    0    0  501  503 -0.00000000000E+00 -0.00000000000E+00 -0.21725169808E+03  0.21725169808E+03  0.00000000000E+00 0. -1.
          6    2    1    2  501    0  0.11675528585E+02  0.40170975666E+02 -0.43284016653E+02  0.18092842375E+03  0.17062110998E+03 0.  0.
         24    2    3    3    0    0 -0.31915158293E+01  0.65875690274E+02  0.24494821267E+02  0.10678112284E+03  0.80326954277E+02 0.  0.
         -6    2    1    2    0  502 -0.11675528585E+02 -0.40170975666E+02 -0.30608236669E+02  0.17968271908E+03  0.17204357044E+03 0.  0.
        -24    2    5    5    0    0  0.14185516737E+02 -0.66314070525E+02 -0.69425015028E+02  0.12600695773E+03  0.80368749219E+02 0.  0.
          5    1    3    3  501    0  0.14867044414E+02 -0.25704714608E+02 -0.67778837920E+02  0.74147300912E+02  0.47000000000E+01 0. -1.
        -13    1    4    4    0    0  0.10641615298E+02 -0.12560402236E+02 -0.10774568239E+02  0.19674831670E+02  0.00000000000E+00 0.  1.
         14    1    4    4    0    0 -0.13833131127E+02  0.78436092510E+02  0.35269389506E+02  0.87106291169E+02  0.00000000000E+00 0. -1.
         -5    1    5    5    0  502 -0.25861045321E+02  0.26143094859E+02  0.38816778359E+02  0.53675761347E+02  0.47000000000E+01 0.  1.
         11    1    6    6    0    0  0.46721738793E+02 -0.26788594285E+02 -0.32770239187E+02  0.63043145828E+02  0.00000000000E+00 0. -1.
        -12    1    6    6    0    0 -0.32536222056E+02 -0.39525476240E+02 -0.36654775842E+02  0.62963811906E+02  0.00000000000E+00 0.  1.
</event>
<event>
12    1  0.1040325E-001  0.2014919E+03  0.7818608E-02  0.1148725E+00
         21   -1    0    0  503  502  0.00000000000E+00  0.00000000000E+00  0.10964606471E+03  0.10964606471E+03  0.00000000000E+00 0.  1.
         21   -1    0    0  501  503 -0.00000000000E+00 -0.00000000000E+00 -0.36972530105E+03  0.36972530105E+03  0.00000000000E+00 0.  1.
          6    2    1    2  501    0  0.10061975657E+03  0.25756784690E+02 -0.14516914246E+03  0.24741595533E+03  0.17132666944E+03 0.  0.
         24    2    3    3    0    0  0.24024984955E+01 -0.32439519939E+02 -0.65022580116E+02  0.10784876323E+03  0.79657550505E+02 0.  0.
         -6    2    1    2    0  502 -0.10061975657E+03 -0.25756784690E+02 -0.11491009388E+03  0.23195541043E+03  0.17265930436E+03 0.  0.
        -24    2    5    5    0    0 -0.64669974035E+02 -0.74987574973E+02 -0.40540476258E+02  0.13567982889E+03  0.83427476348E+02 0.  0.
          5    1    3    3  501    0  0.98217258072E+02  0.58196304628E+02 -0.80146562341E+02  0.13956719210E+03  0.47000000000E+01 0. -1.
        -13    1    4    4    0    0 -0.10102343291E+02 -0.26169532571E+02 -0.81524398790E+02  0.86215598200E+02  0.00000000000E+00 0.  1.
         14    1    4    4    0    0  0.12504841786E+02 -0.62699873680E+01  0.16501818674E+02  0.21633165030E+02  0.00000000000E+00 0. -1.
         -5    1    5    5    0  502 -0.35949782532E+02  0.49230790284E+02 -0.74369617623E+02  0.96275581543E+02  0.47000000000E+01 0.  1.
         11    1    6    6    0    0 -0.64060365202E+02 -0.83988291429E+02 -0.54652013135E+02  0.11893109781E+03  0.00000000000E+00 0. -1.
        -12    1    6    6    0    0 -0.60960883365E+00  0.90007164559E+01  0.14111536877E+02  0.16748731077E+02  0.00000000000E+00 0.  1.
</event>
<event>
12    1  0.1040325E-001  0.1868153E+03  0.7818608E-02  0.1161854E+00
         21   -1    0    0  501  502  0.00000000000E+00  0.00000000000E+00  0.26942257602E+02  0.26942257602E+02  0.00000000000E+00 0.  1.
         21   -1    0    0  502  503 -0.00000000000E+00 -0.00000000000E+00 -0.15633421580E+04  0.15633421580E+04  0.00000000000E+00 0.  1.
         -6    2    1    2    0  503 -0.64608220941E+02  0.14403041645E+02 -0.11098073099E+04  0.11254209101E+04  0.17469484779E+03 0.  0.
        -24    2    3    3    0    0 -0.81700625571E+02  0.13852069934E+02 -0.10982759195E+04  0.11042663165E+04  0.79543888715E+02 0.  0.
          6    2    1    2  501    0  0.64608220941E+02 -0.14403041645E+02 -0.42659259048E+03  0.46486350554E+03  0.17243888977E+03 0.  0.
         24    2    5    5    0    0  0.79038970365E+02  0.32494972755E+02 -0.37802420860E+03  0.39566344772E+03  0.79650357701E+02 0.  0.
          5    1    5    5  501    0 -0.14430749424E+02 -0.46898014401E+02 -0.48568381884E+02  0.69200057822E+02  0.47000000000E+01 0. -1.
        -11    1    6    6    0    0  0.82156499951E+02 -0.19650782318E+01 -0.27073621574E+03  0.28293400384E+03  0.00000000000E+00 0.  1.
         12    1    6    6    0    0 -0.31175295864E+01  0.34460050987E+02 -0.10728799286E+03  0.11272944388E+03  0.00000000000E+00 0. -1.
         -5    1    3    3    0  503  0.17092404631E+02  0.55097171131E+00 -0.11531390408E+02  0.21154593606E+02  0.47000000000E+01 0.  1.
         13    1    4    4    0    0  0.14295248159E+02 -0.21339269839E+01 -0.75510958898E+02  0.76881809799E+02  0.00000000000E+00 0. -1.
        -14    1    4    4    0    0 -0.95995873730E+02  0.15985996918E+02 -0.10227649606E+04  0.10273845067E+04  0.00000000000E+00 0.  1.
</event>
<event>
12    1  0.1040325E-001  0.2032863E+03  0.7818608E-02  0.1147136E+00
         21   -1    0    0  503  502  0.00000000000E+00  0.00000000000E+00  0.12404586677E+04  0.12404586677E+04  0.00000000000E+00 0.  1.
         21   -1    0    0  501  503 -0.00000000000E+00 -0.00000000000E+00 -0.60326214676E+02  0.60326214676E+02  0.00000000000E+00 0.  1.
          6    2    1    2  501    0 -0.86969322808E+02 -0.63347935566E+02  0.15342058754E+03  0.25414139388E+03  0.17167803398E+03 0.  0.
         24    2    3    3    0    0 -0.11182134387E+03 -0.19674643349E+02  0.66503928929E+02  0.15363480231E+03  0.79308104142E+02 0.  0.
         -6    2    1    2    0  502  0.86969322808E+02  0.63347935566E+02  0.10267118655E+04  0.10466434885E+04  0.17247815293E+03 0.  0.
        -24    2    5    5    0    0  0.51726360942E+02  0.15466379578E+02  0.91599833893E+03  0.92088862885E+03  0.77897910726E+02 0.  0.
          5    1    3    3  501    0  0.24852021063E+02 -0.43673292217E+02  0.86916658607E+02  0.10050659156E+03  0.47000000000E+01 0. -1.
        -11    1    4    4    0    0 -0.81465804981E+02 -0.49850164247E+02  0.42216244961E+02  0.10442187317E+03  0.00000000000E+00 0.  1.
         12    1    4    4    0    0 -0.30355538890E+02  0.30175520898E+02  0.24287683968E+02  0.49212929148E+02  0.00000000000E+00 0. -1.
         -5    1    5    5    0  502  0.35242961866E+02  0.47881555988E+02  0.11071352655E+03  0.12575485966E+03  0.47000000000E+01 0.  1.
         11    1    6    6    0    0  0.16029443101E+02 -0.24559061143E+02  0.13997715260E+03  0.14301641087E+03  0.00000000000E+00 0. -1.
        -12    1    6    6    0    0  0.35696917841E+02  0.40025440722E+02  0.77602118634E+03  0.77787221797E+03  0.00000000000E+00 0.  1.
</event>
<event>
12    1  0.1040325E-001  0.1854661E+03  0.7818608E-02  0.1162698E+00
         21   -1    0    0  501  502  0.00000000000E+00  0.00000000000E+00  0.69021612111E+03  0.69021612111E+03  0.00000000000E+00 0. -1.
         21   -1    0    0  502  503 -0.00000000000E+00 -0.00000000000E+00 -0.10366999682E+03  0.10366999682E+03  0.00000000000E+00 0. -1.
         -6    2    1    2    0  503 -0.66201942958E+02 -0.15993206366E+02  0.68448868527E+01  0.18523909569E+03  0.17212841193E+03 0.  0.
        -24    2    3    3    0    0 -0.25375632006E+02 -0.75090808936E+02 -0.52814372830E+01  0.11224284899E+03  0.79296981546E+02 0.  0.
          6    2    1    2  501    0  0.66201942958E+02  0.15993206366E+02  0.57970123744E+03  0.60864702225E+03  0.17250853052E+03 0.  0.
         24    2    5    5    0    0  0.45934075094E+02  0.80457101570E+02  0.37435579318E+03  0.39241746430E+03  0.72566672466E+02 0.  0.
          5    1    5    5  501    0  0.20267867864E+02 -0.64463895203E+02  0.20534544426E+03  0.21622955795E+03  0.47000000000E+01 0. -1.
        -13    1    6    6    0    0  0.12196997760E+02  0.64160362150E+02  0.13298914010E+03  0.14816015054E+03  0.00000000000E+00 0.  1.
         14    1    6    6    0    0  0.33737077334E+02  0.16296739419E+02  0.24136665308E+03  0.24425731375E+03  0.00000000000E+00 0. -1.
         -5    1    3    3    0  503 -0.40826310953E+02  0.59097602569E+02  0.12126324136E+02  0.72996246701E+02  0.47000000000E+01 0.  1.
         11    1    4    4    0    0 -0.47096148265E+02 -0.19105484047E+02 -0.10732880557E+02  0.51944792108E+02  0.00000000000E+00 0. -1.
        -12    1    4    4    0    0  0.21720516259E+02 -0.55985324888E+02  0.54514432743E+01  0.60298056878E+02  0.00000000000E+00 0.  1.
</event>
<event>
12    1  0.1040325E-001  0.1724228E+03  0.7818608E-02  0.1175420E+00
         21   -1    0    0  501  502  0.00000000000E+00  0.00000000000E+00  0.12059195886E+04  0.12059195886E+04  0.00000000000E+00 0. -1.
         21   -1    0    0  502  503 -0.00000000000E+00 -0.00000000000E+00 -0.24633330688E+02  0.24633330688E+02  0.00000000000E+00 0. -1.
         -6    2    1    2    0  503  0.17870362969E+02 -0.87274693213E+00  0.57170540043E+03  0.59705592290E+03  0.17119754270E+03 0.  0.
        -24    2    3    3    0    0  0.67880855128E+00  0.52516581803E+02  0.20881247229E+03  0.22982392911E+03  0.80361294558E+02 0.  0.
          6    2    1    2  501    0 -0.17870362969E+02  0.87274693213E+00  0.60958085746E+03  0.63349699637E+03  0.17149201459E+03 0.  0.
         24    2    5    5    0    0  0.97718542667E+01 -0.50864395993E+01  0.13331320359E+03  0.15636748334E+03  0.80975419678E+02 0.  0.
          5    1    5    5  501    0 -0.27642217236E+02  0.59591865315E+01  0.47626765387E+03  0.47712951303E+03  0.47000000000E+01 0. -1.
        -13    1    6    6    0    0  0.35734612460E+02 -0.18546279364E+02  0.11504465415E+03  0.12188601008E+03  0.00000000000E+00 0.  1.
         14    1    6    6    0    0 -0.25962758193E+02  0.13459839764E+02  0.18268549442E+02  0.34481473260E+02  0.00000000000E+00 0. -1.
         -5    1    3    3    0  503  0.17191554418E+02 -0.53389328735E+02  0.36289292814E+03  0.36723199378E+03  0.47000000000E+01 0.  1.
         13    1    4    4    0    0  0.24992805256E+02  0.40540909307E+02  0.19224872523E+03  0.19806003634E+03  0.00000000000E+00 0. -1.
        -14    1    4    4    0    0 -0.24313996705E+02  0.11975672496E+02  0.16563747065E+02  0.31763892777E+02  0.00000000000E+00 0.  1.
</event>
<event>
12    1  0.1040325E-001  0.2003561E+03  0.7818608E-02  0.1149835E+00
         21   -1    0    0  503  502  0.00000000000E+00  0.00000000000E+00  0.38361578771E+03  0.38361578771E+03  0.00000000000E+00 0.  1.
         21   -1    0    0  501  503 -0.00000000000E+00 -0.00000000000E+00 -0.16392363703E+03  0.16392363703E+03  0.00000000000E+00 0. -1.
          6    2    1    2  501    0 -0.71777030938E+02 -0.76471948988E+02 -0.56464845409E+02  0.20635728747E+03  0.16850860563E+03 0.  0.
         24    2    3    3    0    0  0.17377140876E+02 -0.65073802964E+01 -0.29741256258E+02  0.89825114051E+02  0.82702465303E+02 0.  0.
         -6    2    1    2    0  502  0.71777030938E+02  0.76471948988E+02  0.27615699610E+03  0.34118213727E+03  0.17071222319E+03 0.  0.
        -24    2    5    5    0    0  0.75842834137E+02  0.10997386900E+03  0.17711997535E+03  0.23644756381E+03  0.81789836838E+02 0.  0.
          5    1    3    3  501    0 -0.89154171814E+02 -0.69964568692E+02 -0.26723589151E+02  0.11653217342E+03  0.47000000000E+01 0. -1.
        -11    1    4    4    0    0  0.36788288161E+02 -0.99808687741E+01  0.14974719488E+02  0.40954097610E+02  0.00000000000E+00 0.  1.
         12    1    4    4    0    0 -0.19411147285E+02  0.34734884776E+01 -0.44715975746E+02  0.48871016442E+02  0.00000000000E+00 0. -1.
         -5    1    5    5    0  502 -0.40658031988E+01 -0.33501920014E+02  0.99037020742E+02  0.10473457346E+03  0.47000000000E+01 0.  1.
         13    1    6    6    0    0  0.60045438338E+02  0.10899161922E+03  0.10562504611E+03  0.16322156135E+03  0.00000000000E+00 0. -1.
        -14    1    6    6    0    0  0.15797395800E+02  0.98224978615E+00  0.71494929244E+02  0.73226002460E+02  0.00000000000E+00 0.  1.
</event>
<event>
12    1  0.1040325E-001  0.2297684E+03  0.7818608E-02  0.1126808E+00
         21   -1    0    0  501  502  0.00000000000E+00  0.00000000000E+00  0.12664612567E+04  0.12664612567E+04  0.00000000000E+00 0. -1.
         21   -1    0    0  502  503 -0.00000000000E+00 -0.00000000000E+00 -0.68367698589E+02  0.68367698589E+02  0.00000000000E+00 0.  1.
         -6    2    1    2    0  503  0.12699780523E+03 -0.86697133457E+02  0.18208499195E+03  0.29316968797E+03  0.17072986313E+03 0.  0.
        -24    2    3    3    0    0  0.91110901909E+02 -0.25025637154E+02  0.18352916378E+03  0.22164753113E+03  0.80729146762E+02 0.  0.
          6    2    1    2  501    0 -0.12699780523E+03  0.86697133457E+02  0.10160085662E+04  0.10416592673E+04  0.17069208304E+03 0.  0.
         24    2    5    5    0    0 -0.12238887152E+03  0.40113108581E+02  0.56710704411E+03  0.59029912272E+03  0.10126478880E+03 0.  0.
          5    1    5    5  501    0 -0.46089337160E+01  0.46584024876E+02  0.44890152204E+03  0.45136014460E+03  0.47000000000E+01 0. -1.
        -11    1    6    6    0    0 -0.29777760900E+02 -0.33527230262E+02  0.13298557154E+03  0.14034226893E+03  0.00000000000E+00 0.  1.
         12    1    6    6    0    0 -0.92611110617E+02  0.73640338843E+02  0.43412147258E+03  0.44995685379E+03  0.00000000000E+00 0. -1.
         -5    1    3    3    0  503  0.35886903324E+02 -0.61671496303E+02 -0.14441718230E+01  0.71522156837E+02  0.47000000000E+01 0.  1.
         11    1    4    4    0    0  0.53766419274E+02 -0.49297292041E+02  0.76414187723E+02  0.10564174804E+03  0.00000000000E+00 0. -1.
        -12    1    4    4    0    0  0.37344482635E+02  0.24271654887E+02  0.10711497605E+03  0.11600578309E+03  0.00000000000E+00 0.  1.
</event>
<event>
12    1  0.1040325E-001  0.1861776E+03  0.7818608E-02  0.1164109E+00
         21   -1    0    0  503  502  0.00000000000E+00  0.00000000000E+00  0.29810685496E+03  0.29810685496E+03  0.00000000000E+00 0. -1.
         21   -1    0    0  501  503 -0.00000000000E+00 -0.00000000000E+00 -0.22898060220E+03  0.22898060220E+03  0.00000000000E+00 0. -1.
          6    2    1    2  501    0 -0.17710413972E+02 -0.84349952877E+01 -0.15525006321E+03  0.23552817123E+03  0.17602877437E+03 0.  0.
         24    2    3    3    0    0 -0.26338883823E+02 -0.17062044331E+02 -0.18445520113E+03  0.20352963144E+03  0.80098311436E+02 0.  0.
         -6    2    1    2    0  502  0.17710413972E+02  0.84349952877E+01  0.22437631597E+03  0.29155928593E+03  0.18514123835E+03 0.  0.
        -24    2    5    5    0    0  0.27869004348E+02  0.71742344046E+02  0.18330092038E+03  0.21526842483E+03  0.82568892352E+02 0.  0.
          5    1    3    3  501    0  0.86284698511E+01  0.86270490438E+01  0.29205137921E+02  0.31998539782E+02  0.47000000000E+01 0. -1.
        -13    1    4    4    0    0 -0.27276522021E+02 -0.47743200196E+02 -0.10942279916E+03  0.12246130325E+03  0.00000000000E+00 0.  1.
         14    1    4    4    0    0  0.93763819766E+00  0.30681155865E+02 -0.75032401971E+02  0.81068328194E+02  0.00000000000E+00 0. -1.
         -5    1    5    5    0  502 -0.10158590376E+02 -0.63307348758E+02  0.41075395585E+02  0.76290861102E+02  0.47000000000E+01 0.  1.
         13    1    6    6    0    0  0.10649549220E+02  0.81523767559E+02  0.17583007407E+03  0.19410242792E+03  0.00000000000E+00 0. -1.
        -14    1    6    6    0    0  0.17219455129E+02 -0.97814235130E+01  0.74708463139E+01  0.21165996917E+02  0.00000000000E+00 0.  1.
</event>
<event>
12    1  0.1040325E-001  0.1893639E+03  0.7818608E-02  0.1159424E+00
         21   -1    0    0  501  502  0.00000000000E+00  0.00000000000E+00  0.39530389526E+03  0.39530389526E+03  0.00000000000E+00 0. -1.
         21   -1    0    0  502  503 -0.00000000000E+00 -0.00000000000E+00 -0.90032192487E+02  0.90032192487E+02  0.00000000000E+00 0.  1.
         -6    2    1    2    0  503  0.49459720522E+02 -0.61356169567E+02  0.14394381023E+03  0.23786240049E+03  0.17218553239E+03 0.  0.
        -24    2    3    3    0    0  0.76438852182E+02 -0.35998307984E+02  0.32895355999E+02  0.12070974847E+03  0.79686652757E+02 0.  0.
          6    2    1    2  501    0 -0.49459720522E+02  0.61356169567E+02  0.16132789254E+03  0.24747368726E+03  0.17031057945E+03 0.  0.
         24    2    5    5    0    0  0.32955151109E+02  0.28102463923E+02  0.11583410806E+03  0.14752472812E+03  0.80437642651E+02 0.  0.
          5    1    5    5  501    0 -0.82414871631E+02  0.33253705643E+02  0.45493784485E+02  0.99948959133E+02  0.47000000000E+01 0. -1.
        -11    1    6    6    0    0 -0.31767595338E+01  0.38317412392E+02  0.17458480370E+02  0.42226939628E+02  0.00000000000E+00 0.  1.
         12    1    6    6    0    0  0.36131910643E+02 -0.10214948469E+02  0.98375627689E+02  0.10529778850E+03  0.00000000000E+00 0. -1.
         -5    1    3    3    0  503 -0.26979131661E+02 -0.25357861583E+02  0.11104845423E+03  0.11715265202E+03  0.47000000000E+01 0.  1.
         11    1    4    4    0    0 -0.93275376608E+01 -0.95826865284E+01  0.27769050055E+02  0.30821274809E+02  0.00000000000E+00 0. -1.
        -12    1    4    4    0    0  0.85766389843E+02 -0.26415621456E+02  0.51263059439E+01  0.89888473656E+02  0.00000000000E+00 0.  1.
</event>
<event>
12    1  0.1040325E-001  0.1859267E+03  0.7818608E-02  0.1163319E+00
         21   -1    0    0  503  502  0.00000000000E+00  0.00000000000E+00  0.98657123226E+02  0.98657123226E+02  0.00000000000E+00 0.  1.
         21   -1    0    0  501  503 -0.00000000000E+00 -0.00000000000E+00 -0.34591261232E+03  0.34591261232E+03  0.00000000000E+00 0.  1.
          6    2    1    2  501    0 -0.42861828391E+02 -0.56690807150E+02 -0.14745573974E+03  0.23355138627E+03  0.16658952818E+03 0.  0.
         24    2    3    3    0    0 -0.37697844025E+02  0.23821967673E+02 -0.11653821967E+03  0.14702418424E+03  0.77758218343E+02 0.  0.
         -6    2    1    2    0  502  0.42861828391E+02  0.56690807150E+02 -0.99799749353E+02  0.21101834927E+03  0.17180736250E+03 0.  0.
        -24    2    5    5    0    0 -0.31006871566E+02  0.67552736826E+02 -0.46899239076E+02  0.11939345998E+03  0.80811269785E+02 0.  0.
          5    1    3    3  501    0 -0.51639843652E+01 -0.80512774823E+02 -0.30917520072E+02  0.86527202033E+02  0.47000000000E+01 0. -1.
        -13    1    4    4    0    0 -0.37459063574E+02  0.41590579869E+02 -0.40892401254E+02  0.69319162272E+02  0.00000000000E+00 0.  1.
         14    1    4    4    0    0 -0.23878045151E+00 -0.17768612196E+02 -0.75645818416E+02  0.77705021969E+02  0.00000000000E+00 0. -1.
         -5    1    5    5    0  502  0.73868699957E+02 -0.10861929676E+02 -0.52900510277E+02  0.91624889288E+02  0.47000000000E+01 0.  1.
         11    1    6    6    0    0  0.10894252299E+02  0.29825428213E+02  0.15466114904E+02  0.35319139450E+02  0.00000000000E+00 0. -1.
        -12    1    6    6    0    0 -0.41901123865E+02  0.37727308613E+02 -0.62365353980E+02  0.84074320535E+02  0.00000000000E+00 0.  1.
</event>
<event>
12    1  0.1040325E-001  0.1970692E+03  0.7818608E-02  0.1152381E+00
         21   -1    0    0  503  502  0.00000000000E+00  0.00000000000E+00  0.36767250792E+02  0.36767250792E+02  0.00000000000E+00 0.  1.
         21   -1    0    0  501  503 -0.00000000000E+00 -0.00000000000E+00 -0.11896381271E+04  0.11896381271E+04  0.00000000000E+00 0.  1.
          6    2    1    2  501    0  0.73223723735E+02 -0.60103647715E+02 -0.78363961773E+03  0.80787462310E+03  0.17203544398E+03 0.  0.
         24    2    3    3    0    0  0.94537463252E+02 -0.16161411814E+02 -0.70113011599E+03  0.71187929266E+03  0.77396153558E+02 0.  0.
         -6    2    1    2    0  502 -0.73223723735E+02  0.60103647715E+02 -0.36923125861E+03  0.41853075482E+03  0.17280656299E+03 0.  0.
        -24    2    5    5    0    0 -0.77622626954E+02 -0.66161802227E+01 -0.30868921582E+03  0.32820736508E+03  0.79762124295E+02 0.  0.
          5    1    3    3  501    0 -0.21313739517E+02 -0.43942235901E+02 -0.82509501739E+02  0.95995330436E+02  0.47000000000E+01 0. -1.
        -11    1    4    4    0    0  0.72924783751E+02 -0.37669239373E+01 -0.65823982653E+03  0.66227779899E+03  0.00000000000E+00 0.  1.
         12    1    4    4    0    0  0.21612679501E+02 -0.12394487877E+02 -0.42890289456E+02  0.49601493673E+02  0.00000000000E+00 0. -1.
         -5    1    5    5    0  502  0.43989032184E+01  0.66719827937E+02 -0.60542042783E+02  0.90323389738E+02  0.47000000000E+01 0.  1.
         11    1    6    6    0    0 -0.90220156119E+02 -0.19769644270E+02 -0.24042287982E+03  0.25755324992E+03  0.00000000000E+00 0. -1.
        -12    1    6    6    0    0  0.12597529166E+02  0.13153464047E+02 -0.68266336007E+02  0.70654115162E+02  0.00000000000E+00 0.  1.
</event>
<event>
12    1  0.1040325E-001  0.4484965E+03  0.7818608E-02  0.1028187E+00
         21   -1    0    0  501  502  0.00000000000E+00  0.00000000000E+00  0.55282706695E+03  0.55282706695E+03  0.00000000000E+00 0. -1.
         21   -1    0    0  502  503 -0.00000000000E+00 -0.00000000000E+00 -0.47592844292E+03  0.47592844292E+03  0.00000000000E+00 0.  1.
         -6    2    1    2    0  503 -0.32486212748E+02 -0.41263844734E+03  0.28825341565E+03  0.53314079356E+03  0.17269404124E+03 0.  0.
        -24    2    3    3    0    0 -0.49670180530E+02 -0.38536719928E+03  0.30103078950E+03  0.49814992329E+03  0.80986447809E+02 0.  0.
          6    2    1    2  501    0  0.32486212748E+02  0.41263844734E+03 -0.21135479162E+03  0.49561471631E+03  0.17215474678E+03 0.  0.
         24    2    5    5    0    0  0.12713217191E+02  0.36987934286E+03 -0.12733214375E+03  0.39917194714E+03  0.78437327777E+02 0.  0.
          5    1    5    5  501    0  0.19772995557E+02  0.42759104487E+02 -0.84022647871E+02  0.96442769170E+02  0.47000000000E+01 0. -1.
        -11    1    6    6    0    0  0.33997315009E+01  0.19567744760E+03 -0.10833201572E+03  0.22368962270E+03  0.00000000000E+00 0.  1.
         12    1    6    6    0    0  0.93134856902E+01  0.17420189525E+03 -0.19000128033E+02  0.17548232444E+03  0.00000000000E+00 0. -1.
         -5    1    3    3    0  503  0.17183967782E+02 -0.27271248069E+02 -0.12777373857E+02  0.34990870276E+02  0.47000000000E+01 0.  1.
         11    1    4    4    0    0 -0.77122919863E+01 -0.31137936392E+03  0.22742335670E+03  0.38566562058E+03  0.00000000000E+00 0. -1.
        -12    1    4    4    0    0 -0.41957888544E+02 -0.73987835353E+02  0.73607432801E+02  0.11248430270E+03  0.00000000000E+00 0.  1.
</event>
<event>
12    1  0.1040325E-001  0.2747364E+03  0.7818608E-02  0.1098769E+00
         21   -1    0    0  501  502  0.00000000000E+00  0.00000000000E+00  0.68764471982E+03  0.68764471982E+03  0.00000000000E+00 0. -1.
         21   -1    0    0  502  503 -0.00000000000E+00 -0.00000000000E+00 -0.26421550507E+03  0.26421550507E+03  0.00000000000E+00 0.  1.
         -6    2    1    2    0  503 -0.20202749140E+03 -0.68708321733E+02 -0.15292670202E+03  0.31337275975E+03  0.17111390828E+03 0.  0.
        -24    2    3    3    0    0 -0.17881699725E+03 -0.17947517605E+01 -0.13805396009E+03  0.24085075387E+03  0.83495210055E+02 0.  0.
          6    2    1    2  501    0  0.20202749140E+03  0.68708321733E+02  0.57635591677E+03  0.63848746513E+03  0.17304380826E+03 0.  0.
         24    2    5    5    0    0  0.35340679553E+02  0.17868956269E+02  0.28816259170E+03  0.30166909132E+03  0.79989362865E+02 0.  0.
          5    1    5    5  501    0  0.16668681184E+03  0.50839365464E+02  0.28819332507E+03  0.33681837381E+03  0.47000000000E+01 0. -1.
        -11    1    6    6    0    0  0.18855474990E+00  0.19439235130E+01 -0.53163493850E+01  0.56637410164E+01  0.00000000000E+00 0.  1.
         12    1    6    6    0    0  0.35152124803E+02  0.15925032756E+02  0.29347894108E+03  0.29600535030E+03  0.00000000000E+00 0. -1.
         -5    1    3    3    0  503 -0.23210494145E+02 -0.66913569973E+02 -0.14872741934E+02  0.72522005885E+02  0.47000000000E+01 0.  1.
         11    1    4    4    0    0 -0.17910529529E+02 -0.24466437534E+01  0.11293689040E+02  0.21314796405E+02  0.00000000000E+00 0. -1.
        -12    1    4    4    0    0 -0.16090646772E+03  0.65189199288E+00 -0.14934764913E+03  0.21953595746E+03  0.00000000000E+00 0.  1.
</event>
<event>
12    1  0.1040325E-001  0.2020029E+03  0.7818608E-02  0.1148259E+00
         21   -1    0    0  501  502  0.00000000000E+00  0.00000000000E+00  0.30761068045E+03  0.30761068045E+03  0.00000000000E+00 0. -1.
         21   -1    0    0  502  503 -0.00000000000E+00 -0.00000000000E+00 -0.22071052923E+03  0.22071052923E+03  0.00000000000E+00 0. -1.
         -6    2    1    2    0  503  0.72259420688E+02 -0.74297209330E+02 -0.12405732432E+03  0.23624547062E+03  0.17227943429E+03 0.  0.
        -24    2    3    3    0    0  0.10702350990E+03 -0.84872733816E+02 -0.12148708556E+03  0.19951564971E+03  0.79937287305E+02 0.  0.
          6    2    1    2  501    0 -0.72259420688E+02  0.74297209330E+02  0.21095747553E+03  0.29207573906E+03  0.17338881646E+03 0.  0.
         24    2    5    5    0    0 -0.39297958923E+02  0.88101296773E+02  0.22159968687E+03  0.25449439457E+03  0.79717046954E+02 0.  0.
          5    1    5    5  501    0 -0.32961461765E+02 -0.13804087443E+02 -0.10642211340E+02  0.37581344495E+02  0.47000000000E+01 0. -1.
        -13    1    6    6    0    0  0.13912944111E+02 -0.71937042288E+01  0.34455786253E+02  0.37848653882E+02  0.00000000000E+00 0.  1.
         14    1    6    6    0    0 -0.53210903034E+02  0.95295001002E+02  0.18714390062E+03  0.21664574068E+03  0.00000000000E+00 0. -1.
         -5    1    3    3    0  503 -0.34764089216E+02  0.10575524486E+02 -0.25702387538E+01  0.36729820915E+02  0.47000000000E+01 0.  1.
         13    1    4    4    0    0  0.72289108400E+02 -0.67065764903E+02 -0.12624752366E+03  0.16019353684E+03  0.00000000000E+00 0. -1.
        -14    1    4    4    0    0  0.34734401504E+02 -0.17806968913E+02  0.47604380918E+01  0.39322112870E+02  0.00000000000E+00 0.  1.
</event>
<event>
12    1  0.1040325E-001  0.2043198E+03  0.7818608E-02  0.1146191E+00
         21   -1    0    0  501  502  0.00000000000E+00  0.00000000000E+00  0.14928992679E+02  0.14928992679E+02  0.00000000000E+00 0. -1.
         21   -1    0    0  502  503 -0.00000000000E+00 -0.00000000000E+00 -0.38823681464E+04  0.38823681464E+04  0.00000000000E+00 0. -1.
         -6    2    1    2    0  503 -0.10854952100E+03  0.10067541574E+02 -0.29650538299E+04  0.29720696706E+04  0.17253857265E+03 0.  0.
        -24    2    3    3    0    0  0.71681993221E+01 -0.11476455988E+01 -0.80878691264E+03  0.81266570665E+03  0.78972023799E+02 0.  0.
          6    2    1    2  501    0  0.10854952100E+03 -0.10067541574E+02 -0.90238532385E+03  0.92522746847E+03  0.17280694951E+03 0.  0.
         24    2    5    5    0    0  0.24870070718E+02 -0.23100583836E+02 -0.20495622871E+03  0.22265964730E+03  0.80113079186E+02 0.  0.
          5    1    5    5  501    0  0.83679450285E+02  0.13033042261E+02 -0.69742909515E+03  0.70256782117E+03  0.47000000000E+01 0. -1.
        -11    1    6    6    0    0 -0.26244757691E+02  0.35838477685E+00 -0.35743927429E+02  0.44345733661E+02  0.00000000000E+00 0.  1.
         12    1    6    6    0    0  0.51114828409E+02 -0.23458968612E+02 -0.16921230128E+03  0.17831391363E+03  0.00000000000E+00 0. -1.
         -5    1    3    3    0  503 -0.11571772032E+03  0.11215187173E+02 -0.21562669172E+04  0.21594039639E+04  0.47000000000E+01 0.  1.
         13    1    4    4    0    0 -0.15602586996E+02  0.33989412364E+02 -0.39369421796E+03  0.39546663339E+03  0.00000000000E+00 0. -1.
        -14    1    4    4    0    0  0.22770786319E+02 -0.35137057963E+02 -0.41509269468E+03  0.41719907326E+03  0.00000000000E+00 0.  1.
</event>
<event>
12    1  0.1040325E-001  0.2013483E+03  0.7818608E-02  0.1149589E+00
         21   -1    0    0  503  502  0.00000000000E+00  0.00000000000E+00  0.25062727325E+03  0.25062727325E+03  0.00000000000E+00 0.  1.
         21   -1    0    0  501  503 -0.00000000000E+00 -0.00000000000E+00 -0.22331074902E+03  0.22331074902E+03  0.00000000000E+00 0.  1.
          6    2    1    2  501    0 -0.89443679406E+02 -0.46753024056E+02 -0.11455042840E+03  0.22763051744E+03  0.16884263317E+03 0.  0.
         24    2    3    3    0    0  0.77858341098E+01  0.16292829470E+02 -0.38783335144E+02  0.89098570341E+02  0.78155822860E+02 0.  0.
         -6    2    1    2    0  502  0.89443679406E+02  0.46753024056E+02  0.14186695263E+03  0.24630750483E+03  0.17422725860E+03 0.  0.
        -24    2    5    5    0    0  0.90671434416E+01  0.22483701632E+02  0.11023637227E+02  0.90771493784E+02  0.86776803218E+02 0.  0.
          5    1    3    3  501    0 -0.97229513516E+02 -0.63045853526E+02 -0.75767093260E+02  0.13853194710E+03  0.47000000000E+01 0. -1.
        -11    1    4    4    0    0  0.19368249078E+02 -0.55848576832E+01 -0.55620666174E+02  0.59160613699E+02  0.00000000000E+00 0.  1.
         12    1    4    4    0    0 -0.11582414968E+02  0.21877687153E+02  0.16837331029E+02  0.29937956641E+02  0.00000000000E+00 0. -1.
         -5    1    5    5    0  502  0.80376535964E+02  0.24269322424E+02  0.13084331541E+03  0.15553601104E+03  0.47000000000E+01 0.  1.
         13    1    6    6    0    0  0.26508472733E+02 -0.21944108267E+02 -0.13675616851E+02  0.37030602352E+02  0.00000000000E+00 0. -1.
        -14    1    6    6    0    0 -0.17441329291E+02  0.44427809899E+02  0.24699254078E+02  0.53740891432E+02  0.00000000000E+00 0.  1.
</event>
<event>
12    1  0.1040325E-001  0.2603111E+03  0.7818608E-02  0.1107074E+00
         21   -1    0    0  503  502  0.00000000000E+00  0.00000000000E+00  0.91795762322E+02  0.91795762322E+02  0.00000000000E+00 0.  1.
         21   -1    0    0  501  503 -0.00000000000E+00 -0.00000000000E+00 -0.73610047839E+03  0.73610047839E+03  0.00000000000E+00 0.  1.
          6    2    1    2  501    0 -0.91941588592E+02  0.17234844326E+03 -0.32733751269E+03  0.41773764779E+03  0.17087320903E+03 0.  0.
         24    2    3    3    0    0 -0.11552770541E+02  0.14932510083E+03 -0.18395876680E+03  0.25168948870E+03  0.84114913050E+02 0.  0.
         -6    2    1    2    0  502  0.91941588592E+02 -0.17234844326E+03 -0.31696720338E+03  0.41015859292E+03  0.17205993642E+03 0.  0.
        -24    2    5    5    0    0 -0.13542372644E+02 -0.75922309623E+02 -0.93458669381E+02  0.14482291854E+03  0.79319366471E+02 0.  0.
          5    1    3    3  501    0 -0.80388818051E+02  0.23023342430E+02 -0.14337874589E+03  0.16604815909E+03  0.47000000000E+01 0. -1.
        -13    1    4    4    0    0 -0.22458783958E+02  0.54894157193E+00 -0.27545844861E+02  0.35545349665E+02  0.00000000000E+00 0.  1.
         14    1    4    4    0    0  0.10906013417E+02  0.14877615926E+03 -0.15641292194E+03  0.21614413904E+03  0.00000000000E+00 0. -1.
         -5    1    5    5    0  502  0.10548396124E+03 -0.96426133635E+02 -0.22350853400E+03  0.26533567438E+03  0.47000000000E+01 0.  1.
         11    1    6    6    0    0 -0.14967796237E+02  0.48149284774E+01  0.58958475035E+01  0.16792244586E+02  0.00000000000E+00 0. -1.
        -12    1    6    6    0    0  0.14254235930E+01 -0.80737238100E+02 -0.99354516884E+02  0.12803067396E+03  0.00000000000E+00 0.  1.
</event>
<event>
12    1  0.1040325E-001  0.2086772E+03  0.7818608E-02  0.1142970E+00
         21   -1    0    0  503  502  0.00000000000E+00  0.00000000000E+00  0.62024814423E+02  0.62024814423E+02  0.00000000000E+00 0. -1.
         21   -1    0    0  501  503 -0.00000000000E+00 -0.00000000000E+00 -0.85945256510E+03  0.85945256510E+03  0.00000000000E+00 0. -1.
          6    2    1    2  501    0  0.76738536808E+02 -0.88882219512E+02 -0.60089331884E+03  0.63609665265E+03  0.17250309825E+03 0.  0.
         24    2    3    3    0    0  0.68914890131E+02 -0.22829969188E+02 -0.52249763824E+03  0.53317881184E+03  0.77494476272E+02 0.  0.
         -6    2    1    2    0  502 -0.76738536808E+02  0.88882219512E+02 -0.19653443183E+03  0.28538072687E+03  0.17037465891E+03 0.  0.
        -24    2    5    5    0    0 -0.21503249971E+02 -0.18676846722E+02 -0.75072141578E+02  0.11393082867E+03  0.80828169077E+02 0.  0.
          5    1    3    3  501    0  0.78236466768E+01 -0.66052250323E+02 -0.78395680599E+02  0.10291784081E+03  0.47000000000E+01 0. -1.
        -11    1    4    4    0    0 -0.98941238854E+01  0.14237967794E+01 -0.20189553051E+03  0.20214283595E+03  0.00000000000E+00 0.  1.
         12    1    4    4    0    0  0.78809014016E+02 -0.24253765968E+02 -0.32060210773E+03  0.33103597589E+03  0.00000000000E+00 0. -1.
         -5    1    5    5    0  502 -0.55235286837E+02  0.10755906623E+03 -0.12146229026E+03  0.17144989821E+03  0.47000000000E+01 0.  1.
         13    1    6    6    0    0 -0.25756924847E+02  0.28167626298E+02 -0.27600272730E+02  0.47102116763E+02  0.00000000000E+00 0. -1.
        -14    1    6    6    0    0  0.42536748760E+01 -0.46844473020E+02 -0.47471868848E+02  0.66828711902E+02  0.00000000000E+00 0.  1.
</event>
<event>
12    1  0.1040325E-001  0.1835470E+03  0.7818608E-02  0.1164717E+00
         21   -1    0    0  501  502  0.00000000000E+00  0.00000000000E+00  0.17055350161E+03  0.17055350161E+03  0.00000000000E+00 0.  1.
         21   -1    0    0  502  503 -0.00000000000E+00 -0.00000000000E+00 -0.26881390047E+03  0.26881390047E+03  0.00000000000E+00 0.  1.
         -6    2    1    2    0  503 -0.51322143860E+02 -0.44223627487E+02 -0.16321883013E+03  0.24466477884E+03  0.16920631140E+03 0.  0.
        -24    2    3    3    0    0  0.61183276457E+01  0.19127353885E+02 -0.32234705521E+02  0.88166582342E+02  0.79567458185E+02 0.  0.
          6    2    1    2  501    0  0.51322143860E+02  0.44223627487E+02  0.64958431269E+02  0.19470262324E+03  0.17058669943E+03 0.  0.
         24    2    5    5    0    0  0.83984270145E+02 -0.12575229204E+02  0.48983337639E+02  0.12709923404E+03  0.80891000149E+02 0.  0.
          5    1    5    5  501    0 -0.32662126285E+02  0.56798856691E+02  0.15975093631E+02  0.67603389201E+02  0.47000000000E+01 0. -1.
        -11    1    6    6    0    0  0.30913390045E+02  0.23563422221E+01  0.62998798155E+02  0.70214233612E+02  0.00000000000E+00 0.  1.
         12    1    6    6    0    0  0.53070880100E+02 -0.14931571426E+02 -0.14015460516E+02  0.56885000425E+02  0.00000000000E+00 0. -1.
         -5    1    3    3    0  503 -0.57440471506E+02 -0.63350981373E+02 -0.13098412461E+03  0.15649819650E+03  0.47000000000E+01 0.  1.
         13    1    4    4    0    0  0.37494540960E+02  0.10862317124E+02  0.43367269446E+01  0.39276427227E+02  0.00000000000E+00 0. -1.
        -14    1    4    4    0    0 -0.31376213314E+02  0.82650367614E+01 -0.36571432466E+02  0.48890155115E+02  0.00000000000E+00 0.  1.
</event>
<event>
12    1  0.1040325E-001  0.1910928E+03  0.7818608E-02  0.1158099E+00
         21   -1    0    0  503  502  0.00000000000E+00  0.00000000000E+00  0.12860165797E+02  0.12860165797E+02  0.00000000000E+00 0. -1.
         21   -1    0    0  501  503 -0.00000000000E+00 -0.00000000000E+00 -0.28052332859E+04  0.28052332859E+04  0.00000000000E+00 0. -1.
          6    2    1    2  501    0 -0.61111351365E+02 -0.41647975978E+02 -0.14735938926E+04  0.14859325073E+04  0.17620245391E+03 0.  0.
         24    2    3    3    0    0  0.26980546488E+02  0.13119397198E+02 -0.64443650483E+03  0.65029878889E+03  0.81792650114E+02 0.  0.
         -6    2    1    2    0  502  0.61111351365E+02  0.41647975978E+02 -0.13187792276E+04  0.13321609445E+04  0.17321945539E+03 0.  0.
        -24    2    5    5    0    0  0.84154032280E+02 -0.23056925085E+01 -0.11591358554E+04  0.11649156564E+04  0.79657628541E+02 0.  0.
          5    1    3    3  501    0 -0.88091897853E+02 -0.54767373176E+02 -0.82915738775E+03  0.83563371838E+03  0.47000000000E+01 0. -1.
        -13    1    4    4    0    0 -0.73948943456E+01  0.40852244976E+02 -0.37136659504E+03  0.37367999450E+03  0.00000000000E+00 0.  1.
         14    1    4    4    0    0  0.34375440833E+02 -0.27732847778E+02 -0.27306990979E+03  0.27661879439E+03  0.00000000000E+00 0. -1.
         -5    1    5    5    0  502 -0.23042680915E+02  0.43953668486E+02 -0.15964337215E+03  0.16724528809E+03  0.47000000000E+01 0.  1.
         13    1    6    6    0    0  0.57891761488E+01  0.30319847518E+02 -0.33566634622E+03  0.33708263631E+03  0.00000000000E+00 0. -1.
        -14    1    6    6    0    0  0.78364856132E+02 -0.32625540026E+02 -0.82346950919E+03  0.82783302006E+03  0.00000000000E+00 0.  1.
</event>
<event>
12    1  0.1040325E-001  0.1752491E+03  0.7818608E-02  0.1173098E+00
         21   -1    0    0  501  502  0.00000000000E+00  0.00000000000E+00  0.24930660401E+03  0.24930660401E+03  0.00000000000E+00 0. -1.
         21   -1    0    0  502  503 -0.00000000000E+00 -0.00000000000E+00 -0.16454743958E+03  0.16454743958E+03  0.00000000000E+00 0. -1.
         -6    2    1    2    0  503 -0.23008137476E+02 -0.27677543847E+02 -0.63261136715E+02  0.18631748154E+03  0.17151329886E+03 0.  0.
        -24    2    3    3    0    0 -0.14356358062E+02 -0.57813925741E+02 -0.10108178981E+03  0.13696622420E+03  0.70665856780E+02 0.  0.
          6    2    1    2  501    0  0.23008137476E+02  0.27677543847E+02  0.14802030114E+03  0.22753656205E+03  0.16901910157E+03 0.  0.
         24    2    5    5    0    0  0.27926594730E+02 -0.23352293195E+02  0.28581327007E+02  0.97475061083E+02  0.85786193464E+02 0.  0.
          5    1    5    5  501    0 -0.49184572547E+01  0.51029837041E+02  0.11943897414E+03  0.13006150096E+03  0.47000000000E+01 0. -1.
        -13    1    6    6    0    0 -0.19966044999E+02 -0.34175893930E+02 -0.19975451858E+01  0.39631109820E+02  0.00000000000E+00 0.  1.
         14    1    6    6    0    0  0.47892639729E+02  0.10823600735E+02  0.30578872193E+02  0.57843951263E+02  0.00000000000E+00 0. -1.
         -5    1    3    3    0  503 -0.86517794139E+01  0.30136381894E+02  0.37820653094E+02  0.49351257341E+02  0.47000000000E+01 0.  1.
         13    1    4    4    0    0 -0.37447278025E+02 -0.39658604520E+02 -0.90651019817E+02  0.10579560926E+03  0.00000000000E+00 0. -1.
        -14    1    4    4    0    0  0.23090919964E+02 -0.18155321221E+02 -0.10430769992E+02  0.31170614945E+02  0.00000000000E+00 0.  1.
</event>
<event>
12    1  0.1040325E-001  0.1826878E+03  0.7818608E-02  0.1165312E+00
         21   -1    0    0  501  502  0.00000000000E+00  0.00000000000E+00  0.52383094652E+02  0.52383094652E+02  0.00000000000E+00 0.  1.
         21   -1    0    0  502  503 -0.00000000000E+00 -0.00000000000E+00 -0.70915179596E+03  0.70915179596E+03  0.00000000000E+00 0.  1.
         -6    2    1    2    0  503  0.46471678012E+02  0.38242203638E+02 -0.45048723797E+03  0.48598659571E+03  0.17211082661E+03 0.  0.
        -24    2    3    3    0    0  0.17162647143E+02  0.20929449322E+02 -0.88516560215E+02  0.12238844897E+03  0.80069674061E+02 0.  0.
          6    2    1    2  501    0 -0.46471678012E+02 -0.38242203638E+02 -0.20628146334E+03  0.27554829491E+03  0.17248981916E+03 0.  0.
         24    2    5    5    0    0 -0.76821378821E+02 -0.71581343758E+02 -0.12332382737E+03  0.18101437523E+03  0.80820941753E+02 0.  0.
          5    1    5    5  501    0  0.30349700810E+02  0.33339140120E+02 -0.82957635974E+02  0.94533919677E+02  0.47000000000E+01 0. -1.
        -11    1    6    6    0    0 -0.50070882718E+02 -0.19310497565E+02 -0.11755865070E+02  0.54938046706E+02  0.00000000000E+00 0.  1.
         12    1    6    6    0    0 -0.26750496104E+02 -0.52270846193E+02 -0.11156796229E+03  0.12607632852E+03  0.00000000000E+00 0. -1.
         -5    1    3    3    0  503  0.29309030869E+02  0.17312754316E+02 -0.36197067776E+03  0.36359814673E+03  0.47000000000E+01 0.  1.
         13    1    4    4    0    0  0.40977659849E+02 -0.12989916652E+02 -0.47865029403E+02  0.64334808472E+02  0.00000000000E+00 0. -1.
        -14    1    4    4    0    0 -0.23815012706E+02  0.33919365975E+02 -0.40651530812E+02  0.58053640503E+02  0.00000000000E+00 0.  1.
</event>
<event>
12    1  0.1040325E-001  0.1740403E+03  0.7818608E-02  0.1173730E+00
         21   -1    0    0  501  502  0.00000000000E+00  0.00000000000E+00  0.66991144134E+03  0.66991144134E+03  0.00000000000E+00 0.  1.
         21   -1    0    0  502  503 -0.00000000000E+00 -0.00000000000E+00 -0.48407717262E+02  0.48407717262E+02  0.00000000000E+00 0.  1.
         -6    2    1    2    0  503  0.29226802590E+02 -0.67663359357E+01  0.21815055749E+03  0.27906931807E+03  0.17143520427E+03 0.  0.
        -24    2    3    3    0    0  0.73966006026E+02 -0.30096009075E+02  0.20076068435E+03  0.22549350580E+03  0.64542458631E+02 0.  0.
          6    2    1    2  501    0 -0.29226802590E+02  0.67663359357E+01  0.40335316658E+03  0.43924984053E+03  0.17130865745E+03 0.  0.
         24    2    5    5    0    0  0.53039713789E+01 -0.35855879505E+01  0.39340315631E+03  0.40155860304E+03  0.80263813309E+02 0.  0.
          5    1    5    5  501    0 -0.34530773968E+02  0.10351923886E+02  0.99500102747E+01  0.37691237489E+02  0.47000000000E+01 0. -1.
        -13    1    6    6    0    0 -0.26580273065E+02 -0.26074192706E+02  0.12809512729E+03  0.13339691180E+03  0.00000000000E+00 0.  1.
         14    1    6    6    0    0  0.31884244444E+02  0.22488604756E+02  0.26530802902E+03  0.26816169124E+03  0.00000000000E+00 0. -1.
         -5    1    3    3    0  503 -0.44739203437E+02  0.23329673139E+02  0.17389873138E+02  0.53575812272E+02  0.47000000000E+01 0.  1.
         11    1    4    4    0    0  0.34110030150E+02 -0.81184307529E+01  0.16187925056E+03  0.16563301252E+03  0.00000000000E+00 0. -1.
        -12    1    4    4    0    0  0.39855975876E+02 -0.21977578322E+02  0.38881433796E+02  0.59860493282E+02  0.00000000000E+00 0.  1.
</event>
<event>
12    1  0.1040325E-001  0.2599240E+03  0.7818608E-02  0.1107259E+00
         21   -1    0    0  501  502  0.00000000000E+00  0.00000000000E+00  0.15369428440E+04  0.15369428440E+04  0.00000000000E+00 0.  1.
         21   -1    0    0  502  503 -0.00000000000E+00 -0.00000000000E+00 -0.45303303973E+02  0.45303303973E+02  0.00000000000E+00 0. -1.
         -6    2    1    2    0  503 -0.19374866512E+03 -0.13805290105E+02  0.60620889068E+03  0.65958299406E+03  0.17271761821E+03 0.  0.
        -24    2    3    3    0    0 -0.71995567627E+02 -0.14684625997E+02  0.12315259302E+03  0.16139621514E+03  0.74048478007E+02 0.  0.
          6    2    1    2  501    0  0.19374866512E+03  0.13805290105E+02  0.88543064934E+03  0.92266315391E+03  0.17201956144E+03 0.  0.
         24    2    5    5    0    0  0.19495980008E+03  0.54479699992E+02  0.72467209767E+03  0.75676777603E+03  0.81058351393E+02 0.  0.
          5    1    5    5  501    0 -0.12111349618E+01 -0.40674409887E+02  0.16075855167E+03  0.16589537788E+03  0.47000000000E+01 0. -1.
        -13    1    6    6    0    0  0.75794758053E+02  0.22666870774E+02  0.43174888077E+03  0.43893704380E+03  0.00000000000E+00 0.  1.
         14    1    6    6    0    0  0.11916504203E+03  0.31812829218E+02  0.29292321691E+03  0.31783073223E+03  0.00000000000E+00 0. -1.
         -5    1    3    3    0  503 -0.12175309749E+03  0.87933589150E+00  0.48305629766E+03  0.49818677892E+03  0.47000000000E+01 0.  1.
         13    1    4    4    0    0 -0.65966760762E+02 -0.95811938923E+01  0.13300158141E+03  0.14877107736E+03  0.00000000000E+00 0. -1.
        -14    1    4    4    0    0 -0.60288068649E+01 -0.51034321045E+01 -0.98489883931E+01  0.12625137775E+02  0.00000000000E+00 0.  1.
</event>
<event>
12    1  0.1040325E-001  0.2128599E+03  0.7818608E-02  0.1139548E+00
         21   -1    0    0  501  502  0.00000000000E+00  0.00000000000E+00  0.15389634469E+03  0.15389634469E+03  0.00000000000E+00 0. -1.
         21   -1    0    0  502  503 -0.00000000000E+00 -0.00000000000E+00 -0.37239099879E+03  0.37239099879E+03  0.00000000000E+00 0.  1.
         -6    2    1    2    0  503  0.89384616086E+02  0.87878571858E+02 -0.23065948454E+03  0.31308011258E+03  0.17059632500E+03 0.  0.
        -24    2    3    3    0    0  0.69327797843E+02 -0.10815557573E+02 -0.13254909844E+03  0.17240124067E+03  0.85027080678E+02 0.  0.
          6    2    1    2  501    0 -0.89384616086E+02 -0.87878571858E+02  0.12164830439E+02  0.21320723090E+03  0.17203804005E+03 0.  0.
         24    2    5    5    0    0 -0.68650411482E+02 -0.22547379227E+02  0.66340767215E+02  0.12571326485E+03  0.78622288550E+02 0.  0.
          5    1    5    5  501    0 -0.20734204604E+02 -0.65331192631E+02 -0.54175936776E+02  0.87493966059E+02  0.47000000000E+01 0. -1.
        -11    1    6    6    0    0 -0.61438435107E+02 -0.14639705061E+01  0.64282162146E+01  0.61791152131E+02  0.00000000000E+00 0.  1.
         12    1    6    6    0    0 -0.72119763751E+01 -0.21083408721E+02  0.59912551000E+02  0.63922112714E+02  0.00000000000E+00 0. -1.
         -5    1    3    3    0  503  0.20056818243E+02  0.98694129431E+02 -0.98110386098E+02  0.14067887191E+03  0.47000000000E+01 0.  1.
         11    1    4    4    0    0  0.12107092629E+02  0.11886052794E+02  0.81515786871E+01  0.18823075680E+02  0.00000000000E+00 0. -1.
        -12    1    4    4    0    0  0.57220705214E+02 -0.22701610367E+02 -0.14070067713E+03  0.15357816499E+03  0.00000000000E+00 0.  1.
</event>
<event>
12    1  0.1040325E-001  0.2334024E+03  0.7818608E-02  0.1124336E+00
         21   -1    0    0  503  502  0.00000000000E+00  0.00000000000E+00  0.91345062697E+03  0.91345062697E+03  0.00000000000E+00 0.  1.
         21   -1    0    0  501  503 -0.00000000000E+00 -0.00000000000E+00 -0.10985055483E+03  0.10985055483E+03  0.00000000000E+00 0. -1.
          6    2    1    2  501    0  0.13954288397E+03  0.73163748984E+02  0.55348485583E+02  0.23949183044E+03  0.17166167703E+03 0.  0.
         24    2    3    3    0    0  0.10253463682E+03 -0.18202423196E+02  0.51553306259E+02  0.14073009108E+03  0.79388507927E+02 0.  0.
         -6    2    1    2    0  502 -0.13954288397E+03 -0.73163748984E+02  0.74825158655E+03  0.78380935136E+03  0.17219614361E+03 0.  0.
        -24    2    5    5    0    0 -0.10946019131E+03 -0.13542122844E+02  0.26027955383E+03  0.29126645839E+03  0.70183908884E+02 0.  0.
          5    1    3    3  501    0  0.37008247151E+02  0.91366172181E+02  0.37951793247E+01  0.98761739364E+02  0.47000000000E+01 0. -1.
        -11    1    4    4    0    0  0.23829338507E+02 -0.27415689206E+02 -0.12939292034E+02  0.38560117566E+02  0.00000000000E+00 0.  1.
         12    1    4    4    0    0  0.78705298309E+02  0.92132660101E+01  0.64492598293E+02  0.10216997351E+03  0.00000000000E+00 0. -1.
         -5    1    5    5    0  502 -0.30082692652E+02 -0.59621626141E+02  0.48797203272E+03  0.49254289298E+03  0.47000000000E+01 0.  1.
         11    1    6    6    0    0 -0.15868355152E+01  0.28615350370E+01 -0.41057746704E+01  0.52501252713E+01  0.00000000000E+00 0. -1.
        -12    1    6    6    0    0 -0.10787335580E+03 -0.16403657881E+02  0.26438532850E+03  0.28601633311E+03  0.00000000000E+00 0.  1.
</event>
<event>
12    1  0.1040325E-001  0.1843144E+03  0.7818608E-02  0.1164098E+00
         21   -1    0    0  501  502  0.00000000000E+00  0.00000000000E+00  0.10037591873E+04  0.10037591873E+04  0.00000000000E+00 0. -1.
         21   -1    0    0  502  503 -0.00000000000E+00 -0.00000000000E+00 -0.10545324135E+03  0.10545324135E+03  0.00000000000E+00 0. -1.
         -6    2    1    2    0  503  0.62250620183E+02  0.39509135185E+01 -0.82033020153E+01  0.18449689937E+03  0.17343892955E+03 0.  0.
        -24    2    3    3    0    0  0.92582688109E+02  0.40349842703E+02 -0.29827594261E+02  0.13220333949E+03  0.79927302273E+02 0.  0.
          6    2    1    2  501    0 -0.62250620183E+02 -0.39509135185E+01  0.90650924796E+03  0.92471552927E+03  0.17160723762E+03 0.  0.
         24    2    5    5    0    0 -0.48463299904E+02  0.57152700760E+02  0.39720272132E+03  0.41154989328E+03  0.77383397417E+02 0.  0.
          5    1    5    5  501    0 -0.13787320279E+02 -0.61103614278E+02  0.50930652664E+03  0.51316563599E+03  0.47000000000E+01 0. -1.
        -13    1    6    6    0    0 -0.61378264825E+02  0.15813944270E+02  0.20741161955E+03  0.21688004092E+03  0.00000000000E+00 0.  1.
         14    1    6    6    0    0  0.12914964921E+02  0.41338756490E+02  0.18979110177E+03  0.19466985236E+03  0.00000000000E+00 0. -1.
         -5    1    3    3    0  503 -0.30332067927E+02 -0.36398929184E+02  0.21624292245E+02  0.52293559886E+02  0.47000000000E+01 0.  1.
         13    1    4    4    0    0  0.82456967312E+02 -0.47199187760E+01 -0.18362561283E+02  0.84608585548E+02  0.00000000000E+00 0. -1.
        -14    1    4    4    0    0  0.10125720797E+02  0.45069761479E+02 -0.11465032978E+02  0.47594753940E+02  0.00000000000E+00 0.  1.
</event>
<event>
12    1  0.1040325E-001  0.1855523E+03  0.7818608E-02  0.1162897E+00
         21   -1    0    0  501  502  0.00000000000E+00  0.00000000000E+00  0.13454017642E+03  0.13454017642E+03  0.00000000000E+00 0.  1.
         21   -1    0    0  502  503 -0.00000000000E+00 -0.00000000000E+00 -0.32864049124E+03  0.32864049124E+03  0.00000000000E+00 0.  1.
         -6    2    1    2    0  503  0.44827838487E+02 -0.52686279232E+02 -0.20726938335E+03  0.27716167246E+03  0.17050693911E+03 0.  0.
        -24    2    3    3    0    0  0.39227806260E+02  0.79192498773E+01 -0.34111183045E+02  0.93558178885E+02  0.77382328247E+02 0.  0.
          6    2    1    2  501    0 -0.44827838487E+02  0.52686279232E+02  0.13169068527E+02  0.18601899519E+03  0.17217509426E+03 0.  0.
         24    2    5    5    0    0 -0.82786200749E+02  0.77769181908E+02  0.17141741225E+02  0.14010754346E+03  0.80216480552E+02 0.  0.
          5    1    5    5  501    0  0.37958362262E+02 -0.25082902677E+02 -0.39726726977E+01  0.45911451738E+02  0.47000000000E+01 0. -1.
        -11    1    6    6    0    0 -0.66905650920E+02  0.21456731567E+02  0.35586644738E+02  0.78760184982E+02  0.00000000000E+00 0.  1.
         12    1    6    6    0    0 -0.15880549829E+02  0.56312450341E+02 -0.18444903513E+02  0.61347358475E+02  0.00000000000E+00 0. -1.
         -5    1    3    3    0  503  0.56000322274E+01 -0.60605529109E+02 -0.17315820031E+03  0.18360349358E+03  0.47000000000E+01 0.  1.
         11    1    4    4    0    0  0.31387690648E+02  0.39583910235E+02 -0.67211298908E+01  0.50963189271E+02  0.00000000000E+00 0. -1.
        -12    1    4    4    0    0  0.78401156118E+01 -0.31664660358E+02 -0.27390053154E+02  0.42594989613E+02  0.00000000000E+00 0.  1.
</event>
<event>
12    1  0.1040325E-001  0.2092860E+03  0.7818608E-02  0.1144122E+00
         21   -1    0    0  501  502  0.00000000000E+00  0.00000000000E+00  0.13154710444E+03  0.13154710444E+03  0.00000000000E+00 0.  1.
         21   -1    0    0  502  503 -0.00000000000E+00 -0.00000000000E+00 -0.68885186475E+03  0.68885186475E+03  0.00000000000E+00 0. -1.
         -6    2    1    2    0  503  0.10679509616E+03  0.51678851997E+02 -0.58280553024E+03  0.61924380970E+03  0.17240856552E+03 0.  0.
        -24    2    3    3    0    0  0.40528406419E+02 -0.10724948814E+02 -0.13314476942E+03  0.16043840612E+03  0.79090936791E+02 0.  0.
          6    2    1    2  501    0 -0.10679509616E+03 -0.51678851997E+02  0.25500769929E+02  0.20115515949E+03  0.16042821639E+03 0.  0.
         24    2    5    5    0    0 -0.35429258965E+02  0.21941088616E+01  0.59473441509E+02  0.10538663102E+03  0.79430505784E+02 0.  0.
          5    1    5    5  501    0 -0.71365837194E+02 -0.53872960859E+02 -0.33972671580E+02  0.95768528465E+02  0.47000000000E+01 0. -1.
        -13    1    6    6    0    0 -0.17670397296E+02 -0.28693985161E+02  0.61038485232E+02  0.69722911617E+02  0.00000000000E+00 0.  1.
         14    1    6    6    0    0 -0.17758861669E+02  0.30888094022E+02 -0.15650437225E+01  0.35663719407E+02  0.00000000000E+00 0. -1.
         -5    1    3    3    0  503  0.66266689740E+02  0.62403800811E+02 -0.44966076083E+03  0.45880540358E+03  0.47000000000E+01 0.  1.
         13    1    4    4    0    0  0.13581467118E+02  0.28648606393E+02 -0.92428320054E+02  0.97714856830E+02  0.00000000000E+00 0. -1.
        -14    1    4    4    0    0  0.26946939301E+02 -0.39373555206E+02 -0.40716449362E+02  0.62723549293E+02  0.00000000000E+00 0.  1.
</event>
<event>
12    1  0.1040325E-001  0.2275672E+03  0.7818608E-02  0.1129141E+00
         21   -1    0    0  501  502  0.00000000000E+00  0.00000000000E+00  0.26220902913E+02  0.26220902913E+02  0.00000000000E+00 0.  1.
         21   -1    0    0  502  503 -0.00000000000E+00 -0.00000000000E+00 -0.19909842479E+04  0.19909842479E+04  0.00000000000E+00 0.  1.
         -6    2    1    2    0  503 -0.12414206089E+03  0.82734220920E+02 -0.11380897969E+04  0.11597811181E+04  0.16609531448E+03 0.  0.
        -24    2    3    3    0    0 -0.35659504851E+02 -0.17407998715E+02 -0.46924786703E+03  0.47770396408E+03  0.80205223529E+02 0.  0.
          6    2    1    2  501    0  0.12414206089E+03 -0.82734220920E+02 -0.82667354809E+03  0.85742403272E+03  0.17184473859E+03 0.  0.
         24    2    5    5    0    0  0.27790619435E+02 -0.83093125783E+02 -0.58884479119E+03  0.60077575843E+03  0.80725075005E+02 0.  0.
          5    1    5    5  501    0  0.96351441458E+02  0.35890486301E+00 -0.23782875690E+03  0.25664827429E+03  0.47000000000E+01 0. -1.
        -11    1    6    6    0    0  0.47608944353E+02 -0.32430691578E+02 -0.40418704705E+03  0.40827139300E+03  0.00000000000E+00 0.  1.
         12    1    6    6    0    0 -0.19818324918E+02 -0.50662434205E+02 -0.18465774414E+03  0.19250436544E+03  0.00000000000E+00 0. -1.
         -5    1    3    3    0  503 -0.88482556042E+02  0.10014221964E+03 -0.66884192992E+03  0.68207715406E+03  0.47000000000E+01 0.  1.
         11    1    4    4    0    0 -0.55369927370E+02 -0.30072173361E+02 -0.27944256321E+03  0.28645821790E+03  0.00000000000E+00 0. -1.
        -12    1    4    4    0    0  0.19710422519E+02  0.12664174646E+02 -0.18980530381E+03  0.19124574618E+03  0.00000000000E+00 0.  1.
</event>
<event>
12    1  0.1040325E-001  0.1939149E+03  0.7818608E-02  0.1157777E+00
         21   -1    0    0  501  502  0.00000000000E+00  0.00000000000E+00  0.62505103156E+03  0.62505103156E+03  0.00000000000E+00 0. -1.
         21   -1    0    0  502  503 -0.00000000000E+00 -0.00000000000E+00 -0.58951054126E+02  0.58951054126E+02  0.00000000000E+00 0. -1.
         -6    2    1    2    0  503 -0.63905633582E+02 -0.40597147384E+01  0.22082618779E+03  0.29388295910E+03  0.18303709227E+03 0.  0.
        -24    2    3    3    0    0 -0.97835296572E+02 -0.48425043619E+02  0.17541084685E+03  0.22174318068E+03  0.80525417612E+02 0.  0.
          6    2    1    2  501    0  0.63905633582E+02  0.40597147384E+01  0.34527378965E+03  0.39011912659E+03  0.16993684659E+03 0.  0.
         24    2    5    5    0    0 -0.29290526821E+02  0.40233693178E+01  0.11423418573E+03  0.14094666782E+03  0.77086908855E+02 0.  0.
          5    1    5    5  501    0  0.93196160403E+02  0.36345420578E-01  0.23103960391E+03  0.24917245877E+03  0.47000000000E+01 0. -1.
        -11    1    6    6    0    0 -0.18521871241E+02 -0.28411420953E+02  0.96823269622E+02  0.10259149134E+03  0.00000000000E+00 0.  1.
         12    1    6    6    0    0 -0.10768655580E+02  0.32434790271E+02  0.17410916111E+02  0.38355176479E+02  0.00000000000E+00 0. -1.
         -5    1    3    3    0  503  0.33929662990E+02  0.44365328880E+02  0.45415340944E+02  0.72139778419E+02  0.47000000000E+01 0.  1.
         11    1    4    4    0    0 -0.67327981270E+02  0.11214465664E+02  0.79953727567E+02  0.10512573355E+03  0.00000000000E+00 0. -1.
        -12    1    4    4    0    0 -0.30507315302E+02 -0.59639509283E+02  0.95457119280E+02  0.11661744713E+03  0.00000000000E+00 0.  1.
</event>
<event>
12    1  0.1040325E-001  0.1824337E+03  0.7818608E-02  0.1165983E+00
         21   -1    0    0  501  502  0.00000000000E+00  0.00000000000E+00  0.70623871143E+02  0.70623871143E+02  0.00000000000E+00 0. -1.
         21   -1    0    0  502  503 -0.00000000000E+00 -0.00000000000E+00 -0.59715647043E+03  0.59715647043E+03  0.00000000000E+00 0. -1.
         -6    2    1    2    0  503  0.50610190803E+02  0.33796448197E+02 -0.41869284699E+03  0.45585708870E+03  0.16970089532E+03 0.  0.
        -24    2    3    3    0    0  0.53905451249E+01  0.26804634100E+02 -0.91576675939E+02  0.12552274113E+03  0.81376437491E+02 0.  0.
          6    2    1    2  501    0 -0.50610190803E+02 -0.33796448197E+02 -0.10783975229E+03  0.21192325287E+03  0.17198389927E+03 0.  0.
         24    2    5    5    0    0 -0.80795611880E+02 -0.49693046585E+02 -0.12618588963E+03  0.17290361370E+03  0.70536877673E+02 0.  0.
          5    1    5    5  501    0  0.30185421077E+02  0.15896598389E+02  0.18346137334E+02  0.39019639170E+02  0.47000000000E+01 0. -1.
        -11    1    6    6    0    0 -0.80048323488E+02 -0.15986352461E+02 -0.10533492969E+03  0.13326194119E+03  0.00000000000E+00 0.  1.
         12    1    6    6    0    0 -0.74728839176E+00 -0.33706694125E+02 -0.20850959937E+02  0.39641672506E+02  0.00000000000E+00 0. -1.
         -5    1    3    3    0  503  0.45219645678E+02  0.69918140969E+01 -0.32711617105E+03  0.33033434757E+03  0.47000000000E+01 0.  1.
         11    1    4    4    0    0  0.18580979768E+02  0.21145508736E+02 -0.10325218733E+03  0.10702055661E+03  0.00000000000E+00 0. -1.
        -12    1    4    4    0    0 -0.13190434643E+02  0.56591253639E+01  0.11675511388E+02  0.18502184523E+02  0.00000000000E+00 0.  1.
</event>
<event>
12    1  0.1040325E-001  0.1852253E+03  0.7818608E-02  0.1162905E+00
         21   -1    0    0  503  502  0.00000000000E+00  0.00000000000E+00  0.42011494335E+03  0.42011494335E+03  0.00000000000E+00 0. -1.
         21   -1    0    0  501  503 -0.00000000000E+00 -0.00000000000E+00 -0.81649699650E+02  0.81649699650E+02  0.00000000000E+00 0. -1.
          6    2    1    2  501    0  0.30649933334E+02 -0.63631740720E+02  0.15996858133E+03  0.24453037978E+03  0.17092905775E+03 0.  0.
         24    2    3    3    0    0  0.56334924156E+02 -0.56050830394E+02  0.37185938091E+02  0.11877324704E+03  0.80056048821E+02 0.  0.
         -6    2    1    2    0  502 -0.30649933334E+02  0.63631740720E+02  0.17849666237E+03  0.25723426322E+03  0.17123081164E+03 0.  0.
        -24    2    5    5    0    0 -0.45573863043E+02  0.47555163394E+02  0.20050727027E+03  0.22580598174E+03  0.80291378110E+02 0.  0.
          5    1    3    3  501    0 -0.25684990821E+02 -0.75809103264E+01  0.12278264324E+03  0.12575713274E+03  0.47000000000E+01 0. -1.
        -13    1    4    4    0    0  0.31227417887E+02  0.10278333717E+02 -0.90654896834E+01  0.34102476084E+02  0.00000000000E+00 0.  1.
         14    1    4    4    0    0  0.25107506269E+02 -0.66329164111E+02  0.46251427774E+02  0.84670770954E+02  0.00000000000E+00 0. -1.
         -5    1    5    5    0  502  0.14923929708E+02  0.16076577326E+02 -0.22010607903E+02  0.31428281479E+02  0.47000000000E+01 0.  1.
         11    1    6    6    0    0 -0.16423987396E+02 -0.44285250861E+01  0.40352186992E+00  0.17015346788E+02  0.00000000000E+00 0. -1.
        -12    1    6    6    0    0 -0.29149875647E+02  0.51983688480E+02  0.20010374840E+03  0.20879063495E+03  0.00000000000E+00 0.  1.
</event>
<event>
12    1  0.1040325E-001  0.1842452E+03  0.7818608E-02  0.1164519E+00
         21   -1    0    0  503  502  0.00000000000E+00  0.00000000000E+00  0.42737309701E+03  0.42737309701E+03  0.00000000000E+00 0. -1.
         21   -1    0    0  501  503 -0.00000000000E+00 -0.00000000000E+00 -0.21757205975E+03  0.21757205975E+03  0.00000000000E+00 0. -1.
          6    2    1    2  501    0 -0.44881716986E+02  0.43434899498E+02 -0.15299842754E+03  0.23948868221E+03  0.17333594856E+03 0.  0.
         24    2    3    3    0    0  0.34406259453E+02  0.38107993681E+01 -0.11185539890E+03  0.14165468339E+03  0.79725191647E+02 0.  0.
         -6    2    1    2    0  502  0.44881716986E+02 -0.43434899498E+02  0.36279946480E+03  0.40545647455E+03  0.16991333696E+03 0.  0.
        -24    2    5    5    0    0  0.10462568394E+02 -0.22919864020E+01  0.33588898596E+03  0.34525945669E+03  0.79170467994E+02 0.  0.
          5    1    3    3  501    0 -0.79287976439E+02  0.39624100130E+02 -0.41143028646E+02  0.97833998820E+02  0.47000000000E+01 0. -1.
        -13    1    4    4    0    0  0.35631230138E+02 -0.13596318622E+02 -0.11557341166E+02  0.39849925672E+02  0.00000000000E+00 0.  1.
         14    1    4    4    0    0 -0.12249706850E+01  0.17407117990E+02 -0.10029805773E+03  0.10180475772E+03  0.00000000000E+00 0. -1.
         -5    1    5    5    0  502  0.34419148591E+02 -0.41142913096E+02  0.26910478839E+02  0.60197017859E+02  0.47000000000E+01 0.  1.
         13    1    6    6    0    0  0.13568684150E+02  0.25836035702E+02  0.49396248379E+02  0.57372461027E+02  0.00000000000E+00 0. -1.
        -14    1    6    6    0    0 -0.31061157556E+01 -0.28128022104E+02  0.28649273758E+03  0.28788699566E+03  0.00000000000E+00 0.  1.
</event>
<event>
12    1  0.1040325E-001  0.2390075E+03  0.7818608E-02  0.1120831E+00
         21   -1    0    0  503  502  0.00000000000E+00  0.00000000000E+00  0.73677845175E+03  0.73677845175E+03  0.00000000000E+00 0. -1.
         21   -1    0    0  501  503 -0.00000000000E+00 -0.00000000000E+00 -0.26586183758E+03  0.26586183758E+03  0.00000000000E+00 0. -1.
          6    2    1    2  501    0  0.15057140050E+03  0.62268299305E+02 -0.18696378421E+03  0.30344692958E+03  0.17485849914E+03 0.  0.
         24    2    3    3    0    0  0.52827514782E+02  0.17504807931E+02 -0.16759166406E+03  0.19410797772E+03  0.80583971940E+02 0.  0.
         -6    2    1    2    0  502 -0.15057140050E+03 -0.62268299305E+02  0.65788039838E+03  0.69919335975E+03  0.17180118742E+03 0.  0.
        -24    2    5    5    0    0 -0.60157431732E+02 -0.89656214213E+02  0.47375986758E+03  0.49219760256E+03  0.78440515679E+02 0.  0.
          5    1    3    3  501    0  0.97743885719E+02  0.44763491374E+02 -0.19372120150E+02  0.10933895186E+03  0.47000000000E+01 0. -1.
        -13    1    4    4    0    0 -0.10793495515E+01 -0.21990359424E+02 -0.85321922622E+02  0.88116805338E+02  0.00000000000E+00 0.  1.
         14    1    4    4    0    0  0.53906864333E+02  0.39495167356E+02 -0.82269741433E+02  0.10599117238E+03  0.00000000000E+00 0. -1.
         -5    1    5    5    0  502 -0.90413968768E+02  0.27387914908E+02  0.18412053079E+03  0.20699575718E+03  0.47000000000E+01 0.  1.
         13    1    6    6    0    0 -0.36393000185E+02 -0.62109793429E+02  0.42662444523E+03  0.43265516774E+03  0.00000000000E+00 0. -1.
        -14    1    6    6    0    0 -0.23764431548E+02 -0.27546420784E+02  0.47135422347E+02  0.59542434823E+02  0.00000000000E+00 0.  1.
</event>
<event>
12    1  0.1040325E-001  0.1927806E+03  0.7818608E-02  0.1156762E+00
         21   -1    0    0  503  502  0.00000000000E+00  0.00000000000E+00  0.17449453926E+03  0.17449453926E+03  0.00000000000E+00 0.  1.
         21   -1    0    0  501  503 -0.00000000000E+00 -0.00000000000E+00 -0.43936017238E+03  0.43936017238E+03  0.00000000000E+00 0.  1.
          6    2    1    2  501    0  0.51697339859E+02  0.67687285014E+02 -0.35403433656E+03  0.40145080356E+03  0.16902145636E+03 0.  0.
         24    2    3    3    0    0  0.88261166778E+02  0.26488589063E+02 -0.30043920927E+03  0.32445227334E+03  0.80708613494E+02 0.  0.
         -6    2    1    2    0  502 -0.51697339859E+02 -0.67687285014E+02  0.89168703442E+02  0.21240390808E+03  0.17294559547E+03 0.  0.
        -24    2    5    5    0    0 -0.30747831215E+02 -0.10298599122E+03  0.10306893608E+03  0.16881277320E+03  0.79517314467E+02 0.  0.
          5    1    3    3  501    0 -0.36563826919E+02  0.41198695951E+02 -0.53595127288E+02  0.76998530220E+02  0.47000000000E+01 0. -1.
        -13    1    4    4    0    0  0.63132460513E+02  0.48105694983E+02 -0.14289787848E+03  0.16346152188E+03  0.00000000000E+00 0.  1.
         14    1    4    4    0    0  0.25128706264E+02 -0.21617105921E+02 -0.15754133079E+03  0.16099075146E+03  0.00000000000E+00 0. -1.
         -5    1    5    5    0  502 -0.20949508644E+02  0.35298706202E+02 -0.13900232642E+02  0.43591134873E+02  0.47000000000E+01 0.  1.
         13    1    6    6    0    0 -0.16159672598E+02 -0.28726015303E+02 -0.84632037837E+01  0.34028587863E+02  0.00000000000E+00 0. -1.
        -14    1    6    6    0    0 -0.14588158617E+02 -0.74259975913E+02  0.11153213987E+03  0.13478418534E+03  0.00000000000E+00 0.  1.
</event>
<event>
12    1  0.1040325E-001  0.2396109E+03  0.7818608E-02  0.1120258E+00
         21   -1    0    0  501  502  0.00000000000E+00  0.00000000000E+00  0.26699676823E+03  0.26699676823E+03  0.00000000000E+00 0. -1.
         21   -1    0    0  502  503 -0.00000000000E+00 -0.00000000000E+00 -0.25079868334E+03  0.25079868334E+03  0.00000000000E+00 0. -1.
         -6    2    1    2    0  503  0.41208169617E+02 -0.15921359122E+03 -0.91145796061E+02  0.25636095413E+03  0.17425929470E+03 0.  0.
        -24    2    3    3    0    0 -0.76436363864E+01 -0.72642635022E+02 -0.11138806170E+03  0.15480865861E+03  0.78886265544E+02 0.  0.
          6    2    1    2  501    0 -0.41208169617E+02  0.15921359122E+03  0.10734388095E+03  0.26143449745E+03  0.17256363118E+03 0.  0.
         24    2    5    5    0    0  0.29307092373E+02  0.13256684529E+03  0.50039778205E+02  0.16662784455E+03  0.82631622532E+02 0.  0.
          5    1    5    5  501    0 -0.70515261991E+02  0.26646745926E+02  0.57304102746E+02  0.94806652897E+02  0.47000000000E+01 0. -1.
        -13    1    6    6    0    0  0.18258565995E+02  0.12331096765E+02 -0.17628110648E+02  0.28216687698E+02  0.00000000000E+00 0.  1.
         14    1    6    6    0    0  0.11048526378E+02  0.12023574853E+03  0.67667888853E+02  0.13841115685E+03  0.00000000000E+00 0. -1.
         -5    1    3    3    0  503  0.48851806004E+02 -0.86570956198E+02  0.20242265635E+02  0.10155229552E+03  0.47000000000E+01 0.  1.
         11    1    4    4    0    0  0.23073316507E+00 -0.83947506742E+02 -0.64291882453E+02  0.10573875011E+03  0.00000000000E+00 0. -1.
        -12    1    4    4    0    0 -0.78743695515E+01  0.11304871720E+02 -0.47096179244E+02  0.49069908496E+02  0.00000000000E+00 0.  1.
</event>
<event>
12    1  0.1040325E-001  0.1978105E+03  0.7818608E-02  0.1151709E+00
         21   -1    0    0  503  502  0.00000000000E+00  0.00000000000E+00  0.92158199477E+02  0.92158199477E+02  0.00000000000E+00 0. -1.
         21   -1    0    0  501  503 -0.00000000000E+00 -0.00000000000E+00 -0.86960894522E+03  0.86960894522E+03  0.00000000000E+00 0. -1.
          6    2    1    2  501    0  0.89273695050E+01 -0.99238191456E+02 -0.73291319358E+03  0.75900479279E+03  0.17028978121E+03 0.  0.
         24    2    3    3    0    0  0.36883366471E+02  0.49686709595E+01 -0.37671044691E+03  0.38679101729E+03  0.79444696662E+02 0.  0.
         -6    2    1    2    0  502 -0.89273695050E+01  0.99238191456E+02 -0.44537552170E+02  0.20276235191E+03  0.17088318007E+03 0.  0.
        -24    2    5    5    0    0  0.34071484293E+02  0.11283643751E+03 -0.14449075238E+02  0.14834525747E+03  0.88907884732E+02 0.  0.
          5    1    3    3  501    0 -0.27955996966E+02 -0.10420686242E+03 -0.35620274666E+03  0.37221377550E+03  0.47000000000E+01 0. -1.
        -13    1    4    4    0    0  0.30240544124E+02 -0.59976371669E+01 -0.43407993114E+02  0.53242051301E+02  0.00000000000E+00 0.  1.
         14    1    4    4    0    0  0.66428223467E+01  0.10966308126E+02 -0.33330245380E+03  0.33354896599E+03  0.00000000000E+00 0. -1.
         -5    1    5    5    0  502 -0.42998853798E+02 -0.13598246051E+02 -0.30088476932E+02  0.54417094444E+02  0.47000000000E+01 0.  1.
         13    1    6    6    0    0 -0.17959799859E+02  0.60933940733E+02  0.20790186003E+02  0.66841090493E+02  0.00000000000E+00 0. -1.
        -14    1    6    6    0    0  0.52031284153E+02  0.51902496773E+02 -0.35239261241E+02  0.81504166977E+02  0.00000000000E+00 0.  1.
</event>
<event>
12    1  0.1040325E-001  0.1824744E+03  0.7818608E-02  0.1166262E+00
         21   -1    0    0  501  502  0.00000000000E+00  0.00000000000E+00  0.17870746222E+04  0.17870746222E+04  0.00000000000E+00 0. -1.
         21   -1    0    0  502  503 -0.00000000000E+00 -0.00000000000E+00 -0.31707545373E+02  0.31707545373E+02  0.00000000000E+00 0. -1.
         -6    2    1    2    0  503 -0.17233817781E+02  0.47833014831E+02  0.28105850608E+03  0.33322412938E+03  0.17163750984E+03 0.  0.
        -24    2    3    3    0    0 -0.39873113966E+02  0.38951982377E+01  0.60490467202E+02  0.10713693551E+03  0.78830124588E+02 0.  0.
          6    2    1    2  501    0  0.17233817781E+02 -0.47833014831E+02  0.14743085708E+04  0.14855580382E+04  0.17524817048E+03 0.  0.
         24    2    5    5    0    0  0.68591203894E+01  0.16717211665E+02  0.11288435518E+04  0.11339296329E+04  0.10574561567E+03 0.  0.
          5    1    5    5  501    0  0.10374697392E+02 -0.64550226496E+02  0.34546501893E+03  0.35162840527E+03  0.47000000000E+01 0. -1.
        -11    1    6    6    0    0 -0.44294512394E+02  0.29179619111E+02  0.66360026732E+03  0.66571673314E+03  0.00000000000E+00 0.  1.
         12    1    6    6    0    0  0.51153632783E+02 -0.12462407446E+02  0.46524328451E+03  0.46821289979E+03  0.00000000000E+00 0. -1.
         -5    1    3    3    0  503  0.22639296184E+02  0.43937816593E+02  0.22056803887E+03  0.22608719387E+03  0.47000000000E+01 0.  1.
         11    1    4    4    0    0  0.77305522472E+01  0.77913819703E+01 -0.14525611685E+02  0.18206055747E+02  0.00000000000E+00 0. -1.
        -12    1    4    4    0    0 -0.47603666213E+02 -0.38961837326E+01  0.75016078887E+02  0.88930879767E+02  0.00000000000E+00 0.  1.
</event>
<event>
12    1  0.1040325E-001  0.2340935E+03  0.7818608E-02  0.1123805E+00
         21   -1    0    0  501  502  0.00000000000E+00  0.00000000000E+00  0.33714881844E+03  0.33714881844E+03  0.00000000000E+00 0. -1.
         21   -1    0    0  502  503 -0.00000000000E+00 -0.00000000000E+00 -0.23306907771E+03  0.23306907771E+03  0.00000000000E+00 0. -1.
         -6    2    1    2    0  503  0.14084596045E+03  0.84651130623E+02 -0.10485434754E+03  0.25650384404E+03  0.16672249194E+03 0.  0.
        -24    2    3    3    0    0  0.81055675931E+01  0.52309780840E+02 -0.77273668321E+02  0.11704503769E+03  0.70187660136E+02 0.  0.
          6    2    1    2  501    0 -0.14084596045E+03 -0.84651130623E+02  0.20893408827E+03  0.31371405211E+03  0.16661228874E+03 0.  0.
         24    2    5    5    0    0 -0.11913789819E+03 -0.12228341712E+03  0.15745958797E+03  0.24619262488E+03  0.81671376954E+02 0.  0.
          5    1    5    5  501    0 -0.21708062260E+02  0.37632286497E+02  0.51474500302E+02  0.67521427232E+02  0.47000000000E+01 0. -1.
        -13    1    6    6    0    0 -0.24516126112E+02 -0.72098867473E+01  0.67459514659E+02  0.72137431507E+02  0.00000000000E+00 0.  1.
         14    1    6    6    0    0 -0.94621772075E+02 -0.11507353037E+03  0.90000073308E+02  0.17405519337E+03  0.00000000000E+00 0. -1.
         -5    1    3    3    0  503  0.13274039285E+03  0.32341349783E+02 -0.27580679223E+02  0.13945880635E+03  0.47000000000E+01 0.  1.
         11    1    4    4    0    0 -0.10505286936E+02  0.22378912278E+02 -0.77967476202E+02  0.81793056635E+02  0.00000000000E+00 0. -1.
        -12    1    4    4    0    0  0.18610854529E+02  0.29930868563E+02  0.69380788092E+00  0.35251981059E+02  0.00000000000E+00 0.  1.
</event>
<event>
12    1  0.1040325E-001  0.2816882E+03  0.7818608E-02  0.1095102E+00
         21   -1    0    0  503  502  0.00000000000E+00  0.00000000000E+00  0.11545279475E+04  0.11545279475E+04  0.00000000000E+00 0.  1.
         21   -1    0    0  501  503 -0.00000000000E+00 -0.00000000000E+00 -0.72895523621E+02  0.72895523621E+02  0.00000000000E+00 0. -1.
          6    2    1    2  501    0  0.19872539396E+03 -0.93049821576E+02  0.69544825142E+03  0.74942089491E+03  0.17272335055E+03 0.  0.
         24    2    3    3    0    0  0.13903881983E+03 -0.81462783211E+02  0.29465719875E+03  0.34401701667E+03  0.74544379517E+02 0.  0.
         -6    2    1    2    0  502 -0.19872539396E+03  0.93049821576E+02  0.38618417242E+03  0.47800257617E+03  0.17663011153E+03 0.  0.
        -24    2    5    5    0    0 -0.77879429761E+02  0.95363957842E+02  0.28369963906E+03  0.31946465683E+03  0.80079284007E+02 0.  0.
          5    1    3    3  501    0  0.59686574139E+02 -0.11587038365E+02  0.40079105267E+03  0.40540387824E+03  0.47000000000E+01 0. -1.
        -13    1    4    4    0    0  0.40929230573E+02 -0.39076758981E+02  0.17331799491E+03  0.18232202929E+03  0.00000000000E+00 0.  1.
         14    1    4    4    0    0  0.98109589253E+02 -0.42386024230E+02  0.12133920384E+03  0.16169498738E+03  0.00000000000E+00 0. -1.
         -5    1    5    5    0  502 -0.12084596420E+03 -0.23141362662E+01  0.10248453337E+03  0.15853791935E+03  0.47000000000E+01 0.  1.
         11    1    6    6    0    0  0.16460033573E+02  0.10804680750E+02  0.29875541389E+02  0.35780187319E+02  0.00000000000E+00 0. -1.
        -12    1    6    6    0    0 -0.94339463334E+02  0.84559277092E+02  0.25382409767E+03  0.28368446951E+03  0.00000000000E+00 0.  1.
</event>
<event>
12    1  0.1040325E-001  0.2013453E+03  0.7818608E-02  0.1148903E+00
         21   -1    0    0  501  502  0.00000000000E+00  0.00000000000E+00  0.26625213460E+03  0.26625213460E+03  0.00000000000E+00 0. -1.
         21   -1    0    0  502  503 -0.00000000000E+00 -0.00000000000E+00 -0.16543446993E+03  0.16543446993E+03  0.00000000000E+00 0. -1.
         -6    2    1    2    0  503  0.56332385552E+02  0.87106700188E+02 -0.13059268024E+02  0.20036889688E+03  0.17092757377E+03 0.  0.
        -24    2    3    3    0    0  0.15883997493E+02  0.80507515423E+02 -0.66715637456E+02  0.13268790016E+03  0.80133271196E+02 0.  0.
          6    2    1    2  501    0 -0.56332385552E+02 -0.87106700188E+02  0.11387693270E+03  0.23131770765E+03  0.17256596186E+03 0.  0.
         24    2    5    5    0    0 -0.12213842289E+02  0.35596986672E+02  0.54973732273E+02  0.88159342024E+02  0.57737638871E+02 0.  0.
          5    1    5    5  501    0 -0.44118543262E+02 -0.12270368686E+03  0.58903200425E+02  0.14315836563E+03  0.47000000000E+01 0. -1.
        -13    1    6    6    0    0 -0.31686185874E+02  0.11724158160E+02  0.13241740129E+02  0.36287931072E+02  0.00000000000E+00 0.  1.
         14    1    6    6    0    0  0.19472343585E+02  0.23872828512E+02  0.41731992144E+02  0.51871410952E+02  0.00000000000E+00 0. -1.
         -5    1    3    3    0  503  0.40448388059E+02  0.65991847651E+01  0.53656369432E+02  0.67680996718E+02  0.47000000000E+01 0.  1.
         11    1    4    4    0    0  0.35042679271E+02  0.73499178164E+02 -0.74968500156E+02  0.11068150061E+03  0.00000000000E+00 0. -1.
        -12    1    4    4    0    0 -0.19158681778E+02  0.70083372587E+01  0.82528626998E+01  0.22006399555E+02  0.00000000000E+00 0.  1.
</event>
<event>
12    1  0.1040325E-001  0.2379591E+03  0.7818608E-02  0.1121271E+00
         21   -1    0    0  503  502  0.00000000000E+00  0.00000000000E+00  0.66552915706E+03  0.66552915706E+03  0.00000000000E+00 0.  1.
         21   -1    0    0  501  503 -0.00000000000E+00 -0.00000000000E+00 -0.91666283011E+02  0.91666283011E+02  0.00000000000E+00 0. -1.
          6    2    1    2  501    0  0.13523326620E+03  0.92680710027E+02  0.18403082258E+03  0.30081870393E+03  0.17247260268E+03 0.  0.
         24    2    3    3    0    0  0.62667721286E+02  0.11358862477E+03  0.79248504563E+02  0.17157349753E+03  0.79545713967E+02 0.  0.
         -6    2    1    2    0  502 -0.13523326620E+03 -0.92680710027E+02  0.38983205147E+03  0.45637673614E+03  0.17156032945E+03 0.  0.
        -24    2    5    5    0    0 -0.10590789080E+03  0.58263083588E+01  0.19820767143E+03  0.23887822272E+03  0.80784262550E+02 0.  0.
          5    1    3    3  501    0  0.72565544916E+02 -0.20907914745E+02  0.10478231802E+03  0.12924520640E+03  0.47000000000E+01 0. -1.
        -11    1    4    4    0    0  0.19465441911E+02  0.10210148907E+02  0.51722280513E+02  0.56199153650E+02  0.00000000000E+00 0.  1.
         12    1    4    4    0    0  0.43202279374E+02  0.10337847586E+03  0.27526224050E+02  0.11537434388E+03  0.00000000000E+00 0. -1.
         -5    1    5    5    0  502 -0.29325375404E+02 -0.98507018385E+02  0.19162438004E+03  0.21749851342E+03  0.47000000000E+01 0.  1.
         11    1    6    6    0    0 -0.68696779580E+02 -0.23703712977E+02  0.65167001259E+02  0.97610714508E+02  0.00000000000E+00 0. -1.
        -12    1    6    6    0    0 -0.37211111218E+02  0.29530021336E+02  0.13304067017E+03  0.14126750822E+03  0.00000000000E+00 0.  1.
</event>
<event>
12    1  0.1040325E-001  0.2014383E+03  0.7818608E-02  0.1148558E+00
         21   -1    0    0  501  502  0.00000000000E+00  0.00000000000E+00  0.89688611513E+02  0.89688611513E+02  0.00000000000E+00 0. -1.
         21   -1    0    0  502  503 -0.00000000000E+00 -0.00000000000E+00 -0.57088008207E+03  0.57088008207E+03  0.00000000000E+00 0. -1.
         -6    2    1    2    0  503  0.44859632167E+02 -0.95033786945E+02 -0.39128747285E+03  0.44009462042E+03  0.17185337140E+03 0.  0.
        -24    2    3    3    0    0  0.62210762205E+02 -0.10772654005E+03 -0.39090009210E+03  0.41808535513E+03  0.80729770250E+02 0.  0.
          6    2    1    2  501    0 -0.44859632167E+02  0.95033786945E+02 -0.89903997715E+02  0.22047407316E+03  0.17170405025E+03 0.  0.
         24    2    5    5    0    0 -0.92974994192E+01  0.23057114833E+02 -0.11213631229E+03  0.13703743597E+03  0.74743777564E+02 0.  0.
          5    1    5    5  501    0 -0.35562132748E+02  0.71976672112E+02  0.22232314575E+02  0.83436637188E+02  0.47000000000E+01 0. -1.
        -11    1    6    6    0    0 -0.23174772009E+02 -0.13718652279E+02 -0.12039516541E+02  0.29499515870E+02  0.00000000000E+00 0.  1.
         12    1    6    6    0    0  0.13877272589E+02  0.36775767112E+02 -0.10009679575E+03  0.10753792010E+03  0.00000000000E+00 0. -1.
         -5    1    3    3    0  503 -0.17351130038E+02  0.12692753101E+02 -0.38738074202E+00  0.22009265292E+02  0.47000000000E+01 0.  1.
         13    1    4    4    0    0  0.26582509620E+02 -0.47759038760E+02 -0.29194061093E+03  0.29701325881E+03  0.00000000000E+00 0. -1.
        -14    1    4    4    0    0  0.35628252585E+02 -0.59967501285E+02 -0.98959481174E+02  0.12107209632E+03  0.00000000000E+00 0.  1.
</event>
<event>
12    1  0.1040325E-001  0.2750604E+03  0.7818608E-02  0.1098456E+00
         21   -1    0    0  501  502  0.00000000000E+00  0.00000000000E+00  0.94916142777E+02  0.94916142777E+02  0.00000000000E+00 0.  1.
         21   -1    0    0  502  503 -0.00000000000E+00 -0.00000000000E+00 -0.14551561788E+04  0.14551561788E+04  0.00000000000E+00 0.  1.
         -6    2    1    2    0  503 -0.11292918484E+02 -0.21387321779E+03 -0.12014379878E+04  0.12324619666E+04  0.17216264766E+03 0.  0.
        -24    2    3    3    0    0  0.25395561510E+02 -0.17363743087E+03 -0.62799833675E+03  0.65642369832E+03  0.75599396853E+02 0.  0.
          6    2    1    2  501    0  0.11292918484E+02  0.21387321779E+03 -0.15880204821E+03  0.31761035498E+03  0.17259479650E+03 0.  0.
         24    2    5    5    0    0 -0.14873875359E+02  0.21070897800E+03 -0.90497910311E+02  0.24424647581E+03  0.82746381158E+02 0.  0.
          5    1    5    5  501    0  0.26166793843E+02  0.31642397897E+01 -0.68304137900E+02  0.73363879175E+02  0.47000000000E+01 0. -1.
        -11    1    6    6    0    0  0.12943778530E+02  0.39969489435E+02  0.11326101428E+02  0.43513010260E+02  0.00000000000E+00 0.  1.
         12    1    6    6    0    0 -0.27817653889E+02  0.17073948857E+03 -0.10182401174E+03  0.20073346555E+03  0.00000000000E+00 0. -1.
         -5    1    3    3    0  503 -0.36688479994E+02 -0.40235786919E+02 -0.57343965105E+03  0.57603826826E+03  0.47000000000E+01 0.  1.
         11    1    4    4    0    0  0.20574297807E+02 -0.56550811460E+02 -0.34357438050E+03  0.34880460281E+03  0.00000000000E+00 0. -1.
        -12    1    4    4    0    0  0.48212637034E+01 -0.11708661941E+03 -0.28442395625E+03  0.30761909550E+03  0.00000000000E+00 0.  1.
</event>
<event>
12    1  0.1040325E-001  0.1819130E+03  0.7818608E-02  0.1166495E+00
         21   -1    0    0  503  502  0.00000000000E+00  0.00000000000E+00  0.42472662594E+03  0.42472662594E+03  0.00000000000E+00 0.  1.
         21   -1    0    0  501  503 -0.00000000000E+00 -0.00000000000E+00 -0.11125315243E+03  0.11125315243E+03  0.00000000000E+00 0.  1.
          6    2    1    2  501    0  0.30002550283E+02 -0.52384816100E+02  0.30483522561E+03  0.35386176087E+03  0.16926106774E+03 0.  0.
         24    2    3    3    0    0  0.76961205464E+02 -0.37269733361E+02  0.20355893268E+03  0.24111177846E+03  0.96884418091E+02 0.  0.
         -6    2    1    2    0  502 -0.30002550283E+02  0.52384816100E+02  0.86382478926E+01  0.18211801750E+03  0.17160428605E+03 0.  0.
        -24    2    5    5    0    0 -0.69339933462E+01  0.65366094449E+02  0.61525323894E+02  0.12279007540E+03  0.83493895394E+02 0.  0.
          5    1    3    3  501    0 -0.46958655181E+02 -0.15115082740E+02  0.10127629293E+03  0.11274998241E+03  0.47000000000E+01 0. -1.
        -11    1    4    4    0    0  0.35833253103E+02 -0.34376501663E+02  0.19196444868E+03  0.19828291770E+03  0.00000000000E+00 0.  1.
         12    1    4    4    0    0  0.41127952361E+02 -0.28932316972E+01  0.11594483999E+02  0.42828860763E+02  0.00000000000E+00 0. -1.
         -5    1    5    5    0  502 -0.23068556937E+02 -0.12981278348E+02 -0.52887076002E+02  0.59327942107E+02  0.47000000000E+01 0.  1.
         13    1    6    6    0    0  0.37235069569E+02  0.42507067012E+02  0.31505946748E+02  0.64698731303E+02  0.00000000000E+00 0. -1.
        -14    1    6    6    0    0 -0.44169062915E+02  0.22859027437E+02  0.30019377146E+02  0.58091344092E+02  0.00000000000E+00 0.  1.
</event>
<event>
12    1  0.1040325E-001  0.1894160E+03  0.7818608E-02  0.1158997E+00
         21   -1    0    0  503  502  0.00000000000E+00  0.00000000000E+00  0.20943781330E+04  0.20943781330E+04  0.00000000000E+00 0.  1.
         21   -1    0    0  501  503 -0.00000000000E+00 -0.00000000000E+00 -0.17129944414E+02  0.17129944414E+02  0.00000000000E+00 0.  1.
          6    2    1    2  501    0  0.49115638470E+02 -0.63419260523E+02  0.10262286472E+04  0.10435629647E+04  0.17159276348E+03 0.  0.
         24    2    3    3    0    0  0.17960723551E+01 -0.20050671760E+02  0.22462098705E+03  0.23937585551E+03  0.80255573411E+02 0.  0.
         -6    2    1    2    0  502 -0.49115638470E+02  0.63419260523E+02  0.10510195414E+04  0.10679451127E+04  0.17155272885E+03 0.  0.
        -24    2    5    5    0    0  0.31491839032E+02  0.95189464854E+01  0.63437801865E+03  0.64014252064E+03  0.79149415200E+02 0.  0.
          5    1    3    3  501    0  0.47319566115E+02 -0.43368588763E+02  0.80160766014E+03  0.80418710922E+03  0.47000000000E+01 0. -1.
        -11    1    4    4    0    0  0.39872238775E+02 -0.20097487637E+02  0.12348427519E+03  0.13130906539E+03  0.00000000000E+00 0.  1.
         12    1    4    4    0    0 -0.38076166420E+02  0.46815876561E-01  0.10113671186E+03  0.10806679012E+03  0.00000000000E+00 0. -1.
         -5    1    5    5    0  502 -0.80607477502E+02  0.53900314038E+02  0.41664152271E+03  0.42780259201E+03  0.47000000000E+01 0.  1.
         13    1    6    6    0    0  0.16710109811E+01 -0.19339865810E+02  0.41518477165E+02  0.45832375384E+02  0.00000000000E+00 0. -1.
        -14    1    6    6    0    0  0.29820828051E+02  0.28858812296E+02  0.59285954148E+03  0.59431014526E+03  0.00000000000E+00 0.  1.
</event>
<event>
12    1  0.1040325E-001  0.1861751E+03  0.7818608E-02  0.1163448E+00
         21   -1    0    0  501  502  0.00000000000E+00  0.00000000000E+00  0.24614630326E+03  0.24614630326E+03  0.00000000000E+00 0. -1.
         21   -1    0    0  502  503 -0.00000000000E+00 -0.00000000000E+00 -0.14313537697E+03  0.14313537697E+03  0.00000000000E+00 0. -1.
         -6    2    1    2    0  503 -0.12705319177E+02  0.57765432792E+02  0.91261706023E+01  0.18639866563E+03  0.17653018212E+03 0.  0.
        -24    2    3    3    0    0 -0.66604994828E+02  0.75880931258E+02  0.15225449212E+02  0.12901715712E+03  0.78863625723E+02 0.  0.
          6    2    1    2  501    0  0.12705319177E+02 -0.57765432792E+02  0.93884755681E+02  0.20288301459E+03  0.16984963910E+03 0.  0.
         24    2    5    5    0    0 -0.51750300822E+02 -0.33664263251E+02  0.88661285958E+02  0.13371099743E+03  0.78780904735E+02 0.  0.
          5    1    5    5  501    0  0.64455619998E+02 -0.24101169541E+02  0.52234697227E+01  0.69172017164E+02  0.47000000000E+01 0. -1.
        -11    1    6    6    0    0 -0.43249820343E+02  0.18545066663E+02  0.45201424510E+02  0.65250557354E+02  0.00000000000E+00 0.  1.
         12    1    6    6    0    0 -0.85004804790E+01 -0.52209329914E+02  0.43459861448E+02  0.68460440077E+02  0.00000000000E+00 0. -1.
         -5    1    3    3    0  503  0.53899675651E+02 -0.18115498465E+02 -0.60992786102E+01  0.57381508516E+02  0.47000000000E+01 0.  1.
         13    1    4    4    0    0 -0.28796048185E+02 -0.21918214543E+01  0.29296190345E+02  0.41137370372E+02  0.00000000000E+00 0. -1.
        -14    1    4    4    0    0 -0.37808946643E+02  0.78072752712E+02 -0.14070741133E+02  0.87879786745E+02  0.00000000000E+00 0.  1.
</event>
<event>
12    1  0.1040325E-001  0.1760621E+03  0.7818608E-02  0.1172322E+00
         21   -1    0    0  501  502  0.00000000000E+00  0.00000000000E+00  0.23850737246E+03  0.23850737246E+03  0.00000000000E+00 0. -1.
         21   -1    0    0  502  503 -0.00000000000E+00 -0.00000000000E+00 -0.12846325277E+03  0.12846325277E+03  0.00000000000E+00 0. -1.
         -6    2    1    2    0  503 -0.61949497494E+01 -0.30429620684E+02  0.65789516026E+02  0.18795241322E+03  0.17330178879E+03 0.  0.
        -24    2    3    3    0    0 -0.55402505934E+01 -0.87302700640E+02  0.42254588350E+02  0.12621945059E+03  0.80581905877E+02 0.  0.
          6    2    1    2  501    0  0.61949497494E+01  0.30429620684E+02  0.44254603666E+02  0.17901821201E+03  0.17065963514E+03 0.  0.
         24    2    5    5    0    0  0.13235050206E+02 -0.17100769149E+02 -0.30701090383E+02  0.89860222784E+02  0.81637612830E+02 0.  0.
          5    1    5    5  501    0 -0.70401004569E+01  0.47530389834E+02  0.74955694049E+02  0.89157989225E+02  0.47000000000E+01 0. -1.
        -13    1    6    6    0    0  0.45454230009E+02 -0.50055208666E+01 -0.32610240477E+01  0.45845136522E+02  0.00000000000E+00 0.  1.
         14    1    6    6    0    0 -0.32219179803E+02 -0.12095248283E+02 -0.27440066335E+02  0.44015086262E+02  0.00000000000E+00 0. -1.
         -5    1    3    3    0  503 -0.65469915601E+00  0.56873079956E+02  0.23534927676E+02  0.61732962632E+02  0.47000000000E+01 0.  1.
         13    1    4    4    0    0  0.27513232223E+02 -0.28748891155E+02  0.43518024813E+02  0.58968594808E+02  0.00000000000E+00 0. -1.
        -14    1    4    4    0    0 -0.33053482817E+02 -0.58553809485E+02 -0.12634364633E+01  0.67250855781E+02  0.00000000000E+00 0.  1.
</event>
<event>
12    1  0.1040325E-001  0.2897992E+03  0.7818608E-02  0.1090578E+00
         21   -1    0    0  503  502  0.00000000000E+00  0.00000000000E+00  0.11943367719E+04  0.11943367719E+04  0.00000000000E+00 0.  1.
         21   -1    0    0  501  503 -0.00000000000E+00 -0.00000000000E+00 -0.13433981130E+03  0.13433981130E+03  0.00000000000E+00 0.  1.
          6    2    1    2  501    0  0.21375286596E+03  0.92002997620E+02  0.70104949189E+02  0.29723596692E+03  0.17111305285E+03 0.  0.
         24    2    3    3    0    0  0.12376607537E+03  0.28745075393E+02 -0.20661131631E+02  0.15454834086E+03  0.85521848256E+02 0.  0.
         -6    2    1    2    0  502 -0.21375286596E+03 -0.92002997620E+02  0.98989201136E+03  0.10314406162E+04  0.17270990529E+03 0.  0.
        -24    2    5    5    0    0 -0.18369608300E+03 -0.41510481687E+02  0.53304880638E+03  0.57080984402E+03  0.78838296892E+02 0.  0.
          5    1    3    3  501    0  0.89986790586E+02  0.63257922227E+02  0.90766080820E+02  0.14268762606E+03  0.47000000000E+01 0. -1.
        -13    1    4    4    0    0  0.78202486275E+02  0.32641547518E+02  0.26567300478E+02  0.88808338227E+02  0.00000000000E+00 0.  1.
         14    1    4    4    0    0  0.45563589100E+02 -0.38964721254E+01 -0.47228432109E+02  0.65740002633E+02  0.00000000000E+00 0. -1.
         -5    1    5    5    0  502 -0.30056782964E+02 -0.50492515933E+02  0.45684320499E+03  0.46063077221E+03  0.47000000000E+01 0.  1.
         13    1    6    6    0    0 -0.53866773016E+02  0.15150663501E+02  0.22333914401E+03  0.23024236163E+03  0.00000000000E+00 0. -1.
        -14    1    6    6    0    0 -0.12982930998E+03 -0.56661145188E+02  0.30970966237E+03  0.34056748240E+03  0.00000000000E+00 0.  1.
</event>
<event>
12    1  0.1040325E-001  0.1752524E+03  0.7818608E-02  0.1172662E+00
         21   -1    0    0  501  502  0.00000000000E+00  0.00000000000E+00  0.39385594582E+02  0.39385594582E+02  0.00000000000E+00 0. -1.
         21   -1    0    0  502  503 -0.00000000000E+00 -0.00000000000E+00 -0.77656781660E+03  0.77656781660E+03  0.00000000000E+00 0. -1.
         -6    2    1    2    0  503  0.22463230545E+02  0.14786038878E+02 -0.36852298437E+03  0.40775857816E+03  0.17243736364E+03 0.  0.
        -24    2    3    3    0    0 -0.31694706806E+02 -0.38410581350E+02 -0.24385567363E+03  0.26172094277E+03  0.80946495442E+02 0.  0.
          6    2    1    2  501    0 -0.22463230545E+02 -0.14786038878E+02 -0.36865923764E+03  0.40819483302E+03  0.17317668588E+03 0.  0.
         24    2    5    5    0    0 -0.30218339519E+02 -0.58558980310E+02 -0.33882318535E+03  0.35445013902E+03  0.80569522167E+02 0.  0.
          5    1    5    5  501    0  0.77551089740E+01  0.43772941432E+02 -0.29836052293E+02  0.53744694001E+02  0.47000000000E+01 0. -1.
        -11    1    6    6    0    0 -0.42301395114E+00 -0.53136833959E+02 -0.95828830058E+02  0.10957584923E+03  0.00000000000E+00 0.  1.
         12    1    6    6    0    0 -0.29795325568E+02 -0.54221463511E+01 -0.24299435529E+03  0.24487428979E+03  0.00000000000E+00 0. -1.
         -5    1    3    3    0  503  0.54157937351E+02  0.53196620229E+02 -0.12466731075E+03  0.14603763539E+03  0.47000000000E+01 0.  1.
         11    1    4    4    0    0 -0.21272470185E+02 -0.63446844683E+02 -0.18965352468E+03  0.20111310129E+03  0.00000000000E+00 0. -1.
        -12    1    4    4    0    0 -0.10422236621E+02  0.25036263333E+02 -0.54202148947E+02  0.60607841476E+02  0.00000000000E+00 0.  1.
</event>
<event>
12    1  0.1040325E-001  0.1763994E+03  0.7818608E-02  0.1171458E+00
         21   -1    0    0  501  502  0.00000000000E+00  0.00000000000E+00  0.12944953161E+03  0.12944953161E+03  0.00000000000E+00 0.  1.
         21   -1    0    0  502  503 -0.00000000000E+00 -0.00000000000E+00 -0.40903234341E+03  0.40903234341E+03  0.00000000000E+00 0.  1.
         -6    2    1    2    0  503  0.33008201635E+02 -0.17589046898E+02 -0.31290981858E+03  0.35896186423E+03  0.17187829839E+03 0.  0.
        -24    2    3    3    0    0 -0.17472398909E+02  0.17910520580E+02 -0.27186977549E+03  0.28469958942E+03  0.80713133506E+02 0.  0.
          6    2    1    2  501    0 -0.33008201635E+02  0.17589046898E+02  0.33327006784E+02  0.17952001079E+03  0.17238859865E+03 0.  0.
         24    2    5    5    0    0  0.41944935738E+00 -0.18793737688E+02  0.77834272839E+02  0.11285591553E+03  0.79529259564E+02 0.  0.
          5    1    5    5  501    0 -0.33427650993E+02  0.36382784586E+02 -0.44507266055E+02  0.66664095260E+02  0.47000000000E+01 0. -1.
        -11    1    6    6    0    0  0.11591187304E+01  0.30137347229E+02  0.44068360626E+02  0.53400596088E+02  0.00000000000E+00 0.  1.
         12    1    6    6    0    0 -0.73966937298E+00 -0.48931084918E+02  0.33765912213E+02  0.59455319439E+02  0.00000000000E+00 0. -1.
         -5    1    3    3    0  503  0.50480600544E+02 -0.35499567478E+02 -0.41040043096E+02  0.74262274809E+02  0.47000000000E+01 0.  1.
         13    1    4    4    0    0  0.31896047062E+02  0.99936271144E+01 -0.87384659709E+02  0.93559121167E+02  0.00000000000E+00 0. -1.
        -14    1    4    4    0    0 -0.49368445970E+02  0.79168934659E+01 -0.18448511578E+03  0.19114046825E+03  0.00000000000E+00 0.  1.
</event>
<event>
12    1  0.1040325E-001  0.1860058E+03  0.7818608E-02  0.1165885E+00
         21   -1    0    0  503  502  0.00000000000E+00  0.00000000000E+00  0.11042225212E+03  0.11042225212E+03  0.00000000000E+00 0. -1.
         21   -1    0    0  501  503 -0.00000000000E+00 -0.00000000000E+00 -0.29287521260E+03  0.29287521260E+03  0.00000000000E+00 0. -1.
          6    2    1    2  501    0  0.15932979759E+02  0.30256375816E+01 -0.11405412816E+03  0.20511429087E+03  0.16970714140E+03 0.  0.
         24    2    3    3    0    0  0.71516007247E+02  0.14714774653E+02 -0.55490756314E+02  0.12339607140E+03  0.82560901861E+02 0.  0.
         -6    2    1    2    0  502 -0.15932979759E+02 -0.30256375816E+01 -0.68398832333E+02  0.19818317386E+03  0.18529747923E+03 0.  0.
        -24    2    5    5    0    0  0.66530612948E+02 -0.57734790391E+01 -0.36729193067E+02  0.10967977954E+03  0.78873093615E+02 0.  0.
          5    1    3    3  501    0 -0.55583027489E+02 -0.11689137071E+02 -0.58563371843E+02  0.81718219461E+02  0.47000000000E+01 0. -1.
        -11    1    4    4    0    0  0.75468709670E+02 -0.67126419718E+01 -0.64803926972E+02  0.99700223934E+02  0.00000000000E+00 0.  1.
         12    1    4    4    0    0 -0.39527024230E+01  0.21427416625E+02  0.93131706580E+01  0.23695847471E+02  0.00000000000E+00 0. -1.
         -5    1    5    5    0  502 -0.82463592707E+02  0.27478414575E+01 -0.31669639265E+02  0.88503394319E+02  0.47000000000E+01 0.  1.
         13    1    6    6    0    0  0.31678326581E+02  0.42920524390E+01 -0.59006003665E+02  0.67109213657E+02  0.00000000000E+00 0. -1.
        -14    1    6    6    0    0  0.34852286367E+02 -0.10065531478E+02  0.22276810597E+02  0.42570565880E+02  0.00000000000E+00 0.  1.
</event>
<event>
12    1  0.1040325E-001  0.1805880E+03  0.7818608E-02  0.1167947E+00
         21   -1    0    0  501  502  0.00000000000E+00  0.00000000000E+00  0.41829594910E+03  0.41829594910E+03  0.00000000000E+00 0.  1.
         21   -1    0    0  502  503 -0.00000000000E+00 -0.00000000000E+00 -0.14779460915E+03  0.14779460915E+03  0.00000000000E+00 0.  1.
         -6    2    1    2    0  503 -0.45294133808E+02  0.13628292049E+02 -0.61624949709E+02  0.18804306663E+03  0.17124623085E+03 0.  0.
        -24    2    3    3    0    0  0.89615120285E+01 -0.36289077709E+02  0.50621921808E+01  0.88520788711E+02  0.80081823066E+02 0.  0.
          6    2    1    2  501    0  0.45294133808E+02 -0.13628292049E+02  0.33212628965E+03  0.37804749161E+03  0.17428351825E+03 0.  0.
         24    2    5    5    0    0  0.64993417017E+02  0.86541003560E+01  0.33186238412E+03  0.34793559336E+03  0.81409443090E+02 0.  0.
          5    1    5    5  501    0 -0.19699283209E+02 -0.22282392405E+02  0.26390553199E+00  0.30111898253E+02  0.47000000000E+01 0. -1.
        -11    1    6    6    0    0  0.10227476733E+02  0.26721264739E+02  0.22219645444E+03  0.22403100597E+03  0.00000000000E+00 0.  1.
         12    1    6    6    0    0  0.54765940284E+02 -0.18067164383E+02  0.10966592968E+03  0.12390458739E+03  0.00000000000E+00 0. -1.
         -5    1    3    3    0  503 -0.54255645836E+02  0.49917369758E+02 -0.66687141890E+02  0.99522277919E+02  0.47000000000E+01 0.  1.
         11    1    4    4    0    0  0.24825821293E-02  0.35305128888E+01  0.36706312000E+02  0.36875708373E+02  0.00000000000E+00 0. -1.
        -12    1    4    4    0    0  0.89590294463E+01 -0.39819590598E+02 -0.31644119819E+02  0.51645080338E+02  0.00000000000E+00 0.  1.
</event>
<event>
12    1  0.1040325E-001  0.2278703E+03  0.7818608E-02  0.1128156E+00
         21   -1    0    0  501  502  0.00000000000E+00  0.00000000000E+00  0.60054818915E+03  0.60054818915E+03  0.00000000000E+00 0. -1.
         21   -1    0    0  502  503 -0.00000000000E+00 -0.00000000000E+00 -0.15556194121E+03  0.15556194121E+03  0.00000000000E+00 0. -1.
         -6    2    1    2    0  503  0.14993297342E+03 -0.10864871447E+02 -0.29492387279E+02  0.22977087570E+03  0.17125102179E+03 0.  0.
        -24    2    3    3    0    0  0.13977204639E+03 -0.63681823899E+02 -0.27484376226E+02  0.17574313271E+03  0.80861969508E+02 0.  0.
          6    2    1    2  501    0 -0.14993297342E+03  0.10864871447E+02  0.47447863522E+03  0.52633925466E+03  0.17118730607E+03 0.  0.
         24    2    5    5    0    0 -0.35497826426E+02  0.22505739315E+02  0.31932660174E+03  0.33314205963E+03  0.85132539804E+02 0.  0.
          5    1    5    5  501    0 -0.11443514699E+03 -0.11640867868E+02  0.15515203348E+03  0.19319719502E+03  0.47000000000E+01 0. -1.
        -13    1    6    6    0    0  0.13953095917E+02 -0.10543046926E+02  0.14946674537E+02  0.23005386410E+02  0.00000000000E+00 0.  1.
         14    1    6    6    0    0 -0.49450922343E+02  0.33048786241E+02  0.30437992721E+03  0.31013667322E+03  0.00000000000E+00 0. -1.
         -5    1    3    3    0  503  0.10160927029E+02  0.52816952452E+02 -0.20080110525E+01  0.54027742992E+02  0.47000000000E+01 0.  1.
         13    1    4    4    0    0  0.10001582565E+03 -0.55345171853E+02  0.16929616404E+02  0.11555459895E+03  0.00000000000E+00 0. -1.
        -14    1    4    4    0    0  0.39756220736E+02 -0.83366520468E+01 -0.44413992630E+02  0.60188533758E+02  0.00000000000E+00 0.  1.
</event>
<event>
12    1  0.1040325E-001  0.1898706E+03  0.7818608E-02  0.1158609E+00
         21   -1    0    0  501  502  0.00000000000E+00  0.00000000000E+00  0.17722361770E+03  0.17722361770E+03  0.00000000000E+00 0.  1.
         21   -1    0    0  502  503 -0.00000000000E+00 -0.00000000000E+00 -0.27816701425E+03  0.27816701425E+03  0.00000000000E+00 0.  1.
         -6    2    1    2    0  503 -0.37878067535E+02 -0.66458666679E+02 -0.16863401198E+03  0.25394544580E+03  0.17377962214E+03 0.  0.
        -24    2    3    3    0    0 -0.45430134131E+02 -0.10021031829E+03 -0.16248748099E+03  0.21850426157E+03  0.96103724512E+02 0.  0.
          6    2    1    2  501    0  0.37878067535E+02  0.66458666679E+02  0.67690615438E+02  0.20144518615E+03  0.17362788148E+03 0.  0.
         24    2    5    5    0    0 -0.18873031101E+02  0.25108942091E+02  0.93982892889E+02  0.12631955288E+03  0.78340251522E+02 0.  0.
          5    1    5    5  501    0  0.56751098637E+02  0.41349724588E+02 -0.26292277451E+02  0.75125633265E+02  0.47000000000E+01 0. -1.
        -13    1    6    6    0    0 -0.19571966289E+02  0.52542583557E+02  0.54151434273E+02  0.77949745253E+02  0.00000000000E+00 0.  1.
         14    1    6    6    0    0  0.69893518772E+00 -0.27433641466E+02  0.39831458616E+02  0.48369807628E+02  0.00000000000E+00 0. -1.
         -5    1    3    3    0  503  0.75520665952E+01  0.33751651616E+02 -0.61465309914E+01  0.35441184233E+02  0.47000000000E+01 0.  1.
         13    1    4    4    0    0  0.23272181166E+02 -0.23296852205E+00 -0.15678753454E+02  0.28061931516E+02  0.00000000000E+00 0. -1.
        -14    1    4    4    0    0 -0.68702315297E+02 -0.99977349772E+02 -0.14680872754E+03  0.19044233005E+03  0.00000000000E+00 0.  1.
</event>
<event>
12    1  0.1040325E-001  0.2565123E+03  0.7818608E-02  0.1109478E+00
         21   -1    0    0  501  502  0.00000000000E+00  0.00000000000E+00  0.50124148794E+03  0.50124148794E+03  0.00000000000E+00 0. -1.
         21   -1    0    0  502  503 -0.00000000000E+00 -0.00000000000E+00 -0.46377935199E+03  0.46377935199E+03  0.00000000000E+00 0.  1.
         -6    2    1    2    0  503 -0.34791677056E+02 -0.18485200790E+03 -0.39029162333E+03  0.46625052882E+03  0.17228255504E+03 0.  0.
        -24    2    3    3    0    0  0.15630819994E+02 -0.73520029309E+02 -0.90489973280E+02  0.14245992205E+03  0.80354694210E+02 0.  0.
          6    2    1    2  501    0  0.34791677056E+02  0.18485200790E+03  0.42775375927E+03  0.49877031110E+03  0.17440704989E+03 0.  0.
         24    2    5    5    0    0 -0.15192048493E+02  0.11675637482E+03  0.14079514506E+03  0.19960025188E+03  0.78448315982E+02 0.  0.
          5    1    5    5  501    0  0.49983725549E+02  0.68095633077E+02  0.28695861421E+03  0.29917005922E+03  0.47000000000E+01 0. -1.
        -13    1    6    6    0    0  0.12865621048E+01 -0.91809768451E+01  0.28830739832E+02  0.30284602311E+02  0.00000000000E+00 0.  1.
         14    1    6    6    0    0 -0.16478610598E+02  0.12593735166E+03  0.11196440523E+03  0.16931564957E+03  0.00000000000E+00 0. -1.
         -5    1    3    3    0  503 -0.50422497050E+02 -0.11133197859E+03 -0.29980165005E+03  0.32379060678E+03  0.47000000000E+01 0.  1.
         13    1    4    4    0    0 -0.15488053863E+02 -0.72869973655E+02 -0.44027197670E+02  0.86535004522E+02  0.00000000000E+00 0. -1.
        -14    1    4    4    0    0  0.31118873858E+02 -0.65005565348E+00 -0.46462775611E+02  0.55924917523E+02  0.00000000000E+00 0.  1.
</event>
<event>
12    1  0.1040325E-001  0.2481514E+03  0.7818608E-02  0.1114634E+00
         21   -1    0    0  501  502  0.00000000000E+00  0.00000000000E+00  0.33263102381E+03  0.33263102381E+03  0.00000000000E+00 0. -1.
         21   -1    0    0  502  503 -0.00000000000E+00 -0.00000000000E+00 -0.32305831178E+03  0.32305831178E+03  0.00000000000E+00 0.  1.
         -6    2    1    2    0  503 -0.29901095357E+02 -0.17746660965E+03 -0.20998843473E+03  0.32507575129E+03  0.17085265088E+03 0.  0.
        -24    2    3    3    0    0 -0.39291527668E+02 -0.29209184943E+02 -0.56443311458E+02  0.11137821017E+03  0.82596959151E+02 0.  0.
          6    2    1    2  501    0  0.29901095357E+02  0.17746660965E+03  0.21956114677E+03  0.33061358430E+03  0.16943958189E+03 0.  0.
         24    2    5    5    0    0  0.10599502324E+02  0.11468322307E+03  0.22415207310E+03  0.26460243579E+03  0.80657957114E+02 0.  0.
          5    1    5    5  501    0  0.19301593033E+02  0.62783386575E+02 -0.45909263324E+01  0.66011148513E+02  0.47000000000E+01 0. -1.
        -13    1    6    6    0    0  0.30454597529E+02  0.12380478576E+02  0.81989638487E+02  0.88334928424E+02  0.00000000000E+00 0.  1.
         14    1    6    6    0    0 -0.19855095205E+02  0.10230274450E+03  0.14216243461E+03  0.17626750736E+03  0.00000000000E+00 0. -1.
         -5    1    3    3    0  503  0.93904323115E+01 -0.14825742470E+03 -0.15354512327E+03  0.21369754112E+03  0.47000000000E+01 0.  1.
         11    1    4    4    0    0  0.23126421412E+02 -0.14566324431E+02 -0.33611943161E+02  0.43321725472E+02  0.00000000000E+00 0. -1.
        -12    1    4    4    0    0 -0.62417949080E+02 -0.14642860512E+02 -0.22831368296E+02  0.68056484700E+02  0.00000000000E+00 0.  1.
</event>
<event>
12    1  0.1040325E-001  0.1718822E+03  0.7818608E-02  0.1179492E+00
         21   -1    0    0  503  502  0.00000000000E+00  0.00000000000E+00  0.36992558169E+02  0.36992558169E+02  0.00000000000E+00 0.  1.
         21   -1    0    0  501  503 -0.00000000000E+00 -0.00000000000E+00 -0.74313158090E+03  0.74313158090E+03  0.00000000000E+00 0.  1.
          6    2    1    2  501    0  0.49213122347E+01 -0.32545485957E+00 -0.40077994337E+03  0.43608263850E+03  0.17181146457E+03 0.  0.
         24    2    3    3    0    0 -0.35915120972E+02  0.53158861079E+02 -0.22442048883E+03  0.24726279438E+03  0.81600081198E+02 0.  0.
         -6    2    1    2    0  502 -0.49213122347E+01  0.32545485957E+00 -0.30535907936E+03  0.34404150057E+03  0.15841736499E+03 0.  0.
        -24    2    5    5    0    0 -0.26509223708E+02 -0.43955627968E+02 -0.12135260389E+03  0.15349668896E+03  0.78739716008E+02 0.  0.
          5    1    3    3  501    0  0.40836433207E+02 -0.53484315939E+02 -0.17635945454E+03  0.18881984412E+03  0.47000000000E+01 0. -1.
        -11    1    4    4    0    0 -0.14873524819E+02  0.71148772787E+02 -0.13085396291E+03  0.14968677036E+03  0.00000000000E+00 0.  1.
         12    1    4    4    0    0 -0.21041596153E+02 -0.17989911707E+02 -0.93566525914E+02  0.97576024019E+02  0.00000000000E+00 0. -1.
         -5    1    5    5    0  502  0.21587911473E+02  0.44281082827E+02 -0.18400647547E+03  0.19054481161E+03  0.47000000000E+01 0.  1.
         13    1    6    6    0    0 -0.71805134010E+01  0.22888558136E+02 -0.25020198071E+02  0.34662027894E+02  0.00000000000E+00 0. -1.
        -14    1    6    6    0    0 -0.19328710307E+02 -0.66844186104E+02 -0.96332405823E+02  0.11883466106E+03  0.00000000000E+00 0.  1.
</event>
<event>
12    1  0.1040325E-001  0.1995364E+03  0.7818608E-02  0.1150781E+00
         21   -1    0    0  501  502  0.00000000000E+00  0.00000000000E+00  0.76768594412E+02  0.76768594412E+02  0.00000000000E+00 0.  1.
         21   -1    0    0  502  503 -0.00000000000E+00 -0.00000000000E+00 -0.53711250627E+03  0.53711250627E+03  0.00000000000E+00 0. -1.
         -6    2    1    2    0  503 -0.42682627502E+02 -0.89371346794E+02 -0.29650217539E+03  0.35569730671E+03  0.16969970441E+03 0.  0.
        -24    2    3    3    0    0 -0.50135312152E+02 -0.81146866948E+02 -0.31203863917E+03  0.33603372911E+03  0.80325532818E+02 0.  0.
          6    2    1    2  501    0  0.42682627502E+02  0.89371346794E+02 -0.16384173647E+03  0.25818379396E+03  0.17322157065E+03 0.  0.
         24    2    5    5    0    0 -0.20999389852E+02  0.73452814143E+02 -0.15699353253E+03  0.19201894746E+03  0.79925068949E+02 0.  0.
          5    1    5    5  501    0  0.63682017354E+02  0.15918532650E+02 -0.68482039369E+01  0.66164846506E+02  0.47000000000E+01 0. -1.
        -11    1    6    6    0    0 -0.54972748718E+01  0.36488915427E+02 -0.80398209280E+01  0.37766383208E+02  0.00000000000E+00 0.  1.
         12    1    6    6    0    0 -0.15502114980E+02  0.36963898716E+02 -0.14895371160E+03  0.15425256425E+03  0.00000000000E+00 0. -1.
         -5    1    3    3    0  503  0.74526846503E+01 -0.82244798461E+01  0.15536463786E+02  0.19663577605E+02  0.47000000000E+01 0.  1.
         11    1    4    4    0    0 -0.42510145530E+01  0.13695979847E+02 -0.78913421620E+02  0.80205854528E+02  0.00000000000E+00 0. -1.
        -12    1    4    4    0    0 -0.45884297599E+02 -0.94842846794E+02 -0.23312521755E+03  0.25582787458E+03  0.00000000000E+00 0.  1.
</event>
<event>
12    1  0.1040325E-001  0.1999665E+03  0.7818608E-02  0.1149920E+00
         21   -1    0    0  501  502  0.00000000000E+00  0.00000000000E+00  0.58845178309E+03  0.58845178309E+03  0.00000000000E+00 0. -1.
         21   -1    0    0  502  503 -0.00000000000E+00 -0.00000000000E+00 -0.11727322243E+03  0.11727322243E+03  0.00000000000E+00 0. -1.
         -6    2    1    2    0  503  0.34558807613E+02  0.95212370517E+02  0.59425713846E+01  0.19933471556E+03  0.17157886813E+03 0.  0.
        -24    2    3    3    0    0  0.36957705322E+02 -0.15223014957E+02  0.68079635181E+01  0.88769947309E+02  0.78969253580E+02 0.  0.
          6    2    1    2  501    0 -0.34558807613E+02 -0.95212370517E+02  0.46523598928E+03  0.50639028996E+03  0.17241488730E+03 0.  0.
         24    2    5    5    0    0 -0.69437645756E+02 -0.35982550074E+02  0.17275750718E+03  0.20590658412E+03  0.80224899760E+02 0.  0.
          5    1    5    5  501    0  0.34878838143E+02 -0.59229820443E+02  0.29247848210E+03  0.30048370584E+03  0.47000000000E+01 0. -1.
        -11    1    6    6    0    0 -0.86699803125E+02 -0.37606809953E+02  0.14137553351E+03  0.17005343129E+03  0.00000000000E+00 0.  1.
         12    1    6    6    0    0  0.17262157369E+02  0.16242598791E+01  0.31381973665E+02  0.35853152837E+02  0.00000000000E+00 0. -1.
         -5    1    3    3    0  503 -0.23988977090E+01  0.11043538547E+03 -0.86539213352E+00  0.11056476825E+03  0.47000000000E+01 0.  1.
         11    1    4    4    0    0  0.31828290502E+02 -0.83970286895E+01 -0.33855224803E+02  0.47219978966E+02  0.00000000000E+00 0. -1.
        -12    1    4    4    0    0  0.51294148195E+01 -0.68259862672E+01  0.40663188321E+02  0.41549968343E+02  0.00000000000E+00 0.  1.
</event>
<event>
12    1  0.1040325E-001  0.2101673E+03  0.7818608E-02  0.1141880E+00
         21   -1    0    0  503  502  0.00000000000E+00  0.00000000000E+00  0.26249372889E+03  0.26249372889E+03  0.00000000000E+00 0. -1.
         21   -1    0    0  501  503 -0.00000000000E+00 -0.00000000000E+00 -0.21473607703E+03  0.21473607703E+03  0.00000000000E+00 0. -1.
          6    2    1    2  501    0 -0.13965375217E+02  0.12037846620E+03  0.13709446579E+03  0.25092862111E+03  0.17170985269E+03 0.  0.
         24    2    3    3    0    0  0.83310451447E+01  0.19983613717E+02  0.10880610143E+03  0.14416449640E+03  0.92064559867E+02 0.  0.
         -6    2    1    2    0  502  0.13965375217E+02 -0.12037846620E+03 -0.89336813933E+02  0.22630118481E+03  0.16895310915E+03 0.  0.
        -24    2    5    5    0    0 -0.33066425870E+02 -0.35590101371E+02  0.21396463203E+01  0.92917940340E+02  0.79177785491E+02 0.  0.
          5    1    3    3  501    0 -0.22296420361E+02  0.10039485249E+03  0.28288364360E+02  0.10676412471E+03  0.47000000000E+01 0. -1.
        -13    1    4    4    0    0  0.12892672075E+02 -0.31252857697E+02  0.14591555216E+02  0.36822215999E+02  0.00000000000E+00 0.  1.
         14    1    4    4    0    0 -0.45616269302E+01  0.51236471414E+02  0.94214546214E+02  0.10734228040E+03  0.00000000000E+00 0. -1.
         -5    1    5    5    0  502  0.47031801086E+02 -0.84788364833E+02 -0.91476460254E+02  0.13338324447E+03  0.47000000000E+01 0.  1.
         11    1    6    6    0    0 -0.20815126323E+02 -0.36157087342E+02 -0.34590012850E+02  0.54194773160E+02  0.00000000000E+00 0. -1.
        -12    1    6    6    0    0 -0.12251299546E+02  0.56698597143E+00  0.36729659170E+02  0.38723167180E+02  0.00000000000E+00 0.  1.
</event>
<event>
12    1  0.1040325E-001  0.1897275E+03  0.7818608E-02  0.1158982E+00
         21   -1    0    0  501  502  0.00000000000E+00  0.00000000000E+00  0.16898232323E+03  0.16898232323E+03  0.00000000000E+00 0. -1.
         21   -1    0    0  502  503 -0.00000000000E+00 -0.00000000000E+00 -0.22254751630E+03  0.22254751630E+03  0.00000000000E+00 0. -1.
         -6    2    1    2    0  503  0.30623080777E+02 -0.71832847547E+02 -0.69996248934E+02  0.20109222493E+03  0.17158344035E+03 0.  0.
        -24    2    3    3    0    0  0.84419690066E+02 -0.64266689465E+02 -0.43816841991E+02  0.14060443057E+03  0.81196051680E+02 0.  0.
          6    2    1    2  501    0 -0.30623080777E+02  0.71832847547E+02  0.16431055863E+02  0.19043761460E+03  0.17291262070E+03 0.  0.
         24    2    5    5    0    0  0.12814381891E+02  0.46470419408E+01 -0.41448282962E+02  0.91579870848E+02  0.80517757060E+02 0.  0.
          5    1    5    5  501    0 -0.43437462668E+02  0.67185805606E+02  0.57879338825E+02  0.98857743757E+02  0.47000000000E+01 0. -1.
        -13    1    6    6    0    0  0.26432746755E+02  0.22373608821E+02  0.95283891421E+01  0.35917386769E+02  0.00000000000E+00 0.  1.
         14    1    6    6    0    0 -0.13618364865E+02 -0.17726566880E+02 -0.50976672104E+02  0.55662484078E+02  0.00000000000E+00 0. -1.
         -5    1    3    3    0  503 -0.53796609289E+02 -0.75661580815E+01 -0.26179406943E+02  0.60487794363E+02  0.47000000000E+01 0.  1.
         13    1    4    4    0    0  0.70966439445E+02 -0.62558061830E+01 -0.38074714900E+02  0.80777809782E+02  0.00000000000E+00 0. -1.
        -14    1    4    4    0    0  0.13453250621E+02 -0.58010883282E+02 -0.57421270907E+01  0.59826620788E+02  0.00000000000E+00 0.  1.
</event>
<event>
12    1  0.1040325E-001  0.1755855E+03  0.7818608E-02  0.1174141E+00
         21   -1    0    0  503  502  0.00000000000E+00  0.00000000000E+00  0.13365078767E+03  0.13365078767E+03  0.00000000000E+00 0.  1.
         21   -1    0    0  501  503 -0.00000000000E+00 -0.00000000000E+00 -0.22218693551E+03  0.22218693551E+03  0.00000000000E+00 0.  1.
          6    2    1    2  501    0  0.32953264916E+02  0.21746961882E+02 -0.60518993230E+02  0.18572238879E+03  0.17108889250E+03 0.  0.
         24    2    3    3    0    0  0.15041855074E+02 -0.47281100361E+02 -0.84598591626E+01  0.97303299114E+02  0.83274263408E+02 0.  0.
         -6    2    1    2    0  502 -0.32953264916E+02 -0.21746961882E+02 -0.28017154610E+02  0.17011533438E+03  0.16308101674E+03 0.  0.
        -24    2    5    5    0    0 -0.66529518905E+02 -0.37123556566E+02 -0.56148263552E+02  0.12345428225E+03  0.79271665604E+02 0.  0.
          5    1    3    3  501    0  0.17911409843E+02  0.69028062243E+02 -0.52059134067E+02  0.88419089678E+02  0.47000000000E+01 0. -1.
        -13    1    4    4    0    0  0.32702796638E+01 -0.18963809206E+02 -0.45389764255E+02  0.49300623605E+02  0.00000000000E+00 0.  1.
         14    1    4    4    0    0  0.11771575410E+02 -0.28317291154E+02  0.36929905092E+02  0.48002675510E+02  0.00000000000E+00 0. -1.
         -5    1    5    5    0  502  0.33576253989E+02  0.15376594683E+02  0.28131108942E+02  0.46661052135E+02  0.47000000000E+01 0.  1.
         13    1    6    6    0    0  0.54679630328E+01  0.14497663335E+02 -0.25258507688E+02  0.29632297794E+02  0.00000000000E+00 0. -1.
        -14    1    6    6    0    0 -0.71997481938E+02 -0.51621219901E+02 -0.30889755863E+02  0.93821984454E+02  0.00000000000E+00 0.  1.
</event>
<event>
12    1  0.1040325E-001  0.2677256E+03  0.7818608E-02  0.1102702E+00
         21   -1    0    0  501  502  0.00000000000E+00  0.00000000000E+00  0.11951874530E+04  0.11951874530E+04  0.00000000000E+00 0. -1.
         21   -1    0    0  502  503 -0.00000000000E+00 -0.00000000000E+00 -0.99681535297E+02  0.99681535297E+02  0.00000000000E+00 0.  1.
         -6    2    1    2    0  503  0.17511216289E+02  0.20411905400E+03  0.13772591793E+03  0.30037436772E+03  0.17112890292E+03 0.  0.
        -24    2    3    3    0    0 -0.21116052550E+02  0.13973486870E+03  0.25977070056E+02  0.16566251147E+03  0.82447185105E+02 0.  0.
          6    2    1    2  501    0 -0.17511216289E+02 -0.20411905400E+03  0.95777999978E+03  0.99449462058E+03  0.17235368138E+03 0.  0.
         24    2    5    5    0    0 -0.67136908199E+02 -0.89836122600E+02  0.39135841175E+03  0.41451289407E+03  0.77984867328E+02 0.  0.
          5    1    5    5  501    0  0.49625691910E+02 -0.11428293140E+03  0.56642158803E+03  0.57998172651E+03  0.47000000000E+01 0. -1.
        -11    1    6    6    0    0 -0.48725917345E+01  0.31123942893E+01 -0.15509711034E+01  0.59862057922E+01  0.00000000000E+00 0.  1.
         12    1    6    6    0    0 -0.62264316464E+02 -0.92948516889E+02  0.39290938286E+03  0.40852668827E+03  0.00000000000E+00 0. -1.
         -5    1    3    3    0  503  0.38627268839E+02  0.64384185295E+02  0.11174884787E+03  0.13471185625E+03  0.47000000000E+01 0.  1.
         11    1    4    4    0    0 -0.13873576578E+02  0.78477110473E+01  0.29498787805E+02  0.33529705899E+02  0.00000000000E+00 0. -1.
        -12    1    4    4    0    0 -0.72424759727E+01  0.13188715765E+03 -0.35217177487E+01  0.13213280557E+03  0.00000000000E+00 0.  1.
</event>
<event>
12    1  0.1040325E-001  0.2104802E+03  0.7818608E-02  0.1141408E+00
         21   -1    0    0  503  502  0.00000000000E+00  0.00000000000E+00  0.99076502389E+03  0.99076502389E+03  0.00000000000E+00 0. -1.
         21   -1    0    0  501  503 -0.00000000000E+00 -0.00000000000E+00 -0.60295507486E+02  0.60295507486E+02  0.00000000000E+00 0. -1.
          6    2    1    2  501    0 -0.12758982210E+02 -0.11969153476E+03  0.73532104927E+03  0.76485223956E+03  0.17266455267E+03 0.  0.
         24    2    3    3    0    0  0.56955878781E+02 -0.65172374267E+02  0.33358935421E+03  0.35346076479E+03  0.78493595319E+02 0.  0.
         -6    2    1    2    0  502  0.12758982210E+02  0.11969153476E+03  0.19514846713E+03  0.28620829181E+03  0.17129917384E+03 0.  0.
        -24    2    5    5    0    0  0.70479550690E+02  0.95604209262E+02  0.15486230240E+03  0.21166348419E+03  0.81924147461E+02 0.  0.
          5    1    3    3  501    0 -0.69714860991E+02 -0.54519160491E+02  0.40173169506E+03  0.41139147478E+03  0.47000000000E+01 0. -1.
        -11    1    4    4    0    0 -0.30506488167E+00 -0.59089447529E+02  0.15938012012E+03  0.16998140652E+03  0.00000000000E+00 0.  1.
         12    1    4    4    0    0  0.57260943663E+02 -0.60829267381E+01  0.17420923409E+03  0.18347935827E+03  0.00000000000E+00 0. -1.
         -5    1    5    5    0  502 -0.57720568481E+02  0.24087325496E+02  0.40286164725E+02  0.74544807623E+02  0.47000000000E+01 0.  1.
         11    1    6    6    0    0  0.80763329445E+02  0.69136726339E+02  0.84555031826E+02  0.13583871215E+03  0.00000000000E+00 0. -1.
        -12    1    6    6    0    0 -0.10283778755E+02  0.26467482923E+02  0.70307270578E+02  0.75824772034E+02  0.00000000000E+00 0.  1.
</event>
<event>
12    1  0.1040325E-001  0.2243297E+03  0.7818608E-02  0.1130859E+00
         21   -1    0    0  503  502  0.00000000000E+00  0.00000000000E+00  0.56427083852E+03  0.56427083852E+03  0.00000000000E+00 0. -1.
         21   -1    0    0  501  503 -0.00000000000E+00 -0.00000000000E+00 -0.39206180205E+03  0.39206180205E+03  0.00000000000E+00 0.  1.
          6    2    1    2  501    0  0.63407447734E+02  0.12738145703E+03 -0.33438035399E+03  0.40265871579E+03  0.17342802612E+03 0.  0.
         24    2    3    3    0    0 -0.37210306281E+01 -0.89570907241E+00 -0.15449529141E+03  0.17169986731E+03  0.74815780447E+02 0.  0.
         -6    2    1    2    0  502 -0.63407447734E+02 -0.12738145703E+03  0.50658939045E+03  0.55367392478E+03  0.17226567981E+03 0.  0.
        -24    2    5    5    0    0 -0.36342399068E+02 -0.44402357758E+02  0.41951628852E+03  0.43029701099E+03  0.76611108804E+02 0.  0.
          5    1    3    3  501    0  0.67128478362E+02  0.12827716610E+03 -0.17988506258E+03  0.23095884847E+03  0.47000000000E+01 0. -1.
        -11    1    4    4    0    0 -0.17301271449E+02  0.33595114611E+02 -0.81342070347E+02  0.89691126249E+02  0.00000000000E+00 0.  1.
         12    1    4    4    0    0  0.13580240821E+02 -0.34490823683E+02 -0.73153221064E+02  0.82008741065E+02  0.00000000000E+00 0. -1.
         -5    1    5    5    0  502 -0.27065048666E+02 -0.82979099274E+02  0.87073101932E+02  0.12337691379E+03  0.47000000000E+01 0.  1.
         11    1    6    6    0    0 -0.43881670149E+02 -0.45412250641E+02  0.18173496844E+03  0.19239405458E+03  0.00000000000E+00 0. -1.
        -12    1    6    6    0    0  0.75392710815E+01  0.10098928832E+01  0.23778132008E+03  0.23790295641E+03  0.00000000000E+00 0.  1.
</event>
<event>
12    1  0.1040325E-001  0.2057129E+03  0.7818608E-02  0.1145121E+00
         21   -1    0    0  501  502  0.00000000000E+00  0.00000000000E+00  0.11378224685E+04  0.11378224685E+04  0.00000000000E+00 0. -1.
         21   -1    0    0  502  503 -0.00000000000E+00 -0.00000000000E+00 -0.38916649933E+02  0.38916649933E+02  0.00000000000E+00 0. -1.
         -6    2    1    2    0  503  0.83639145427E+02  0.74050028254E+02  0.42271699234E+03  0.47011429531E+03  0.17273934615E+03 0.  0.
        -24    2    3    3    0    0  0.11433565102E+03  0.19476426280E+02  0.30000719792E+03  0.33227258488E+03  0.83359340106E+02 0.  0.
          6    2    1    2  501    0 -0.83639145427E+02 -0.74050028254E+02  0.67618882624E+03  0.70662482314E+03  0.17207091157E+03 0.  0.
         24    2    5    5    0    0 -0.12125531187E+03 -0.49989872267E+02  0.43638546148E+03  0.46265431091E+03  0.80093086027E+02 0.  0.
          5    1    5    5  501    0  0.37616166442E+02 -0.24060155987E+02  0.23980336477E+03  0.24397051223E+03  0.47000000000E+01 0. -1.
        -13    1    6    6    0    0 -0.79136309349E+02  0.61724541763E+00  0.31243373753E+03  0.32230075519E+03  0.00000000000E+00 0.  1.
         14    1    6    6    0    0 -0.42119002521E+02 -0.50607117685E+02  0.12395172394E+03  0.14035355572E+03  0.00000000000E+00 0. -1.
         -5    1    3    3    0  503 -0.30696505595E+02  0.54573601974E+02  0.12270979443E+03  0.13784171044E+03  0.47000000000E+01 0.  1.
         11    1    4    4    0    0  0.39746671265E+02  0.43736564717E+02  0.17486223068E+03  0.18457920980E+03  0.00000000000E+00 0. -1.
        -12    1    4    4    0    0  0.74588979757E+02 -0.24260138437E+02  0.12514496723E+03  0.14769337508E+03  0.00000000000E+00 0.  1.
</event>
<event>
12    1  0.1040325E-001  0.1835504E+03  0.7818608E-02  0.1165008E+00
         21   -1    0    0  503  502  0.00000000000E+00  0.00000000000E+00  0.10298682120E+03  0.10298682120E+03  0.00000000000E+00 0. -1.
         21   -1    0    0  501  503 -0.00000000000E+00 -0.00000000000E+00 -0.36238057605E+03  0.36238057605E+03  0.00000000000E+00 0. -1.
          6    2    1    2  501    0  0.56640376733E+02  0.16185760153E+02 -0.20751895923E+03  0.27704669978E+03  0.17384085915E+03 0.  0.
         24    2    3    3    0    0  0.23789411781E+02 -0.33652842971E+02 -0.19664643066E+03  0.21619134556E+03  0.79814968840E+02 0.  0.
         -6    2    1    2    0  502 -0.56640376733E+02 -0.16185760153E+02 -0.51874795629E+02  0.18832069748E+03  0.17118288340E+03 0.  0.
        -24    2    5    5    0    0 -0.34205427988E+02 -0.24147135104E+01  0.39151264762E+02  0.93448139161E+02  0.77613729681E+02 0.  0.
          5    1    3    3  501    0  0.32850964952E+02  0.49838603123E+02 -0.10872528569E+02  0.60855354218E+02  0.47000000000E+01 0. -1.
        -13    1    4    4    0    0 -0.17220570260E+02 -0.18098989942E+02 -0.14600061250E+02  0.28935847413E+02  0.00000000000E+00 0.  1.
         14    1    4    4    0    0  0.41009982041E+02 -0.15553853028E+02 -0.18204636941E+03  0.18725549815E+03  0.00000000000E+00 0. -1.
         -5    1    5    5    0  502 -0.22434948744E+02 -0.13771046642E+02 -0.91026060391E+02  0.94872558314E+02  0.47000000000E+01 0.  1.
         13    1    6    6    0    0 -0.45678968472E+02  0.72259364839E+01 -0.52896210925E+01  0.46548495250E+02  0.00000000000E+00 0. -1.
        -14    1    6    6    0    0  0.11473540483E+02 -0.96406499944E+01  0.44440885854E+02  0.46899643912E+02  0.00000000000E+00 0.  1.
</event>
<event>
12    1  0.1040325E-001  0.2268428E+03  0.7818608E-02  0.1129169E+00
         21   -1    0    0  501  502  0.00000000000E+00  0.00000000000E+00  0.22256849109E+03  0.22256849109E+03  0.00000000000E+00 0.  1.
         21   -1    0    0  502  503 -0.00000000000E+00 -0.00000000000E+00 -0.27545803248E+03  0.27545803248E+03  0.00000000000E+00 0. -1.
         -6    2    1    2    0  503  0.10418893501E+03  0.99041039649E+02 -0.12815148428E+03  0.26053880122E+03  0.17547991995E+03 0.  0.
        -24    2    3    3    0    0  0.27920062428E+02 -0.12454484694E+02 -0.79120500430E+02  0.11675312651E+03  0.80228392029E+02 0.  0.
          6    2    1    2  501    0 -0.10418893501E+03 -0.99041039649E+02  0.75261942890E+02  0.23748772235E+03  0.17341163890E+03 0.  0.
         24    2    5    5    0    0 -0.10406003015E+03 -0.10983085885E+03  0.10836128949E+03  0.20235805454E+03  0.79468897986E+02 0.  0.
          5    1    5    5  501    0 -0.12890486304E+00  0.10789819202E+02 -0.33099346599E+02  0.35129667806E+02  0.47000000000E+01 0. -1.
        -11    1    6    6    0    0 -0.21604033809E+02 -0.65193247180E+02  0.77715250662E+02  0.10371380786E+03  0.00000000000E+00 0.  1.
         12    1    6    6    0    0 -0.82455996339E+02 -0.44637611671E+02  0.30646038828E+02  0.98644246684E+02  0.00000000000E+00 0. -1.
         -5    1    3    3    0  503  0.76268872583E+02  0.11149552434E+03 -0.49030983853E+02  0.14378567471E+03  0.47000000000E+01 0.  1.
         11    1    4    4    0    0 -0.12176771358E+02  0.10075357366E+00 -0.73336179587E+02  0.74340292900E+02  0.00000000000E+00 0. -1.
        -12    1    4    4    0    0  0.40096833785E+02 -0.12555238267E+02 -0.57843208428E+01  0.42412833614E+02  0.00000000000E+00 0.  1.
</event>
<event>
12    1  0.1040325E-001  0.1752318E+03  0.7818608E-02  0.1172532E+00
         21   -1    0    0  501  502  0.00000000000E+00  0.00000000000E+00  0.25817764832E+03  0.25817764832E+03  0.00000000000E+00 0.  1.
         21   -1    0    0  502  503 -0.00000000000E+00 -0.00000000000E+00 -0.14391483978E+03  0.14391483978E+03  0.00000000000E+00 0.  1.
         -6    2    1    2    0  503  0.34613238215E+02  0.49435009087E+01 -0.26759388930E+02  0.17726324033E+03  0.17170811576E+03 0.  0.
        -24    2    3    3    0    0  0.82836742275E+02  0.25702778414E+02 -0.37079382725E+02  0.12355061409E+03  0.79795456818E+02 0.  0.
          6    2    1    2  501    0 -0.34613238215E+02 -0.49435009087E+01  0.14102219747E+03  0.22482924777E+03  0.17157626879E+03 0.  0.
         24    2    5    5    0    0 -0.67011845531E+02  0.46399022730E+02  0.84290122178E+02  0.14160459483E+03  0.79395086929E+02 0.  0.
          5    1    5    5  501    0  0.32398607317E+02 -0.51342523638E+02  0.56732075296E+02  0.83224652940E+02  0.47000000000E+01 0. -1.
        -11    1    6    6    0    0 -0.75415876475E+01  0.51085259312E+02  0.53939858653E+02  0.74673205466E+02  0.00000000000E+00 0.  1.
         12    1    6    6    0    0 -0.59470257884E+02 -0.46862365819E+01  0.30350263525E+02  0.66931389363E+02  0.00000000000E+00 0. -1.
         -5    1    3    3    0  503 -0.48223504060E+02 -0.20759277505E+02  0.10319993795E+02  0.53712626247E+02  0.47000000000E+01 0.  1.
         11    1    4    4    0    0  0.22109353336E+02 -0.91319772363E+01  0.21578718175E+02  0.32215797232E+02  0.00000000000E+00 0. -1.
        -12    1    4    4    0    0  0.60727388939E+02  0.34834755650E+02 -0.58658100900E+02  0.91334816854E+02  0.00000000000E+00 0.  1.
</event>
<event>
12    1  0.1040325E-001  0.2901344E+03  0.7818608E-02  0.1091098E+00
         21   -1    0    0  503  502  0.00000000000E+00  0.00000000000E+00  0.11990023073E+04  0.11990023073E+04  0.00000000000E+00 0. -1.
         21   -1    0    0  501  503 -0.00000000000E+00 -0.00000000000E+00 -0.10016859421E+03  0.10016859421E+03  0.00000000000E+00 0.  1.
          6    2    1    2  501    0 -0.14658300699E+03  0.17612262035E+03  0.18948914794E+03  0.34653150081E+03  0.17796681863E+03 0.  0.
         24    2    3    3    0    0 -0.96045839938E+02  0.19779697633E+03  0.16414471966E+03  0.28580084129E+03  0.79938630668E+02 0.  0.
         -6    2    1    2    0  502  0.14658300699E+03 -0.17612262035E+03  0.90934456513E+03  0.95263940068E+03  0.16765599974E+03 0.  0.
        -24    2    5    5    0    0  0.13357110716E+02 -0.10693581604E+03  0.41905949472E+03  0.43986509009E+03  0.79099659954E+02 0.  0.
          5    1    3    3  501    0 -0.50537167055E+02 -0.21674355987E+02  0.25344428276E+02  0.60730659523E+02  0.47000000000E+01 0. -1.
        -11    1    4    4    0    0 -0.44706106768E+02  0.11109019616E+03  0.13594130385E+03  0.18116209802E+03  0.00000000000E+00 0.  1.
         12    1    4    4    0    0 -0.51339733170E+02  0.86706780176E+02  0.28203415810E+02  0.10463874327E+03  0.00000000000E+00 0. -1.
         -5    1    5    5    0  502  0.13322589628E+03 -0.69186804304E+02  0.49028507042E+03  0.51277431059E+03  0.47000000000E+01 0.  1.
         13    1    6    6    0    0  0.26353935196E+02 -0.47066732217E+02  0.31103240552E+03  0.31567540998E+03  0.00000000000E+00 0. -1.
        -14    1    6    6    0    0 -0.12996824480E+02 -0.59869083826E+02  0.10802708919E+03  0.12418968010E+03  0.00000000000E+00 0.  1.
</event>
<event>
12    1  0.1040325E-001  0.2049517E+03  0.7818608E-02  0.1145652E+00
         21   -1    0    0  503  502  0.00000000000E+00  0.00000000000E+00  0.48732029025E+03  0.48732029025E+03  0.00000000000E+00 0. -1.
         21   -1    0    0  501  503 -0.00000000000E+00 -0.00000000000E+00 -0.89010678067E+02  0.89010678067E+02  0.00000000000E+00 0.  1.
          6    2    1    2  501    0  0.82290977215E+02 -0.74844356380E+02  0.25092001592E+03  0.32398462051E+03  0.17213859917E+03 0.  0.
         24    2    3    3    0    0  0.12345307789E+03 -0.44829061901E+02  0.19245616521E+03  0.24629711653E+03  0.79828483968E+02 0.  0.
         -6    2    1    2    0  502 -0.82290977215E+02  0.74844356380E+02  0.14738959626E+03  0.25234634781E+03  0.17199274273E+03 0.  0.
        -24    2    5    5    0    0 -0.11893840612E+03  0.53505164311E+02  0.14332985580E+03  0.20948649881E+03  0.79573856032E+02 0.  0.
          5    1    3    3  501    0 -0.41162100675E+02 -0.30015294479E+02  0.58463850718E+02  0.77687503985E+02  0.47000000000E+01 0. -1.
        -13    1    4    4    0    0 -0.44977285272E+01  0.79071346023E+01 -0.18487131162E+00  0.90987096296E+01  0.00000000000E+00 0.  1.
         14    1    4    4    0    0  0.12795080642E+03 -0.52736196503E+02  0.19264103652E+03  0.23719840690E+03  0.00000000000E+00 0. -1.
         -5    1    5    5    0  502  0.36647428902E+02  0.21339192070E+02  0.40597404653E+01  0.42859848996E+02  0.47000000000E+01 0.  1.
         13    1    6    6    0    0 -0.14007472362E+02  0.45347507592E+02  0.47482965063E+02  0.67135964266E+02  0.00000000000E+00 0. -1.
        -14    1    6    6    0    0 -0.10493093376E+03  0.81576567186E+01  0.95846890736E+02  0.14235053455E+03  0.00000000000E+00 0.  1.
</event>
<event>
12    1  0.1040325E-001  0.1844724E+03  0.7818608E-02  0.1164022E+00
         21   -1    0    0  503  502  0.00000000000E+00  0.00000000000E+00  0.20118543876E+03  0.20118543876E+03  0.00000000000E+00 0. -1.
         21   -1    0    0  501  503 -0.00000000000E+00 -0.00000000000E+00 -0.30581941192E+03  0.30581941192E+03  0.00000000000E+00 0. -1.
          6    2    1    2  501    0  0.38107401052E+02 -0.53170349301E+02 -0.22309001895E+03  0.28948094297E+03  0.17248420140E+03 0.  0.
         24    2    3    3    0    0  0.81403336096E+02 -0.36535792432E+02 -0.20382331441E+03  0.23903748574E+03  0.87370526134E+02 0.  0.
         -6    2    1    2    0  502 -0.38107401052E+02  0.53170349301E+02  0.11845604578E+03  0.21752390771E+03  0.17031017463E+03 0.  0.
        -24    2    5    5    0    0  0.15877777128E+02  0.43145995509E+02  0.13243340284E+03  0.16067020385E+03  0.78502404311E+02 0.  0.
          5    1    3    3  501    0 -0.43295935043E+02 -0.16634556869E+02 -0.19266704535E+02  0.50443457228E+02  0.47000000000E+01 0. -1.
        -11    1    4    4    0    0  0.59676224810E+01 -0.25540068699E+02 -0.58200353581E+01  0.26865971763E+02  0.00000000000E+00 0.  1.
         12    1    4    4    0    0  0.75435713615E+02 -0.10995723733E+02 -0.19800327905E+03  0.21217151398E+03  0.00000000000E+00 0. -1.
         -5    1    5    5    0  502 -0.53985178180E+02  0.10024353792E+02 -0.13977357056E+02  0.56853703858E+02  0.47000000000E+01 0.  1.
         11    1    6    6    0    0 -0.24756146856E+02 -0.72363771275E+01  0.45278718567E+02  0.52109445556E+02  0.00000000000E+00 0. -1.
        -12    1    6    6    0    0  0.40633923984E+02  0.50382372636E+02  0.87154684274E+02  0.10856075830E+03  0.00000000000E+00 0.  1.
</event>
<event>
12    1  0.1040325E-001  0.2239950E+03  0.7818608E-02  0.1131019E+00
         21   -1    0    0  501  502  0.00000000000E+00  0.00000000000E+00  0.10704570013E+03  0.10704570013E+03  0.00000000000E+00 0. -1.
         21   -1    0    0  502  503 -0.00000000000E+00 -0.00000000000E+00 -0.61663115649E+03  0.61663115649E+03  0.00000000000E+00 0.  1.
         -6    2    1    2    0  503  0.16563769329E+02  0.14285234864E+03 -0.43237009825E+03  0.48674654877E+03  0.17116409938E+03 0.  0.
        -24    2    3    3    0    0  0.24711636497E+02  0.11325855443E+03 -0.14613677168E+03  0.19883373622E+03  0.68852984616E+02 0.  0.
          6    2    1    2  501    0 -0.16563769329E+02 -0.14285234864E+03 -0.77215358107E+02  0.23693030785E+03  0.17173411800E+03 0.  0.
         24    2    5    5    0    0  0.93668502944E+01 -0.16699095363E+03 -0.79179808505E+02  0.20113899117E+03  0.78827249189E+02 0.  0.
          5    1    5    5  501    0 -0.25930619624E+02  0.24138604985E+02  0.19644503977E+01  0.35791316685E+02  0.47000000000E+01 0.  1.
        -13    1    6    6    0    0  0.17419281979E+02 -0.63586234319E+01 -0.25609122407E+02  0.31617884607E+02  0.00000000000E+00 0.  1.
         14    1    6    6    0    0 -0.80524316842E+01 -0.16063233019E+03 -0.53570686098E+02  0.16952110656E+03  0.00000000000E+00 0. -1.
         -5    1    3    3    0  503 -0.81478671677E+01  0.29593794208E+02 -0.28623332657E+03  0.28791281255E+03  0.47000000000E+01 0.  1.
         13    1    4    4    0    0  0.49072575977E+01 -0.84138388162E+01 -0.21139004665E+02  0.23275123608E+02  0.00000000000E+00 0. -1.
        -14    1    4    4    0    0  0.19804378899E+02  0.12167239325E+03 -0.12499776702E+03  0.17555861261E+03  0.00000000000E+00 0.  1.
</event>
<event>
12    1  0.1040325E-001  0.2295057E+03  0.7818608E-02  0.1127321E+00
         21   -1    0    0  503  502  0.00000000000E+00  0.00000000000E+00  0.89100637084E+03  0.89100637084E+03  0.00000000000E+00 0. -1.
         21   -1    0    0  501  503 -0.00000000000E+00 -0.00000000000E+00 -0.78881070594E+02  0.78881070594E+02  0.00000000000E+00 0. -1.
          6    2    1    2  501    0 -0.96396353840E+02 -0.11448172616E+03  0.16161333802E+03  0.28069864301E+03  0.17399578874E+03 0.  0.
         24    2    3    3    0    0 -0.60447228598E+02 -0.13927621272E+03  0.16310662330E+03  0.23675065022E+03  0.79971050624E+02 0.  0.
         -6    2    1    2    0  502  0.96396353840E+02  0.11448172616E+03  0.65051196222E+03  0.68918879842E+03  0.17151403506E+03 0.  0.
        -24    2    5    5    0    0  0.21248041871E+02  0.12736095909E+03  0.50067000002E+03  0.52099888473E+03  0.64008560259E+02 0.  0.
          5    1    3    3  501    0 -0.35949125242E+02  0.24794486560E+02 -0.14932852751E+01  0.43947992791E+02  0.47000000000E+01 0. -1.
        -11    1    4    4    0    0 -0.65817223886E+02 -0.10257005189E+03  0.80115883546E+02  0.14584607400E+03  0.00000000000E+00 0.  1.
         12    1    4    4    0    0  0.53699952888E+01 -0.36706160837E+02  0.82990739751E+02  0.90904576217E+02  0.00000000000E+00 0. -1.
         -5    1    5    5    0  502  0.75148311969E+02 -0.12879232923E+02  0.14984196220E+03  0.16818991370E+03  0.47000000000E+01 0.  1.
         11    1    6    6    0    0  0.26392432454E+01  0.65613806454E+01  0.14006295596E+03  0.14024139529E+03  0.00000000000E+00 0. -1.
        -12    1    6    6    0    0  0.18608798625E+02  0.12079957844E+03  0.36060704406E+03  0.38075748944E+03  0.00000000000E+00 0.  1.
</event>
<event>
12    1  0.1040325E-001  0.2388838E+03  0.7818608E-02  0.1121247E+00
         21   -1    0    0  501  502  0.00000000000E+00  0.00000000000E+00  0.50927163793E+02  0.50927163793E+02  0.00000000000E+00 0.  1.
         21   -1    0    0  502  503 -0.00000000000E+00 -0.00000000000E+00 -0.11395548186E+04  0.11395548186E+04  0.00000000000E+00 0. -1.
         -6    2    1    2    0  503  0.10762134199E+02 -0.16663948037E+03 -0.43013871661E+03  0.49000130914E+03  0.16491642573E+03 0.  0.
        -24    2    3    3    0    0  0.55682782390E+02 -0.74069436529E+02 -0.32379988616E+03  0.34195700998E+03  0.59172432054E+02 0.  0.
          6    2    1    2  501    0 -0.10762134199E+02  0.16663948037E+03 -0.65848893824E+03  0.70048067330E+03  0.17082433064E+03 0.  0.
         24    2    5    5    0    0  0.30819693800E+01  0.19118209368E+03 -0.61043259651E+03  0.64457449250E+03  0.79298360736E+02 0.  0.
          5    1    5    5  501    0 -0.13844103579E+02 -0.24542613311E+02 -0.48056341724E+02  0.55906180802E+02  0.47000000000E+01 0. -1.
        -11    1    6    6    0    0  0.40491519636E+02  0.99401128407E+02 -0.34085402839E+03  0.35735362901E+03  0.00000000000E+00 0.  1.
         12    1    6    6    0    0 -0.37409550256E+02  0.91780965272E+02 -0.26957856812E+03  0.28722086349E+03  0.00000000000E+00 0. -1.
         -5    1    3    3    0  503 -0.44920648191E+02 -0.92570043839E+02 -0.10633883046E+03  0.14804429916E+03  0.47000000000E+01 0.  1.
         11    1    4    4    0    0  0.33887385625E+02 -0.46111428425E+02 -0.98750733756E+02  0.11413293194E+03  0.00000000000E+00 0. -1.
        -12    1    4    4    0    0  0.21795396764E+02 -0.27958008104E+02 -0.22504915240E+03  0.22782407804E+03  0.00000000000E+00 0.  1.
</event>
<event>
12    1  0.1040325E-001  0.2129569E+03  0.7818608E-02  0.1140302E+00
         21   -1    0    0  503  502  0.00000000000E+00  0.00000000000E+00  0.12634789781E+03  0.12634789781E+03  0.00000000000E+00 0.  1.
         21   -1    0    0  501  503 -0.00000000000E+00 -0.00000000000E+00 -0.41370879422E+03  0.41370879422E+03  0.00000000000E+00 0.  1.
          6    2    1    2  501    0  0.11949135119E+03  0.38069500722E+02 -0.25121915005E+03  0.32933522062E+03  0.17211378880E+03 0.  0.
         24    2    3    3    0    0  0.10962225780E+03  0.86743707576E+02 -0.20384340906E+03  0.26053748627E+03  0.82378007533E+02 0.  0.
         -6    2    1    2    0  502 -0.11949135119E+03 -0.38069500722E+02 -0.36141746364E+02  0.21072147141E+03  0.16543833531E+03 0.  0.
        -24    2    5    5    0    0 -0.20592901424E+02 -0.51107141631E+02 -0.50873876844E+02  0.10977589640E+03  0.80166006325E+02 0.  0.
          5    1    3    3  501    0  0.98690933809E+01 -0.48674206853E+02 -0.47375740987E+02  0.68797734345E+02  0.47000000000E+01 0. -1.
        -13    1    4    4    0    0  0.15289608494E+02 -0.69602091491E+01  0.42743585582E+00  0.16804741614E+02  0.00000000000E+00 0.  1.
         14    1    4    4    0    0  0.94332649311E+02  0.93703916725E+02 -0.20427084492E+03  0.24373274466E+03  0.00000000000E+00 0. -1.
         -5    1    5    5    0  502 -0.98898449762E+02  0.13037640909E+02  0.14732130479E+02  0.10094557501E+03  0.47000000000E+01 0.  1.
         11    1    6    6    0    0 -0.43832986517E+02 -0.47701065230E+02 -0.14351823880E+02  0.66352823450E+02  0.00000000000E+00 0. -1.
        -12    1    6    6    0    0  0.23240085093E+02 -0.34060764016E+01 -0.36522052963E+02  0.43423072948E+02  0.00000000000E+00 0.  1.
</event>
<event>
12    1  0.1040325E-001  0.2526146E+03  0.7818608E-02  0.1111744E+00
         21   -1    0    0  503  502  0.00000000000E+00  0.00000000000E+00  0.61993797246E+03  0.61993797246E+03  0.00000000000E+00 0.  1.
         21   -1    0    0  501  503 -0.00000000000E+00 -0.00000000000E+00 -0.29214725771E+03  0.29214725771E+03  0.00000000000E+00 0.  1.
          6    2    1    2  501    0 -0.16162236915E+03 -0.90527259200E+02 -0.20337583334E+03  0.32390834050E+03  0.17099096056E+03 0.  0.
         24    2    3    3    0    0 -0.69008058759E+02 -0.71299150056E+02 -0.18838083266E+03  0.22802262355E+03  0.81616773795E+02 0.  0.
         -6    2    1    2    0  502  0.16162236915E+03  0.90527259200E+02  0.53116654808E+03  0.58817688967E+03  0.17174742173E+03 0.  0.
        -24    2    5    5    0    0  0.11071393050E+03  0.53807595820E+02  0.49359243566E+03  0.51486995460E+03  0.79402429666E+02 0.  0.
          5    1    3    3  501    0 -0.92614310388E+02 -0.19228109144E+02 -0.14995000678E+02  0.95885716951E+02  0.47000000000E+01 0. -1.
        -11    1    4    4    0    0 -0.45497470389E+02  0.48577799727E+01 -0.46186853088E+02  0.65014177194E+02  0.00000000000E+00 0.  1.
         12    1    4    4    0    0 -0.23510588370E+02 -0.76156930029E+02 -0.14219397957E+03  0.16300844636E+03  0.00000000000E+00 0. -1.
         -5    1    5    5    0  502  0.50908438652E+02  0.36719663380E+02  0.37574112427E+02  0.73306935071E+02  0.47000000000E+01 0.  1.
         13    1    6    6    0    0  0.13318876179E+02 -0.33149505812E+01  0.71121714070E+01  0.15458471533E+02  0.00000000000E+00 0. -1.
        -14    1    6    6    0    0  0.97395054316E+02  0.57122546401E+02  0.48648026425E+03  0.49941148306E+03  0.00000000000E+00 0.  1.
</event>
<event>
12    1  0.1040325E-001  0.2209466E+03  0.7818608E-02  0.1133822E+00
         21   -1    0    0  503  502  0.00000000000E+00  0.00000000000E+00  0.22990504309E+03  0.22990504309E+03  0.00000000000E+00 0. -1.
         21   -1    0    0  501  503 -0.00000000000E+00 -0.00000000000E+00 -0.52823466475E+03  0.52823466475E+03  0.00000000000E+00 0.  1.
          6    2    1    2  501    0  0.14074031554E+03  0.33489574836E+01 -0.44336368538E+03  0.49384392636E+03  0.16580535020E+03 0.  0.
         24    2    3    3    0    0  0.32001520976E+02  0.40053109754E+02 -0.15216002481E+03  0.18080561853E+03  0.83124302087E+02 0.  0.
         -6    2    1    2    0  502 -0.14074031554E+03 -0.33489574836E+01  0.14503406372E+03  0.26429578148E+03  0.17028895599E+03 0.  0.
        -24    2    5    5    0    0 -0.99919198587E+02 -0.10401735016E+02  0.17925044163E+02  0.13052396788E+03  0.81382778548E+02 0.  0.
          5    1    3    3  501    0  0.10873879457E+03 -0.36704152270E+02 -0.29120366057E+03  0.31303830783E+03  0.47000000000E+01 0. -1.
        -13    1    4    4    0    0  0.30886280480E+02  0.14379672471E+02 -0.15130544748E+03  0.15509376435E+03  0.00000000000E+00 0.  1.
         14    1    4    4    0    0  0.11152404953E+01  0.25673437283E+02 -0.85457732940E+00  0.25711854186E+02  0.00000000000E+00 0. -1.
         -5    1    5    5    0  502 -0.40821116957E+02  0.70527775321E+01  0.12710901956E+03  0.13377181360E+03  0.47000000000E+01 0.  1.
         13    1    6    6    0    0  0.55652094723E+01 -0.18931328257E+02  0.14770582637E+02  0.24648262768E+02  0.00000000000E+00 0. -1.
        -14    1    6    6    0    0 -0.10548440806E+03  0.85295932415E+01  0.31544615258E+01  0.10587570511E+03  0.00000000000E+00 0.  1.
</event>
<event>
12    1  0.1040325E-001  0.1947671E+03  0.7818608E-02  0.1155150E+00
         21   -1    0    0  501  502  0.00000000000E+00  0.00000000000E+00  0.22879018074E+03  0.22879018074E+03  0.00000000000E+00 0. -1.
         21   -1    0    0  502  503 -0.00000000000E+00 -0.00000000000E+00 -0.16536792294E+03  0.16536792294E+03  0.00000000000E+00 0. -1.
         -6    2    1    2    0  503  0.59612037278E+02  0.69104812451E+02  0.44395780481E+01  0.19065581047E+03  0.16733456942E+03 0.  0.
        -24    2    3    3    0    0  0.81553698483E+02  0.57522567736E+02  0.51894821795E+02  0.13690011265E+03  0.78030229912E+02 0.  0.
          6    2    1    2  501    0 -0.59612037278E+02 -0.69104812451E+02  0.58982679751E+02  0.20350229321E+03  0.17206149115E+03 0.  0.
         24    2    5    5    0    0 -0.40751342915E+02 -0.27317239686E+02 -0.33686004245E+02  0.10000590669E+03  0.80371207264E+02 0.  0.
          5    1    5    5  501    0 -0.18860694363E+02 -0.41787572765E+02  0.92668683996E+02  0.10349638652E+03  0.47000000000E+01 0. -1.
        -13    1    6    6    0    0  0.13528900243E+02 -0.35605552115E+02 -0.21580649441E+02  0.43777972926E+02  0.00000000000E+00 0.  1.
         14    1    6    6    0    0 -0.54280243158E+02  0.82883124290E+01 -0.12105354804E+02  0.56227933762E+02  0.00000000000E+00 0. -1.
         -5    1    3    3    0  503 -0.21941661205E+02  0.11582244716E+02 -0.47455243747E+02  0.53755697821E+02  0.47000000000E+01 0.  1.
         13    1    4    4    0    0  0.72644414927E+02  0.52858720266E+01  0.22141433866E+02  0.76127488838E+02  0.00000000000E+00 0. -1.
        -14    1    4    4    0    0  0.89092835560E+01  0.52236695709E+02  0.29753387929E+02  0.60772623815E+02  0.00000000000E+00 0.  1.
</event>
<event>
12    1  0.1040325E-001  0.2285841E+03  0.7818608E-02  0.1128008E+00
         21   -1    0    0  503  502  0.00000000000E+00  0.00000000000E+00  0.11971713585E+03  0.11971713585E+03  0.00000000000E+00 0.  1.
         21   -1    0    0  501  503 -0.00000000000E+00 -0.00000000000E+00 -0.48753111048E+03  0.48753111048E+03  0.00000000000E+00 0. -1.
          6    2    1    2  501    0  0.29026275701E+02 -0.14442352539E+03 -0.28515405459E+03  0.36417758581E+03  0.17208079437E+03 0.  0.
         24    2    3    3    0    0  0.12135844006E+02 -0.30613604510E+02 -0.41412911473E+02  0.94604182783E+02  0.78424809036E+02 0.  0.
         -6    2    1    2    0  502 -0.29026275701E+02  0.14442352539E+03 -0.82659920045E+02  0.24307066051E+03  0.17478559509E+03 0.  0.
        -24    2    5    5    0    0 -0.52626379864E+02  0.52513356819E+02 -0.98154357225E+02  0.14680741941E+03  0.79943430312E+02 0.  0.
          5    1    3    3  501    0  0.16890431695E+02 -0.11380992088E+03 -0.24374114312E+03  0.26957340303E+03  0.47000000000E+01 0. -1.
        -13    1    4    4    0    0 -0.17657206086E+02  0.13542604837E+02 -0.34269000154E+02  0.40860047040E+02  0.00000000000E+00 0.  1.
         14    1    4    4    0    0  0.29793050092E+02 -0.44156209348E+02 -0.71439113191E+01  0.53744135742E+02  0.00000000000E+00 0. -1.
         -5    1    5    5    0  502  0.23600104163E+02  0.91910168575E+02  0.15494437180E+02  0.96263241103E+02  0.47000000000E+01 0.  1.
         13    1    6    6    0    0  0.11496455973E-01  0.16331694109E+02 -0.78203083848E+02  0.79890216472E+02  0.00000000000E+00 0. -1.
        -14    1    6    6    0    0 -0.52637876320E+02  0.36181662710E+02 -0.19951273378E+02  0.66917202940E+02  0.00000000000E+00 0.  1.
</event>
<event>
12    1  0.1040325E-001  0.1748908E+03  0.7818608E-02  0.1173008E+00
         21   -1    0    0  501  502  0.00000000000E+00  0.00000000000E+00  0.88912829616E+02  0.88912829616E+02  0.00000000000E+00 0. -1.
         21   -1    0    0  502  503 -0.00000000000E+00 -0.00000000000E+00 -0.38365037794E+03  0.38365037794E+03  0.00000000000E+00 0. -1.
         -6    2    1    2    0  503 -0.29743119979E+02 -0.11999696317E+02 -0.22430915287E+03  0.28402426030E+03  0.17124992987E+03 0.  0.
        -24    2    3    3    0    0 -0.47921380367E+02 -0.63731856987E+02 -0.11180982495E+03  0.15878507163E+03  0.79706045719E+02 0.  0.
          6    2    1    2  501    0  0.29743119979E+02  0.11999696317E+02 -0.70428395456E+02  0.18853894725E+03  0.17192477962E+03 0.  0.
         24    2    5    5    0    0  0.18866534622E+02 -0.52348638311E+02 -0.11813879512E+02  0.10069385771E+03  0.83086455992E+02 0.  0.
          5    1    5    5  501    0  0.10876585358E+02  0.64348334627E+02 -0.58614515943E+02  0.87845089548E+02  0.47000000000E+01 0. -1.
        -13    1    6    6    0    0  0.11838386676E+02 -0.28019242138E+02 -0.47819762410E+02  0.56674112309E+02  0.00000000000E+00 0.  1.
         14    1    6    6    0    0  0.70281479458E+01 -0.24329396173E+02  0.36005882898E+02  0.44019745398E+02  0.00000000000E+00 0. -1.
         -5    1    3    3    0  503  0.18178260388E+02  0.51732160670E+02 -0.11249932791E+03  0.12523918867E+03  0.47000000000E+01 0.  1.
         13    1    4    4    0    0 -0.45725279802E+02 -0.54961241899E+02 -0.12428284211E+03  0.14337978995E+03  0.00000000000E+00 0. -1.
        -14    1    4    4    0    0 -0.21961005654E+01 -0.87706150875E+01  0.12473017152E+02  0.15405281678E+02  0.00000000000E+00 0.  1.
</event>
<event>
12    1  0.1040325E-001  0.2562192E+03  0.7818608E-02  0.1109638E+00
         21   -1    0    0  503  502  0.00000000000E+00  0.00000000000E+00  0.49256657198E+03  0.49256657198E+03  0.00000000000E+00 0. -1.
         21   -1    0    0  501  503 -0.00000000000E+00 -0.00000000000E+00 -0.20502831780E+03  0.20502831780E+03  0.00000000000E+00 0. -1.
          6    2    1    2  501    0  0.18778432107E+03  0.25529289752E+02 -0.63783416158E+02  0.26276710997E+03  0.17048030394E+03 0.  0.
         24    2    3    3    0    0  0.20954453999E+03  0.32167130624E+02 -0.41352357957E+02  0.23047453450E+03  0.80404322081E+02 0.  0.
         -6    2    1    2    0  502 -0.18778432107E+03 -0.25529289752E+02  0.35132167034E+03  0.43482777981E+03  0.17243429521E+03 0.  0.
        -24    2    5    5    0    0 -0.47683394115E+02  0.81748156424E+01  0.22486500783E+03  0.24305287543E+03  0.78548678061E+02 0.  0.
          5    1    3    3  501    0 -0.21760218922E+02 -0.66378408714E+01 -0.22431058201E+02  0.32292575477E+02  0.47000000000E+01 0. -1.
        -11    1    4    4    0    0  0.12258041315E+03  0.42179131669E+02  0.81833885279E+01  0.12989228108E+03  0.00000000000E+00 0.  1.
         12    1    4    4    0    0  0.86964126842E+02 -0.10012001045E+02 -0.49535746485E+02  0.10058225342E+03  0.00000000000E+00 0. -1.
         -5    1    5    5    0  502 -0.14010092696E+03 -0.33704105395E+02  0.12645666251E+03  0.19177490438E+03  0.47000000000E+01 0.  1.
         13    1    6    6    0    0 -0.64963385783E+02  0.81886610059E+01  0.11934074076E+03  0.13612313568E+03  0.00000000000E+00 0. -1.
        -14    1    6    6    0    0  0.17279991668E+02 -0.13845363471E-01  0.10552426707E+03  0.10692973976E+03  0.00000000000E+00 0.  1.
</event>
<event>
12    1  0.1040325E-001  0.2131268E+03  0.7818608E-02  0.1139614E+00
         21   -1    0    0  501  502  0.00000000000E+00  0.00000000000E+00  0.30406183318E+03  0.30406183318E+03  0.00000000000E+00 0. -1.
         21   -1    0    0  502  503 -0.00000000000E+00 -0.00000000000E+00 -0.16747878013E+03  0.16747878013E+03  0.00000000000E+00 0. -1.
         -6    2    1    2    0  503 -0.41170623293E+01 -0.12371665827E+03 -0.12577415118E+02  0.21349763210E+03  0.17349433941E+03 0.  0.
        -24    2    3    3    0    0  0.57346119398E+02 -0.33888666159E+02  0.72320718251E+01  0.10276689271E+03  0.77921192685E+02 0.  0.
          6    2    1    2  501    0  0.41170623293E+01  0.12371665827E+03  0.14916046816E+03  0.25804298121E+03  0.17033664653E+03 0.  0.
         24    2    5    5    0    0 -0.23606898749E+02  0.13635432922E+03  0.73117702224E+02  0.17598860292E+03  0.80473605692E+02 0.  0.
          5    1    5    5  501    0  0.27723961078E+02 -0.12637670950E+02  0.76042765940E+02  0.82054378290E+02  0.47000000000E+01 0. -1.
        -11    1    6    6    0    0 -0.12158831835E+02  0.72681589513E+02 -0.58277403601E+01  0.73921669376E+02  0.00000000000E+00 0.  1.
         12    1    6    6    0    0 -0.11448066914E+02  0.63672739707E+02  0.78945442584E+02  0.10206693354E+03  0.00000000000E+00 0. -1.
         -5    1    3    3    0  503 -0.61463181727E+02 -0.89827992110E+02 -0.19809486943E+02  0.11073073940E+03  0.47000000000E+01 0.  1.
         11    1    4    4    0    0 -0.14512119588E+02 -0.15427807971E+02  0.18002303524E+02  0.27797514383E+02  0.00000000000E+00 0. -1.
        -12    1    4    4    0    0  0.71858238986E+02 -0.18460858188E+02 -0.10770231699E+02  0.74969378323E+02  0.00000000000E+00 0.  1.
</event>
<event>
12    1  0.1040325E-001  0.1851938E+03  0.7818608E-02  0.1162988E+00
         21   -1    0    0  503  502  0.00000000000E+00  0.00000000000E+00  0.60768896193E+03  0.60768896193E+03  0.00000000000E+00 0. -1.
         21   -1    0    0  501  503 -0.00000000000E+00 -0.00000000000E+00 -0.83795179704E+02  0.83795179704E+02  0.00000000000E+00 0.  1.
          6    2    1    2  501    0 -0.60656216643E+02  0.26931469568E+02  0.63591856051E+02  0.19532429760E+03  0.17234609483E+03 0.  0.
         24    2    3    3    0    0 -0.39133857693E+02  0.80608635250E+02  0.16582525531E+02  0.12064888527E+03  0.79069352270E+02 0.  0.
         -6    2    1    2    0  502  0.60656216643E+02 -0.26931469568E+02  0.46030192618E+03  0.49615984404E+03  0.17289374461E+03 0.  0.
        -24    2    5    5    0    0  0.67258647769E+02  0.45121239395E+02  0.30353626975E+03  0.32343825882E+03  0.76931061815E+02 0.  0.
          5    1    3    3  501    0 -0.21522358951E+02 -0.53677165682E+02  0.47009330520E+02  0.74675412328E+02  0.47000000000E+01 0. -1.
        -11    1    4    4    0    0 -0.35060747552E+02  0.14952934295E+02 -0.22373369794E+02  0.44197442673E+02  0.00000000000E+00 0.  1.
         12    1    4    4    0    0 -0.40731101410E+01  0.65655700955E+02  0.38955895325E+02  0.76451442594E+02  0.00000000000E+00 0. -1.
         -5    1    5    5    0  502 -0.66024311253E+01 -0.72052708963E+02  0.15676565643E+03  0.17272158522E+03  0.47000000000E+01 0.  1.
         11    1    6    6    0    0  0.81715165003E+02  0.29217948796E+02  0.27002340243E+03  0.28362597656E+03  0.00000000000E+00 0. -1.
        -12    1    6    6    0    0 -0.14456517234E+02  0.15903290599E+02  0.33512867320E+02  0.39812282256E+02  0.00000000000E+00 0.  1.
</event>
<event>
12    1  0.1040325E-001  0.1851860E+03  0.7818608E-02  0.1163881E+00
         21   -1    0    0  501  502  0.00000000000E+00  0.00000000000E+00  0.66809050334E+02  0.66809050334E+02  0.00000000000E+00 0. -1.
         21   -1    0    0  502  503 -0.00000000000E+00 -0.00000000000E+00 -0.70279209562E+03  0.70279209562E+03  0.00000000000E+00 0. -1.
         -6    2    1    2    0  503 -0.25804190971E+02  0.50748054103E+02 -0.52123788369E+03  0.55174724692E+03  0.17174071102E+03 0.  0.
        -24    2    3    3    0    0 -0.78296536956E+02  0.74934381977E+01 -0.35475497332E+03  0.37184433524E+03  0.78934271649E+02 0.  0.
          6    2    1    2  501    0  0.25804190971E+02 -0.50748054103E+02 -0.11474516160E+03  0.21785389904E+03  0.17621761532E+03 0.  0.
         24    2    5    5    0    0  0.37653736680E+02 -0.35789342594E+02 -0.14923858314E+03  0.17815426538E+03  0.82268503356E+02 0.  0.
          5    1    5    5  501    0 -0.11849545710E+02 -0.14958711509E+02  0.34493421541E+02  0.39699633665E+02  0.47000000000E+01 0. -1.
        -13    1    6    6    0    0 -0.10810307381E+02 -0.45126006794E+02 -0.56615334549E+02  0.73201880720E+02  0.00000000000E+00 0.  1.
         14    1    6    6    0    0  0.48464044062E+02  0.93366642006E+01 -0.92623248593E+02  0.10495238466E+03  0.00000000000E+00 0. -1.
         -5    1    3    3    0  503  0.52492345985E+02  0.43254615905E+02 -0.16648291037E+03  0.17990291167E+03  0.47000000000E+01 0.  1.
         11    1    4    4    0    0 -0.26811578836E+02  0.23553452750E+02 -0.26302203531E+03  0.26543213248E+03  0.00000000000E+00 0. -1.
        -12    1    4    4    0    0 -0.51484958120E+02 -0.16060014552E+02 -0.91732938015E+02  0.10641220276E+03  0.00000000000E+00 0.  1.
</event>
<event>
12    1  0.1040325E-001  0.1928762E+03  0.7818608E-02  0.1159901E+00
         21   -1    0    0  501  502  0.00000000000E+00  0.00000000000E+00  0.43942289959E+03  0.43942289959E+03  0.00000000000E+00 0. -1.
         21   -1    0    0  502  503 -0.00000000000E+00 -0.00000000000E+00 -0.77261019122E+02  0.77261019122E+02  0.00000000000E+00 0. -1.
         -6    2    1    2    0  503  0.85120814359E+02 -0.73878493567E+01  0.18809999500E+03  0.26941201145E+03  0.17291931772E+03 0.  0.
        -24    2    3    3    0    0  0.83353168753E+02  0.45572568819E+02  0.77132755112E+02  0.14635207161E+03  0.80279867865E+02 0.  0.
          6    2    1    2  501    0 -0.85120814359E+02  0.73878493567E+01  0.17406188546E+03  0.24727190726E+03  0.15344615600E+03 0.  0.
         24    2    5    5    0    0 -0.46484781279E+01 -0.36522777342E+02  0.80368989834E+02  0.11610640597E+03  0.75272846148E+02 0.  0.
          5    1    5    5  501    0 -0.80472336231E+02  0.43910626699E+02  0.93692895628E+02  0.13116550128E+03  0.47000000000E+01 0. -1.
        -13    1    6    6    0    0  0.14256144254E+02  0.19490370097E+02  0.29441842399E+02  0.38078002302E+02  0.00000000000E+00 0.  1.
         14    1    6    6    0    0 -0.18904622382E+02 -0.56013147439E+02  0.50927147435E+02  0.78028403670E+02  0.00000000000E+00 0. -1.
         -5    1    3    3    0  503  0.17676456065E+01 -0.52960418176E+02  0.11096723989E+03  0.12305993984E+03  0.47000000000E+01 0.  1.
         13    1    4    4    0    0  0.70041421096E+02  0.86030274468E+00  0.20512656037E+02  0.72988422696E+02  0.00000000000E+00 0. -1.
        -14    1    4    4    0    0  0.13311747657E+02  0.44712266074E+02  0.56620099075E+02  0.73363648917E+02  0.00000000000E+00 0.  1.
</event>
<event>
12    1  0.1040325E-001  0.1780748E+03  0.7818608E-02  0.1170511E+00
         21   -1    0    0  501  502  0.00000000000E+00  0.00000000000E+00  0.63437219158E+02  0.63437219158E+02  0.00000000000E+00 0. -1.
         21   -1    0    0  502  503 -0.00000000000E+00 -0.00000000000E+00 -0.12404539642E+04  0.12404539642E+04  0.00000000000E+00 0. -1.
         -6    2    1    2    0  503 -0.23696526840E+02  0.29064695697E+02 -0.10976285647E+04  0.11119798067E+04  0.17408142503E+03 0.  0.
        -24    2    3    3    0    0 -0.60072240299E+02 -0.21875773225E+02 -0.87221255112E+03  0.87798708655E+03  0.77584575220E+02 0.  0.
          6    2    1    2  501    0  0.23696526840E+02 -0.29064695697E+02 -0.79388180351E+02  0.19191137667E+03  0.17064938147E+03 0.  0.
         24    2    5    5    0    0  0.36524889668E+02 -0.27953143309E+02 -0.11830569386E+03  0.15065043510E+03  0.81141053789E+02 0.  0.
          5    1    5    5  501    0 -0.12828362828E+02 -0.11115523879E+01  0.38917513508E+02  0.41260941570E+02  0.47000000000E+01 0. -1.
        -11    1    6    6    0    0 -0.12932186775E+02  0.83665703570E+01 -0.72395263848E+02  0.74015641468E+02  0.00000000000E+00 0.  1.
         12    1    6    6    0    0  0.49457076443E+02 -0.36319713666E+02 -0.45910430011E+02  0.76634793631E+02  0.00000000000E+00 0. -1.
         -5    1    3    3    0  503  0.36375713458E+02  0.50940468922E+02 -0.22541601360E+03  0.23399272017E+03  0.47000000000E+01 0.  1.
         11    1    4    4    0    0 -0.48505200040E+01  0.69664924414E+01 -0.53502934964E+03  0.53509668710E+03  0.00000000000E+00 0. -1.
        -12    1    4    4    0    0 -0.55221720295E+02 -0.28842265667E+02 -0.33718320148E+03  0.34289039945E+03  0.00000000000E+00 0.  1.
</event>
<event>
12    1  0.1040325E-001  0.1835111E+03  0.7818608E-02  0.1165472E+00
         21   -1    0    0  503  502  0.00000000000E+00  0.00000000000E+00  0.16732458313E+03  0.16732458313E+03  0.00000000000E+00 0.  1.
         21   -1    0    0  501  503 -0.00000000000E+00 -0.00000000000E+00 -0.23786212607E+03  0.23786212607E+03  0.00000000000E+00 0.  1.
          6    2    1    2  501    0 -0.28258280995E+02 -0.57552306720E+02 -0.11930997011E+03  0.21530500572E+03  0.16736361034E+03 0.  0.
         24    2    3    3    0    0 -0.21655792728E+00 -0.92544768071E+02 -0.47824031036E+02  0.13078790644E+03  0.79080702658E+02 0.  0.
         -6    2    1    2    0  502  0.28258280995E+02  0.57552306720E+02  0.48772427176E+02  0.18988170348E+03  0.17194625093E+03 0.  0.
        -24    2    5    5    0    0  0.60462739535E+02 -0.24842537077E+02  0.53404439857E+02  0.10117103346E+03  0.55773195119E+02 0.  0.
          5    1    3    3  501    0 -0.28041723068E+02  0.34992461351E+02 -0.71485939076E+02  0.84517099273E+02  0.47000000000E+01 0. -1.
        -11    1    4    4    0    0  0.76090717604E+01 -0.45057316937E+02 -0.65200751233E+02  0.79619079019E+02  0.00000000000E+00 0.  1.
         12    1    4    4    0    0 -0.78256296877E+01 -0.47487451135E+02  0.17376720196E+02  0.51168827425E+02  0.00000000000E+00 0. -1.
         -5    1    5    5    0  502 -0.32204458540E+02  0.82394843798E+02 -0.46320126816E+01  0.88710670022E+02  0.47000000000E+01 0.  1.
         13    1    6    6    0    0  0.58219784860E+02 -0.40893250097E+01  0.19836484065E+02  0.61642128680E+02  0.00000000000E+00 0. -1.
        -14    1    6    6    0    0  0.22429546752E+01 -0.20753212068E+02  0.33567955792E+02  0.39528904777E+02  0.00000000000E+00 0.  1.
</event>
<event>
12    1  0.1040325E-001  0.4068694E+03  0.7818608E-02  0.1041550E+00
         21   -1    0    0  503  502  0.00000000000E+00  0.00000000000E+00  0.44830561476E+03  0.44830561476E+03  0.00000000000E+00 0. -1.
         21   -1    0    0  501  503 -0.00000000000E+00 -0.00000000000E+00 -0.39363664591E+03  0.39363664591E+03  0.00000000000E+00 0.  1.
          6    2    1    2  501    0 -0.25245047224E+03 -0.26661649682E+03  0.13491722336E+03  0.42865527938E+03  0.17529145463E+03 0.  0.
         24    2    3    3    0    0 -0.24024997274E+03 -0.25626825148E+03  0.16347651357E+03  0.39558472712E+03  0.79807516677E+02 0.  0.
         -6    2    1    2    0  502  0.25245047224E+03  0.26661649682E+03 -0.80248254519E+02  0.41328698129E+03  0.17190331364E+03 0.  0.
        -24    2    5    5    0    0  0.16044773893E+03  0.16657296302E+03 -0.11892813245E+03  0.27189591174E+03  0.79331312833E+02 0.  0.
          5    1    3    3  501    0 -0.12200499496E+02 -0.10348245339E+02 -0.28559290209E+02  0.33070552260E+02  0.47000000000E+01 0. -1.
        -11    1    4    4    0    0 -0.16095606978E+03 -0.11448990444E+03  0.82234931326E+02  0.21395648751E+03  0.00000000000E+00 0.  1.
         12    1    4    4    0    0 -0.79293902965E+02 -0.14177834704E+03  0.81241582247E+02  0.18162823961E+03  0.00000000000E+00 0. -1.
         -5    1    5    5    0  502  0.92002733308E+02  0.10004353380E+03  0.38679877935E+02  0.14139106955E+03  0.47000000000E+01 0.  1.
         13    1    6    6    0    0  0.54275434054E+02  0.11227258313E+03 -0.51667966958E+02  0.13498346000E+03  0.00000000000E+00 0. -1.
        -14    1    6    6    0    0  0.10617230488E+03  0.54300379891E+02 -0.67260165496E+02  0.13691245174E+03  0.00000000000E+00 0.  1.
</event>
<event>
12    1  0.1040325E-001  0.1959291E+03  0.7818608E-02  0.1153233E+00
         21   -1    0    0  501  502  0.00000000000E+00  0.00000000000E+00  0.13123401617E+04  0.13123401617E+04  0.00000000000E+00 0.  1.
         21   -1    0    0  502  503 -0.00000000000E+00 -0.00000000000E+00 -0.36886294544E+02  0.36886294544E+02  0.00000000000E+00 0.  1.
         -6    2    1    2    0  503  0.18665199645E+02  0.92155247230E+02  0.33070970241E+03  0.38439189514E+03  0.17189311362E+03 0.  0.
        -24    2    3    3    0    0  0.30896733438E+02 -0.10005651343E+02  0.97744144784E+02  0.12967342181E+03  0.78781706555E+02 0.  0.
          6    2    1    2  501    0 -0.18665199645E+02 -0.92155247230E+02  0.94474416476E+03  0.96483456112E+03  0.17182320627E+03 0.  0.
         24    2    5    5    0    0  0.23790373549E+02 -0.50227221262E+02  0.82856714636E+03  0.83414552309E+03  0.78654192738E+02 0.  0.
          5    1    5    5  501    0 -0.42455573194E+02 -0.41928025967E+02  0.11617701840E+03  0.13068903803E+03  0.47000000000E+01 0. -1.
        -13    1    6    6    0    0  0.12830177871E+02 -0.71353152776E+02  0.62911384507E+03  0.63327728203E+03  0.00000000000E+00 0.  1.
         14    1    6    6    0    0  0.10960195678E+02  0.21125931514E+02  0.19945330129E+03  0.20086824106E+03  0.00000000000E+00 0. -1.
         -5    1    3    3    0  503 -0.12231533793E+02  0.10216089857E+03  0.23296555762E+03  0.25471847333E+03  0.47000000000E+01 0.  1.
         13    1    4    4    0    0  0.57706766741E+02 -0.71681344802E+01  0.63771853279E+02  0.86303547727E+02  0.00000000000E+00 0. -1.
        -14    1    4    4    0    0 -0.26810033303E+02 -0.28375168631E+01  0.33972291505E+02  0.43369874080E+02  0.00000000000E+00 0.  1.
</event>
<event>
12    1  0.1040325E-001  0.2203595E+03  0.7818608E-02  0.1134216E+00
         21   -1    0    0  503  502  0.00000000000E+00  0.00000000000E+00  0.25277623455E+03  0.25277623455E+03  0.00000000000E+00 0.  1.
         21   -1    0    0  501  503 -0.00000000000E+00 -0.00000000000E+00 -0.25551988493E+03  0.25551988493E+03  0.00000000000E+00 0. -1.
          6    2    1    2  501    0  0.12664592414E+03  0.54438501936E+02  0.12798126969E+03  0.25482836015E+03  0.17191726833E+03 0.  0.
         24    2    3    3    0    0 -0.16342696870E+02  0.19165659159E+01  0.38451511354E+02  0.78074386700E+02  0.65926733328E+02 0.  0.
         -6    2    1    2    0  502 -0.12664592414E+03 -0.54438501936E+02 -0.13072492008E+03  0.25346775933E+03  0.16779201320E+03 0.  0.
        -24    2    5    5    0    0 -0.46851515468E+02 -0.84994928751E+02 -0.10471983558E+03  0.16402952760E+03  0.80748000249E+02 0.  0.
          5    1    3    3  501    0  0.14298862101E+03  0.52521936020E+02  0.89529758338E+02  0.17675397345E+03  0.47000000000E+01 0. -1.
        -11    1    4    4    0    0 -0.27554256888E+02  0.70239249851E+01  0.52305249612E+02  0.59534962265E+02  0.00000000000E+00 0.  1.
         12    1    4    4    0    0  0.11211560018E+02 -0.51073590692E+01 -0.13853738258E+02  0.18539424436E+02  0.00000000000E+00 0. -1.
         -5    1    5    5    0  502 -0.79794408675E+02  0.30556426816E+02 -0.26005084495E+02  0.89438231730E+02  0.47000000000E+01 0.  1.
         11    1    6    6    0    0 -0.62943193288E+02 -0.44953078029E+02 -0.89449240029E+02  0.11825308177E+03  0.00000000000E+00 0. -1.
        -12    1    6    6    0    0  0.16091677820E+02 -0.40041850722E+02 -0.15270595553E+02  0.45776445830E+02  0.00000000000E+00 0.  1.
</event>
<event>
12    1  0.1040325E-001  0.2193879E+03  0.7818608E-02  0.1134481E+00
         21   -1    0    0  501  502  0.00000000000E+00  0.00000000000E+00  0.13594836284E+03  0.13594836284E+03  0.00000000000E+00 0. -1.
         21   -1    0    0  502  503 -0.00000000000E+00 -0.00000000000E+00 -0.35716988483E+03  0.35716988483E+03  0.00000000000E+00 0.  1.
         -6    2    1    2    0  503 -0.80400227029E+01 -0.13508550538E+03 -0.13796953904E+03  0.25916530540E+03  0.17267983696E+03 0.  0.
        -24    2    3    3    0    0 -0.49187858864E+01 -0.15139973628E+03 -0.62626823073E+02  0.18187034374E+03  0.78794849850E+02 0.  0.
          6    2    1    2  501    0  0.80400227029E+01  0.13508550538E+03 -0.83251982948E+02  0.23395294226E+03  0.17172754816E+03 0.  0.
         24    2    5    5    0    0 -0.47426338180E+02  0.26930836440E+02 -0.39350261934E+02  0.10463395405E+03  0.80157929873E+02 0.  0.
          5    1    5    5  501    0  0.55466360883E+02  0.10815466894E+03 -0.43901721014E+02  0.12931898821E+03  0.47000000000E+01 0. -1.
        -11    1    6    6    0    0 -0.45291244982E+01  0.47866548846E+02 -0.27740286515E+02  0.55508944892E+02  0.00000000000E+00 0.  1.
         12    1    6    6    0    0 -0.42897213682E+02 -0.20935712405E+02 -0.11609975418E+02  0.49125009158E+02  0.00000000000E+00 0. -1.
         -5    1    3    3    0  503 -0.31212368165E+01  0.16314230902E+02 -0.75342715969E+02  0.77294961665E+02  0.47000000000E+01 0.  1.
         11    1    4    4    0    0 -0.21252944020E+02 -0.14251193884E+02  0.79099107091E+01  0.26783406132E+02  0.00000000000E+00 0. -1.
        -12    1    4    4    0    0  0.16334158133E+02 -0.13714854240E+03 -0.70536733782E+02  0.15508693761E+03  0.00000000000E+00 0.  1.
</event>
<event>
12    1  0.1040325E-001  0.1879159E+03  0.7818608E-02  0.1162817E+00
         21   -1    0    0  503  502  0.00000000000E+00  0.00000000000E+00  0.15539289311E+03  0.15539289311E+03  0.00000000000E+00 0. -1.
         21   -1    0    0  501  503 -0.00000000000E+00 -0.00000000000E+00 -0.22056731260E+03  0.22056731260E+03  0.00000000000E+00 0. -1.
          6    2    1    2  501    0 -0.16865472076E+02  0.59721167848E+02 -0.31037848114E+01  0.18794156150E+03  0.17737343381E+03 0.  0.
         24    2    3    3    0    0  0.41085504498E+02  0.47130062029E+02  0.46365093483E+02  0.11057159606E+03  0.78530850851E+02 0.  0.
         -6    2    1    2    0  502  0.16865472076E+02 -0.59721167848E+02 -0.62070634675E+02  0.18801864421E+03  0.16627442631E+03 0.  0.
        -24    2    5    5    0    0  0.38183162039E+02 -0.97897434868E+02 -0.35838950720E+02  0.13681256535E+03  0.79946144578E+02 0.  0.
          5    1    3    3  501    0 -0.57950976573E+02  0.12591105819E+02 -0.49468878294E+02  0.77369965434E+02  0.47000000000E+01 0. -1.
        -13    1    4    4    0    0  0.37744004211E+02 -0.31818787400E+01  0.46722512401E+02  0.60147546677E+02  0.00000000000E+00 0.  1.
         14    1    4    4    0    0  0.33415002867E+01  0.50311940769E+02 -0.35741891803E+00  0.50424049385E+02  0.00000000000E+00 0. -1.
         -5    1    5    5    0  502 -0.21317689964E+02  0.38176267020E+02 -0.26231683955E+02  0.51206078859E+02  0.47000000000E+01 0.  1.
         13    1    6    6    0    0  0.34606184991E+02 -0.53210963623E+02 -0.58730269312E+02  0.86476813209E+02  0.00000000000E+00 0. -1.
        -14    1    6    6    0    0  0.35769770487E+01 -0.44686471245E+02  0.22891318592E+02  0.50335752145E+02  0.00000000000E+00 0.  1.
</event>
<event>
12    1  0.1040325E-001  0.2160147E+03  0.7818608E-02  0.1136995E+00
         21   -1    0    0  503  502  0.00000000000E+00  0.00000000000E+00  0.13931108124E+03  0.13931108124E+03  0.00000000000E+00 0.  1.
         21   -1    0    0  501  503 -0.00000000000E+00 -0.00000000000E+00 -0.48135750830E+03  0.48135750830E+03  0.00000000000E+00 0.  1.
          6    2    1    2  501    0 -0.10660886891E+03  0.72576948570E+02 -0.34282222517E+03  0.40520297143E+03  0.17329023513E+03 0.  0.
         24    2    3    3    0    0 -0.96137509172E+02  0.11733694843E+03 -0.26611052086E+03  0.31564917452E+03  0.76218186327E+02 0.  0.
         -6    2    1    2    0  502  0.10660886891E+03 -0.72576948570E+02  0.77579810979E+00  0.21546561810E+03  0.17260349454E+03 0.  0.
        -24    2    5    5    0    0  0.92289308833E+02 -0.79412101077E+02 -0.56214981339E+02  0.15612079480E+03  0.79937351217E+02 0.  0.
          5    1    3    3  501    0 -0.10471359737E+02 -0.44759999864E+02 -0.76711704312E+02  0.89553796910E+02  0.47000000000E+01 0. -1.
        -13    1    4    4    0    0 -0.52132154295E+02  0.17063679792E+02 -0.54180172208E+02  0.77100076135E+02  0.00000000000E+00 0.  1.
         14    1    4    4    0    0 -0.44005354877E+02  0.10027326864E+03 -0.21193034865E+03  0.23854909839E+03  0.00000000000E+00 0. -1.
         -5    1    5    5    0  502  0.14319560075E+02  0.68351525078E+01  0.56990779449E+02  0.59344823302E+02  0.47000000000E+01 0.  1.
         13    1    6    6    0    0  0.16524873175E+02 -0.22602975187E+02 -0.54656550710E+02  0.61410947365E+02  0.00000000000E+00 0. -1.
        -14    1    6    6    0    0  0.75764435658E+02 -0.56809125890E+02 -0.15584306286E+01  0.94709847434E+02  0.00000000000E+00 0.  1.
</event>
<event>
12    1  0.1040325E-001  0.1997230E+03  0.7818608E-02  0.1151168E+00
         21   -1    0    0  503  502  0.00000000000E+00  0.00000000000E+00  0.79166019681E+03  0.79166019681E+03  0.00000000000E+00 0. -1.
         21   -1    0    0  501  503 -0.00000000000E+00 -0.00000000000E+00 -0.55252464694E+02  0.55252464694E+02  0.00000000000E+00 0.  1.
          6    2    1    2  501    0  0.92504246346E+02 -0.32733937684E+02  0.22104495222E+03  0.29420292443E+03  0.16752893353E+03 0.  0.
         24    2    3    3    0    0  0.84036439241E+02 -0.60936243346E+02  0.78963380377E+02  0.14902600870E+03  0.72098453212E+02 0.  0.
         -6    2    1    2    0  502 -0.92504246346E+02  0.32733937684E+02  0.51536277990E+03  0.55270973708E+03  0.17395606425E+03 0.  0.
        -24    2    5    5    0    0 -0.40427496265E+02  0.82500042861E+02  0.38198398993E+03  0.40105010258E+03  0.80552943392E+02 0.  0.
          5    1    3    3  501    0  0.84678071056E+01  0.28202305662E+02  0.14208157184E+03  0.14517691573E+03  0.47000000000E+01 0. -1.
        -11    1    4    4    0    0  0.62340042286E+02 -0.76575746369E+02  0.69100802295E+02  0.12051990160E+03  0.00000000000E+00 0.  1.
         12    1    4    4    0    0  0.21696396954E+02  0.15639503022E+02  0.98625780819E+01  0.28506107100E+02  0.00000000000E+00 0. -1.
         -5    1    5    5    0  502 -0.52076750081E+02 -0.49766105177E+02  0.13337878996E+03  0.15165963450E+03  0.47000000000E+01 0.  1.
         13    1    6    6    0    0  0.71120549095E+01  0.26756853191E+02  0.27311072812E+02  0.38889654355E+02  0.00000000000E+00 0. -1.
        -14    1    6    6    0    0 -0.47539551175E+02  0.55743189671E+02  0.35467291712E+03  0.36216044823E+03  0.00000000000E+00 0.  1.
</event>
<event>
12    1  0.1040325E-001  0.1972614E+03  0.7818608E-02  0.1155054E+00
         21   -1    0    0  501  502  0.00000000000E+00  0.00000000000E+00  0.35721396163E+02  0.35721396163E+02  0.00000000000E+00 0.  1.
         21   -1    0    0  502  503 -0.00000000000E+00 -0.00000000000E+00 -0.17125564871E+04  0.17125564871E+04  0.00000000000E+00 0.  1.
         -6    2    1    2    0  503  0.53190455094E+02 -0.38654663811E+02 -0.14129042873E+04  0.14266080700E+04  0.18598024870E+03 0.  0.
        -24    2    3    3    0    0  0.37941731902E+02 -0.33559367428E+02 -0.31788763576E+03  0.33146331123E+03  0.79054231789E+02 0.  0.
          6    2    1    2  501    0 -0.53190455094E+02  0.38654663811E+02 -0.26393080361E+03  0.32166981319E+03  0.17172242741E+03 0.  0.
         24    2    5    5    0    0 -0.45535328469E+01  0.74566949842E+02 -0.17442884920E+03  0.21355907210E+03  0.97985147732E+02 0.  0.
          5    1    5    5  501    0 -0.48636922247E+02 -0.35912286031E+02 -0.89501954412E+02  0.10811074108E+03  0.47000000000E+01 0. -1.
        -13    1    6    6    0    0  0.16593965233E+01  0.12890313206E+02  0.11633148360E+02  0.17442589032E+02  0.00000000000E+00 0.  1.
         14    1    6    6    0    0 -0.62129293702E+01  0.61676636637E+02 -0.18606199756E+03  0.19611648307E+03  0.00000000000E+00 0. -1.
         -5    1    3    3    0  503  0.15248723192E+02 -0.50952963834E+01 -0.10950166515E+04  0.10951447588E+04  0.47000000000E+01 0.  1.
         11    1    4    4    0    0  0.82807202191E+01  0.20973775643E+02 -0.16373864266E+03  0.16528403641E+03  0.00000000000E+00 0. -1.
        -12    1    4    4    0    0  0.29661011683E+02 -0.54533143071E+02 -0.15414899310E+03  0.16617927482E+03  0.00000000000E+00 0.  1.
</event>
<event>
12    1  0.1040325E-001  0.1966289E+03  0.7818608E-02  0.1152621E+00
         21   -1    0    0  503  502  0.00000000000E+00  0.00000000000E+00  0.57444577694E+03  0.57444577694E+03  0.00000000000E+00 0.  1.
         21   -1    0    0  501  503 -0.00000000000E+00 -0.00000000000E+00 -0.16870762903E+03  0.16870762903E+03  0.00000000000E+00 0.  1.
          6    2    1    2  501    0 -0.44331558635E+02 -0.84933562099E+02 -0.85225044643E+02  0.21427932879E+03  0.17167797020E+03 0.  0.
         24    2    3    3    0    0 -0.29753392244E+02 -0.11840790363E+03 -0.97863950688E+02  0.17535778691E+03  0.79166309713E+02 0.  0.
         -6    2    1    2    0  502  0.44331558635E+02  0.84933562099E+02  0.49096319255E+03  0.52887407717E+03  0.17170886990E+03 0.  0.
        -24    2    5    5    0    0  0.19577994749E+02 -0.16809639502E+02  0.12562868315E+03  0.14880064774E+03  0.75453329152E+02 0.  0.
          5    1    3    3  501    0 -0.14578166391E+02  0.33474341535E+02  0.12638906044E+02  0.38921541882E+02  0.47000000000E+01 0. -1.
        -11    1    4    4    0    0  0.22764460140E+02 -0.67377140999E+02 -0.37166144815E+02  0.80244763661E+02  0.00000000000E+00 0.  1.
         12    1    4    4    0    0 -0.52517852384E+02 -0.51030762635E+02 -0.60697805873E+02  0.95113023251E+02  0.00000000000E+00 0. -1.
         -5    1    5    5    0  502  0.24753563886E+02  0.10174320160E+03  0.36533450941E+03  0.38007342943E+03  0.47000000000E+01 0.  1.
         11    1    6    6    0    0  0.32484437496E+02 -0.40594732385E+02  0.91562739283E+02  0.10529437878E+03  0.00000000000E+00 0. -1.
        -12    1    6    6    0    0 -0.12906442747E+02  0.23785092883E+02  0.34065943865E+02  0.43506268965E+02  0.00000000000E+00 0.  1.
</event>
<event>
12    1  0.1040325E-001  0.1834626E+03  0.7818608E-02  0.1164791E+00
         21   -1    0    0  501  502  0.00000000000E+00  0.00000000000E+00  0.10141969584E+03  0.10141969584E+03  0.00000000000E+00 0.  1.
         21   -1    0    0  502  503 -0.00000000000E+00 -0.00000000000E+00 -0.42262418052E+03  0.42262418052E+03  0.00000000000E+00 0. -1.
         -6    2    1    2    0  503  0.54908298331E+02  0.27150771492E+02 -0.28395879914E+03  0.33806972420E+03  0.17293482355E+03 0.  0.
        -24    2    3    3    0    0  0.10029865624E+03  0.41398025958E+01 -0.23251174728E+03  0.26555297837E+03  0.79873107416E+02 0.  0.
          6    2    1    2  501    0 -0.54908298331E+02 -0.27150771492E+02 -0.37245685543E+02  0.18597415215E+03  0.17160145267E+03 0.  0.
         24    2    5    5    0    0  0.84765811797E+01 -0.71450548384E+01  0.33757198594E+02  0.88601819302E+02  0.81165446401E+02 0.  0.
          5    1    5    5  501    0 -0.63384879511E+02 -0.20005716654E+02 -0.71002884137E+02  0.97372332853E+02  0.47000000000E+01 0. -1.
        -11    1    6    6    0    0 -0.11353433124E+01  0.32396429097E+02 -0.45265925773E+01  0.32730836577E+02  0.00000000000E+00 0.  1.
         12    1    6    6    0    0  0.96119244921E+01 -0.39541483935E+02  0.38283791171E+02  0.55870982725E+02  0.00000000000E+00 0. -1.
         -5    1    3    3    0  503 -0.45390357914E+02  0.23010968896E+02 -0.51447051854E+02  0.72516745829E+02  0.47000000000E+01 0.  1.
         13    1    4    4    0    0  0.83620318033E+02 -0.29033851819E+02 -0.13733258383E+03  0.16338776185E+03  0.00000000000E+00 0. -1.
        -14    1    4    4    0    0  0.16678338212E+02  0.33173654415E+02 -0.95179163448E+02  0.10216521652E+03  0.00000000000E+00 0.  1.
</event>
<event>
12    1  0.1040325E-001  0.2778036E+03  0.7818608E-02  0.1096938E+00
         21   -1    0    0  503  502  0.00000000000E+00  0.00000000000E+00  0.16207907962E+03  0.16207907962E+03  0.00000000000E+00 0. -1.
         21   -1    0    0  501  503 -0.00000000000E+00 -0.00000000000E+00 -0.17064943234E+04  0.17064943234E+04  0.00000000000E+00 0. -1.
          6    2    1    2  501    0 -0.18620910944E+03  0.11437509646E+03 -0.15655637861E+04  0.15899660182E+04  0.17101600951E+03 0.  0.
         24    2    3    3    0    0 -0.21117834346E+03  0.10778050598E+03 -0.13699788743E+04  0.13926274791E+04  0.79726089825E+02 0.  0.
         -6    2    1    2    0  502  0.18620910944E+03 -0.11437509646E+03  0.21148542305E+02  0.27860738485E+03  0.17152060786E+03 0.  0.
        -24    2    5    5    0    0  0.20641685614E+03 -0.86257644089E+02  0.39536093499E+02  0.23912148618E+03  0.74616906932E+02 0.  0.
          5    1    3    3  501    0  0.24969234013E+02  0.65945904768E+01 -0.19558491186E+03  0.19733853911E+03  0.47000000000E+01 0. -1.
        -11    1    4    4    0    0 -0.21379937347E+01  0.46454208561E+01 -0.17784500455E+03  0.17791851110E+03  0.00000000000E+00 0.  1.
         12    1    4    4    0    0 -0.20904034972E+03  0.10313508513E+03 -0.11921338697E+04  0.12147089680E+04  0.00000000000E+00 0. -1.
         -5    1    5    5    0  502 -0.20207746700E+02 -0.28117452369E+02 -0.18387551194E+02  0.39485898665E+02  0.47000000000E+01 0.  1.
         11    1    6    6    0    0  0.18525692610E+02  0.10976952496E+02  0.14780103943E+02  0.26117929576E+02  0.00000000000E+00 0. -1.
        -12    1    6    6    0    0  0.18789116353E+03 -0.97234596585E+02  0.24755989556E+02  0.21300355661E+03  0.00000000000E+00 0.  1.
</event>
<event>
12    1  0.1040325E-001  0.1843618E+03  0.7818608E-02  0.1163956E+00
         21   -1    0    0  503  502  0.00000000000E+00  0.00000000000E+00  0.19744018353E+03  0.19744018353E+03  0.00000000000E+00 0.  1.
         21   -1    0    0  501  503 -0.00000000000E+00 -0.00000000000E+00 -0.20800212340E+03  0.20800212340E+03  0.00000000000E+00 0.  1.
          6    2    1    2  501    0 -0.66867851015E+02 -0.17350770697E+01 -0.90881377139E+02  0.20554489852E+03  0.17179918685E+03 0.  0.
         24    2    3    3    0    0 -0.20599741357E+02 -0.42894948886E+01 -0.12414072214E+03  0.14831259075E+03  0.78377015585E+02 0.  0.
         -6    2    1    2    0  502  0.66867851015E+02  0.17350770697E+01  0.80319437265E+02  0.19989740841E+03  0.17039202415E+03 0.  0.
        -24    2    5    5    0    0  0.12703198328E+02 -0.30425941284E+02 -0.12677992460E+02  0.87475201361E+02  0.80025434766E+02 0.  0.
          5    1    3    3  501    0 -0.46268109658E+02  0.25544178189E+01  0.33259345003E+02  0.57232307762E+02  0.47000000000E+01 0. -1.
        -13    1    4    4    0    0 -0.49320381250E+02 -0.82503137161E+00 -0.58111422890E+02  0.76224131046E+02  0.00000000000E+00 0.  1.
         14    1    4    4    0    0  0.28720639894E+02 -0.34644635169E+01 -0.66029299252E+02  0.72088459708E+02  0.00000000000E+00 0. -1.
         -5    1    5    5    0  502  0.54164652687E+02  0.32161018354E+02  0.92997429725E+02  0.11242220705E+03  0.47000000000E+01 0.  1.
         11    1    6    6    0    0 -0.31652362044E+02 -0.24063003659E+01  0.49524015458E+01  0.32127691879E+02  0.00000000000E+00 0. -1.
        -12    1    6    6    0    0  0.44355560371E+02 -0.28019640918E+02 -0.17630394006E+02  0.55347509482E+02  0.00000000000E+00 0.  1.
</event>
<event>
12    1  0.1040325E-001  0.1737399E+03  0.7818608E-02  0.1174156E+00
         21   -1    0    0  501  502  0.00000000000E+00  0.00000000000E+00  0.64516974860E+03  0.64516974860E+03  0.00000000000E+00 0.  1.
         21   -1    0    0  502  503 -0.00000000000E+00 -0.00000000000E+00 -0.14538015839E+03  0.14538015839E+03  0.00000000000E+00 0.  1.
         -6    2    1    2    0  503 -0.64555891156E+01  0.24765448929E+02 -0.76025794633E+02  0.18909423944E+03  0.17123582525E+03 0.  0.
        -24    2    3    3    0    0  0.51629725214E+02 -0.22037072455E+02 -0.45544959025E+02  0.10837527582E+03  0.80744015432E+02 0.  0.
          6    2    1    2  501    0  0.64555891156E+01 -0.24765448929E+02  0.57581538484E+03  0.60145566755E+03  0.17184458245E+03 0.  0.
         24    2    5    5    0    0  0.22475941516E+02 -0.75885107368E+02  0.29471480592E+03  0.31525731563E+03  0.79162116979E+02 0.  0.
          5    1    5    5  501    0 -0.16020352401E+02  0.51119658438E+02  0.28110057893E+03  0.28619835192E+03  0.47000000000E+01 0. -1.
        -13    1    6    6    0    0  0.30211087146E+02  0.15489527945E+01  0.49712624909E+02  0.58193248033E+02  0.00000000000E+00 0.  1.
         14    1    6    6    0    0 -0.77351456295E+01 -0.77434060162E+02  0.24500218101E+03  0.25706406760E+03  0.00000000000E+00 0. -1.
         -5    1    3    3    0  503 -0.58085314330E+02  0.46802521385E+02 -0.30480835608E+02  0.80718963621E+02  0.47000000000E+01 0.  1.
         13    1    4    4    0    0 -0.12625781015E+02  0.10345955706E+02  0.84821141722E+01  0.18395526808E+02  0.00000000000E+00 0. -1.
        -14    1    4    4    0    0  0.64255506229E+02 -0.32383028161E+02 -0.54027073197E+02  0.89979749010E+02  0.00000000000E+00 0.  1.
</event>
<event>
12    1  0.1040325E-001  0.2672089E+03  0.7818608E-02  0.1102893E+00
         21   -1    0    0  503  502  0.00000000000E+00  0.00000000000E+00  0.85400398933E+02  0.85400398933E+02  0.00000000000E+00 0. -1.
         21   -1    0    0  501  503 -0.00000000000E+00 -0.00000000000E+00 -0.83619782589E+03  0.83619782589E+03  0.00000000000E+00 0. -1.
          6    2    1    2  501    0 -0.18967425621E+03  0.75636349945E+02 -0.38317292078E+03  0.46714248992E+03  0.17234685308E+03 0.  0.
         24    2    3    3    0    0 -0.11125031760E+03  0.10709172476E+03 -0.30836858224E+03  0.35419323664E+03  0.80724195186E+02 0.  0.
         -6    2    1    2    0  502  0.18967425621E+03 -0.75636349945E+02 -0.36762450618E+03  0.45445573491E+03  0.17229351858E+03 0.  0.
        -24    2    5    5    0    0  0.62369860566E+02 -0.23372909142E+02 -0.26361791968E+03  0.28189462564E+03  0.74390053108E+02 0.  0.
          5    1    3    3  501    0 -0.78423938611E+02 -0.31455374817E+02 -0.74804338538E+02  0.11294925328E+03  0.47000000000E+01 0. -1.
        -13    1    4    4    0    0 -0.53089028825E+02  0.36323810395E+02 -0.54518458190E+02  0.84321565845E+02  0.00000000000E+00 0.  1.
         14    1    4    4    0    0 -0.58161288775E+02  0.70767914367E+02 -0.25385012405E+03  0.26987167079E+03  0.00000000000E+00 0. -1.
         -5    1    5    5    0  502  0.12730439564E+03 -0.52263440803E+02 -0.10400658650E+03  0.17256110926E+03  0.47000000000E+01 0.  1.
         11    1    6    6    0    0  0.39500074166E+00  0.90994471615E+01  0.43115153203E-01  0.91081185295E+01  0.00000000000E+00 0. -1.
        -12    1    6    6    0    0  0.61974859824E+02 -0.32472356303E+02 -0.26366103483E+03  0.27278650711E+03  0.00000000000E+00 0.  1.
</event>
<event>
12    1  0.1040325E-001  0.2349807E+03  0.7818608E-02  0.1123188E+00
         21   -1    0    0  501  502  0.00000000000E+00  0.00000000000E+00  0.39862547457E+03  0.39862547457E+03  0.00000000000E+00 0. -1.
         21   -1    0    0  502  503 -0.00000000000E+00 -0.00000000000E+00 -0.15612938483E+03  0.15612938483E+03  0.00000000000E+00 0. -1.
         -6    2    1    2    0  503  0.14728513424E+03  0.60185368509E+02  0.28041613763E+02  0.23664794147E+03  0.17291826609E+03 0.  0.
        -24    2    3    3    0    0  0.97651467856E+01  0.51592860135E+02  0.20826994625E+02  0.98591000759E+02  0.80803715366E+02 0.  0.
          6    2    1    2  501    0 -0.14728513424E+03 -0.60185368509E+02  0.21445447598E+03  0.31810691793E+03  0.17287596600E+03 0.  0.
         24    2    5    5    0    0 -0.12640187889E+03 -0.69104930065E+02  0.81899490442E+02  0.18353878232E+03  0.78905207275E+02 0.  0.
          5    1    5    5  501    0 -0.20883255351E+02  0.89195615559E+01  0.13255498554E+03  0.13456813562E+03  0.47000000000E+01 0. -1.
        -13    1    6    6    0    0  0.11232686758E+02 -0.34084474406E+01  0.55132258409E+01  0.12968670901E+02  0.00000000000E+00 0.  1.
         14    1    6    6    0    0 -0.13763456564E+03 -0.65696482625E+02  0.76386264602E+02  0.17057011142E+03  0.00000000000E+00 0. -1.
         -5    1    3    3    0  503  0.13751998745E+03  0.85925083746E+01  0.72146191388E+01  0.13805694071E+03  0.47000000000E+01 0.  1.
         11    1    4    4    0    0  0.15912141546E+02  0.28680121662E+02 -0.28759629530E+02  0.43621805532E+02  0.00000000000E+00 0. -1.
        -12    1    4    4    0    0 -0.61469947607E+01  0.22912738472E+02  0.49586624154E+02  0.54969195227E+02  0.00000000000E+00 0.  1.
</event>
<event>
12    1  0.1040325E-001  0.1994426E+03  0.7818608E-02  0.1150221E+00
         21   -1    0    0  501  502  0.00000000000E+00  0.00000000000E+00  0.74270127189E+02  0.74270127189E+02  0.00000000000E+00 0.  1.
         21   -1    0    0  502  503 -0.00000000000E+00 -0.00000000000E+00 -0.57676834911E+03  0.57676834911E+03  0.00000000000E+00 0.  1.
         -6    2    1    2    0  503 -0.18702551414E+02  0.99501577171E+02 -0.16407740969E+03  0.25822044427E+03  0.17177325804E+03 0.  0.
        -24    2    3    3    0    0 -0.26313873605E+02 -0.20428261862E+01 -0.12106473610E+03  0.14757968248E+03  0.80165449365E+02 0.  0.
          6    2    1    2  501    0  0.18702551414E+02 -0.99501577171E+02 -0.33842081223E+03  0.39281803203E+03  0.17183425401E+03 0.  0.
         24    2    5    5    0    0  0.40914353769E+02 -0.12792113178E+03 -0.30845972678E+03  0.34569275337E+03  0.79487586360E+02 0.  0.
          5    1    5    5  501    0 -0.22211802355E+02  0.28419554609E+02 -0.29961085454E+02  0.47125278669E+02  0.47000000000E+01 0. -1.
        -13    1    6    6    0    0 -0.41158555427E+01 -0.12815717225E+01 -0.83698021798E+02  0.83808958625E+02  0.00000000000E+00 0.  1.
         14    1    6    6    0    0  0.45030209311E+02 -0.12663956006E+03 -0.22476170498E+03  0.26188379474E+03  0.00000000000E+00 0. -1.
         -5    1    3    3    0  503  0.76113221916E+01  0.10154440336E+03 -0.43012673592E+02  0.11064076178E+03  0.47000000000E+01 0.  1.
         13    1    4    4    0    0  0.26246799321E+02 -0.26568808636E+01 -0.67772984443E+02  0.72726411370E+02  0.00000000000E+00 0. -1.
        -14    1    4    4    0    0 -0.52560672927E+02  0.61405467739E+00 -0.53291751659E+02  0.74853271115E+02  0.00000000000E+00 0.  1.
</event>
<event>
12    1  0.1040325E-001  0.1863207E+03  0.7818608E-02  0.1162174E+00
         21   -1    0    0  501  502  0.00000000000E+00  0.00000000000E+00  0.10700236203E+03  0.10700236203E+03  0.00000000000E+00 0. -1.
         21   -1    0    0  502  503 -0.00000000000E+00 -0.00000000000E+00 -0.32218128742E+03  0.32218128742E+03  0.00000000000E+00 0. -1.
         -6    2    1    2    0  503  0.41054778123E+01  0.71153850429E+02 -0.11448409939E+03  0.21739403573E+03  0.17051050519E+03 0.  0.
        -24    2    3    3    0    0  0.33036998986E+02  0.65387049204E+01 -0.11771289572E+03  0.14636823005E+03  0.80206826302E+02 0.  0.
          6    2    1    2  501    0 -0.41054778123E+01 -0.71153850429E+02 -0.10069482601E+03  0.21178961372E+03  0.17215012959E+03 0.  0.
         24    2    5    5    0    0  0.45758446368E+02 -0.89637216683E+01 -0.95170418856E+02  0.13174817368E+03  0.78268696950E+02 0.  0.
          5    1    5    5  501    0 -0.49863924180E+02 -0.62190128760E+02 -0.55244071502E+01  0.80041440043E+02  0.47000000000E+01 0. -1.
        -11    1    6    6    0    0 -0.16022173786E+02 -0.22377776537E+02 -0.34418347939E+02  0.44069236554E+02  0.00000000000E+00 0.  1.
         12    1    6    6    0    0  0.61780620153E+02  0.13414054869E+02 -0.60752070917E+02  0.87678937125E+02  0.00000000000E+00 0. -1.
         -5    1    3    3    0  503 -0.28931521173E+02  0.64615145508E+02  0.32287963304E+01  0.71025805678E+02  0.47000000000E+01 0.  1.
         13    1    4    4    0    0 -0.16168053183E+02 -0.84431267551E+01 -0.36576879015E+00  0.18243522684E+02  0.00000000000E+00 0. -1.
        -14    1    4    4    0    0  0.49205052168E+02  0.14981831676E+02 -0.11734712693E+03  0.12812470737E+03  0.00000000000E+00 0.  1.
</event>
<event>
12    1  0.1040325E-001  0.2753677E+03  0.7818608E-02  0.1099103E+00
         21   -1    0    0  501  502  0.00000000000E+00  0.00000000000E+00  0.70241878836E+03  0.70241878836E+03  0.00000000000E+00 0. -1.
         21   -1    0    0  502  503 -0.00000000000E+00 -0.00000000000E+00 -0.10615107611E+03  0.10615107611E+03  0.00000000000E+00 0.  1.
         -6    2    1    2    0  503  0.93467335587E+02 -0.19356518587E+03  0.33094022325E+03  0.43052155405E+03  0.17211552265E+03 0.  0.
        -24    2    3    3    0    0  0.10411161672E+03 -0.16691624183E+03  0.33930101376E+03  0.40026498853E+03  0.79916347421E+02 0.  0.
          6    2    1    2  501    0 -0.93467335587E+02  0.19356518587E+03  0.26532748900E+03  0.37804831042E+03  0.16222892650E+03 0.  0.
         24    2    5    5    0    0 -0.91976354365E+02  0.10274717186E+03  0.95691551929E+02  0.18556824434E+03  0.79133236444E+02 0.  0.
          5    1    5    5  501    0 -0.14909812214E+01  0.90818014011E+02  0.16963593707E+03  0.19248006608E+03  0.47000000000E+01 0. -1.
        -11    1    6    6    0    0 -0.49926684644E+02  0.96478714691E+02  0.92941921520E+02  0.14296509016E+03  0.00000000000E+00 0.  1.
         12    1    6    6    0    0 -0.42049669721E+02  0.62684571661E+01  0.27496304085E+01  0.42603154182E+02  0.00000000000E+00 0. -1.
         -5    1    3    3    0  503 -0.10644281130E+02 -0.26648944039E+02 -0.83607905086E+01  0.30256565521E+02  0.47000000000E+01 0.  1.
         11    1    4    4    0    0  0.35576150095E+02 -0.10170324570E+03  0.11911773033E+03  0.16061832498E+03  0.00000000000E+00 0. -1.
        -12    1    4    4    0    0  0.68535466621E+02 -0.65212996132E+02  0.22018328343E+03  0.23964666355E+03  0.00000000000E+00 0.  1.
</event>
<event>
12    1  0.1040325E-001  0.2595015E+03  0.7818608E-02  0.1107464E+00
         21   -1    0    0  501  502  0.00000000000E+00  0.00000000000E+00  0.83110738651E+02  0.83110738651E+02  0.00000000000E+00 0. -1.
         21   -1    0    0  502  503 -0.00000000000E+00 -0.00000000000E+00 -0.18040296072E+04  0.18040296072E+04  0.00000000000E+00 0. -1.
         -6    2    1    2    0  503  0.11945008866E+03  0.15377611740E+03 -0.15608285746E+04  0.15822306144E+04  0.17132559651E+03 0.  0.
        -24    2    3    3    0    0  0.57243302117E+02  0.69020078149E+02 -0.12050997178E+04  0.12112611009E+04  0.82749970788E+02 0.  0.
          6    2    1    2  501    0 -0.11945008866E+03 -0.15377611740E+03 -0.16009029392E+03  0.30490973138E+03  0.17153898717E+03 0.  0.
         24    2    5    5    0    0 -0.13106753768E+03 -0.17190604559E+03 -0.16426772450E+03  0.28247760389E+03  0.77970016303E+02 0.  0.
          5    1    5    5  501    0  0.11617449017E+02  0.18129928187E+02  0.41774305822E+01  0.22432127496E+02  0.47000000000E+01 0. -1.
        -13    1    6    6    0    0 -0.60064422499E+02 -0.13812938873E+03 -0.98509381833E+02  0.17997655734E+03  0.00000000000E+00 0.  1.
         14    1    6    6    0    0 -0.71003115176E+02 -0.33776656856E+02 -0.65758342672E+02  0.10250104655E+03  0.00000000000E+00 0. -1.
         -5    1    3    3    0  503  0.62206786542E+02  0.84756039254E+02 -0.35572885673E+03  0.37096951356E+03  0.47000000000E+01 0.  1.
         11    1    4    4    0    0  0.75064890426E+02  0.41881285789E+02 -0.99002279268E+03  0.99374740750E+03  0.00000000000E+00 0. -1.
        -12    1    4    4    0    0 -0.17821588309E+02  0.27138792360E+02 -0.21507692516E+03  0.21751369336E+03  0.00000000000E+00 0.  1.
</event>
<event>
12    1  0.1040325E-001  0.2682038E+03  0.7818608E-02  0.1102425E+00
         21   -1    0    0  501  502  0.00000000000E+00  0.00000000000E+00  0.62607118925E+03  0.62607118925E+03  0.00000000000E+00 0. -1.
         21   -1    0    0  502  503 -0.00000000000E+00 -0.00000000000E+00 -0.62760582707E+03  0.62760582707E+03  0.00000000000E+00 0.  1.
         -6    2    1    2    0  503  0.20401856112E+03  0.10750080039E+02 -0.56751485665E+03  0.62769926643E+03  0.17376455061E+03 0.  0.
        -24    2    3    3    0    0  0.60990297267E+02 -0.28902751168E+02 -0.13961162647E+03  0.17476141674E+03  0.80591321789E+02 0.  0.
          6    2    1    2  501    0 -0.20401856112E+03 -0.10750080039E+02  0.56598021883E+03  0.62597774990E+03  0.17255549183E+03 0.  0.
         24    2    5    5    0    0 -0.20257606552E+03 -0.43603376715E+02  0.54366178287E+03  0.58595747404E+03  0.69568027492E+02 0.  0.
          5    1    5    5  501    0 -0.14424956053E+01  0.32853296676E+02  0.22318435956E+02  0.40020275856E+02  0.47000000000E+01 0. -1.
        -11    1    6    6    0    0 -0.14798816275E+03 -0.53849296922E+02  0.33729855504E+03  0.37225066598E+03  0.00000000000E+00 0.  1.
         12    1    6    6    0    0 -0.54587902766E+02  0.10245920208E+02  0.20636322783E+03  0.21370680806E+03  0.00000000000E+00 0. -1.
         -5    1    3    3    0  503  0.14302826385E+03  0.39652831207E+02 -0.42790323018E+03  0.45293784969E+03  0.47000000000E+01 0.  1.
         11    1    4    4    0    0  0.73981988844E+02 -0.12749916248E+02 -0.71906389720E+02  0.10395395096E+03  0.00000000000E+00 0. -1.
        -12    1    4    4    0    0 -0.12991691577E+02 -0.16152834920E+02 -0.67705236753E+02  0.70807465777E+02  0.00000000000E+00 0.  1.
</event>
<event>
12    1  0.1040325E-001  0.1808450E+03  0.7818608E-02  0.1167077E+00
         21   -1    0    0  501  502  0.00000000000E+00  0.00000000000E+00  0.18374444721E+03  0.18374444721E+03  0.00000000000E+00 0.  1.
         21   -1    0    0  502  503 -0.00000000000E+00 -0.00000000000E+00 -0.18083880045E+03  0.18083880045E+03  0.00000000000E+00 0.  1.
         -6    2    1    2    0  503 -0.16837048870E+02 -0.49919973364E+02  0.25743729487E+02  0.18230191657E+03  0.17261448150E+03 0.  0.
        -24    2    3    3    0    0  0.11759114769E+02 -0.38657804842E+02  0.80266450448E+02  0.11953732372E+03  0.78827444713E+02 0.  0.
          6    2    1    2  501    0  0.16837048870E+02  0.49919973364E+02 -0.22838082727E+02  0.18228133109E+03  0.17300120140E+03 0.  0.
         24    2    5    5    0    0  0.37237284268E+02  0.90678375281E+02  0.69148802272E+01  0.12764850455E+03  0.81468656924E+02 0.  0.
          5    1    5    5  501    0 -0.20400235398E+02 -0.40758401917E+02 -0.29752962954E+02  0.54632826540E+02  0.47000000000E+01 0. -1.
        -13    1    6    6    0    0  0.46152901959E+02  0.30116365084E+02 -0.22754570057E+02  0.59622615370E+02  0.00000000000E+00 0.  1.
         14    1    6    6    0    0 -0.89156176912E+01  0.60562010197E+02  0.29669450284E+02  0.68025889175E+02  0.00000000000E+00 0. -1.
         -5    1    3    3    0  503 -0.28596163639E+02 -0.11262168522E+02 -0.54522720960E+02  0.62764592850E+02  0.47000000000E+01 0.  1.
         13    1    4    4    0    0  0.14367692612E+01  0.20685378613E+02  0.20798643036E+01  0.20839266537E+02  0.00000000000E+00 0. -1.
        -14    1    4    4    0    0  0.10322345508E+02 -0.59343183455E+02  0.78186586144E+02  0.98698057186E+02  0.00000000000E+00 0.  1.
</event>
<event>
12    1  0.1040325E-001  0.2710772E+03  0.7818608E-02  0.1101818E+00
         21   -1    0    0  503  502  0.00000000000E+00  0.00000000000E+00  0.42367911500E+03  0.42367911500E+03  0.00000000000E+00 0. -1.
         21   -1    0    0  501  503 -0.00000000000E+00 -0.00000000000E+00 -0.35372432884E+03  0.35372432884E+03  0.00000000000E+00 0.  1.
          6    2    1    2  501    0 -0.19436039430E+03  0.49933815588E+02 -0.24613042515E+03  0.36614617103E+03  0.18224566816E+03 0.  0.
         24    2    3    3    0    0 -0.98450144728E+02  0.40556926767E+02 -0.23311192415E+03  0.26878974657E+03  0.81052226194E+02 0.  0.
         -6    2    1    2    0  502  0.19436039430E+03 -0.49933815588E+02  0.31608521131E+03  0.41125727281E+03  0.17015679482E+03 0.  0.
        -24    2    5    5    0    0  0.90369878113E+02 -0.83029341129E+02  0.22804510958E+03  0.27096297222E+03  0.79723108009E+02 0.  0.
          5    1    3    3  501    0 -0.95910249569E+02  0.93768888210E+01 -0.13018501001E+02  0.97356424465E+02  0.47000000000E+01 0. -1.
        -13    1    4    4    0    0 -0.10608507252E+03  0.27025369409E+02 -0.15884391281E+03  0.19291397523E+03  0.00000000000E+00 0.  1.
         14    1    4    4    0    0  0.76349277884E+01  0.13531557358E+02 -0.74268011345E+02  0.75875771337E+02  0.00000000000E+00 0. -1.
         -5    1    5    5    0  502  0.10399051618E+03  0.33095525541E+02  0.88040101729E+02  0.14029430060E+03  0.47000000000E+01 0.  1.
         13    1    6    6    0    0  0.74052759175E+02 -0.25528769979E+02  0.17213325508E+03  0.18911738879E+03  0.00000000000E+00 0. -1.
        -14    1    6    6    0    0  0.16317118938E+02 -0.57500571151E+02  0.55911854505E+02  0.81845583432E+02  0.00000000000E+00 0.  1.
</event>
<event>
12    1  0.1040325E-001  0.2888824E+03  0.7818608E-02  0.1091019E+00
         21   -1    0    0  501  502  0.00000000000E+00  0.00000000000E+00  0.79712303564E+02  0.79712303564E+02  0.00000000000E+00 0.  1.
         21   -1    0    0  502  503 -0.00000000000E+00 -0.00000000000E+00 -0.12835322643E+04  0.12835322643E+04  0.00000000000E+00 0. -1.
         -6    2    1    2    0  503 -0.31535374859E+02  0.22933685173E+03 -0.30727140961E+03  0.42130382902E+03  0.17173038681E+03 0.  0.
        -24    2    3    3    0    0  0.20331383920E+02  0.21577907548E+03 -0.26967172976E+03  0.35565476286E+03  0.82422654192E+02 0.  0.
          6    2    1    2  501    0  0.31535374859E+02 -0.22933685173E+03 -0.89654855108E+03  0.94194073880E+03  0.17280966273E+03 0.  0.
         24    2    5    5    0    0  0.64601826123E+02 -0.21137173963E+03 -0.85039676790E+03  0.88220622162E+03  0.79131197105E+02 0.  0.
          5    1    5    5  501    0 -0.33066451264E+02 -0.17965112100E+02 -0.46151783181E+02  0.59734517180E+02  0.47000000000E+01 0. -1.
        -11    1    6    6    0    0  0.39198150889E+01 -0.28915428727E+01 -0.12292529069E+03  0.12302175849E+03  0.00000000000E+00 0.  1.
         12    1    6    6    0    0  0.60682011034E+02 -0.20848019676E+03 -0.72747147721E+03  0.75918446313E+03  0.00000000000E+00 0. -1.
         -5    1    3    3    0  503 -0.51866758778E+02  0.13557776243E+02 -0.37599679850E+02  0.65649066160E+02  0.47000000000E+01 0.  1.
         13    1    4    4    0    0 -0.87088592716E+01  0.14670206165E+03 -0.22398307364E+03  0.26789131453E+03  0.00000000000E+00 0. -1.
        -14    1    4    4    0    0  0.29040243191E+02  0.69077013836E+02 -0.45688656117E+02  0.87763448330E+02  0.00000000000E+00 0.  1.
</event>
<event>
12    1  0.1040325E-001  0.2372715E+03  0.7818608E-02  0.1121809E+00
         21   -1    0    0  503  502  0.00000000000E+00  0.00000000000E+00  0.22540479837E+03  0.22540479837E+03  0.00000000000E+00 0. -1.
         21   -1    0    0  501  503 -0.00000000000E+00 -0.00000000000E+00 -0.24872753496E+03  0.24872753496E+03  0.00000000000E+00 0. -1.
          6    2    1    2  501    0  0.14996251945E+03 -0.63106413723E+02 -0.16715241076E+02  0.23676888218E+03  0.17119850348E+03 0.  0.
         24    2    3    3    0    0  0.36046674737E+02  0.23915381210E+02 -0.20157122302E+02  0.93299202403E+02  0.80169341842E+02 0.  0.
         -6    2    1    2    0  502 -0.14996251945E+03  0.63106413723E+02 -0.66074955154E+01  0.23736345115E+03  0.17270371233E+03 0.  0.
        -24    2    5    5    0    0 -0.15755363064E+03  0.58310905545E+02 -0.52151392239E+02  0.19070556439E+03  0.73658240157E+02 0.  0.
          5    1    3    3  501    0  0.11391584471E+03 -0.87021794933E+02  0.34418812269E+01  0.14346967978E+03  0.47000000000E+01 0. -1.
        -13    1    4    4    0    0 -0.19146207478E+02  0.78252719243E+01  0.15323702644E+02  0.25741561806E+02  0.00000000000E+00 0.  1.
         14    1    4    4    0    0  0.55192882216E+02  0.16090109285E+02 -0.35480824946E+02  0.67557640597E+02  0.00000000000E+00 0. -1.
         -5    1    5    5    0  502  0.75911111971E+01  0.47955081779E+01  0.45543896724E+02  0.46657886758E+02  0.47000000000E+01 0.  1.
         11    1    6    6    0    0 -0.55547277119E+02 -0.81869384597E+01 -0.38711175122E+02  0.68198834565E+02  0.00000000000E+00 0. -1.
        -12    1    6    6    0    0 -0.10200635352E+03  0.66497844005E+02 -0.13440217117E+02  0.12250672983E+03  0.00000000000E+00 0.  1.
</event>
<event>
12    1  0.1040325E-001  0.1790591E+03  0.7818608E-02  0.1168843E+00
         21   -1    0    0  501  502  0.00000000000E+00  0.00000000000E+00  0.11609014133E+03  0.11609014133E+03  0.00000000000E+00 0. -1.
         21   -1    0    0  502  503 -0.00000000000E+00 -0.00000000000E+00 -0.51454890280E+03  0.51454890280E+03  0.00000000000E+00 0. -1.
         -6    2    1    2    0  503  0.49683730238E+02 -0.98300602755E+01 -0.41435722664E+03  0.45139125721E+03  0.17174706019E+03 0.  0.
        -24    2    3    3    0    0  0.25705298909E+01 -0.43303889242E+02 -0.11809775381E+03  0.14951062499E+03  0.80774458097E+02 0.  0.
          6    2    1    2  501    0 -0.49683730238E+02  0.98300602755E+01  0.15898465174E+02  0.17924778691E+03  0.17120719839E+03 0.  0.
         24    2    5    5    0    0 -0.97968225627E+02 -0.75718646129E+01  0.43198189036E+01  0.12642379109E+03  0.79430521541E+02 0.  0.
          5    1    5    5  501    0  0.48284495389E+02  0.17401924888E+02  0.11578646271E+02  0.52823995819E+02  0.47000000000E+01 0. -1.
        -13    1    6    6    0    0 -0.39640730601E+02  0.27002486022E+02  0.26857715703E+02  0.54971435007E+02  0.00000000000E+00 0.  1.
         14    1    6    6    0    0 -0.58327495026E+02 -0.34574350635E+02 -0.22537896799E+02  0.71452356084E+02  0.00000000000E+00 0. -1.
         -5    1    3    3    0  503  0.47113200347E+02  0.33473828967E+02 -0.29625947283E+03  0.30188063223E+03  0.47000000000E+01 0.  1.
         13    1    4    4    0    0 -0.13200511706E+02  0.24436585678E+01 -0.94905275791E+02  0.95850072245E+02  0.00000000000E+00 0. -1.
        -14    1    4    4    0    0  0.15771041596E+02 -0.45747547810E+02 -0.23192478021E+02  0.53660552740E+02  0.00000000000E+00 0.  1.
</event>
<event>
12    1  0.1040325E-001  0.1983509E+03  0.7818608E-02  0.1151340E+00
         21   -1    0    0  501  502  0.00000000000E+00  0.00000000000E+00  0.15807362557E+03  0.15807362557E+03  0.00000000000E+00 0. -1.
         21   -1    0    0  502  503 -0.00000000000E+00 -0.00000000000E+00 -0.33828968879E+03  0.33828968879E+03  0.00000000000E+00 0.  1.
         -6    2    1    2    0  503  0.22722303629E+02 -0.95451286403E+02 -0.21837703329E+03  0.29437489511E+03  0.17129156151E+03 0.  0.
        -24    2    3    3    0    0 -0.41035918407E+02 -0.18398858665E+02 -0.82511599736E+02  0.12560376745E+03  0.83340732579E+02 0.  0.
          6    2    1    2  501    0 -0.22722303629E+02  0.95451286403E+02  0.38160970068E+02  0.20198841924E+03  0.17238274483E+03 0.  0.
         24    2    5    5    0    0  0.39981799106E+02  0.87027376178E+02 -0.11789933034E+02  0.12124221510E+03  0.73405474842E+02 0.  0.
          5    1    5    5  501    0 -0.62704102736E+02  0.84239102248E+01  0.49950903102E+02  0.80746204146E+02  0.47000000000E+01 0. -1.
        -11    1    6    6    0    0 -0.13367854370E+02  0.20238533003E+02 -0.24901597427E+02  0.34761865643E+02  0.00000000000E+00 0.  1.
         12    1    6    6    0    0  0.53349653476E+02  0.66788843175E+02  0.13111664393E+02  0.86480349455E+02  0.00000000000E+00 0. -1.
         -5    1    3    3    0  503  0.63758222036E+02 -0.77052427738E+02 -0.13586543355E+03  0.16877112766E+03  0.47000000000E+01 0.  1.
         11    1    4    4    0    0 -0.53637653032E+02  0.14263594817E+02 -0.67823341830E+02  0.87638197477E+02  0.00000000000E+00 0. -1.
        -12    1    4    4    0    0  0.12601734626E+02 -0.32662453482E+02 -0.14688257906E+02  0.37965569973E+02  0.00000000000E+00 0.  1.
</event>
<event>
12    1  0.1040325E-001  0.2251250E+03  0.7818608E-02  0.1131023E+00
         21   -1    0    0  501  502  0.00000000000E+00  0.00000000000E+00  0.19610634321E+03  0.19610634321E+03  0.00000000000E+00 0.  1.
         21   -1    0    0  502  503 -0.00000000000E+00 -0.00000000000E+00 -0.29036252581E+03  0.29036252581E+03  0.00000000000E+00 0.  1.
         -6    2    1    2    0  503 -0.30568246369E+02  0.13435982924E+03  0.39899647026E+02  0.22863343417E+03  0.17802888526E+03 0.  0.
        -24    2    3    3    0    0 -0.72844860514E+02  0.30682412395E+02  0.30096021764E+02  0.11614112360E+03  0.79594006884E+02 0.  0.
          6    2    1    2  501    0  0.30568246369E+02 -0.13435982924E+03 -0.13415582963E+03  0.25783543486E+03  0.17173917272E+03 0.  0.
         24    2    5    5    0    0 -0.42387980167E+02 -0.10403727016E+03 -0.10109287171E+03  0.17206062640E+03  0.82247164095E+02 0.  0.
          5    1    5    5  501    0  0.72956226536E+02 -0.30322559087E+02 -0.33062957913E+02  0.85774808458E+02  0.47000000000E+01 0. -1.
        -13    1    6    6    0    0 -0.35566696405E+02 -0.88954074398E+02 -0.11553859976E+03  0.15008992397E+03  0.00000000000E+00 0.  1.
         14    1    6    6    0    0 -0.68212837618E+01 -0.15083195759E+02  0.14445728041E+02  0.21970702427E+02  0.00000000000E+00 0. -1.
         -5    1    3    3    0  503  0.42276614145E+02  0.10367741685E+03  0.98036252625E+01  0.11249231057E+03  0.47000000000E+01 0.  1.
         13    1    4    4    0    0 -0.20581041265E+02 -0.18659296350E+02 -0.14718928961E+02  0.31438757443E+02  0.00000000000E+00 0. -1.
        -14    1    4    4    0    0 -0.52263819249E+02  0.49341708745E+02  0.44814950725E+02  0.84702366159E+02  0.00000000000E+00 0.  1.
</event>
<event>
12    1  0.1040325E-001  0.1901265E+03  0.7818608E-02  0.1161037E+00
         21   -1    0    0  503  502  0.00000000000E+00  0.00000000000E+00  0.66054181989E+03  0.66054181989E+03  0.00000000000E+00 0.  1.
         21   -1    0    0  501  503 -0.00000000000E+00 -0.00000000000E+00 -0.19257343953E+03  0.19257343953E+03  0.00000000000E+00 0. -1.
          6    2    1    2  501    0  0.18368659319E+02  0.49997166190E+02 -0.13307954614E+03  0.22271324929E+03  0.17045205054E+03 0.  0.
         24    2    3    3    0    0 -0.38544335677E+02  0.28094364076E+02 -0.13181307704E+03  0.16153714542E+03  0.80278284525E+02 0.  0.
         -6    2    1    2    0  502 -0.18368659319E+02 -0.49997166190E+02  0.60104792650E+03  0.63040201014E+03  0.18251290409E+03 0.  0.
        -24    2    5    5    0    0 -0.39212011051E+02 -0.25437371638E+02  0.13900688700E+03  0.16721561029E+03  0.80333704037E+02 0.  0.
          5    1    3    3  501    0  0.56912994996E+02  0.21902802114E+02 -0.12664690986E+01  0.61176103863E+02  0.47000000000E+01 0. -1.
        -11    1    4    4    0    0  0.10259294138E+02  0.19357278864E+01  0.66734671527E+01  0.12390937111E+02  0.00000000000E+00 0.  1.
         12    1    4    4    0    0 -0.48803629815E+02  0.26158636190E+02 -0.13848654420E+03  0.14914620831E+03  0.00000000000E+00 0. -1.
         -5    1    5    5    0  502  0.20843351732E+02 -0.24559794552E+02  0.46204103950E+03  0.46318639984E+03  0.47000000000E+01 0.  1.
         13    1    6    6    0    0  0.20653547569E+02 -0.33865484182E+01  0.97864378509E+01  0.23104374114E+02  0.00000000000E+00 0. -1.
        -14    1    6    6    0    0 -0.59865558620E+02 -0.22050823220E+02  0.12922044915E+03  0.14411123618E+03  0.00000000000E+00 0.  1.
</event>
<event>
12    1  0.1040325E-001  0.2307157E+03  0.7818608E-02  0.1126369E+00
         21   -1    0    0  503  502  0.00000000000E+00  0.00000000000E+00  0.22191700806E+03  0.22191700806E+03  0.00000000000E+00 0. -1.
         21   -1    0    0  501  503 -0.00000000000E+00 -0.00000000000E+00 -0.24795194429E+03  0.24795194429E+03  0.00000000000E+00 0.  1.
          6    2    1    2  501    0 -0.14508529321E+03  0.42288837360E+02 -0.58943491972E+02  0.23812611581E+03  0.17433193544E+03 0.  0.
         24    2    3    3    0    0 -0.47711876064E+01 -0.42128842348E+01 -0.35194241720E+02  0.88337680914E+02  0.80773749413E+02 0.  0.
         -6    2    1    2    0  502  0.14508529321E+03 -0.42288837360E+02  0.32908555750E+02  0.23174283653E+03  0.17257949233E+03 0.  0.
        -24    2    5    5    0    0  0.67945329360E+02 -0.77834582816E+02  0.58642763126E+02  0.14286981773E+03  0.79360072367E+02 0.  0.
          5    1    3    3  501    0 -0.14031410560E+03  0.46501721594E+02 -0.23749250253E+02  0.14978843490E+03  0.47000000000E+01 0. -1.
        -13    1    4    4    0    0  0.36335053660E+02  0.12840572923E+01 -0.28785284544E+02  0.46373241572E+02  0.00000000000E+00 0.  1.
         14    1    4    4    0    0 -0.41106241266E+02 -0.54969415271E+01 -0.64089571752E+01  0.41964439342E+02  0.00000000000E+00 0. -1.
         -5    1    5    5    0  502  0.77139963849E+02  0.35545745457E+02 -0.25734207376E+02  0.88873018807E+02  0.47000000000E+01 0.  1.
         13    1    6    6    0    0  0.40248041544E+02 -0.49255537697E+02  0.76294975431E+02  0.99332452492E+02  0.00000000000E+00 0. -1.
        -14    1    6    6    0    0  0.27697287816E+02 -0.28579045120E+02 -0.17652212306E+02  0.43537365235E+02  0.00000000000E+00 0.  1.
</event>
<event>
12    1  0.1040325E-001  0.2340396E+03  0.7818608E-02  0.1124078E+00
         21   -1    0    0  503  502  0.00000000000E+00  0.00000000000E+00  0.26867804257E+04  0.26867804257E+04  0.00000000000E+00 0.  1.
         21   -1    0    0  501  503 -0.00000000000E+00 -0.00000000000E+00 -0.35922170965E+02  0.35922170965E+02  0.00000000000E+00 0. -1.
          6    2    1    2  501    0 -0.54468186331E+02  0.14645202082E+03  0.42886537274E+03  0.48856937871E+03  0.17423992697E+03 0.  0.
         24    2    3    3    0    0 -0.76043489927E+02  0.83282908570E+02  0.38433651691E+03  0.40819065348E+03  0.78653646699E+02 0.  0.
         -6    2    1    2    0  502  0.54468186331E+02 -0.14645202082E+03  0.22219928820E+04  0.22341332180E+04  0.17229013386E+03 0.  0.
        -24    2    5    5    0    0  0.35038981709E+02 -0.14017018634E+03  0.11184885196E+04  0.11304299412E+04  0.77329631905E+02 0.  0.
          5    1    3    3  501    0  0.21575303597E+02  0.63169112247E+02  0.44528855829E+02  0.80378725225E+02  0.47000000000E+01 0. -1.
        -11    1    4    4    0    0  0.15967550318E+02  0.11445905539E+02  0.39198355644E+02  0.43846122998E+02  0.00000000000E+00 0.  1.
         12    1    4    4    0    0 -0.92011040245E+02  0.71837003031E+02  0.34513816127E+03  0.36434453048E+03  0.00000000000E+00 0. -1.
         -5    1    5    5    0  502  0.19429204622E+02 -0.62818344809E+01  0.11035043624E+04  0.11037032768E+04  0.47000000000E+01 0.  1.
         11    1    6    6    0    0  0.46725009436E+02 -0.37040558876E+02  0.36817913459E+03  0.37297601083E+03  0.00000000000E+00 0. -1.
        -12    1    6    6    0    0 -0.11686027727E+02 -0.10312962746E+03  0.75030938504E+03  0.75745393033E+03  0.00000000000E+00 0.  1.
</event>
<event>
12    1  0.1040325E-001  0.1956097E+03  0.7818608E-02  0.1153721E+00
         21   -1    0    0  501  502  0.00000000000E+00  0.00000000000E+00  0.49680961794E+03  0.49680961794E+03  0.00000000000E+00 0. -1.
         21   -1    0    0  502  503 -0.00000000000E+00 -0.00000000000E+00 -0.77081825266E+02  0.77081825266E+02  0.00000000000E+00 0. -1.
         -6    2    1    2    0  503  0.68470128439E+02  0.60890427413E+02  0.23170835309E+03  0.30257162193E+03  0.17165378780E+03 0.  0.
        -24    2    3    3    0    0  0.94467184779E+02  0.56702688398E+02  0.13411784248E+03  0.20138179113E+03  0.10211653272E+03 0.  0.
          6    2    1    2  501    0 -0.68470128439E+02 -0.60890427413E+02  0.18801943959E+03  0.27131982128E+03  0.17282168012E+03 0.  0.
         24    2    5    5    0    0 -0.47361267672E+01 -0.37471328525E+02  0.18256993108E+03  0.20303904577E+03  0.80414818369E+02 0.  0.
          5    1    5    5  501    0 -0.63734001671E+02 -0.23419098887E+02  0.54495085046E+01  0.68280775513E+02  0.47000000000E+01 0. -1.
        -11    1    6    6    0    0 -0.22030519644E+02 -0.19381342991E+02  0.13803583651E+02  0.32427136376E+02  0.00000000000E+00 0.  1.
         12    1    6    6    0    0  0.17294392876E+02 -0.18089985534E+02  0.16876634743E+03  0.17061190940E+03  0.00000000000E+00 0. -1.
         -5    1    3    3    0  503 -0.25997056340E+02  0.41877390147E+01  0.97590510606E+02  0.10118983080E+03  0.47000000000E+01 0.  1.
         11    1    4    4    0    0  0.38525441742E+02  0.69638796442E+02  0.35232084139E+02  0.87034886017E+02  0.00000000000E+00 0. -1.
        -12    1    4    4    0    0  0.55941743036E+02 -0.12936108044E+02  0.98885758344E+02  0.11434690511E+03  0.00000000000E+00 0.  1.
</event>
<event>
12    1  0.1040325E-001  0.2878602E+03  0.7818608E-02  0.1091498E+00
         21   -1    0    0  501  502  0.00000000000E+00  0.00000000000E+00  0.10917280912E+04  0.10917280912E+04  0.00000000000E+00 0.  1.
         21   -1    0    0  502  503 -0.00000000000E+00 -0.00000000000E+00 -0.96998577495E+02  0.96998577495E+02  0.00000000000E+00 0.  1.
         -6    2    1    2    0  503 -0.80770280662E+02 -0.21558891443E+03  0.21995722019E+03  0.36227705296E+03  0.17280354779E+03 0.  0.
        -24    2    3    3    0    0  0.16548258786E+02 -0.11400305359E+03  0.14972210443E+03  0.20496956195E+03  0.79531576591E+02 0.  0.
          6    2    1    2  501    0  0.80770280662E+02  0.21558891443E+03  0.77477229356E+03  0.82644961578E+03  0.17246577133E+03 0.  0.
         24    2    5    5    0    0  0.10703227740E+03  0.89644142456E+02  0.46292124609E+03  0.48907009081E+03  0.73494849856E+02 0.  0.
          5    1    5    5  501    0 -0.26261996738E+02  0.12594477198E+03  0.31185104747E+03  0.33737952497E+03  0.47000000000E+01 0. -1.
        -11    1    6    6    0    0  0.97930631361E+02  0.10224762002E+03  0.40225271260E+03  0.42644135488E+03  0.00000000000E+00 0.  1.
         12    1    6    6    0    0  0.91016460393E+01 -0.12603477567E+02  0.60668533492E+02  0.62628735924E+02  0.00000000000E+00 0. -1.
         -5    1    3    3    0  503 -0.97318539448E+02 -0.10158586084E+03  0.70235115759E+02  0.15730749101E+03  0.47000000000E+01 0.  1.
         13    1    4    4    0    0  0.20849180310E+02 -0.11688522548E+03  0.15649964832E+03  0.19644079052E+03  0.00000000000E+00 0. -1.
        -14    1    4    4    0    0 -0.43009215247E+01  0.28821718950E+01 -0.67775438953E+01  0.85287714265E+01  0.00000000000E+00 0.  1.
</event>
<event>
12    1  0.1040325E-001  0.3185691E+03  0.7818608E-02  0.1076348E+00
         21   -1    0    0  501  502  0.00000000000E+00  0.00000000000E+00  0.21785809812E+03  0.21785809812E+03  0.00000000000E+00 0. -1.
         21   -1    0    0  502  503 -0.00000000000E+00 -0.00000000000E+00 -0.66628749158E+03  0.66628749158E+03  0.00000000000E+00 0.  1.
         -6    2    1    2    0  503 -0.26764902681E+03  0.13083076121E+02 -0.46705825524E+03  0.56535802802E+03  0.17227628284E+03 0.  0.
        -24    2    3    3    0    0 -0.25437365436E+03  0.43529673202E+02 -0.45630339570E+03  0.53013037140E+03  0.78896345087E+02 0.  0.
          6    2    1    2  501    0  0.26764902681E+03 -0.13083076121E+02  0.18628861769E+02  0.31878756168E+03  0.17167209022E+03 0.  0.
         24    2    5    5    0    0  0.13878374969E+03  0.36478137590E+02 -0.40157133973E+02  0.16865276609E+03  0.78990989368E+02 0.  0.
          5    1    5    5  501    0  0.12886527712E+03 -0.49561213712E+02  0.58785995742E+02  0.15013479559E+03  0.47000000000E+01 0. -1.
        -13    1    6    6    0    0  0.13940299911E+03  0.42340331219E+02 -0.19282301589E+02  0.14696158329E+03  0.00000000000E+00 0.  1.
         14    1    6    6    0    0 -0.61924942739E+00 -0.58621936287E+01 -0.20874832384E+02  0.21691182795E+02  0.00000000000E+00 0. -1.
         -5    1    3    3    0  503 -0.13275372444E+02 -0.30446597081E+02 -0.10754859538E+02  0.35227656621E+02  0.47000000000E+01 0.  1.
         13    1    4    4    0    0 -0.25452309959E+02  0.55950195689E+01 -0.11594464315E+02  0.28522901833E+02  0.00000000000E+00 0. -1.
        -14    1    4    4    0    0 -0.22892134440E+03  0.37934653633E+02 -0.44470893138E+03  0.50160746956E+03  0.00000000000E+00 0.  1.
</event>
<event>
12    1  0.1040325E-001  0.2391361E+03  0.7818608E-02  0.1121180E+00
         21   -1    0    0  503  502  0.00000000000E+00  0.00000000000E+00  0.97109376130E+03  0.97109376130E+03  0.00000000000E+00 0.  1.
         21   -1    0    0  501  503 -0.00000000000E+00 -0.00000000000E+00 -0.64710125326E+02  0.64710125326E+02  0.00000000000E+00 0.  1.
          6    2    1    2  501    0  0.15408547087E+03  0.61496004881E+02  0.27883288153E+03  0.36423404902E+03  0.16551306804E+03 0.  0.
         24    2    3    3    0    0  0.18068494460E+03  0.58733946098E+02  0.23442741977E+03  0.31218507203E+03  0.80041104600E+02 0.  0.
         -6    2    1    2    0  502 -0.15408547087E+03 -0.61496004881E+02  0.62755075444E+03  0.67156983760E+03  0.17222661361E+03 0.  0.
        -24    2    5    5    0    0 -0.12076339818E+02  0.60737104489E+01  0.24363221148E+03  0.25666286326E+03  0.79601777395E+02 0.  0.
          5    1    3    3  501    0 -0.26599473732E+02  0.27620587821E+01  0.44405461759E+02  0.52048976989E+02  0.47000000000E+01 0. -1.
        -11    1    4    4    0    0  0.67989988085E+02  0.56142805886E+02  0.68811751862E+02  0.11184681635E+03  0.00000000000E+00 0.  1.
         12    1    4    4    0    0  0.11269495652E+03  0.25911402128E+01  0.16561566791E+03  0.20033825568E+03  0.00000000000E+00 0. -1.
         -5    1    5    5    0  502 -0.14200913105E+03 -0.67569715329E+02  0.38391854296E+03  0.41490697435E+03  0.47000000000E+01 0.  1.
         11    1    6    6    0    0 -0.25595417759E+02  0.32864357703E+02  0.78913674871E+02  0.89233174880E+02  0.00000000000E+00 0. -1.
        -12    1    6    6    0    0  0.13519077942E+02 -0.26790647254E+02  0.16471853661E+03  0.16742968838E+03  0.00000000000E+00 0.  1.
</event>
<event>
12    1  0.1040325E-001  0.2065165E+03  0.7818608E-02  0.1144702E+00
         21   -1    0    0  501  502  0.00000000000E+00  0.00000000000E+00  0.40541127060E+03  0.40541127060E+03  0.00000000000E+00 0.  1.
         21   -1    0    0  502  503 -0.00000000000E+00 -0.00000000000E+00 -0.13918677824E+03  0.13918677824E+03  0.00000000000E+00 0.  1.
         -6    2    1    2    0  503  0.89986786034E+02  0.70404454329E+02 -0.27390264635E+01  0.20653462195E+03  0.17203092439E+03 0.  0.
        -24    2    3    3    0    0  0.74411446491E+02  0.36806688688E+02  0.62966744673E+02  0.13096518753E+03  0.79342760905E+02 0.  0.
          6    2    1    2  501    0 -0.89986786034E+02 -0.70404454329E+02  0.26896351882E+03  0.33806342689E+03  0.16997381356E+03 0.  0.
         24    2    5    5    0    0 -0.96149825206E+02 -0.36162078796E+02  0.91268431810E+02  0.15693320500E+03  0.75799863837E+02 0.  0.
          5    1    5    5  501    0  0.61630391717E+01 -0.34242375534E+02  0.17769508701E+03  0.18113022189E+03  0.47000000000E+01 0. -1.
        -11    1    6    6    0    0 -0.84843486206E+02 -0.32149807041E+02  0.10495313143E+03  0.13873423168E+03  0.00000000000E+00 0.  1.
         12    1    6    6    0    0 -0.11306339000E+02 -0.40122717546E+01 -0.13684699619E+02  0.18198973319E+02  0.00000000000E+00 0. -1.
         -5    1    3    3    0  503  0.15575339544E+02  0.33597765641E+02 -0.65705771136E+02  0.75569434420E+02  0.47000000000E+01 0.  1.
         13    1    4    4    0    0  0.17905960753E+02  0.51910352984E+02  0.40825663399E+02  0.68425455566E+02  0.00000000000E+00 0. -1.
        -14    1    4    4    0    0  0.56505485738E+02 -0.15103664296E+02  0.22141081273E+02  0.62539731960E+02  0.00000000000E+00 0.  1.
</event>
<event>
12    1  0.1040325E-001  0.2390406E+03  0.7818608E-02  0.1120657E+00
         21   -1    0    0  501  502  0.00000000000E+00  0.00000000000E+00  0.11268084479E+03  0.11268084479E+03  0.00000000000E+00 0.  1.
         21   -1    0    0  502  503 -0.00000000000E+00 -0.00000000000E+00 -0.51530458414E+03  0.51530458414E+03  0.00000000000E+00 0. -1.
         -6    2    1    2    0  503  0.10883808755E+03  0.12428310348E+03 -0.24669130236E+03  0.34258164703E+03  0.17091976806E+03 0.  0.
        -24    2    3    3    0    0  0.11302501872E+03  0.43390918656E+02 -0.20831871072E+03  0.25282853150E+03  0.76603879978E+02 0.  0.
          6    2    1    2  501    0 -0.10883808755E+03 -0.12428310348E+03 -0.15593243699E+03  0.28540378190E+03  0.17276682178E+03 0.  0.
         24    2    5    5    0    0 -0.65709765939E+02 -0.98048556801E+02 -0.25794453157E+02  0.14573886719E+03  0.81505648680E+02 0.  0.
          5    1    5    5  501    0 -0.43128321610E+02 -0.26234546678E+02 -0.13013798384E+03  0.13966491471E+03  0.47000000000E+01 0. -1.
        -13    1    6    6    0    0  0.63471617653E+01 -0.60959439137E+02 -0.20084640042E+02  0.64495987844E+02  0.00000000000E+00 0.  1.
         14    1    6    6    0    0 -0.72056927704E+02 -0.37089117664E+02 -0.57098131153E+01  0.81242879350E+02  0.00000000000E+00 0. -1.
         -5    1    3    3    0  503 -0.41869311731E+01  0.80892184823E+02 -0.38372591636E+02  0.89753115528E+02  0.47000000000E+01 0.  1.
         11    1    4    4    0    0  0.10646737093E+03  0.40913352223E+02 -0.12500386808E+03  0.16921929706E+03  0.00000000000E+00 0. -1.
        -12    1    4    4    0    0  0.65576477918E+01  0.24775664325E+01 -0.83314842641E+02  0.83609234444E+02  0.00000000000E+00 0.  1.
</event>
<event>
12    1  0.1040325E-001  0.2010345E+03  0.7818608E-02  0.1149157E+00
         21   -1    0    0  503  502  0.00000000000E+00  0.00000000000E+00  0.13545376834E+04  0.13545376834E+04  0.00000000000E+00 0.  1.
         21   -1    0    0  501  503 -0.00000000000E+00 -0.00000000000E+00 -0.33485184122E+02  0.33485184122E+02  0.00000000000E+00 0.  1.
          6    2    1    2  501    0  0.97432266902E+02 -0.33063761149E+02  0.89789471245E+03  0.92012488099E+03  0.17270964949E+03 0.  0.
         24    2    3    3    0    0  0.19860484961E+01 -0.58127315395E+02  0.59588484900E+03  0.60236678120E+03  0.66213719410E+02 0.  0.
         -6    2    1    2    0  502 -0.97432266902E+02  0.33063761149E+02  0.42315778686E+03  0.46789798657E+03  0.17111327921E+03 0.  0.
        -24    2    5    5    0    0 -0.74358247798E+02  0.28477911472E+01  0.10763022489E+03  0.15005345293E+03  0.73447358677E+02 0.  0.
          5    1    3    3  501    0  0.95446218406E+02  0.25063554245E+02  0.30200986345E+03  0.31775809979E+03  0.47000000000E+01 0. -1.
        -11    1    4    4    0    0  0.33543106720E+02 -0.23655952445E+02  0.25201634094E+03  0.25533699339E+03  0.00000000000E+00 0.  1.
         12    1    4    4    0    0 -0.31557058224E+02 -0.34471362950E+02  0.34386850806E+03  0.34702978780E+03  0.00000000000E+00 0. -1.
         -5    1    5    5    0  502 -0.23074019104E+02  0.30215970002E+02  0.31552756198E+03  0.31784453364E+03  0.47000000000E+01 0.  1.
         13    1    6    6    0    0 -0.37767811233E+02  0.18804743823E+02  0.82957223992E+01  0.42998197238E+02  0.00000000000E+00 0. -1.
        -14    1    6    6    0    0 -0.36590436565E+02 -0.15956952675E+02  0.99334502486E+02  0.10705525569E+03  0.00000000000E+00 0.  1.
</event>
<event>
12    1  0.1040325E-001  0.2203214E+03  0.7818608E-02  0.1134655E+00
         21   -1    0    0  503  502  0.00000000000E+00  0.00000000000E+00  0.88519728206E+03  0.88519728206E+03  0.00000000000E+00 0. -1.
         21   -1    0    0  501  503 -0.00000000000E+00 -0.00000000000E+00 -0.53732425359E+02  0.53732425359E+02  0.00000000000E+00 0.  1.
          6    2    1    2  501    0 -0.10483708699E+03 -0.77177887477E+02  0.38039519387E+03  0.43692834827E+03  0.17105156206E+03 0.  0.
         24    2    3    3    0    0 -0.56234345609E+01 -0.40016023774E+01  0.98947047574E+02  0.12962838638E+03  0.83458759236E+02 0.  0.
         -6    2    1    2    0  502  0.10483708699E+03  0.77177887477E+02  0.45106966284E+03  0.50200135915E+03  0.17774780655E+03 0.  0.
        -24    2    5    5    0    0 -0.16698524042E+02  0.47988909406E+02  0.17324491910E+03  0.19731860705E+03  0.79618179871E+02 0.  0.
          5    1    3    3  501    0 -0.99213652429E+02 -0.73176285100E+02  0.28144814629E+03  0.30729996190E+03  0.47000000000E+01 0. -1.
        -13    1    4    4    0    0 -0.13995083695E+02 -0.32156325918E+02  0.10767808999E+02  0.36685656254E+02  0.00000000000E+00 0.  1.
         14    1    4    4    0    0  0.83716491340E+01  0.28154723541E+02  0.88179238576E+02  0.92942730123E+02  0.00000000000E+00 0. -1.
         -5    1    5    5    0  502  0.12153561103E+03  0.29188978072E+02  0.27782474374E+03  0.30468275209E+03  0.47000000000E+01 0.  1.
         11    1    6    6    0    0  0.16339496962E+02  0.24348682527E+01  0.11554897976E+03  0.11672392415E+03  0.00000000000E+00 0. -1.
        -12    1    6    6    0    0 -0.33038021004E+02  0.45554041153E+02  0.57695939337E+02  0.80594682909E+02  0.00000000000E+00 0.  1.
</event>
<event>
12    1  0.1040325E-001  0.1761389E+03  0.7818608E-02  0.1172296E+00
         21   -1    0    0  501  502  0.00000000000E+00  0.00000000000E+00  0.77492827943E+02  0.77492827943E+02  0.00000000000E+00 0.  1.
         21   -1    0    0  502  503 -0.00000000000E+00 -0.00000000000E+00 -0.44523504014E+03  0.44523504014E+03  0.00000000000E+00 0.  1.
         -6    2    1    2    0  503  0.87129274822E+01 -0.18515338134E+02 -0.96531812491E+02  0.20085638850E+03  0.17494617780E+03 0.  0.
        -24    2    3    3    0    0  0.96236999381E+01  0.23774509990E+02 -0.12357656565E+03  0.15043050790E+03  0.81855526417E+02 0.  0.
          6    2    1    2  501    0 -0.87129274822E+01  0.18515338134E+02 -0.27121039970E+03  0.32187147958E+03  0.17212621999E+03 0.  0.
         24    2    5    5    0    0 -0.37238073044E+02 -0.19108177426E+02 -0.25725078217E+03  0.27241267072E+03  0.79239521135E+02 0.  0.
          5    1    5    5  501    0  0.28525145562E+02  0.37623515559E+02 -0.13959617528E+02  0.49458808860E+02  0.47000000000E+01 0. -1.
        -13    1    6    6    0    0 -0.55285675894E+02 -0.17292042735E+02 -0.24162454576E+03  0.24847120923E+03  0.00000000000E+00 0.  1.
         14    1    6    6    0    0  0.18047602850E+02 -0.18161346911E+01 -0.15626236416E+02  0.23941461492E+02  0.00000000000E+00 0. -1.
         -5    1    3    3    0  503 -0.91077245592E+00 -0.42289848123E+02  0.27044753156E+02  0.50425880598E+02  0.47000000000E+01 0.  1.
         13    1    4    4    0    0 -0.24250671869E+02 -0.14928318957E+02 -0.72730843058E+02  0.78107140038E+02  0.00000000000E+00 0. -1.
        -14    1    4    4    0    0  0.33874371807E+02  0.38702828946E+02 -0.50845722590E+02  0.72323367866E+02  0.00000000000E+00 0.  1.
</event>
<event>
12    1  0.1040325E-001  0.1785301E+03  0.7818608E-02  0.1169778E+00
         21   -1    0    0  501  502  0.00000000000E+00  0.00000000000E+00  0.10902479620E+03  0.10902479620E+03  0.00000000000E+00 0. -1.
         21   -1    0    0  502  503 -0.00000000000E+00 -0.00000000000E+00 -0.31489850821E+03  0.31489850821E+03  0.00000000000E+00 0.  1.
         -6    2    1    2    0  503  0.34984924324E+02 -0.12492258251E+02 -0.16462576946E+03  0.24284692805E+03  0.17462240706E+03 0.  0.
        -24    2    3    3    0    0  0.30009117055E+02  0.56919918791E+02 -0.64679848302E+02  0.12096958751E+03  0.79433834513E+02 0.  0.
          6    2    1    2  501    0 -0.34984924324E+02  0.12492258251E+02 -0.41247942545E+02  0.18107637636E+03  0.17235794111E+03 0.  0.
         24    2    5    5    0    0  0.24837237390E+02 -0.76917786211E+01  0.26011744723E+02  0.88707323599E+02  0.80723767113E+02 0.  0.
          5    1    5    5  501    0 -0.59822161714E+02  0.20184036873E+02 -0.67259687268E+02  0.92369052762E+02  0.47000000000E+01 0. -1.
        -13    1    6    6    0    0  0.39620087516E+02 -0.15504807164E+02 -0.14445265429E+02  0.44931237166E+02  0.00000000000E+00 0.  1.
         14    1    6    6    0    0 -0.14782850126E+02  0.78130285431E+01  0.40457010153E+02  0.43776086433E+02  0.00000000000E+00 0. -1.
         -5    1    3    3    0  503  0.49758072691E+01 -0.69412177042E+02 -0.99945921157E+02  0.12187734053E+03  0.47000000000E+01 0.  1.
         11    1    4    4    0    0  0.35225546850E+02  0.16956761086E+00 -0.62353913331E+00  0.35231473218E+02  0.00000000000E+00 0. -1.
        -12    1    4    4    0    0 -0.52164297946E+01  0.56750351180E+02 -0.64056309169E+02  0.85738114297E+02  0.00000000000E+00 0.  1.
</event>
<event>
12    1  0.1040325E-001  0.3228729E+03  0.7818608E-02  0.1074601E+00
         21   -1    0    0  503  502  0.00000000000E+00  0.00000000000E+00  0.12576516258E+04  0.12576516258E+04  0.00000000000E+00 0. -1.
         21   -1    0    0  501  503 -0.00000000000E+00 -0.00000000000E+00 -0.32721851455E+03  0.32721851455E+03  0.00000000000E+00 0.  1.
          6    2    1    2  501    0 -0.96910177013E+02 -0.25539440311E+03 -0.22079127899E+03  0.38922616934E+03  0.16772101380E+03 0.  0.
         24    2    3    3    0    0 -0.33188651850E+02 -0.11451166533E+03 -0.17682898334E+03  0.22840592182E+03  0.81770212567E+02 0.  0.
         -6    2    1    2    0  502  0.96910177013E+02  0.25539440311E+03  0.11512243903E+04  0.11956439711E+04  0.17213083741E+03 0.  0.
        -24    2    5    5    0    0  0.50129758363E+02  0.46900534238E+02  0.41343239586E+03  0.42751818841E+03  0.84455921587E+02 0.  0.
          5    1    3    3  501    0 -0.63721525163E+02 -0.14088273778E+03 -0.43962295647E+02  0.16082024752E+03  0.47000000000E+01 0. -1.
        -13    1    4    4    0    0 -0.18411652564E+02  0.77841375662E+01 -0.37001684315E+02  0.42055991130E+02  0.00000000000E+00 0.  1.
         14    1    4    4    0    0 -0.14776999286E+02 -0.12229580290E+03 -0.13982729903E+03  0.18634993069E+03  0.00000000000E+00 0. -1.
         -5    1    5    5    0  502  0.46780418650E+02  0.20849386887E+03  0.73779199442E+03  0.76812578264E+03  0.47000000000E+01 0.  1.
         11    1    6    6    0    0 -0.16711439923E+02  0.43532265017E+01  0.18361901811E+03  0.18442929978E+03  0.00000000000E+00 0. -1.
        -12    1    6    6    0    0  0.66841198286E+02  0.42547307736E+02  0.22981337775E+03  0.24308888863E+03  0.00000000000E+00 0.  1.
</event>
<event>
12    1  0.1040325E-001  0.1940015E+03  0.7818608E-02  0.1155277E+00
         21   -1    0    0  501  502  0.00000000000E+00  0.00000000000E+00  0.35869647771E+03  0.35869647771E+03  0.00000000000E+00 0. -1.
         21   -1    0    0  502  503 -0.00000000000E+00 -0.00000000000E+00 -0.27941798687E+03  0.27941798687E+03  0.00000000000E+00 0.  1.
         -6    2    1    2    0  503  0.30204900924E+02 -0.84405935158E+02 -0.21322171852E+03  0.28712592348E+03  0.17012082986E+03 0.  0.
        -24    2    3    3    0    0  0.60589905026E+02 -0.13424851283E+02 -0.17085878389E+03  0.19893141700E+03  0.80806072875E+02 0.  0.
          6    2    1    2  501    0 -0.30204900924E+02  0.84405935158E+02  0.29250020936E+03  0.35098854110E+03  0.17204617280E+03 0.  0.
         24    2    5    5    0    0  0.55268883006E+00 -0.18463645262E+02  0.88642633116E+02  0.12053641744E+03  0.79563181579E+02 0.  0.
          5    1    5    5  501    0 -0.30757589754E+02  0.10286958042E+03  0.20385757625E+03  0.23045212365E+03  0.47000000000E+01 0. -1.
        -11    1    6    6    0    0  0.29575089839E+02 -0.36811651633E+02  0.48038758516E+02  0.67361012126E+02  0.00000000000E+00 0.  1.
         12    1    6    6    0    0 -0.29022401008E+02  0.18348006371E+02  0.40603874600E+02  0.53175405317E+02  0.00000000000E+00 0. -1.
         -5    1    3    3    0  503 -0.30385004102E+02 -0.70981083875E+02 -0.42362934628E+02  0.88194506477E+02  0.47000000000E+01 0.  1.
         13    1    4    4    0    0  0.53772979854E+02 -0.38797177525E+02 -0.77740825981E+02  0.10217822846E+03  0.00000000000E+00 0. -1.
        -14    1    4    4    0    0  0.68169251716E+01  0.25372326242E+02 -0.93117957912E+02  0.96753188544E+02  0.00000000000E+00 0.  1.
</event>
<event>
12    1  0.1040325E-001  0.1946144E+03  0.7818608E-02  0.1155273E+00
         21   -1    0    0  503  502  0.00000000000E+00  0.00000000000E+00  0.18723409930E+03  0.18723409930E+03  0.00000000000E+00 0. -1.
         21   -1    0    0  501  503 -0.00000000000E+00 -0.00000000000E+00 -0.69508249298E+03  0.69508249298E+03  0.00000000000E+00 0. -1.
          6    2    1    2  501    0  0.75282715770E+02 -0.49015218770E+02 -0.62620262844E+03  0.65453933806E+03  0.16799414939E+03 0.  0.
         24    2    3    3    0    0  0.59999867156E+02  0.34565728302E+02 -0.36564269685E+03  0.38043551079E+03  0.79005205345E+02 0.  0.
         -6    2    1    2    0  502 -0.75282715770E+02  0.49015218770E+02  0.11835423477E+03  0.22777725422E+03  0.17264059108E+03 0.  0.
        -24    2    5    5    0    0  0.27975362384E+02  0.40364369077E+02  0.56805559049E+02  0.10716466206E+03  0.76455804652E+02 0.  0.
          5    1    3    3  501    0  0.15282848614E+02 -0.83580947072E+02 -0.26055993159E+03  0.27410382727E+03  0.47000000000E+01 0. -1.
        -11    1    4    4    0    0 -0.64540119709E+01  0.36348523640E+02 -0.99867743588E+02  0.10647269909E+03  0.00000000000E+00 0.  1.
         12    1    4    4    0    0  0.66453879127E+02 -0.17827953382E+01 -0.26577495327E+03  0.27396281170E+03  0.00000000000E+00 0. -1.
         -5    1    5    5    0  502 -0.10325807815E+03  0.86508496927E+01  0.61548675721E+02  0.12061259216E+03  0.47000000000E+01 0.  1.
         13    1    6    6    0    0 -0.12641404951E+02  0.12487601981E+01  0.48537745344E+02  0.50172474966E+02  0.00000000000E+00 0. -1.
        -14    1    6    6    0    0  0.40616767335E+02  0.39115608879E+02  0.82678137049E+01  0.56992187098E+02  0.00000000000E+00 0.  1.
</event>
<event>
12    1  0.1040325E-001  0.1891524E+03  0.7818608E-02  0.1159749E+00
         21   -1    0    0  503  502  0.00000000000E+00  0.00000000000E+00  0.48060712454E+03  0.48060712454E+03  0.00000000000E+00 0. -1.
         21   -1    0    0  501  503 -0.00000000000E+00 -0.00000000000E+00 -0.89888140999E+02  0.89888140999E+02  0.00000000000E+00 0.  1.
          6    2    1    2  501    0 -0.74304213630E+02  0.22221853480E+02  0.74719851126E+02  0.20337573041E+03  0.17252160627E+03 0.  0.
         24    2    3    3    0    0 -0.11296667987E+03  0.43179907024E+02  0.58608836185E+02  0.15630470847E+03  0.79813476808E+02 0.  0.
         -6    2    1    2    0  502  0.74304213630E+02 -0.22221853480E+02  0.31599913242E+03  0.36711953513E+03  0.17001874736E+03 0.  0.
        -24    2    5    5    0    0  0.11270594617E+02 -0.94455147654E+01  0.54348292284E+02  0.97639064415E+02  0.79770959461E+02 0.  0.
          5    1    3    3  501    0  0.38662466236E+02 -0.20958053544E+02  0.16111014941E+02  0.47071021937E+02  0.47000000000E+01 0. -1.
        -11    1    4    4    0    0 -0.83983565461E+01  0.35886060737E+02  0.13892431819E+01  0.36881861999E+02  0.00000000000E+00 0.  1.
         12    1    4    4    0    0 -0.10456832332E+03  0.72938462868E+01  0.57219593004E+02  0.11942284647E+03  0.00000000000E+00 0. -1.
         -5    1    5    5    0  502  0.63033619013E+02 -0.12776338715E+02  0.26165084013E+03  0.26948047072E+03  0.47000000000E+01 0.  1.
         11    1    6    6    0    0  0.23339723035E+02 -0.12151363877E+02  0.71673896144E+02  0.76351461701E+02  0.00000000000E+00 0. -1.
        -12    1    6    6    0    0 -0.12069128418E+02  0.27058491118E+01 -0.17325603860E+02  0.21287602714E+02  0.00000000000E+00 0.  1.
</event>
<event>
12    1  0.1040325E-001  0.1831159E+03  0.7818608E-02  0.1164981E+00
         21   -1    0    0  501  502  0.00000000000E+00  0.00000000000E+00  0.82935417745E+02  0.82935417745E+02  0.00000000000E+00 0. -1.
         21   -1    0    0  502  503 -0.00000000000E+00 -0.00000000000E+00 -0.40513925050E+03  0.40513925050E+03  0.00000000000E+00 0. -1.
         -6    2    1    2    0  503  0.44402268812E+02  0.39345205732E+02 -0.17986436959E+03  0.25667607588E+03  0.17323916932E+03 0.  0.
        -24    2    3    3    0    0 -0.14614228229E+02 -0.90925676861E+01 -0.46300973337E+02  0.10275909944E+03  0.90107724038E+02 0.  0.
          6    2    1    2  501    0 -0.44402268812E+02 -0.39345205732E+02 -0.14233946316E+03  0.23139859237E+03  0.17252587947E+03 0.  0.
         24    2    5    5    0    0 -0.15237589734E+02  0.18750961884E+01 -0.15854078484E+03  0.17816078043E+03  0.79814679707E+02 0.  0.
          5    1    5    5  501    0 -0.29164679078E+02 -0.41220301920E+02  0.16201321682E+02  0.53237811942E+02  0.47000000000E+01 0. -1.
        -11    1    6    6    0    0 -0.12966900081E+02  0.25104122255E+02 -0.13609150858E+02  0.31361862811E+02  0.00000000000E+00 0.  1.
         12    1    6    6    0    0 -0.22706896526E+01 -0.23229026066E+02 -0.14493163398E+03  0.14679891761E+03  0.00000000000E+00 0. -1.
         -5    1    3    3    0  503  0.59016497041E+02  0.48437773418E+02 -0.13356339626E+03  0.15391697644E+03  0.47000000000E+01 0.  1.
         13    1    4    4    0    0  0.36698625154E+02  0.76474083400E+01 -0.22916472265E+02  0.43936734558E+02  0.00000000000E+00 0. -1.
        -14    1    4    4    0    0 -0.51312853383E+02 -0.16739976026E+02 -0.23384501071E+02  0.58822364879E+02  0.00000000000E+00 0.  1.
</event>
<event>
12    1  0.1040325E-001  0.2047385E+03  0.7818608E-02  0.1147098E+00
         21   -1    0    0  501  502  0.00000000000E+00  0.00000000000E+00  0.33722269882E+03  0.33722269882E+03  0.00000000000E+00 0. -1.
         21   -1    0    0  502  503 -0.00000000000E+00 -0.00000000000E+00 -0.12158803766E+03  0.12158803766E+03  0.00000000000E+00 0. -1.
         -6    2    1    2    0  503  0.20046519140E+02 -0.10811057564E+03  0.88256630438E+02  0.22295084326E+03  0.17270809535E+03 0.  0.
        -24    2    3    3    0    0  0.37226941412E+02 -0.85293996066E+02  0.12568655747E+03  0.17563432764E+03  0.79933693671E+02 0.  0.
          6    2    1    2  501    0 -0.20046519140E+02  0.10811057564E+03  0.12737803073E+03  0.23585989322E+03  0.16527240248E+03 0.  0.
         24    2    5    5    0    0 -0.35420681425E+02  0.27142689927E+02  0.39578423292E+01  0.87378257024E+02  0.75019630735E+02 0.  0.
          5    1    5    5  501    0  0.15374162286E+02  0.80967885713E+02  0.12342018840E+03  0.14848163619E+03  0.47000000000E+01 0. -1.
        -11    1    6    6    0    0 -0.28507481827E+02 -0.10867642955E+02  0.28383826966E+02  0.41670418966E+02  0.00000000000E+00 0.  1.
         12    1    6    6    0    0 -0.69131995983E+01  0.38010332882E+02 -0.24425984637E+02  0.45707838058E+02  0.00000000000E+00 0. -1.
         -5    1    3    3    0  503 -0.17180422272E+02 -0.22816579574E+02 -0.37429927033E+02  0.47316515621E+02  0.47000000000E+01 0.  1.
         13    1    4    4    0    0  0.82686867541E-01 -0.83314280285E+02  0.70817210490E+02  0.10934511163E+03  0.00000000000E+00 0. -1.
        -14    1    4    4    0    0  0.37144254544E+02 -0.19797157801E+01  0.54869346981E+02  0.66289216003E+02  0.00000000000E+00 0.  1.
</event>
<event>
12    1  0.1040325E-001  0.2248672E+03  0.7818608E-02  0.1131539E+00
         21   -1    0    0  503  502  0.00000000000E+00  0.00000000000E+00  0.56357786234E+03  0.56357786234E+03  0.00000000000E+00 0. -1.
         21   -1    0    0  501  503 -0.00000000000E+00 -0.00000000000E+00 -0.16739523446E+03  0.16739523446E+03  0.00000000000E+00 0. -1.
          6    2    1    2  501    0 -0.71237020765E+02 -0.11366880997E+03 -0.56629991916E+02  0.22539961844E+03  0.17205441152E+03 0.  0.
         24    2    3    3    0    0 -0.65108600829E+02 -0.61297558443E+01 -0.33533578051E+00  0.10377156246E+03  0.80571216424E+02 0.  0.
         -6    2    1    2    0  502  0.71237020765E+02  0.11366880997E+03  0.45281261980E+03  0.50557347837E+03  0.18047149884E+03 0.  0.
        -24    2    5    5    0    0  0.10161584037E+03  0.39755029928E+02  0.20735230049E+03  0.24738947826E+03  0.79374655990E+02 0.  0.
          5    1    3    3  501    0 -0.61284199357E+01 -0.10753905413E+03 -0.56294656135E+02  0.12162805599E+03  0.47000000000E+01 0. -1.
        -13    1    4    4    0    0 -0.30784175952E+02  0.10214375370E+02  0.37878757665E+02  0.49867817633E+02  0.00000000000E+00 0.  1.
         14    1    4    4    0    0 -0.34324424877E+02 -0.16344131214E+02 -0.38214093445E+02  0.53903744825E+02  0.00000000000E+00 0. -1.
         -5    1    5    5    0  502 -0.30378819603E+02  0.73913780044E+02  0.24546031930E+03  0.25818400011E+03  0.47000000000E+01 0.  1.
         11    1    6    6    0    0  0.21084356405E+02 -0.17336754172E+02  0.89950876075E+02  0.94001453376E+02  0.00000000000E+00 0. -1.
        -12    1    6    6    0    0  0.80531483963E+02  0.57091784100E+02  0.11740142442E+03  0.15338802488E+03  0.00000000000E+00 0.  1.
</event>
<event>
12    1  0.1040325E-001  0.2331963E+03  0.7818608E-02  0.1124455E+00
         21   -1    0    0  501  502  0.00000000000E+00  0.00000000000E+00  0.25226462918E+03  0.25226462918E+03  0.00000000000E+00 0.  1.
         21   -1    0    0  502  503 -0.00000000000E+00 -0.00000000000E+00 -0.24101042097E+03  0.24101042097E+03  0.00000000000E+00 0.  1.
         -6    2    1    2    0  503 -0.11983713508E+03  0.10153410157E+03 -0.74882937142E+02  0.24467877422E+03  0.17201783499E+03 0.  0.
        -24    2    3    3    0    0 -0.14674169809E+02  0.96144495380E+02 -0.53876317047E+02  0.13720010095E+03  0.80387280781E+02 0.  0.
          6    2    1    2  501    0  0.11983713508E+03 -0.10153410157E+03  0.86137145348E+02  0.24859627593E+03  0.17236701503E+03 0.  0.
         24    2    5    5    0    0  0.55243254490E+02 -0.46344091102E+01  0.89624573790E+02  0.13199365175E+03  0.79476191154E+02 0.  0.
          5    1    5    5  501    0  0.64593880591E+02 -0.96899692456E+02 -0.34874284421E+01  0.11660262418E+03  0.47000000000E+01 0. -1.
        -13    1    6    6    0    0  0.48703624658E+02 -0.36665841688E+02  0.41246070883E+02  0.73604791725E+02  0.00000000000E+00 0.  1.
         14    1    6    6    0    0  0.65396298321E+01  0.32031432578E+02  0.48378502907E+02  0.58388860024E+02  0.00000000000E+00 0. -1.
         -5    1    3    3    0  503 -0.10516296527E+03  0.53896061858E+01 -0.21006620095E+02  0.10747867327E+03  0.47000000000E+01 0.  1.
         13    1    4    4    0    0 -0.21822472763E+02  0.63436917689E+01  0.11904106290E+02  0.25654833645E+02  0.00000000000E+00 0. -1.
        -14    1    4    4    0    0  0.71483029540E+01  0.89800803612E+02 -0.65780423338E+02  0.11154526731E+03  0.00000000000E+00 0.  1.
</event>
<event>
12    1  0.1040325E-001  0.1770968E+03  0.7818608E-02  0.1171947E+00
         21   -1    0    0  501  502  0.00000000000E+00  0.00000000000E+00  0.94563154167E+02  0.94563154167E+02  0.00000000000E+00 0.  1.
         21   -1    0    0  502  503 -0.00000000000E+00 -0.00000000000E+00 -0.32676207106E+03  0.32676207106E+03  0.00000000000E+00 0.  1.
         -6    2    1    2    0  503 -0.13862326817E+02 -0.38989417917E+02 -0.88987921282E+02  0.19356948555E+03  0.16684710602E+03 0.  0.
        -24    2    3    3    0    0  0.15538721818E+02 -0.17473226199E+02 -0.12078997782E+03  0.14498112308E+03  0.76697730074E+02 0.  0.
          6    2    1    2  501    0  0.13862326817E+02  0.38989417917E+02 -0.14321099561E+03  0.22775573968E+03  0.17219450885E+03 0.  0.
         24    2    5    5    0    0  0.28194296305E+02  0.17829199661E+02 -0.49265796895E+01  0.87050978307E+02  0.80254613151E+02 0.  0.
          5    1    5    5  501    0 -0.14331969487E+02  0.21160218256E+02 -0.13828441592E+03  0.14070476137E+03  0.47000000000E+01 0. -1.
        -13    1    6    6    0    0  0.27154866593E+02  0.34125753092E+02 -0.32920973647E+02  0.54641964731E+02  0.00000000000E+00 0.  1.
         14    1    6    6    0    0  0.10394297111E+01 -0.16296553431E+02  0.27994393958E+02  0.32409013575E+02  0.00000000000E+00 0. -1.
         -5    1    3    3    0  503 -0.29401048636E+02 -0.21516191718E+02  0.31802056540E+02  0.48588362466E+02  0.47000000000E+01 0.  1.
         11    1    4    4    0    0  0.31442807941E+02  0.67685645473E+01 -0.15370007468E+02  0.35646890002E+02  0.00000000000E+00 0. -1.
        -12    1    4    4    0    0 -0.15904086123E+02 -0.24241790746E+02 -0.10541997035E+03  0.10933423308E+03  0.00000000000E+00 0.  1.
</event>
<event>
12    1  0.1040325E-001  0.1792005E+03  0.7818608E-02  0.1168636E+00
         21   -1    0    0  503  502  0.00000000000E+00  0.00000000000E+00  0.68218388171E+03  0.68218388171E+03  0.00000000000E+00 0. -1.
         21   -1    0    0  501  503 -0.00000000000E+00 -0.00000000000E+00 -0.87230179264E+02  0.87230179264E+02  0.00000000000E+00 0. -1.
          6    2    1    2  501    0 -0.33039882013E+02 -0.36551430072E+02  0.36361828718E+02  0.18285243789E+03  0.17229390764E+03 0.  0.
         24    2    3    3    0    0  0.39333766477E+02  0.66065327495E+01 -0.48974135636E+01  0.88911127355E+02  0.79312120434E+02 0.  0.
         -6    2    1    2    0  502  0.33039882013E+02  0.36551430072E+02  0.55859187373E+03  0.58656162309E+03  0.17205236250E+03 0.  0.
        -24    2    5    5    0    0 -0.27676471186E+02 -0.11586007037E+02  0.41253205056E+03  0.42115530416E+03  0.79302426616E+02 0.  0.
          5    1    3    3  501    0 -0.72373648490E+02 -0.43157962821E+02  0.41259242282E+02  0.93941310531E+02  0.47000000000E+01 0. -1.
        -11    1    4    4    0    0 -0.48187567373E+01  0.33145050603E+02 -0.14520434331E+02  0.36505585999E+02  0.00000000000E+00 0.  1.
         12    1    4    4    0    0  0.44152523215E+02 -0.26538517854E+02  0.96230207677E+01  0.52405541356E+02  0.00000000000E+00 0. -1.
         -5    1    5    5    0  502  0.60716353199E+02  0.48137437109E+02  0.14605982317E+03  0.16540631893E+03  0.47000000000E+01 0.  1.
         13    1    6    6    0    0 -0.43109810419E+02  0.12207068895E+02  0.13639065011E+03  0.14356140750E+03  0.00000000000E+00 0. -1.
        -14    1    6    6    0    0  0.15433339232E+02 -0.23793075933E+02  0.27614140044E+03  0.27759389666E+03  0.00000000000E+00 0.  1.
</event>
<event>
12    1  0.1040325E-001  0.2022433E+03  0.7818608E-02  0.1148006E+00
         21   -1    0    0  501  502  0.00000000000E+00  0.00000000000E+00  0.28190946203E+04  0.28190946203E+04  0.00000000000E+00 0. -1.
         21   -1    0    0  502  503 -0.00000000000E+00 -0.00000000000E+00 -0.65044679414E+02  0.65044679414E+02  0.00000000000E+00 0. -1.
         -6    2    1    2    0  503 -0.10783888211E+02 -0.10418032303E+03  0.10476667601E+03  0.22714773216E+03  0.17219234557E+03 0.  0.
        -24    2    3    3    0    0  0.32666635624E+02 -0.12240695601E+03  0.59009537576E+02  0.16129969583E+03  0.80528841958E+02 0.  0.
          6    2    1    2  501    0  0.10783888211E+02  0.10418032303E+03  0.26492832649E+04  0.26569915676E+04  0.17301023250E+03 0.  0.
         24    2    5    5    0    0 -0.43687716742E+02  0.23463015500E+02  0.88291014330E+03  0.88793008357E+03  0.80189665669E+02 0.  0.
          5    1    5    5  501    0  0.54471604953E+02  0.80717307528E+02  0.17663731216E+04  0.17690614840E+04  0.47000000000E+01 0. -1.
        -11    1    6    6    0    0  0.13784948549E+01  0.24752934136E+01 -0.70331362737E+00  0.29192423001E+01  0.00000000000E+00 0.  1.
         12    1    6    6    0    0 -0.45066211596E+02  0.20987722086E+02  0.88361345692E+03  0.88501084127E+03  0.00000000000E+00 0. -1.
         -5    1    3    3    0  503 -0.43450523835E+02  0.18226632978E+02  0.45757138434E+02  0.65848036333E+02  0.47000000000E+01 0.  1.
         13    1    4    4    0    0 -0.23068603696E+02 -0.56453116078E+02  0.93750018051E+01  0.61700935570E+02  0.00000000000E+00 0. -1.
        -14    1    4    4    0    0  0.55735239320E+02 -0.65953839928E+02  0.49634535771E+02  0.99598760256E+02  0.00000000000E+00 0.  1.
</event>
<event>
12    1  0.1040325E-001  0.1799006E+03  0.7818608E-02  0.1172289E+00
         21   -1    0    0  501  502  0.00000000000E+00  0.00000000000E+00  0.24004165255E+02  0.24004165255E+02  0.00000000000E+00 0. -1.
         21   -1    0    0  502  503 -0.00000000000E+00 -0.00000000000E+00 -0.28779814666E+04  0.28779814666E+04  0.00000000000E+00 0. -1.
         -6    2    1    2    0  503 -0.45208691337E+01  0.56736142627E+02 -0.24964587658E+04  0.25017560511E+04  0.15243864902E+03 0.  0.
        -24    2    3    3    0    0  0.32905045912E+02  0.18835956390E+02 -0.86112841307E+03  0.86555173140E+03  0.78740844749E+02 0.  0.
          6    2    1    2  501    0  0.45208691337E+01 -0.56736142627E+02 -0.35751853556E+03  0.40022958077E+03  0.17065985445E+03 0.  0.
         24    2    5    5    0    0 -0.35963755869E+01 -0.71395764341E+01 -0.66448258025E+02  0.10481511684E+03  0.80665545641E+02 0.  0.
          5    1    5    5  501    0  0.81172447206E+01 -0.49596566192E+02 -0.29107027753E+03  0.29541446394E+03  0.47000000000E+01 0. -1.
        -11    1    6    6    0    0  0.26952987362E+02  0.52493729151E+01 -0.66394926936E+02  0.71849187654E+02  0.00000000000E+00 0.  1.
         12    1    6    6    0    0 -0.30549362949E+02 -0.12388949349E+02 -0.53331089077E-01  0.32965929181E+02  0.00000000000E+00 0. -1.
         -5    1    3    3    0  503 -0.37425915045E+02  0.37900186236E+02 -0.16353303527E+04  0.16362043197E+04  0.47000000000E+01 0.  1.
         11    1    4    4    0    0  0.46797914327E+02 -0.12413196251E+02 -0.63605547365E+03  0.63789552263E+03  0.00000000000E+00 0. -1.
        -12    1    4    4    0    0 -0.13892868416E+02  0.31249152641E+02 -0.22507293942E+03  0.22765620877E+03  0.00000000000E+00 0.  1.
</event>
<event>
12    1  0.1040325E-001  0.3824101E+03  0.7818608E-02  0.1050095E+00
         21   -1    0    0  501  502  0.00000000000E+00  0.00000000000E+00  0.98836390960E+02  0.98836390960E+02  0.00000000000E+00 0. -1.
         21   -1    0    0  502  503 -0.00000000000E+00 -0.00000000000E+00 -0.15513692081E+04  0.15513692081E+04  0.00000000000E+00 0. -1.
         -6    2    1    2    0  503  0.61049929815E+02 -0.33588802214E+03 -0.90576201955E+03  0.98297563327E+03  0.17113854678E+03 0.  0.
        -24    2    3    3    0    0  0.16858512441E+02 -0.15511872413E+03 -0.28167168471E+03  0.33171435197E+03  0.79683406812E+02 0.  0.
          6    2    1    2  501    0 -0.61049929815E+02  0.33588802214E+03 -0.54677079758E+03  0.66722996578E+03  0.17230689132E+03 0.  0.
         24    2    5    5    0    0  0.25989801717E+02  0.10209223467E+03 -0.19954451528E+03  0.23965007123E+03  0.80720808267E+02 0.  0.
          5    1    5    5  501    0 -0.87039731531E+02  0.23379578748E+03 -0.34722628230E+03  0.42757989455E+03  0.47000000000E+01 0. -1.
        -13    1    6    6    0    0  0.36164429348E+02  0.72593870150E+01 -0.47049467198E+02  0.59784755695E+02  0.00000000000E+00 0.  1.
         14    1    6    6    0    0 -0.10174627632E+02  0.94832847650E+02 -0.15249504809E+03  0.17986531553E+03  0.00000000000E+00 0. -1.
         -5    1    3    3    0  503  0.44191417374E+02 -0.18076929802E+03 -0.62409033485E+03  0.65126128130E+03  0.47000000000E+01 0.  1.
         13    1    4    4    0    0  0.20002689918E+02 -0.13226134770E+01 -0.20955190943E+02  0.28999602373E+02  0.00000000000E+00 0. -1.
        -14    1    4    4    0    0 -0.31441774769E+01 -0.15379611065E+03 -0.26071649376E+03  0.30271474960E+03  0.00000000000E+00 0.  1.
</event>
<event>
12    1  0.1040325E-001  0.1898104E+03  0.7818608E-02  0.1158859E+00
         21   -1    0    0  503  502  0.00000000000E+00  0.00000000000E+00  0.49568445308E+02  0.49568445308E+02  0.00000000000E+00 0.  1.
         21   -1    0    0  501  503 -0.00000000000E+00 -0.00000000000E+00 -0.77924490737E+03  0.77924490737E+03  0.00000000000E+00 0.  1.
          6    2    1    2  501    0  0.79785708954E+02 -0.13428490164E+02 -0.47526616813E+03  0.51139788449E+03  0.17059830593E+03 0.  0.
         24    2    3    3    0    0  0.10099248262E+03 -0.12416005259E+02 -0.21955984715E+03  0.25476864811E+03  0.79667426505E+02 0.  0.
         -6    2    1    2    0  502 -0.79785708954E+02  0.13428490164E+02 -0.25441029393E+03  0.31741546819E+03  0.17170293558E+03 0.  0.
        -24    2    5    5    0    0 -0.10630806926E+03 -0.19287816510E+02 -0.13333752676E+03  0.18914038382E+03  0.79509517010E+02 0.  0.
          5    1    3    3  501    0 -0.21206773667E+02 -0.10124849057E+01 -0.25570632098E+03  0.25662923638E+03  0.47000000000E+01 0. -1.
        -13    1    4    4    0    0  0.75378837906E+02 -0.41266912908E+02 -0.18026272029E+03  0.19969871215E+03  0.00000000000E+00 0.  1.
         14    1    4    4    0    0  0.25613644715E+02  0.28850907649E+02 -0.39297126854E+02  0.55069935961E+02  0.00000000000E+00 0. -1.
         -5    1    5    5    0  502  0.26522360305E+02  0.32716306675E+02 -0.12107276718E+03  0.12827508437E+03  0.47000000000E+01 0.  1.
         11    1    6    6    0    0 -0.34241168914E+01 -0.17699426561E+02 -0.60353738163E+02  0.62988633794E+02  0.00000000000E+00 0. -1.
        -12    1    6    6    0    0 -0.10288395237E+03 -0.15883899497E+01 -0.72983788596E+02  0.12615175003E+03  0.00000000000E+00 0.  1.
</event>
<event>
12    1  0.1040325E-001  0.3034160E+03  0.7818608E-02  0.1083700E+00
         21   -1    0    0  503  502  0.00000000000E+00  0.00000000000E+00  0.11067597786E+04  0.11067597786E+04  0.00000000000E+00 0. -1.
         21   -1    0    0  501  503 -0.00000000000E+00 -0.00000000000E+00 -0.37112630775E+03  0.37112630775E+03  0.00000000000E+00 0. -1.
          6    2    1    2  501    0  0.16859159132E+03 -0.18406001693E+03 -0.28328763396E+03  0.41510623063E+03  0.17251111459E+03 0.  0.
         24    2    3    3    0    0  0.16899708802E+03 -0.19130415237E+03 -0.29629177065E+03  0.39949086970E+03  0.81528198481E+02 0.  0.
         -6    2    1    2    0  502 -0.16859159132E+03  0.18406001693E+03  0.10189211048E+04  0.10627798557E+04  0.17029265807E+03 0.  0.
        -24    2    5    5    0    0 -0.61066716093E+02  0.74318029843E+02  0.66800798527E+03  0.67967802854E+03  0.80468880417E+02 0.  0.
          5    1    3    3  501    0 -0.40549669262E+00  0.72441354400E+01  0.13004136692E+02  0.15615360929E+02  0.47000000000E+01 0. -1.
        -13    1    4    4    0    0  0.65014362793E+02 -0.25821067633E+02 -0.55058883848E+02  0.89022893649E+02  0.00000000000E+00 0.  1.
         14    1    4    4    0    0  0.10398272522E+03 -0.16548308473E+03 -0.24123288681E+03  0.31046797605E+03  0.00000000000E+00 0. -1.
         -5    1    5    5    0  502 -0.10752487523E+03  0.10974198708E+03  0.35091311952E+03  0.38310182716E+03  0.47000000000E+01 0.  1.
         11    1    6    6    0    0 -0.36045001750E+02  0.24756129490E+02  0.10232136767E+03  0.11127340374E+03  0.00000000000E+00 0. -1.
        -12    1    6    6    0    0 -0.25021714343E+02  0.49561900354E+02  0.56568661760E+03  0.56840462480E+03  0.00000000000E+00 0.  1.
</event>
<event>
12    1  0.1040325E-001  0.1840320E+03  0.7818608E-02  0.1164060E+00
         21   -1    0    0  501  502  0.00000000000E+00  0.00000000000E+00  0.23165071478E+03  0.23165071478E+03  0.00000000000E+00 0. -1.
         21   -1    0    0  502  503 -0.00000000000E+00 -0.00000000000E+00 -0.63113223551E+03  0.63113223551E+03  0.00000000000E+00 0.  1.
         -6    2    1    2    0  503  0.62070471782E+02 -0.17165943075E+02 -0.57796000820E+03  0.60641925688E+03  0.17192769110E+03 0.  0.
        -24    2    3    3    0    0  0.67498642147E+02  0.31472574022E+02 -0.51628627732E+03  0.52754651469E+03  0.78785883345E+02 0.  0.
          6    2    1    2  501    0 -0.62070471782E+02  0.17165943075E+02  0.17847848747E+03  0.25636369341E+03  0.17239593887E+03 0.  0.
         24    2    5    5    0    0 -0.10399285385E+03  0.10060197284E+02  0.99779666230E+02  0.16678929859E+03  0.83348467964E+02 0.  0.
          5    1    5    5  501    0  0.41922382065E+02  0.71057457913E+01  0.78698821244E+02  0.89574394815E+02  0.47000000000E+01 0. -1.
        -11    1    6    6    0    0 -0.73289004562E+01  0.10547436709E+02 -0.12984440209E+02  0.18263539924E+02  0.00000000000E+00 0.  1.
         12    1    6    6    0    0 -0.96663953390E+02 -0.48723942508E+00  0.11276410644E+03  0.14852575867E+03  0.00000000000E+00 0. -1.
         -5    1    3    3    0  503 -0.54281703651E+01 -0.48638517097E+02 -0.61673730889E+02  0.78872742191E+02  0.47000000000E+01 0.  1.
         13    1    4    4    0    0  0.50974347571E+02 -0.13846622508E+02 -0.17289897344E+03  0.18078763254E+03  0.00000000000E+00 0. -1.
        -14    1    4    4    0    0  0.16524294576E+02  0.45319196530E+02 -0.34338730388E+03  0.34675888215E+03  0.00000000000E+00 0.  1.
</event>
<event>
12    1  0.1040325E-001  0.1858885E+03  0.7818608E-02  0.1162240E+00
         21   -1    0    0  501  502  0.00000000000E+00  0.00000000000E+00  0.36368227614E+03  0.36368227614E+03  0.00000000000E+00 0.  1.
         21   -1    0    0  502  503 -0.00000000000E+00 -0.00000000000E+00 -0.11658663496E+03  0.11658663496E+03  0.00000000000E+00 0. -1.
         -6    2    1    2    0  503  0.63271001046E+02 -0.30177098502E+02  0.20180714257E+02  0.18698072977E+03  0.17216461666E+03 0.  0.
        -24    2    3    3    0    0  0.25782146076E+02  0.24464863182E+02 -0.42156984799E+02  0.95880581870E+02  0.78438676847E+02 0.  0.
          6    2    1    2  501    0 -0.63271001046E+02  0.30177098502E+02  0.22691492692E+03  0.29328818133E+03  0.17208630509E+03 0.  0.
         24    2    5    5    0    0 -0.35079479483E+02  0.30227267000E+02  0.24245477613E+03  0.26075602311E+03  0.84054313193E+02 0.  0.
          5    1    5    5  501    0 -0.28191521564E+02 -0.50168498253E-01 -0.15539849209E+02  0.32532158219E+02  0.47000000000E+01 0. -1.
        -13    1    6    6    0    0 -0.13533935961E+01 -0.27684037637E+02  0.91220785851E+02  0.95338708746E+02  0.00000000000E+00 0.  1.
         14    1    6    6    0    0 -0.33726085887E+02  0.57911304638E+02  0.15123399028E+03  0.16541731436E+03  0.00000000000E+00 0. -1.
         -5    1    3    3    0  503  0.37488854971E+02 -0.54641961684E+02  0.62337699055E+02  0.91100147899E+02  0.47000000000E+01 0.  1.
         11    1    4    4    0    0  0.19772075017E+02  0.44915233184E+02 -0.48881273350E+00  0.49077001338E+02  0.00000000000E+00 0. -1.
        -12    1    4    4    0    0  0.60100710589E+01 -0.20450370001E+02 -0.41668172065E+02  0.46803580532E+02  0.00000000000E+00 0.  1.
</event>
<event>
12    1  0.1040325E-001  0.1931646E+03  0.7818608E-02  0.1155848E+00
         21   -1    0    0  503  502  0.00000000000E+00  0.00000000000E+00  0.10422101837E+04  0.10422101837E+04  0.00000000000E+00 0. -1.
         21   -1    0    0  501  503 -0.00000000000E+00 -0.00000000000E+00 -0.35982549954E+02  0.35982549954E+02  0.00000000000E+00 0.  1.
          6    2    1    2  501    0  0.64016589617E+02  0.60468162884E+02  0.45063693476E+03  0.49029196983E+03  0.17192453648E+03 0.  0.
         24    2    3    3    0    0 -0.15195210313E+01 -0.85561221127E+01  0.31237210101E+03  0.32236761791E+03  0.79177240507E+02 0.  0.
         -6    2    1    2    0  502 -0.64016589617E+02 -0.60468162884E+02  0.55559069900E+03  0.58790076383E+03  0.17085596517E+03 0.  0.
        -24    2    5    5    0    0 -0.75464076271E+02  0.17165444901E+02  0.36602312327E+03  0.38267898679E+03  0.80503421359E+02 0.  0.
          5    1    3    3  501    0  0.65536110649E+02  0.69024284997E+02  0.13826483375E+03  0.16792435193E+03  0.47000000000E+01 0. -1.
        -11    1    4    4    0    0  0.34169750581E+02  0.70604217300E+01  0.88470927884E+02  0.95102715473E+02  0.00000000000E+00 0.  1.
         12    1    4    4    0    0 -0.35689271612E+02 -0.15616543843E+02  0.22390117313E+03  0.22726490243E+03  0.00000000000E+00 0. -1.
         -5    1    5    5    0  502  0.11447486653E+02 -0.77633607785E+02  0.18956757573E+03  0.20522177705E+03  0.47000000000E+01 0.  1.
         11    1    6    6    0    0 -0.27722614608E+02 -0.75618165503E+01  0.27837710676E+03  0.27985628097E+03  0.00000000000E+00 0. -1.
        -12    1    6    6    0    0 -0.47741461662E+02  0.24727261452E+02  0.87646016511E+02  0.10282270581E+03  0.00000000000E+00 0.  1.
</event>
<event>
12    1  0.1040325E-001  0.1811927E+03  0.7818608E-02  0.1167624E+00
         21   -1    0    0  501  502  0.00000000000E+00  0.00000000000E+00  0.17685650883E+03  0.17685650883E+03  0.00000000000E+00 0.  1.
         21   -1    0    0  502  503 -0.00000000000E+00 -0.00000000000E+00 -0.26056295847E+03  0.26056295847E+03  0.00000000000E+00 0.  1.
         -6    2    1    2    0  503  0.47386221914E+02  0.49577679065E+01 -0.16260096372E+03  0.24345400741E+03  0.17481632312E+03 0.  0.
        -24    2    3    3    0    0  0.31488908978E+01 -0.48556968677E+02 -0.36603416013E+02  0.99515685493E+02  0.78713828990E+02 0.  0.
          6    2    1    2  501    0 -0.47386221914E+02 -0.49577679065E+01  0.78894514079E+02  0.19396545989E+03  0.17066992057E+03 0.  0.
         24    2    5    5    0    0  0.37483163150E+02  0.11976403278E+02  0.52538067600E+02  0.10337665845E+03  0.79862777375E+02 0.  0.
          5    1    5    5  501    0 -0.84869385065E+02 -0.16934171184E+02  0.26356446479E+02  0.90588801438E+02  0.47000000000E+01 0. -1.
        -11    1    6    6    0    0 -0.79499948924E+01 -0.27556107319E+02  0.14400978070E+02  0.32092516865E+02  0.00000000000E+00 0.  1.
         12    1    6    6    0    0  0.45433158043E+02  0.39532510597E+02  0.38137089530E+02  0.71284141586E+02  0.00000000000E+00 0. -1.
         -5    1    3    3    0  503  0.44237331017E+02  0.53514736584E+02 -0.12599754771E+03  0.14393832192E+03  0.47000000000E+01 0.  1.
         11    1    4    4    0    0  0.17109560062E+02 -0.67142382940E+02 -0.26887577070E+02  0.74322126134E+02  0.00000000000E+00 0. -1.
        -12    1    4    4    0    0 -0.13960669164E+02  0.18585414263E+02 -0.97158389425E+01  0.25193559359E+02  0.00000000000E+00 0.  1.
</event>
<event>
12    1  0.1040325E-001  0.1895405E+03  0.7818608E-02  0.1160056E+00
         21   -1    0    0  501  502  0.00000000000E+00  0.00000000000E+00  0.22953462130E+03  0.22953462130E+03  0.00000000000E+00 0. -1.
         21   -1    0    0  502  503 -0.00000000000E+00 -0.00000000000E+00 -0.15304514280E+03  0.15304514280E+03  0.00000000000E+00 0. -1.
         -6    2    1    2    0  503 -0.70360203920E+02  0.23236820010E+02  0.51063870746E+02  0.19134155086E+03  0.16885959283E+03 0.  0.
        -24    2    3    3    0    0 -0.22836337311E+02 -0.24953861131E+02 -0.26211837085E+02  0.88509237521E+02  0.77476649618E+02 0.  0.
          6    2    1    2  501    0  0.70360203920E+02 -0.23236820010E+02  0.25425607757E+02  0.19123821324E+03  0.17445654065E+03 0.  0.
         24    2    5    5    0    0  0.50145549066E+02 -0.23104828532E+02 -0.52665179336E+02  0.11043653800E+03  0.79838578514E+02 0.  0.
          5    1    5    5  501    0  0.20214654854E+02 -0.13199147823E+00  0.78090787093E+02  0.80801675239E+02  0.47000000000E+01 0. -1.
        -11    1    6    6    0    0  0.74351890389E+01  0.25291204471E+02  0.11671919361E+01  0.26387296122E+02  0.00000000000E+00 0.  1.
         12    1    6    6    0    0  0.42710360027E+02 -0.48396033003E+02 -0.53832371272E+02  0.84049241881E+02  0.00000000000E+00 0. -1.
         -5    1    3    3    0  503 -0.47523866609E+02  0.48190681141E+02  0.77275707831E+02  0.10283231334E+03  0.47000000000E+01 0.  1.
         13    1    4    4    0    0  0.28332899222E+01  0.25832764021E+02 -0.16494284613E+02  0.30780199051E+02  0.00000000000E+00 0. -1.
        -14    1    4    4    0    0 -0.25669627233E+02 -0.50786625151E+02 -0.97175524723E+01  0.57729038469E+02  0.00000000000E+00 0.  1.
</event>
<event>
12    1  0.1040325E-001  0.1982316E+03  0.7818608E-02  0.1151337E+00
         21   -1    0    0  503  502  0.00000000000E+00  0.00000000000E+00  0.25324703665E+03  0.25324703665E+03  0.00000000000E+00 0. -1.
         21   -1    0    0  501  503 -0.00000000000E+00 -0.00000000000E+00 -0.15767109874E+03  0.15767109874E+03  0.00000000000E+00 0.  1.
          6    2    1    2  501    0  0.98248069192E+02  0.13093155238E+02  0.20167859234E+02  0.19925490291E+03  0.17167311954E+03 0.  0.
         24    2    3    3    0    0  0.19693197936E+02 -0.28101970205E+02 -0.38836589945E+02  0.92617568074E+02  0.76760604629E+02 0.  0.
         -6    2    1    2    0  502 -0.98248069192E+02 -0.13093155238E+02  0.75408078680E+02  0.21166323249E+03  0.17114564512E+03 0.  0.
        -24    2    5    5    0    0 -0.11064904249E+03  0.10541473306E+02  0.67015447469E+01  0.13780487067E+03  0.81184594696E+02 0.  0.
          5    1    3    3  501    0  0.78554871255E+02  0.41195125442E+02  0.59004449179E+02  0.10663733484E+03  0.47000000000E+01 0. -1.
        -13    1    4    4    0    0  0.91233322043E+01  0.25794963008E+02 -0.22186231662E+02  0.35225618269E+02  0.00000000000E+00 0.  1.
         14    1    4    4    0    0  0.10569865732E+02 -0.53896933213E+02 -0.16650358284E+02  0.57391949804E+02  0.00000000000E+00 0. -1.
         -5    1    5    5    0  502  0.12400973294E+02 -0.23634628543E+02  0.68706533933E+02  0.73858361816E+02  0.47000000000E+01 0.  1.
         11    1    6    6    0    0 -0.57969893685E+01 -0.25635515713E+02  0.56450639757E+01  0.26882178091E+02  0.00000000000E+00 0. -1.
        -12    1    6    6    0    0 -0.10485205312E+03  0.36176989019E+02  0.10564807712E+01  0.11092269258E+03  0.00000000000E+00 0.  1.
</event>
<event>
12    1  0.1040325E-001  0.2128918E+03  0.7818608E-02  0.1139684E+00
         21   -1    0    0  503  502  0.00000000000E+00  0.00000000000E+00  0.68950930041E+03  0.68950930041E+03  0.00000000000E+00 0. -1.
         21   -1    0    0  501  503 -0.00000000000E+00 -0.00000000000E+00 -0.44232480117E+03  0.44232480117E+03  0.00000000000E+00 0. -1.
          6    2    1    2  501    0  0.10084754167E+03  0.68643502966E+02 -0.39892269596E+03  0.45217501575E+03  0.17447283558E+03 0.  0.
         24    2    3    3    0    0  0.76087603779E+02  0.90694355737E+02 -0.39252194117E+03  0.41808169831E+03  0.81878217768E+02 0.  0.
         -6    2    1    2    0  502 -0.10084754167E+03 -0.68643502966E+02  0.64610719521E+03  0.67965908583E+03  0.17204594763E+03 0.  0.
        -24    2    5    5    0    0 -0.85802372555E+02 -0.99435547630E+02  0.61235254134E+03  0.63132717312E+03  0.79679918244E+02 0.  0.
          5    1    3    3  501    0  0.24759937891E+02 -0.22050852771E+02 -0.64007547843E+01  0.34093317440E+02  0.47000000000E+01 0. -1.
        -13    1    4    4    0    0  0.14966143235E+02  0.32133738296E+01 -0.49529953544E+01  0.16088610184E+02  0.00000000000E+00 0.  1.
         14    1    4    4    0    0  0.61121460544E+02  0.87480981907E+02 -0.38756894582E+03  0.40199308812E+03  0.00000000000E+00 0. -1.
         -5    1    5    5    0  502 -0.15045169114E+02  0.30792044664E+02  0.33754653870E+02  0.48331912710E+02  0.47000000000E+01 0.  1.
         13    1    6    6    0    0 -0.52918082715E+02 -0.23329468288E+02  0.13556869274E+03  0.14738879883E+03  0.00000000000E+00 0. -1.
        -14    1    6    6    0    0 -0.32884289841E+02 -0.76106079343E+02  0.47678384859E+03  0.48393837429E+03  0.00000000000E+00 0.  1.
</event>
<event>
12    1  0.1040325E-001  0.2209510E+03  0.7818608E-02  0.1133425E+00
         21   -1    0    0  503  502  0.00000000000E+00  0.00000000000E+00  0.91257944378E+03  0.91257944378E+03  0.00000000000E+00 0.  1.
         21   -1    0    0  501  503 -0.00000000000E+00 -0.00000000000E+00 -0.53274331649E+02  0.53274331649E+02  0.00000000000E+00 0.  1.
          6    2    1    2  501    0 -0.54878841575E+02 -0.12472237558E+03  0.40724915784E+03  0.46268985441E+03  0.17222853010E+03 0.  0.
         24    2    3    3    0    0 -0.82957090430E+02 -0.11686342148E+03  0.22703727367E+03  0.28007396129E+03  0.79728050445E+02 0.  0.
         -6    2    1    2    0  502  0.54878841575E+02  0.12472237558E+03  0.45205595429E+03  0.50316392103E+03  0.17393098456E+03 0.  0.
        -24    2    5    5    0    0 -0.24821190482E+02  0.73392188513E+02  0.32789062014E+03  0.34687571476E+03  0.82510592535E+02 0.  0.
          5    1    3    3  501    0  0.28078248855E+02 -0.78589541071E+01  0.18021188418E+03  0.18261589311E+03  0.47000000000E+01 0. -1.
        -13    1    4    4    0    0  0.66911381557E+01 -0.45238663217E+02  0.40591532330E+02  0.61147203340E+02  0.00000000000E+00 0.  1.
         14    1    4    4    0    0 -0.89648228586E+02 -0.71624758260E+02  0.18644574134E+03  0.21892675795E+03  0.00000000000E+00 0. -1.
         -5    1    5    5    0  502  0.79700032057E+02  0.51330187071E+02  0.12416533415E+03  0.15628820627E+03  0.47000000000E+01 0.  1.
         13    1    6    6    0    0 -0.16044257166E+02 -0.12155395648E+02  0.12351317286E+03  0.12514262144E+03  0.00000000000E+00 0. -1.
        -14    1    6    6    0    0 -0.87769333166E+01  0.85547584161E+02  0.20437744728E+03  0.22173309331E+03  0.00000000000E+00 0.  1.
</event>
<event>
12    1  0.1040325E-001  0.1919907E+03  0.7818608E-02  0.1157697E+00
         21   -1    0    0  501  502  0.00000000000E+00  0.00000000000E+00  0.17990798221E+04  0.17990798221E+04  0.00000000000E+00 0.  1.
         21   -1    0    0  502  503 -0.00000000000E+00 -0.00000000000E+00 -0.39744725433E+02  0.39744725433E+02  0.00000000000E+00 0.  1.
         -6    2    1    2    0  503 -0.70222486798E+02  0.43473826947E+02  0.23707901272E+03  0.30506868222E+03  0.17331841021E+03 0.  0.
        -24    2    3    3    0    0  0.98098612667E+01  0.58511457043E+02  0.83841949912E+02  0.13147434339E+03  0.82074395654E+02 0.  0.
          6    2    1    2  501    0  0.70222486798E+02 -0.43473826947E+02  0.15222560840E+04  0.15337558653E+04  0.16829229924E+03 0.  0.
         24    2    5    5    0    0  0.10982179615E+03 -0.18762810173E+02  0.98872214322E+03  0.99816339378E+03  0.79660619104E+02 0.  0.
          5    1    5    5  501    0 -0.39599309356E+02 -0.24711016774E+02  0.53353394076E+03  0.53559247156E+03  0.47000000000E+01 0. -1.
        -11    1    6    6    0    0  0.67416868009E+02  0.28482112501E+02  0.56176896521E+03  0.56651622668E+03  0.00000000000E+00 0.  1.
         12    1    6    6    0    0  0.42404928145E+02 -0.47244922674E+02  0.42695317801E+03  0.43164716710E+03  0.00000000000E+00 0. -1.
         -5    1    3    3    0  503 -0.80032348064E+02 -0.15037630096E+02  0.15323706281E+03  0.17359433883E+03  0.47000000000E+01 0.  1.
         11    1    4    4    0    0 -0.13843673807E+02  0.60218997822E+02  0.22586549022E+02  0.65788503554E+02  0.00000000000E+00 0. -1.
        -12    1    4    4    0    0  0.23653535074E+02 -0.17075407790E+01  0.61255400890E+02  0.65685839838E+02  0.00000000000E+00 0.  1.
</event>
<event>
12    1  0.1040325E-001  0.1838148E+03  0.7818608E-02  0.1164337E+00
         21   -1    0    0  501  502  0.00000000000E+00  0.00000000000E+00  0.16059426539E+03  0.16059426539E+03  0.00000000000E+00 0. -1.
         21   -1    0    0  502  503 -0.00000000000E+00 -0.00000000000E+00 -0.21266377321E+03  0.21266377321E+03  0.00000000000E+00 0.  1.
         -6    2    1    2    0  503 -0.18988245186E+02 -0.61295040324E+02 -0.33690906120E+01  0.18310124112E+03  0.17145576194E+03 0.  0.
        -24    2    3    3    0    0  0.38562246545E+02  0.10125729100E+02 -0.14590853562E+02  0.90575550807E+02  0.80009125404E+02 0.  0.
          6    2    1    2  501    0  0.18988245186E+02  0.61295040324E+02 -0.48700417210E+02  0.19015679749E+03  0.17225051980E+03 0.  0.
         24    2    5    5    0    0 -0.44998135751E+02  0.10498551212E+02 -0.57621228755E+02  0.10783905256E+03  0.78574827111E+02 0.  0.
          5    1    5    5  501    0  0.63986380937E+02  0.50796489112E+02  0.89208115448E+01  0.82317744929E+02  0.47000000000E+01 0. -1.
        -13    1    6    6    0    0 -0.16840263068E+02  0.16481003048E+02 -0.71931051167E+02  0.75692100272E+02  0.00000000000E+00 0.  1.
         14    1    6    6    0    0 -0.28157872683E+02 -0.59824518357E+01  0.14309822412E+02  0.32146952289E+02  0.00000000000E+00 0. -1.
         -5    1    3    3    0  503 -0.57550491731E+02 -0.71420769424E+02  0.11221762950E+02  0.92525690310E+02  0.47000000000E+01 0.  1.
         13    1    4    4    0    0  0.54102915271E+02 -0.15824713697E+02  0.13465289622E+01  0.56385815102E+02  0.00000000000E+00 0. -1.
        -14    1    4    4    0    0 -0.15540668726E+02  0.25950442797E+02 -0.15937382525E+02  0.34189735705E+02  0.00000000000E+00 0.  1.
</event>
<event>
12    1  0.1040325E-001  0.2014761E+03  0.7818608E-02  0.1148979E+00
         21   -1    0    0  501  502  0.00000000000E+00  0.00000000000E+00  0.61059645134E+03  0.61059645134E+03  0.00000000000E+00 0. -1.
         21   -1    0    0  502  503 -0.00000000000E+00 -0.00000000000E+00 -0.17657460556E+03  0.17657460556E+03  0.00000000000E+00 0.  1.
         -6    2    1    2    0  503 -0.74743225245E+02 -0.73947398223E+02 -0.95286245946E+02  0.22081457282E+03  0.16918876877E+03 0.  0.
        -24    2    3    3    0    0 -0.55604735774E+02 -0.11362892492E+03 -0.48630259899E+02  0.15647347884E+03  0.78202481956E+02 0.  0.
          6    2    1    2  501    0  0.74743225245E+02  0.73947398223E+02  0.52930809172E+03  0.56635648408E+03  0.17186577226E+03 0.  0.
         24    2    5    5    0    0 -0.44555447602E+01  0.66910790485E+02  0.18108910183E+03  0.20914434271E+03  0.80319284889E+02 0.  0.
          5    1    5    5  501    0  0.79198770005E+02  0.70366077381E+01  0.34821898989E+03  0.35721214137E+03  0.47000000000E+01 0. -1.
        -11    1    6    6    0    0 -0.34803858101E+02  0.17945992026E+02  0.36620053404E+02  0.53613388998E+02  0.00000000000E+00 0.  1.
         12    1    6    6    0    0  0.30348313340E+02  0.48964798459E+02  0.14446904843E+03  0.15553095372E+03  0.00000000000E+00 0. -1.
         -5    1    3    3    0  503 -0.19138489471E+02  0.39681526697E+02 -0.46655986048E+02  0.64341093979E+02  0.47000000000E+01 0.  1.
         13    1    4    4    0    0 -0.16328104611E+02 -0.30919183637E+02  0.21582143698E+02  0.41090045553E+02  0.00000000000E+00 0. -1.
        -14    1    4    4    0    0 -0.39276631163E+02 -0.82709741284E+02 -0.70212403597E+02  0.11538343329E+03  0.00000000000E+00 0.  1.
</event>
<event>
12    1  0.1040325E-001  0.2257230E+03  0.7818608E-02  0.1129914E+00
         21   -1    0    0  501  502  0.00000000000E+00  0.00000000000E+00  0.78484278837E+02  0.78484278837E+02  0.00000000000E+00 0. -1.
         21   -1    0    0  502  503 -0.00000000000E+00 -0.00000000000E+00 -0.85189843470E+03  0.85189843470E+03  0.00000000000E+00 0.  1.
         -6    2    1    2    0  503 -0.50981208115E+02 -0.13705279624E+03 -0.61645825774E+03  0.65648430514E+03  0.17195437423E+03 0.  0.
        -24    2    3    3    0    0 -0.71629293487E+02 -0.74087957260E+02 -0.53686014954E+03  0.55280758062E+03  0.82204743971E+02 0.  0.
          6    2    1    2  501    0  0.50981208115E+02  0.13705279624E+03 -0.15695589813E+03  0.27389840840E+03  0.17030159022E+03 0.  0.
         24    2    5    5    0    0  0.71603853926E+01  0.13144761812E+03 -0.16633793066E+03  0.22849141488E+03  0.84913320929E+02 0.  0.
          5    1    5    5  501    0  0.43820822723E+02  0.56051781236E+01  0.93820325387E+01  0.45406993519E+02  0.47000000000E+01 0. -1.
        -13    1    6    6    0    0  0.22578338509E+02  0.39861064532E+02 -0.11171718764E+03  0.12074525187E+03  0.00000000000E+00 0.  1.
         14    1    6    6    0    0 -0.15417953117E+02  0.91586553584E+02 -0.54620743027E+02  0.10774616302E+03  0.00000000000E+00 0. -1.
         -5    1    3    3    0  503  0.20648085372E+02 -0.62964838979E+02 -0.79598108197E+02  0.10367672451E+03  0.47000000000E+01 0.  1.
         13    1    4    4    0    0 -0.35838814564E+02  0.12227299010E+02 -0.13357795030E+03  0.13884162300E+03  0.00000000000E+00 0. -1.
        -14    1    4    4    0    0 -0.35790478923E+02 -0.86315256270E+02 -0.40328219924E+03  0.41396595762E+03  0.00000000000E+00 0.  1.
</event>
<event>
12    1  0.1040325E-001  0.2472285E+03  0.7818608E-02  0.1115092E+00
         21   -1    0    0  501  502  0.00000000000E+00  0.00000000000E+00  0.20854045000E+04  0.20854045000E+04  0.00000000000E+00 0. -1.
         21   -1    0    0  502  503 -0.00000000000E+00 -0.00000000000E+00 -0.41900602310E+02  0.41900602310E+02  0.00000000000E+00 0. -1.
         -6    2    1    2    0  503  0.17516234494E+03  0.28136939391E+02  0.43807181702E+03  0.50294858501E+03  0.17197914947E+03 0.  0.
        -24    2    3    3    0    0  0.70465348784E+02 -0.24728312299E+02  0.14398441558E+03  0.18630101195E+03  0.91649878966E+02 0.  0.
          6    2    1    2  501    0 -0.17516234494E+03 -0.28136939391E+02  0.16054320807E+04  0.16243565173E+04  0.17218709360E+03 0.  0.
         24    2    5    5    0    0 -0.98232062479E+02 -0.25395050520E+01  0.13574528869E+04  0.13634173145E+04  0.81070624704E+02 0.  0.
          5    1    5    5  501    0 -0.76930282465E+02 -0.25597434339E+02  0.24797919378E+03  0.26093920279E+03  0.47000000000E+01 0. -1.
        -11    1    6    6    0    0  0.14435535599E+02  0.23066710696E+01  0.15690339787E+03  0.15758293588E+03  0.00000000000E+00 0.  1.
         12    1    6    6    0    0 -0.11266759808E+03 -0.48461761216E+01  0.12005494891E+04  0.12058343787E+04  0.00000000000E+00 0. -1.
         -5    1    3    3    0  503  0.10469699616E+03  0.52865251689E+02  0.29408740144E+03  0.31664757307E+03  0.47000000000E+01 0.  1.
         11    1    4    4    0    0  0.52184709032E+02  0.28546376104E+02  0.92606667385E+02  0.11006422802E+03  0.00000000000E+00 0. -1.
        -12    1    4    4    0    0  0.18280639753E+02 -0.53274688402E+02  0.51377748191E+02  0.76236783926E+02  0.00000000000E+00 0.  1.
</event>
<event>
12    1  0.1040325E-001  0.2663423E+03  0.7818608E-02  0.1103585E+00
         21   -1    0    0  501  502  0.00000000000E+00  0.00000000000E+00  0.18936970733E+03  0.18936970733E+03  0.00000000000E+00 0.  1.
         21   -1    0    0  502  503 -0.00000000000E+00 -0.00000000000E+00 -0.37670819107E+03  0.37670819107E+03  0.00000000000E+00 0. -1.
         -6    2    1    2    0  503 -0.12837512398E+03  0.15665130247E+03 -0.64862340546E+02  0.27412652702E+03  0.17296943826E+03 0.  0.
        -24    2    3    3    0    0 -0.91859570802E+02  0.10062801878E+03 -0.11135862663E+03  0.19254228492E+03  0.78151192235E+02 0.  0.
          6    2    1    2  501    0  0.12837512398E+03 -0.15665130247E+03 -0.12247614319E+03  0.29195137137E+03  0.17092511393E+03 0.  0.
         24    2    5    5    0    0  0.44064881196E+02  0.46253917537E+01 -0.48543495734E+02  0.95465963522E+02  0.69239953851E+02 0.  0.
          5    1    5    5  501    0  0.84310242783E+02 -0.16127669423E+03 -0.73932647459E+02  0.19648540785E+03  0.47000000000E+01 0. -1.
        -11    1    6    6    0    0  0.59311640582E+02  0.34726266901E+01 -0.52917354554E+02  0.79562404800E+02  0.00000000000E+00 0.  1.
         12    1    6    6    0    0 -0.15246759385E+02  0.11527650636E+01  0.43738588193E+01  0.15903558722E+02  0.00000000000E+00 0. -1.
         -5    1    3    3    0  503 -0.36515553177E+02  0.56023283691E+02  0.46496286080E+02  0.81584242098E+02  0.47000000000E+01 0.  1.
         13    1    4    4    0    0 -0.97720622793E+02  0.73649376294E+02 -0.64931387373E+02  0.13852666102E+03  0.00000000000E+00 0. -1.
        -14    1    4    4    0    0  0.58610519907E+01  0.26978642488E+02 -0.46427239253E+02  0.54015623903E+02  0.00000000000E+00 0.  1.
</event>
<event>
12    1  0.1040325E-001  0.1869891E+03  0.7818608E-02  0.1161292E+00
         21   -1    0    0  501  502  0.00000000000E+00  0.00000000000E+00  0.74373487590E+02  0.74373487590E+02  0.00000000000E+00 0.  1.
         21   -1    0    0  502  503 -0.00000000000E+00 -0.00000000000E+00 -0.76700256088E+03  0.76700256088E+03  0.00000000000E+00 0.  1.
         -6    2    1    2    0  503  0.72355882035E+02 -0.64256432258E+01 -0.60867389675E+03  0.63674864868E+03  0.17230283356E+03 0.  0.
        -24    2    3    3    0    0  0.26350589134E+02  0.52004023875E+02 -0.45596332997E+03  0.46682772537E+03  0.81405127903E+02 0.  0.
          6    2    1    2  501    0 -0.72355882035E+02  0.64256432258E+01 -0.83955176538E+02  0.20462739979E+03  0.17189310202E+03 0.  0.
         24    2    5    5    0    0 -0.27269913072E+02  0.54448682359E+02 -0.34322390983E-01  0.97839026612E+02  0.76577847846E+02 0.  0.
          5    1    5    5  501    0 -0.45085968963E+02 -0.48023039133E+02 -0.83920854147E+02  0.10678837318E+03  0.47000000000E+01 0. -1.
        -11    1    6    6    0    0 -0.17217343916E+02 -0.11531963312E+02 -0.19356202157E+02  0.28356404414E+02  0.00000000000E+00 0.  1.
         12    1    6    6    0    0 -0.10052569156E+02  0.65980645671E+02  0.19321879766E+02  0.69482622198E+02  0.00000000000E+00 0. -1.
         -5    1    3    3    0  503  0.46005292901E+02 -0.58429667101E+02 -0.15271056678E+03  0.16992092331E+03  0.47000000000E+01 0.  1.
         13    1    4    4    0    0 -0.92346838158E+01  0.60584374837E+02 -0.23535171194E+03  0.24319986466E+03  0.00000000000E+00 0. -1.
        -14    1    4    4    0    0  0.35585272950E+02 -0.85803509618E+01 -0.22061161803E+03  0.22362786071E+03  0.00000000000E+00 0.  1.
</event>
<event>
12    1  0.1040325E-001  0.2006099E+03  0.7818608E-02  0.1149442E+00
         21   -1    0    0  501  502  0.00000000000E+00  0.00000000000E+00  0.41167979109E+03  0.41167979109E+03  0.00000000000E+00 0.  1.
         21   -1    0    0  502  503 -0.00000000000E+00 -0.00000000000E+00 -0.11040834151E+03  0.11040834151E+03  0.00000000000E+00 0.  1.
         -6    2    1    2    0  503  0.89719436151E+02 -0.54644565957E+02  0.24107605392E+03  0.31362716466E+03  0.17090561380E+03 0.  0.
        -24    2    3    3    0    0  0.16699004866E+02  0.31695557727E+02  0.11184580290E+03  0.14184489514E+03  0.79542601845E+02 0.  0.
          6    2    1    2  501    0 -0.89719436151E+02  0.54644565957E+02  0.60195395661E+02  0.20846096794E+03  0.16969644570E+03 0.  0.
         24    2    5    5    0    0 -0.10737533599E+03  0.63229725254E+02  0.88800057747E+02  0.17345022027E+03  0.81682725957E+02 0.  0.
          5    1    5    5  501    0  0.17655899843E+02 -0.85851592970E+01 -0.28604662086E+02  0.35010747671E+02  0.47000000000E+01 0. -1.
        -11    1    6    6    0    0 -0.60473861007E+02  0.32809056442E+02  0.33419726816E+00  0.68801407962E+02  0.00000000000E+00 0.  1.
         12    1    6    6    0    0 -0.46901474987E+02  0.30420668811E+02  0.88465860479E+02  0.10464881231E+03  0.00000000000E+00 0. -1.
         -5    1    3    3    0  503  0.73020431284E+02 -0.86340123684E+02  0.12923025102E+03  0.17178226952E+03  0.47000000000E+01 0.  1.
         11    1    4    4    0    0  0.16263870967E+02  0.22930427148E+02  0.12383559071E+03  0.12698650131E+03  0.00000000000E+00 0. -1.
        -12    1    4    4    0    0  0.43513389923E+00  0.87651305790E+01 -0.11989787810E+02  0.14858393833E+02  0.00000000000E+00 0.  1.
</event>
<event>
12    1  0.1040325E-001  0.1761575E+03  0.7818608E-02  0.1172309E+00
         21   -1    0    0  503  502  0.00000000000E+00  0.00000000000E+00  0.74443535667E+03  0.74443535667E+03  0.00000000000E+00 0.  1.
         21   -1    0    0  501  503 -0.00000000000E+00 -0.00000000000E+00 -0.51075136759E+02  0.51075136759E+02  0.00000000000E+00 0.  1.
          6    2    1    2  501    0 -0.11573131409E+02  0.16426231773E+02  0.16765714886E+03  0.24107818434E+03  0.17206397921E+03 0.  0.
         24    2    3    3    0    0  0.37887320967E+02  0.48181454672E+02  0.14578962995E+03  0.17818932274E+03  0.82096996730E+02 0.  0.
         -6    2    1    2    0  502  0.11573131409E+02 -0.16426231773E+02  0.52570307104E+03  0.55443230908E+03  0.17500773694E+03 0.  0.
        -24    2    5    5    0    0  0.23973902205E+02 -0.77791695068E+02  0.38026077078E+03  0.39601813072E+03  0.74871959053E+02 0.  0.
          5    1    3    3  501    0 -0.49460452377E+02 -0.31755222899E+02  0.21867518913E+02  0.62888861606E+02  0.47000000000E+01 0. -1.
        -11    1    4    4    0    0 -0.17513082327E+02 -0.11161107215E+02  0.37244394482E+02  0.42642974652E+02  0.00000000000E+00 0.  1.
         12    1    4    4    0    0  0.55400403294E+02  0.59342561886E+02  0.10854523547E+03  0.13554634809E+03  0.00000000000E+00 0. -1.
         -5    1    5    5    0  502 -0.12400770796E+02  0.61365463295E+02  0.14544230026E+03  0.15841417837E+03  0.47000000000E+01 0.  1.
         13    1    6    6    0    0 -0.41197722691E+01 -0.14716027970E+02  0.76988690793E+01  0.17111592207E+02  0.00000000000E+00 0. -1.
        -14    1    6    6    0    0  0.28093674474E+02 -0.63075667098E+02  0.37256190170E+03  0.37890653851E+03  0.00000000000E+00 0.  1.
</event>
<event>
12    1  0.1040325E-001  0.1828606E+03  0.7818608E-02  0.1165380E+00
         21   -1    0    0  503  502  0.00000000000E+00  0.00000000000E+00  0.12125154861E+04  0.12125154861E+04  0.00000000000E+00 0. -1.
         21   -1    0    0  501  503 -0.00000000000E+00 -0.00000000000E+00 -0.28058761909E+02  0.28058761909E+02  0.00000000000E+00 0. -1.
          6    2    1    2  501    0 -0.28071228580E+02  0.54984757581E+02  0.69104456257E+03  0.71482906900E+03  0.17212406279E+03 0.  0.
         24    2    3    3    0    0 -0.35075717092E+01 -0.13057050479E+02  0.50419695861E+03  0.51441155982E+03  0.10110336381E+03 0.  0.
         -6    2    1    2    0  502  0.28071228580E+02 -0.54984757581E+02  0.49341216161E+03  0.52574517899E+03  0.17070768750E+03 0.  0.
        -24    2    5    5    0    0  0.80393335872E+02 -0.59481102298E+02  0.38646750309E+03  0.40650982344E+03  0.76759466059E+02 0.  0.
          5    1    3    3  501    0 -0.24563656871E+02  0.68041808060E+02  0.18684760396E+03  0.20041750919E+03  0.47000000000E+01 0. -1.
        -11    1    4    4    0    0 -0.44900503546E+02 -0.21543265930E+02  0.37941971165E+03  0.38267412392E+03  0.00000000000E+00 0.  1.
         12    1    4    4    0    0  0.41392931837E+02  0.84862154510E+01  0.12477724696E+03  0.13173743590E+03  0.00000000000E+00 0. -1.
         -5    1    5    5    0  502 -0.52322107291E+02  0.44963447173E+01  0.10694465852E+03  0.11923535555E+03  0.47000000000E+01 0.  1.
         11    1    6    6    0    0  0.35211847163E+02 -0.21650699890E+02  0.49780800767E+02  0.64705139760E+02  0.00000000000E+00 0. -1.
        -12    1    6    6    0    0  0.45181488709E+02 -0.37830402409E+02  0.33668670232E+03  0.34180468368E+03  0.00000000000E+00 0.  1.
</event>
<event>
12    1  0.1040325E-001  0.2149753E+03  0.7818608E-02  0.1138857E+00
         21   -1    0    0  501  502  0.00000000000E+00  0.00000000000E+00  0.51661688753E+02  0.51661688753E+02  0.00000000000E+00 0. -1.
         21   -1    0    0  502  503 -0.00000000000E+00 -0.00000000000E+00 -0.16227810361E+04  0.16227810361E+04  0.00000000000E+00 0.  1.
         -6    2    1    2    0  503  0.11464845751E+03 -0.23592169529E+02 -0.13618222822E+04  0.13786857214E+04  0.18031508769E+03 0.  0.
        -24    2    3    3    0    0  0.14147608838E+03  0.59293966859E+01 -0.12336855340E+04  0.12444010950E+04  0.80643952772E+02 0.  0.
          6    2    1    2  501    0 -0.11464845751E+03  0.23592169529E+02 -0.20929706511E+03  0.29575700340E+03  0.17310714695E+03 0.  0.
         24    2    5    5    0    0 -0.10855117381E+03  0.74393421085E+02 -0.17860127516E+03  0.23590497296E+03  0.80218466330E+02 0.  0.
          5    1    5    5  501    0 -0.60972837042E+01 -0.50801251556E+02 -0.30695789945E+02  0.59852030446E+02  0.47000000000E+01 0. -1.
        -13    1    6    6    0    0 -0.83766996542E+02  0.19630795706E+02 -0.14045874124E+03  0.16471471045E+03  0.00000000000E+00 0.  1.
         14    1    6    6    0    0 -0.24784177266E+02  0.54762625379E+02 -0.38142533925E+02  0.71190262504E+02  0.00000000000E+00 0. -1.
         -5    1    3    3    0  503 -0.26827630868E+02 -0.29521566215E+02 -0.12813674823E+03  0.13428462643E+03  0.47000000000E+01 0.  1.
         13    1    4    4    0    0  0.27826406781E+02 -0.17967183206E+02 -0.11416363234E+03  0.11887162629E+03  0.00000000000E+00 0. -1.
        -14    1    4    4    0    0  0.11364968160E+03  0.23896579892E+02 -0.11195219017E+04  0.11255294687E+04  0.00000000000E+00 0.  1.
</event>
<event>
12    1  0.1040325E-001  0.1788769E+03  0.7818608E-02  0.1169189E+00
         21   -1    0    0  501  502  0.00000000000E+00  0.00000000000E+00  0.74562633512E+03  0.74562633512E+03  0.00000000000E+00 0. -1.
         21   -1    0    0  502  503 -0.00000000000E+00 -0.00000000000E+00 -0.16158993050E+03  0.16158993050E+03  0.00000000000E+00 0. -1.
         -6    2    1    2    0  503 -0.17477403703E+02 -0.41362311714E+02 -0.96931054635E+02  0.20345166814E+03  0.17314921728E+03 0.  0.
        -24    2    3    3    0    0 -0.53714867192E+02  0.98674674699E+01 -0.11358566511E+02  0.97233097452E+02  0.79640469206E+02 0.  0.
          6    2    1    2  501    0  0.17477403703E+02  0.41362311714E+02  0.68096745926E+03  0.70376459748E+03  0.17190586853E+03 0.  0.
         24    2    5    5    0    0  0.72727425716E+02  0.98121183955E+01  0.34274638336E+03  0.35957923200E+03  0.80228328308E+02 0.  0.
          5    1    5    5  501    0 -0.55250022013E+02  0.31550193318E+02  0.33822107590E+03  0.34418536548E+03  0.47000000000E+01 0. -1.
        -11    1    6    6    0    0  0.38915604861E+01  0.16124202811E+02  0.92452416550E+01  0.18989698591E+02  0.00000000000E+00 0.  1.
         12    1    6    6    0    0  0.68835865230E+02 -0.63120844156E+01  0.33350114170E+03  0.34058953341E+03  0.00000000000E+00 0. -1.
         -5    1    3    3    0  503  0.36237463488E+02 -0.51229779184E+02 -0.85572488124E+02  0.10621857069E+03  0.47000000000E+01 0.  1.
         13    1    4    4    0    0 -0.34277799976E+02 -0.17249813952E+01 -0.45057304305E+02  0.56640125381E+02  0.00000000000E+00 0. -1.
        -14    1    4    4    0    0 -0.19437067216E+02  0.11592448865E+02  0.33698737794E+02  0.40592972071E+02  0.00000000000E+00 0.  1.
</event>
<event>
12    1  0.1040325E-001  0.2039855E+03  0.7818608E-02  0.1146655E+00
         21   -1    0    0  503  502  0.00000000000E+00  0.00000000000E+00  0.20633812102E+04  0.20633812102E+04  0.00000000000E+00 0. -1.
         21   -1    0    0  501  503 -0.00000000000E+00 -0.00000000000E+00 -0.26059953076E+02  0.26059953076E+02  0.00000000000E+00 0. -1.
          6    2    1    2  501    0 -0.73662699597E+02  0.77182450074E+02  0.51929162182E+03  0.55791922827E+03  0.17385842766E+03 0.  0.
         24    2    3    3    0    0 -0.28807991614E+02 -0.24828240761E+02  0.22536531870E+03  0.24354224511E+03  0.84124647765E+02 0.  0.
         -6    2    1    2    0  502  0.73662699597E+02 -0.77182450074E+02  0.15180296353E+04  0.15315219350E+04  0.17251707113E+03 0.  0.
        -24    2    5    5    0    0  0.63628264073E+02 -0.11865702215E+03  0.13272652450E+04  0.13359868419E+04  0.71412647834E+02 0.  0.
          5    1    3    3  501    0 -0.44854707982E+02  0.10201069083E+03  0.29392630312E+03  0.31437698315E+03  0.47000000000E+01 0. -1.
        -13    1    4    4    0    0 -0.67722939632E+01 -0.10984686737E+01 -0.64853994529E+01  0.94409218308E+01  0.00000000000E+00 0.  1.
         14    1    4    4    0    0 -0.22035697651E+02 -0.23729772087E+02  0.23185071815E+03  0.23410132328E+03  0.00000000000E+00 0. -1.
         -5    1    5    5    0  502  0.10034435524E+02  0.41474572074E+02  0.19076439030E+03  0.19553509309E+03  0.47000000000E+01 0.  1.
         13    1    6    6    0    0  0.14654756723E+02 -0.50993516831E+00  0.36055886141E+03  0.36085691690E+03  0.00000000000E+00 0. -1.
        -14    1    6    6    0    0  0.48973507350E+02 -0.11814708698E+03  0.96670638355E+03  0.97512992497E+03  0.00000000000E+00 0.  1.
</event>
<event>
12    1  0.1040325E-001  0.2800615E+03  0.7818608E-02  0.1095663E+00
         21   -1    0    0  503  502  0.00000000000E+00  0.00000000000E+00  0.55364358275E+03  0.55364358275E+03  0.00000000000E+00 0.  1.
         21   -1    0    0  501  503 -0.00000000000E+00 -0.00000000000E+00 -0.24657318618E+03  0.24657318618E+03  0.00000000000E+00 0.  1.
          6    2    1    2  501    0 -0.15434888251E+03 -0.15911020214E+03 -0.10748343206E+03  0.29992755762E+03  0.17106787452E+03 0.  0.
         24    2    3    3    0    0 -0.18194512323E+02 -0.95352580634E+02 -0.74185091495E+02  0.14586939878E+03  0.79695036149E+02 0.  0.
         -6    2    1    2    0  502  0.15434888251E+03  0.15911020214E+03  0.41455382863E+03  0.50028921131E+03  0.17115719140E+03 0.  0.
        -24    2    5    5    0    0  0.75566272662E+02  0.13704822346E+02  0.12370752895E+03  0.16568035888E+03  0.79046472920E+02 0.  0.
          5    1    3    3  501    0 -0.13615437019E+03 -0.63757621506E+02 -0.33298340568E+02  0.15405815884E+03  0.47000000000E+01 0. -1.
        -13    1    4    4    0    0 -0.30663462434E+02 -0.98084903087E+02 -0.81496831452E+02  0.13115879566E+03  0.00000000000E+00 0.  1.
         14    1    4    4    0    0  0.12468950111E+02  0.27323224529E+01  0.73117399565E+01  0.14710603117E+02  0.00000000000E+00 0. -1.
         -5    1    5    5    0  502  0.78782609850E+02  0.14540537979E+03  0.29084629968E+03  0.33460885243E+03  0.47000000000E+01 0.  1.
         11    1    6    6    0    0  0.18994429698E+02  0.40728781641E+02  0.34550101970E+02  0.56686255473E+02  0.00000000000E+00 0. -1.
        -12    1    6    6    0    0  0.56571842964E+02 -0.27023959295E+02  0.89157426981E+02  0.10899410341E+03  0.00000000000E+00 0.  1.
</event>
<event>
12    1  0.1040325E-001  0.1980143E+03  0.7818608E-02  0.1152500E+00
         21   -1    0    0  501  502  0.00000000000E+00  0.00000000000E+00  0.97659466981E+02  0.97659466981E+02  0.00000000000E+00 0.  1.
         21   -1    0    0  502  503 -0.00000000000E+00 -0.00000000000E+00 -0.39578494574E+03  0.39578494574E+03  0.00000000000E+00 0.  1.
         -6    2    1    2    0  503 -0.87776797579E+02 -0.78868141967E+01 -0.12525404683E+03  0.23430375344E+03  0.17732090852E+03 0.  0.
        -24    2    3    3    0    0 -0.96091654919E+02 -0.62701118136E+02 -0.10449990755E+03  0.17491883056E+03  0.80692814089E+02 0.  0.
          6    2    1    2  501    0  0.87776797579E+02  0.78868141967E+01 -0.17287143193E+03  0.25914065928E+03  0.17176257241E+03 0.  0.
         24    2    5    5    0    0 -0.15660033066E+02  0.20416809804E+02 -0.10466656211E+03  0.13452054457E+03  0.80489781508E+02 0.  0.
          5    1    5    5  501    0  0.10343683065E+03 -0.12529995607E+02 -0.68204869814E+02  0.12462011471E+03  0.47000000000E+01 0. -1.
        -11    1    6    6    0    0 -0.50872268484E+01 -0.30143218649E+02 -0.24601760573E+02  0.39239522561E+02  0.00000000000E+00 0.  1.
         12    1    6    6    0    0 -0.10572806218E+02  0.50560028453E+02 -0.80064801542E+02  0.95281022005E+02  0.00000000000E+00 0. -1.
         -5    1    3    3    0  503  0.83148573399E+01  0.54814303939E+02 -0.20754139281E+02  0.59384922886E+02  0.47000000000E+01 0.  1.
         11    1    4    4    0    0 -0.10048002346E+03 -0.58886655621E+02 -0.61838643386E+02  0.13186315308E+03  0.00000000000E+00 0. -1.
        -12    1    4    4    0    0  0.43883685452E+01 -0.38144625149E+01 -0.42661264162E+02  0.43055677473E+02  0.00000000000E+00 0.  1.
</event>
<event>
12    1  0.1040325E-001  0.2186015E+03  0.7818608E-02  0.1136120E+00
         21   -1    0    0  501  502  0.00000000000E+00  0.00000000000E+00  0.30440099021E+03  0.30440099021E+03  0.00000000000E+00 0. -1.
         21   -1    0    0  502  503 -0.00000000000E+00 -0.00000000000E+00 -0.17967489723E+03  0.17967489723E+03  0.00000000000E+00 0. -1.
         -6    2    1    2    0  503  0.12479144717E+03 -0.12276363960E+02 -0.32454681471E+02  0.21483171197E+03  0.17139353465E+03 0.  0.
        -24    2    3    3    0    0  0.87556933057E+02  0.11013208723E+01 -0.87144419699E+02  0.14716762282E+03  0.79979559193E+02 0.  0.
          6    2    1    2  501    0 -0.12479144717E+03  0.12276363960E+02  0.15718077445E+03  0.26924417547E+03  0.17906148600E+03 0.  0.
         24    2    5    5    0    0  0.61902661781E+01 -0.22003189850E+02  0.49929136390E+02  0.96454416203E+02  0.79297389525E+02 0.  0.
          5    1    5    5  501    0 -0.13098171335E+03  0.34279553810E+02  0.10725163806E+03  0.17278975927E+03  0.47000000000E+01 0. -1.
        -13    1    6    6    0    0  0.26492490667E+02  0.19070419978E+02  0.64155887264E+01  0.33266992028E+02  0.00000000000E+00 0.  1.
         14    1    6    6    0    0 -0.20302224489E+02 -0.41073609828E+02  0.43513547664E+02  0.63187424174E+02  0.00000000000E+00 0. -1.
         -5    1    3    3    0  503  0.37234514117E+02 -0.13377684832E+02  0.54689738229E+02  0.67664089150E+02  0.47000000000E+01 0.  1.
         13    1    4    4    0    0  0.48993380984E+00  0.24271482205E+02 -0.36429978891E+02  0.43777714029E+02  0.00000000000E+00 0. -1.
        -14    1    4    4    0    0  0.87066999247E+02 -0.23170161333E+02 -0.50714440808E+02  0.10338990879E+03  0.00000000000E+00 0.  1.
</event>
<event>
12    1  0.1040325E-001  0.2885632E+03  0.7818608E-02  0.1091252E+00
         21   -1    0    0  503  502  0.00000000000E+00  0.00000000000E+00  0.13792313238E+04  0.13792313238E+04  0.00000000000E+00 0. -1.
         21   -1    0    0  501  503 -0.00000000000E+00 -0.00000000000E+00 -0.89604067409E+02  0.89604067409E+02  0.00000000000E+00 0.  1.
          6    2    1    2  501    0  0.18725677771E+03  0.13419631563E+03  0.22449224880E+03  0.36560293272E+03  0.17376703575E+03 0.  0.
         24    2    3    3    0    0  0.19185191584E+03  0.97065385610E+02  0.11349626935E+03  0.24837657599E+03  0.50800331169E+02 0.  0.
         -6    2    1    2    0  502 -0.18725677771E+03 -0.13419631563E+03  0.10651350076E+04  0.11032324585E+04  0.17185901530E+03 0.  0.
        -24    2    5    5    0    0 -0.20251455078E+03 -0.89087406976E+02  0.97304730489E+03  0.99945457901E+03  0.56032924212E+02 0.  0.
          5    1    3    3  501    0 -0.45951381283E+01  0.37130930024E+02  0.11099597945E+03  0.11722635673E+03  0.47000000000E+01 0. -1.
        -11    1    4    4    0    0  0.18852542417E+03  0.96988267544E+02  0.11810843520E+03  0.24268943542E+03  0.00000000000E+00 0.  1.
         12    1    4    4    0    0  0.33264916702E+01  0.77118065886E-01 -0.46121658462E+01  0.56871405663E+01  0.00000000000E+00 0. -1.
         -5    1    5    5    0  502  0.15257773072E+02 -0.45108908657E+02  0.92087702673E+02  0.10377787945E+03  0.47000000000E+01 0.  1.
         11    1    6    6    0    0 -0.49981052689E+02 -0.21038184843E+02  0.36001033822E+03  0.36407163371E+03  0.00000000000E+00 0. -1.
        -12    1    6    6    0    0 -0.15253349809E+03 -0.68049222133E+02  0.61303696666E+03  0.63538294529E+03  0.00000000000E+00 0.  1.
</event>
<event>
12    1  0.1040325E-001  0.1810219E+03  0.7818608E-02  0.1166996E+00
         21   -1    0    0  503  502  0.00000000000E+00  0.00000000000E+00  0.34935810285E+03  0.34935810285E+03  0.00000000000E+00 0.  1.
         21   -1    0    0  501  503 -0.00000000000E+00 -0.00000000000E+00 -0.16685123194E+03  0.16685123194E+03  0.00000000000E+00 0.  1.
          6    2    1    2  501    0  0.54161172147E+02  0.26398567992E+01 -0.80084692452E+02  0.19726852612E+03  0.17193287068E+03 0.  0.
         24    2    3    3    0    0  0.51579870029E+01 -0.12140123752E+02 -0.11153555074E+03  0.13701069289E+03  0.78471418053E+02 0.  0.
         -6    2    1    2    0  502 -0.54161172147E+02 -0.26398567992E+01  0.26259156336E+03  0.31894080866E+03  0.17270931901E+03 0.  0.
        -24    2    5    5    0    0 -0.16937383847E+02 -0.48210259568E+02  0.97579355553E+02  0.14368844563E+03  0.92268817475E+02 0.  0.
          5    1    3    3  501    0  0.49003185144E+02  0.14779980552E+02  0.31450858289E+02  0.60257833238E+02  0.47000000000E+01 0. -1.
        -13    1    4    4    0    0  0.33004585528E+02  0.18095547220E+02 -0.43520091285E+02  0.57539115743E+02  0.00000000000E+00 0.  1.
         14    1    4    4    0    0 -0.27846598525E+02 -0.30235670972E+02 -0.68015459457E+02  0.79471577143E+02  0.00000000000E+00 0. -1.
         -5    1    5    5    0  502 -0.37223788300E+02  0.45570402769E+02  0.16501220781E+03  0.17525236303E+03  0.47000000000E+01 0.  1.
         13    1    6    6    0    0 -0.48251766450E+01  0.19291300582E+02 -0.48051948941E+01  0.20457920368E+02  0.00000000000E+00 0. -1.
        -14    1    6    6    0    0 -0.12112207202E+02 -0.67501560150E+02  0.10238455045E+03  0.12323052526E+03  0.00000000000E+00 0.  1.
</event>
<event>
12    1  0.1040325E-001  0.1863308E+03  0.7818608E-02  0.1161819E+00
         21   -1    0    0  501  502  0.00000000000E+00  0.00000000000E+00  0.92732243632E+03  0.92732243632E+03  0.00000000000E+00 0.  1.
         21   -1    0    0  502  503 -0.00000000000E+00 -0.00000000000E+00 -0.60743260836E+02  0.60743260836E+02  0.00000000000E+00 0.  1.
         -6    2    1    2    0  503 -0.45207690052E+02  0.57271506391E+02  0.12728001311E+03  0.22565321498E+03  0.17145089971E+03 0.  0.
        -24    2    3    3    0    0  0.32167335887E+02  0.97513614962E+01  0.49407156044E+02  0.10593967908E+03  0.87477551332E+02 0.  0.
          6    2    1    2  501    0  0.45207690052E+02 -0.57271506391E+02  0.73929916238E+03  0.76241248218E+03  0.17142281295E+03 0.  0.
         24    2    5    5    0    0  0.93265134911E+02 -0.56284185881E+02  0.54562282250E+03  0.56280509896E+03  0.84729097750E+02 0.  0.
          5    1    5    5  501    0 -0.48057444859E+02 -0.98732050999E+00  0.19367633987E+03  0.19960738322E+03  0.47000000000E+01 0. -1.
        -11    1    6    6    0    0  0.23124640726E+02  0.18226427215E+02  0.20621935475E+03  0.20831076288E+03  0.00000000000E+00 0.  1.
         12    1    6    6    0    0  0.70140494185E+02 -0.74510613096E+02  0.33940346775E+03  0.35449433607E+03  0.00000000000E+00 0. -1.
         -5    1    3    3    0  503 -0.77375025939E+02  0.47520144895E+02  0.77872857062E+02  0.11971353590E+03  0.47000000000E+01 0.  1.
         13    1    4    4    0    0  0.15831734736E+02 -0.23778740599E+02  0.60602468718E+02  0.66997996567E+02  0.00000000000E+00 0. -1.
        -14    1    4    4    0    0  0.16335601151E+02  0.33530102095E+02 -0.11195312673E+02  0.38941682518E+02  0.00000000000E+00 0.  1.
</event>
<event>
12    1  0.1040325E-001  0.2771689E+03  0.7818608E-02  0.1097307E+00
         21   -1    0    0  501  502  0.00000000000E+00  0.00000000000E+00  0.21079038180E+04  0.21079038180E+04  0.00000000000E+00 0.  1.
         21   -1    0    0  502  503 -0.00000000000E+00 -0.00000000000E+00 -0.36517353750E+02  0.36517353750E+02  0.00000000000E+00 0.  1.
         -6    2    1    2    0  503 -0.20219027325E+03 -0.79005718156E+02  0.97227924966E+03  0.10110141253E+04  0.17233633454E+03 0.  0.
        -24    2    3    3    0    0 -0.94668662500E+02 -0.74510884820E+02  0.74991479774E+03  0.76393288407E+03  0.81897618277E+02 0.  0.
          6    2    1    2  501    0  0.20219027325E+03  0.79005718156E+02  0.10991072146E+04  0.11334070464E+04  0.17161600627E+03 0.  0.
         24    2    5    5    0    0  0.46042766230E+02  0.76529237889E+02  0.40720449397E+03  0.42408367750E+03  0.77812627718E+02 0.  0.
          5    1    5    5  501    0  0.15614750702E+03  0.24764802672E+01  0.69190272065E+03  0.70932336895E+03  0.47000000000E+01 0. -1.
        -11    1    6    6    0    0  0.89467096761E+01 -0.12413950458E+02  0.12380982719E+03  0.12475184603E+03  0.00000000000E+00 0.  1.
         12    1    6    6    0    0  0.37096056554E+02  0.88943188347E+02  0.28339466678E+03  0.29933183146E+03  0.00000000000E+00 0. -1.
         -5    1    3    3    0  503 -0.10752161075E+03 -0.44948333365E+01  0.22236445192E+03  0.24708124126E+03  0.47000000000E+01 0.  1.
         13    1    4    4    0    0  0.66902764138E+01 -0.14087259086E+02  0.24919886683E+02  0.29397473009E+02  0.00000000000E+00 0. -1.
        -14    1    4    4    0    0 -0.10135893891E+03 -0.60423625734E+02  0.72499491105E+03  0.73453541106E+03  0.00000000000E+00 0.  1.
</event>
<event>
12    1  0.1040325E-001  0.2241426E+03  0.7818608E-02  0.1131915E+00
         21   -1    0    0  501  502  0.00000000000E+00  0.00000000000E+00  0.80751263991E+02  0.80751263991E+02  0.00000000000E+00 0. -1.
         21   -1    0    0  502  503 -0.00000000000E+00 -0.00000000000E+00 -0.69128915264E+03  0.69128915264E+03  0.00000000000E+00 0.  1.
         -6    2    1    2    0  503  0.11328630730E+03  0.71548451314E+02 -0.44441683977E+03  0.49774112155E+03  0.17968563743E+03 0.  0.
        -24    2    3    3    0    0  0.10063600323E+03  0.99270874208E+02 -0.43677981992E+03  0.46597672329E+03  0.79846001463E+02 0.  0.
          6    2    1    2  501    0 -0.11328630730E+03 -0.71548451314E+02 -0.16612104887E+03  0.27429929508E+03  0.17231056872E+03 0.  0.
         24    2    5    5    0    0 -0.76336079550E+02 -0.14366261436E+02 -0.17227457326E+03  0.20577865561E+03  0.81441635579E+02 0.  0.
          5    1    5    5  501    0 -0.36950227754E+02 -0.57182189879E+02  0.61535243859E+01  0.68520639465E+02  0.47000000000E+01 0. -1.
        -11    1    6    6    0    0 -0.76349263212E+02  0.18873235407E+02 -0.11052297262E+03  0.13564931435E+03  0.00000000000E+00 0.  1.
         12    1    6    6    0    0  0.13183661127E-01 -0.33239496843E+02 -0.61751600640E+02  0.70129341261E+02  0.00000000000E+00 0. -1.
         -5    1    3    3    0  503  0.12650304073E+02 -0.27722422894E+02 -0.76370198505E+01  0.31764398254E+02  0.47000000000E+01 0.  1.
         11    1    4    4    0    0 -0.12539501826E+02  0.12333802142E+01 -0.32122123478E+02  0.34504943842E+02  0.00000000000E+00 0. -1.
        -12    1    4    4    0    0  0.11317550506E+03  0.98037493994E+02 -0.40465769644E+03  0.43147177945E+03  0.00000000000E+00 0.  1.
</event>
<event>
12    1  0.1040325E-001  0.2248616E+03  0.7818608E-02  0.1130390E+00
         21   -1    0    0  503  502  0.00000000000E+00  0.00000000000E+00  0.16636333955E+03  0.16636333955E+03  0.00000000000E+00 0. -1.
         21   -1    0    0  501  503 -0.00000000000E+00 -0.00000000000E+00 -0.31241750167E+03  0.31241750167E+03  0.00000000000E+00 0.  1.
          6    2    1    2  501    0 -0.75831771059E+02  0.12392135361E+03 -0.32273312597E+02  0.22716585296E+03  0.17162691708E+03 0.  0.
         24    2    3    3    0    0 -0.99595637045E+02  0.13566054131E+03 -0.52421101534E+02  0.19354215219E+03  0.79921958200E+02 0.  0.
         -6    2    1    2    0  502  0.75831771059E+02 -0.12392135361E+03 -0.11378084952E+03  0.25161498825E+03  0.17104695617E+03 0.  0.
        -24    2    5    5    0    0  0.48899583477E+02 -0.14760916177E+03 -0.54185029470E+02  0.18189980518E+03  0.77277990426E+02 0.  0.
          5    1    3    3  501    0  0.23763865986E+02 -0.11739187702E+02  0.20147788937E+02  0.33623700771E+02  0.47000000000E+01 0. -1.
        -11    1    4    4    0    0 -0.33057652619E+02  0.10085943745E+03 -0.52588707756E+02  0.11845255043E+03  0.00000000000E+00 0.  1.
         12    1    4    4    0    0 -0.66537984427E+02  0.34801103859E+02  0.16760622131E+00  0.75089601765E+02  0.00000000000E+00 0. -1.
         -5    1    5    5    0  502  0.26932187582E+02  0.23687808163E+02 -0.59595820047E+02  0.69715183071E+02  0.47000000000E+01 0.  1.
         13    1    6    6    0    0  0.66344614090E+02 -0.10114292347E+03 -0.22557041793E+02  0.12304600327E+03  0.00000000000E+00 0. -1.
        -14    1    6    6    0    0 -0.17445030613E+02 -0.46466238300E+02 -0.31627987678E+02  0.58853801911E+02  0.00000000000E+00 0.  1.
</event>
<event>
12    1  0.1040325E-001  0.2329636E+03  0.7818608E-02  0.1124909E+00
         21   -1    0    0  503  502  0.00000000000E+00  0.00000000000E+00  0.58127604412E+03  0.58127604412E+03  0.00000000000E+00 0. -1.
         21   -1    0    0  501  503 -0.00000000000E+00 -0.00000000000E+00 -0.25635287027E+03  0.25635287027E+03  0.00000000000E+00 0.  1.
          6    2    1    2  501    0 -0.12711307038E+03 -0.87446403365E+02 -0.17252473647E+03  0.28833258793E+03  0.17194851103E+03 0.  0.
         24    2    3    3    0    0 -0.65398331198E+02 -0.12122470292E+03 -0.10618089780E+03  0.19151689972E+03  0.80199560480E+02 0.  0.
         -6    2    1    2    0  502  0.12711307038E+03  0.87446403365E+02  0.49744791033E+03  0.54929632647E+03  0.17454920412E+03 0.  0.
        -24    2    5    5    0    0  0.24913851702E+02  0.97282729809E+02  0.35375742561E+03  0.37263144876E+03  0.60210056544E+02 0.  0.
          5    1    3    3  501    0 -0.61714739179E+02  0.33778299553E+02 -0.66343838677E+02  0.96815688207E+02  0.47000000000E+01 0. -1.
        -11    1    4    4    0    0 -0.75805347779E+02 -0.59697108740E+02 -0.57031695399E+02  0.11208394097E+03  0.00000000000E+00 0.  1.
         12    1    4    4    0    0  0.10407016581E+02 -0.61527594177E+02 -0.49149202396E+02  0.79432958749E+02  0.00000000000E+00 0. -1.
         -5    1    5    5    0  502  0.10219921867E+03 -0.98363264446E+01  0.14369048472E+03  0.17666487770E+03  0.47000000000E+01 0.  1.
         13    1    6    6    0    0  0.25266754950E+02  0.69392402964E+01  0.95423030464E+02  0.98955124700E+02  0.00000000000E+00 0. -1.
        -14    1    6    6    0    0 -0.35290324801E+00  0.90343489513E+02  0.25833439515E+03  0.27367632406E+03  0.00000000000E+00 0.  1.
</event>
<event>
12    1  0.1040325E-001  0.2075215E+03  0.7818608E-02  0.1143792E+00
         21   -1    0    0  503  502  0.00000000000E+00  0.00000000000E+00  0.16475633729E+03  0.16475633729E+03  0.00000000000E+00 0. -1.
         21   -1    0    0  501  503 -0.00000000000E+00 -0.00000000000E+00 -0.29556869826E+03  0.29556869826E+03  0.00000000000E+00 0.  1.
          6    2    1    2  501    0 -0.11055189159E+03 -0.28851633226E+02  0.14444236866E+02  0.20802355712E+03  0.17323690965E+03 0.  0.
         24    2    3    3    0    0 -0.13536418656E+03  0.12153260009E+02  0.23177569519E+02  0.15908060716E+03  0.79361672832E+02 0.  0.
         -6    2    1    2    0  502  0.11055189159E+03  0.28851633226E+02 -0.14525659784E+03  0.25230147843E+03  0.17176268317E+03 0.  0.
        -24    2    5    5    0    0  0.84044782450E+02  0.52712488230E+02 -0.31272131636E+02  0.13277526469E+03  0.82517833366E+02 0.  0.
          5    1    3    3  501    0  0.24812294972E+02 -0.41004893235E+02 -0.87333326536E+01  0.48942949954E+02  0.47000000000E+01 0. -1.
        -11    1    4    4    0    0 -0.10253439200E+03 -0.84556804190E+00 -0.18779102791E+02  0.10424332702E+03  0.00000000000E+00 0.  1.
         12    1    4    4    0    0 -0.32829794566E+02  0.12998828051E+02  0.41956672310E+02  0.54837280141E+02  0.00000000000E+00 0. -1.
         -5    1    5    5    0  502  0.26507109138E+02 -0.23860855005E+02 -0.11398446620E+03  0.11952621375E+03  0.47000000000E+01 0.  1.
         11    1    6    6    0    0  0.53502757100E+01  0.40234505098E+02  0.11709270052E+02  0.42243909097E+02  0.00000000000E+00 0. -1.
        -12    1    6    6    0    0  0.78694506740E+02  0.12477983133E+02 -0.42981401688E+02  0.90531355592E+02  0.00000000000E+00 0.  1.
</event>
<event>
12    1  0.1040325E-001  0.1810955E+03  0.7818608E-02  0.1167043E+00
         21   -1    0    0  503  502  0.00000000000E+00  0.00000000000E+00  0.49865698532E+02  0.49865698532E+02  0.00000000000E+00 0.  1.
         21   -1    0    0  501  503 -0.00000000000E+00 -0.00000000000E+00 -0.65513232490E+03  0.65513232490E+03  0.00000000000E+00 0.  1.
          6    2    1    2  501    0  0.36886306228E+02 -0.24459580754E+02 -0.32268731541E+03  0.37003064686E+03  0.17560383084E+03 0.  0.
         24    2    3    3    0    0  0.28097932830E+02 -0.25934879958E+02 -0.60335587201E+02  0.10748554347E+03  0.80315920869E+02 0.  0.
         -6    2    1    2    0  502 -0.36886306228E+02  0.24459580754E+02 -0.28257931095E+03  0.33496737657E+03  0.17433647269E+03 0.  0.
        -24    2    5    5    0    0 -0.23260353759E+02 -0.34993793309E+02 -0.25154752320E+03  0.26637122421E+03  0.76888640450E+02 0.  0.
          5    1    3    3  501    0  0.87883733983E+01  0.14752992045E+01 -0.26235172821E+03  0.26254510338E+03  0.47000000000E+01 0. -1.
        -13    1    4    4    0    0  0.14056495584E+02 -0.97128604325E+00 -0.74297767631E+02  0.75621999046E+02  0.00000000000E+00 0.  1.
         14    1    4    4    0    0  0.14041437246E+02 -0.24963593915E+02  0.13962180430E+02  0.31863544427E+02  0.00000000000E+00 0. -1.
         -5    1    5    5    0  502 -0.13625952469E+02  0.59453374063E+02 -0.31031787752E+02  0.68596152365E+02  0.47000000000E+01 0.  1.
         11    1    6    6    0    0  0.23248686380E+02  0.41808927176E+01 -0.42091370310E+02  0.48266600635E+02  0.00000000000E+00 0. -1.
        -12    1    6    6    0    0 -0.46509040139E+02 -0.39174686027E+02 -0.20945615289E+03  0.21810462357E+03  0.00000000000E+00 0.  1.
</event>
<event>
12    1  0.1040325E-001  0.1812774E+03  0.7818608E-02  0.1166578E+00
         21   -1    0    0  503  502  0.00000000000E+00  0.00000000000E+00  0.53822841918E+03  0.53822841918E+03  0.00000000000E+00 0.  1.
         21   -1    0    0  501  503 -0.00000000000E+00 -0.00000000000E+00 -0.18773059000E+03  0.18773059000E+03  0.00000000000E+00 0. -1.
          6    2    1    2  501    0  0.14891066512E+02  0.56423906864E+02 -0.12292491894E+03  0.21902515878E+03  0.17162774646E+03 0.  0.
         24    2    3    3    0    0 -0.14745263543E+02  0.98406046557E+02 -0.70749510967E+02  0.14564140506E+03  0.79402473328E+02 0.  0.
         -6    2    1    2    0  502 -0.14891066512E+02 -0.56423906864E+02  0.47342274812E+03  0.50693385040E+03  0.17160253237E+03 0.  0.
        -24    2    5    5    0    0 -0.18486740182E+02 -0.86408327575E+02  0.45231752215E+03  0.46979202872E+03  0.91133148557E+02 0.  0.
          5    1    3    3  501    0  0.29636330055E+02 -0.41982139693E+02 -0.52175407974E+02  0.73383753717E+02  0.47000000000E+01 0. -1.
        -11    1    4    4    0    0  0.28640054735E+02  0.69415413506E+02 -0.40160118794E+02  0.85156253493E+02  0.00000000000E+00 0.  1.
         12    1    4    4    0    0 -0.43385318279E+02  0.28990633051E+02 -0.30589392173E+02  0.60485151570E+02  0.00000000000E+00 0. -1.
         -5    1    5    5    0  502  0.35956736708E+01  0.29984420711E+02  0.21105225964E+02  0.37141821677E+02  0.47000000000E+01 0.  1.
         11    1    6    6    0    0 -0.45759664071E+02 -0.17735610846E+02  0.24050904712E+03  0.24546506981E+03  0.00000000000E+00 0. -1.
        -12    1    6    6    0    0  0.27272923888E+02 -0.68672716729E+02  0.21180847503E+03  0.22432695891E+03  0.00000000000E+00 0.  1.
</event>
<event>
12    1  0.1040325E-001  0.2819552E+03  0.7818608E-02  0.1094833E+00
         21   -1    0    0  501  502  0.00000000000E+00  0.00000000000E+00  0.52747602639E+03  0.52747602639E+03  0.00000000000E+00 0. -1.
         21   -1    0    0  502  503 -0.00000000000E+00 -0.00000000000E+00 -0.22959054850E+03  0.22959054850E+03  0.00000000000E+00 0.  1.
         -6    2    1    2    0  503 -0.55326991860E+02 -0.21623538466E+03 -0.74334071346E+02  0.29011249751E+03  0.16976716245E+03 0.  0.
        -24    2    3    3    0    0 -0.80054888136E+02 -0.21860548576E+03 -0.43203937627E+02  0.25000936224E+03  0.80255575893E+02 0.  0.
          6    2    1    2  501    0  0.55326991860E+02  0.21623538466E+03  0.37221954924E+03  0.46695407738E+03  0.17227855333E+03 0.  0.
         24    2    5    5    0    0  0.81046811221E+02  0.22286225079E+03  0.35577358568E+03  0.43536318977E+03  0.82037151942E+02 0.  0.
          5    1    5    5  501    0 -0.25719819361E+02 -0.66268661337E+01  0.16445963557E+02  0.31590887611E+02  0.47000000000E+01 0.  1.
        -13    1    6    6    0    0  0.86849401941E+02  0.12135588731E+03  0.20845650121E+03  0.25636728126E+03  0.00000000000E+00 0.  1.
         14    1    6    6    0    0 -0.58025907203E+01  0.10150636348E+03  0.14731708447E+03  0.17899590851E+03  0.00000000000E+00 0. -1.
         -5    1    3    3    0  503  0.24727896276E+02  0.23701011043E+01 -0.31130133719E+02  0.40103135275E+02  0.47000000000E+01 0.  1.
         11    1    4    4    0    0 -0.20913454644E+02 -0.22078041415E+02  0.18629833847E+02  0.35663471607E+02  0.00000000000E+00 0. -1.
        -12    1    4    4    0    0 -0.59141433492E+02 -0.19652744434E+03 -0.61833771474E+02  0.21434589063E+03  0.00000000000E+00 0.  1.
</event>
<event>
12    1  0.1040325E-001  0.2184873E+03  0.7818608E-02  0.1135093E+00
         21   -1    0    0  503  502  0.00000000000E+00  0.00000000000E+00  0.68570980908E+03  0.68570980908E+03  0.00000000000E+00 0. -1.
         21   -1    0    0  501  503 -0.00000000000E+00 -0.00000000000E+00 -0.73161093680E+02  0.73161093680E+02  0.00000000000E+00 0.  1.
          6    2    1    2  501    0 -0.13568513467E+03 -0.19968717728E+02  0.22095909379E+03  0.31045244308E+03  0.16955410001E+03 0.  0.
         24    2    3    3    0    0 -0.15268242287E+03 -0.42102345529E+02  0.14506526039E+03  0.22945386758E+03  0.80750342541E+02 0.  0.
         -6    2    1    2    0  502  0.13568513467E+03  0.19968717728E+02  0.39158962161E+03  0.44841845968E+03  0.17008079777E+03 0.  0.
        -24    2    5    5    0    0  0.90388635019E+02 -0.47190661024E+02  0.29294900858E+03  0.32069134598E+03  0.81404876576E+02 0.  0.
          5    1    3    3  501    0  0.16997288203E+02  0.22133627801E+02  0.75893833397E+02  0.80998575503E+02  0.47000000000E+01 0. -1.
        -11    1    4    4    0    0 -0.13689368895E+03 -0.37901953658E+02  0.15507241754E+03  0.21029478083E+03  0.00000000000E+00 0.  1.
         12    1    4    4    0    0 -0.15788733925E+02 -0.42003918703E+01 -0.10007157144E+02  0.19159086745E+02  0.00000000000E+00 0. -1.
         -5    1    5    5    0  502  0.45296499650E+02  0.67159378752E+02  0.98640613034E+02  0.12772711370E+03  0.47000000000E+01 0.  1.
         13    1    6    6    0    0 -0.12724974981E+02  0.22262483244E+00  0.11237970325E+02  0.16978413563E+02  0.00000000000E+00 0. -1.
        -14    1    6    6    0    0  0.10311361000E+03 -0.47413285857E+02  0.28171103825E+03  0.30371293242E+03  0.00000000000E+00 0.  1.
</event>
<event>
12    1  0.1040325E-001  0.1769865E+03  0.7818608E-02  0.1171250E+00
         21   -1    0    0  501  502  0.00000000000E+00  0.00000000000E+00  0.92817029627E+03  0.92817029627E+03  0.00000000000E+00 0. -1.
         21   -1    0    0  502  503 -0.00000000000E+00 -0.00000000000E+00 -0.57907100080E+02  0.57907100080E+02  0.00000000000E+00 0.  1.
         -6    2    1    2    0  503 -0.21308738057E+02  0.23872069569E+02  0.11275175354E+03  0.20816491892E+03  0.17203411731E+03 0.  0.
        -24    2    3    3    0    0 -0.41566012474E+02 -0.32569858372E+02  0.11378554932E+03  0.14800507243E+03  0.78548209160E+02 0.  0.
          6    2    1    2  501    0  0.21308738057E+02 -0.23872069569E+02  0.75751144265E+03  0.77791247743E+03  0.17406981007E+03 0.  0.
         24    2    5    5    0    0 -0.24301766809E+02 -0.12616579969E+02  0.18211386896E+03  0.20058114967E+03  0.79483220733E+02 0.  0.
          5    1    5    5  501    0  0.45610504866E+02 -0.11255489600E+02  0.57539757369E+03  0.57733132776E+03  0.47000000000E+01 0. -1.
        -13    1    6    6    0    0 -0.33547157670E+02 -0.38385563709E+02  0.14975721433E+03  0.15819635436E+03  0.00000000000E+00 0.  1.
         14    1    6    6    0    0  0.92453908610E+01  0.25768983740E+02  0.32356654626E+02  0.42384795313E+02  0.00000000000E+00 0. -1.
         -5    1    3    3    0  503  0.20257274417E+02  0.56441927941E+02 -0.10337957774E+01  0.60159846494E+02  0.47000000000E+01 0.  1.
         13    1    4    4    0    0 -0.51470540677E+01 -0.84957208431E+01  0.10241010449E+03  0.10289071358E+03  0.00000000000E+00 0. -1.
        -14    1    4    4    0    0 -0.36418958406E+02 -0.24074137529E+02  0.11375444826E+02  0.45114358847E+02  0.00000000000E+00 0.  1.
</event>
<event>
12    1  0.1040325E-001  0.1841906E+03  0.7818608E-02  0.1165473E+00
         21   -1    0    0  501  502  0.00000000000E+00  0.00000000000E+00  0.50947866485E+02  0.50947866485E+02  0.00000000000E+00 0. -1.
         21   -1    0    0  502  503 -0.00000000000E+00 -0.00000000000E+00 -0.64284504203E+03  0.64284504203E+03  0.00000000000E+00 0.  1.
         -6    2    1    2    0  503  0.64854034846E+02  0.18149504262E+02 -0.30872154336E+03  0.35598435968E+03  0.16395250125E+03 0.  0.
        -24    2    3    3    0    0  0.74323269060E+02  0.34712898298E+02 -0.12079799616E+03  0.16703631918E+03  0.81117460617E+02 0.  0.
          6    2    1    2  501    0 -0.64854034846E+02 -0.18149504262E+02 -0.28317563219E+03  0.33780854883E+03  0.17143723825E+03 0.  0.
         24    2    5    5    0    0 -0.10214856679E+03 -0.45279066968E+02 -0.20430207875E+03  0.24632072059E+03  0.80312106210E+02 0.  0.
          5    1    5    5  501    0  0.37294531947E+02  0.27129562705E+02 -0.78873553437E+02  0.91487828248E+02  0.47000000000E+01 0. -1.
        -11    1    6    6    0    0 -0.73699109015E+02 -0.32824367978E+02 -0.19910882979E+03  0.21483324673E+03  0.00000000000E+00 0.  1.
         12    1    6    6    0    0 -0.28449457778E+02 -0.12454698989E+02 -0.51932489655E+01  0.31487473852E+02  0.00000000000E+00 0. -1.
         -5    1    3    3    0  503 -0.94692342148E+01 -0.16563394036E+02 -0.18792354720E+03  0.18894804051E+03  0.47000000000E+01 0.  1.
         13    1    4    4    0    0  0.79062774504E+02  0.53240917583E+02 -0.10788352570E+03  0.14395962189E+03  0.00000000000E+00 0. -1.
        -14    1    4    4    0    0 -0.47395054432E+01 -0.18528019285E+02 -0.12914470452E+02  0.23076697284E+02  0.00000000000E+00 0.  1.
</event>
<event>
12    1  0.1040325E-001  0.3739974E+03  0.7818608E-02  0.1053240E+00
         21   -1    0    0  501  502  0.00000000000E+00  0.00000000000E+00  0.35093566518E+03  0.35093566518E+03  0.00000000000E+00 0. -1.
         21   -1    0    0  502  503 -0.00000000000E+00 -0.00000000000E+00 -0.11450224856E+04  0.11450224856E+04  0.00000000000E+00 0.  1.
         -6    2    1    2    0  503 -0.33050263838E+03 -0.29287466899E+02 -0.10013919598E+04  0.10689527160E+04  0.17258129185E+03 0.  0.
        -24    2    3    3    0    0 -0.11003119193E+03  0.28210311865E+02 -0.48693368439E+03  0.50627780067E+03  0.79436223209E+02 0.  0.
          6    2    1    2  501    0  0.33050263838E+03  0.29287466899E+02  0.20730513940E+03  0.42700543471E+03  0.17108030500E+03 0.  0.
         24    2    5    5    0    0  0.63941320063E+02  0.29950858449E+02  0.64746766513E+02  0.12468051647E+03  0.79796873874E+02 0.  0.
          5    1    5    5  501    0  0.26656131831E+03 -0.66339154959E+00  0.14255837288E+03  0.30232491824E+03  0.47000000000E+01 0. -1.
        -11    1    6    6    0    0  0.48209002840E+02 -0.14367246019E+02  0.79294328066E+01  0.50925451570E+02  0.00000000000E+00 0.  1.
         12    1    6    6    0    0  0.15732317223E+02  0.44318104468E+02  0.56817333706E+02  0.73755064900E+02  0.00000000000E+00 0. -1.
         -5    1    3    3    0  503 -0.22047144645E+03 -0.57497778765E+02 -0.51445827540E+03  0.56267491537E+03  0.47000000000E+01 0.  1.
         11    1    4    4    0    0 -0.25445556206E+00 -0.20955170678E+00  0.31902009118E+01  0.32071859018E+01  0.00000000000E+00 0. -1.
        -12    1    4    4    0    0 -0.10977673637E+03  0.28419863572E+02 -0.49012388531E+03  0.50307061476E+03  0.00000000000E+00 0.  1.
</event>
<event>
12    1  0.1040325E-001  0.2307252E+03  0.7818608E-02  0.1126245E+00
         21   -1    0    0  503  502  0.00000000000E+00  0.00000000000E+00  0.91927038058E+03  0.91927038058E+03  0.00000000000E+00 0.  1.
         21   -1    0    0  501  503 -0.00000000000E+00 -0.00000000000E+00 -0.73113026540E+02  0.73113026540E+02  0.00000000000E+00 0.  1.
          6    2    1    2  501    0  0.14115852398E+03  0.61173367751E+02  0.19606610320E+03  0.30278052096E+03  0.17194829814E+03 0.  0.
         24    2    3    3    0    0  0.87159325649E+02 -0.24737165023E+02  0.65039508008E+02  0.13698971388E+03  0.79544759268E+02 0.  0.
         -6    2    1    2    0  502 -0.14115852398E+03 -0.61173367751E+02  0.65009125084E+03  0.68960288617E+03  0.17107190411E+03 0.  0.
        -24    2    5    5    0    0 -0.51013647457E+02 -0.56721973452E+02  0.18100340318E+03  0.21188810463E+03  0.79464221023E+02 0.  0.
          5    1    3    3  501    0  0.53999198328E+02  0.85910532774E+02  0.13102659519E+03  0.16579080707E+03  0.47000000000E+01 0. -1.
        -11    1    4    4    0    0  0.67949836160E+02  0.19563506896E+02  0.27666238714E+02  0.75929782042E+02  0.00000000000E+00 0.  1.
         12    1    4    4    0    0  0.19209489489E+02 -0.44300671919E+02  0.37373269294E+02  0.61059931842E+02  0.00000000000E+00 0. -1.
         -5    1    5    5    0  502 -0.90144876520E+02 -0.44513942986E+01  0.46908784766E+03  0.47771478154E+03  0.47000000000E+01 0.  1.
         13    1    6    6    0    0  0.21257288713E+02 -0.92669407902E+01  0.30440910477E+02  0.38267447598E+02  0.00000000000E+00 0. -1.
        -14    1    6    6    0    0 -0.72270936170E+02 -0.47455032662E+02  0.15056249270E+03  0.17362065703E+03  0.00000000000E+00 0.  1.
</event>
<event>
12    1  0.1040325E-001  0.1733764E+03  0.7818608E-02  0.1175336E+00
         21   -1    0    0  501  502  0.00000000000E+00  0.00000000000E+00  0.41212971110E+03  0.41212971110E+03  0.00000000000E+00 0. -1.
         21   -1    0    0  502  503 -0.00000000000E+00 -0.00000000000E+00 -0.22161048481E+03  0.22161048481E+03  0.00000000000E+00 0. -1.
         -6    2    1    2    0  503  0.17745392821E+02 -0.21985017082E+02 -0.16530564102E+03  0.23955233811E+03  0.17105884308E+03 0.  0.
        -24    2    3    3    0    0  0.72167975337E+02 -0.53355354254E+01 -0.14214997679E+03  0.17793012204E+03  0.78840521465E+02 0.  0.
          6    2    1    2  501    0 -0.17745392821E+02  0.21985017082E+02  0.35582486731E+03  0.39418785781E+03  0.16725576553E+03 0.  0.
         24    2    5    5    0    0 -0.57762413939E+02  0.36907523832E+02  0.14895485927E+03  0.18290289995E+03  0.81038626175E+02 0.  0.
          5    1    5    5  501    0  0.40017021118E+02 -0.14922506750E+02  0.20687000805E+03  0.21128495785E+03  0.47000000000E+01 0. -1.
        -13    1    6    6    0    0 -0.40601059291E+02  0.65102957333E+01  0.14130645274E+03  0.14716773951E+03  0.00000000000E+00 0.  1.
         14    1    6    6    0    0 -0.17161354648E+02  0.30397228099E+02  0.76484065242E+01  0.35735160442E+02  0.00000000000E+00 0. -1.
         -5    1    3    3    0  503 -0.54422582516E+02 -0.16649481656E+02 -0.23155664235E+02  0.61622216069E+02  0.47000000000E+01 0.  1.
         11    1    4    4    0    0  0.52759198430E+02 -0.40727838300E+02 -0.88137285627E+02  0.11050099977E+03  0.00000000000E+00 0. -1.
        -12    1    4    4    0    0  0.19408776907E+02  0.35392302875E+02 -0.54012691160E+02  0.67429122271E+02  0.00000000000E+00 0.  1.
</event>
<event>
12    1  0.1040325E-001  0.2284286E+03  0.7818608E-02  0.1128224E+00
         21   -1    0    0  501  502  0.00000000000E+00  0.00000000000E+00  0.62178900825E+02  0.62178900825E+02  0.00000000000E+00 0. -1.
         21   -1    0    0  502  503 -0.00000000000E+00 -0.00000000000E+00 -0.83644154654E+03  0.83644154654E+03  0.00000000000E+00 0. -1.
         -6    2    1    2    0  503  0.53463239273E+02  0.13437594536E+03 -0.34388410533E+03  0.41137786639E+03  0.17337894455E+03 0.  0.
        -24    2    3    3    0    0  0.10147803549E+03  0.12052249957E+03 -0.25856391945E+03  0.31238815614E+03  0.76860881249E+02 0.  0.
          6    2    1    2  501    0 -0.53463239273E+02 -0.13437594536E+03 -0.43037854039E+03  0.48724258098E+03  0.17681751058E+03 0.  0.
         24    2    5    5    0    0  0.20140997518E+01 -0.68128897823E+02 -0.96903384086E+02  0.14272236920E+03  0.79585209095E+02 0.  0.
          5    1    5    5  501    0 -0.55477339025E+02 -0.66247047534E+02 -0.33347515630E+03  0.34452021177E+03  0.47000000000E+01 0. -1.
        -11    1    6    6    0    0 -0.33898207816E+02 -0.29832081472E+02 -0.19482977848E+02  0.49179548634E+02  0.00000000000E+00 0.  1.
         12    1    6    6    0    0  0.35912307568E+02 -0.38296816352E+02 -0.77420406238E+02  0.93542820567E+02  0.00000000000E+00 0. -1.
         -5    1    3    3    0  503 -0.48014796222E+02  0.13853445792E+02 -0.85320185885E+02  0.98989710253E+02  0.47000000000E+01 0.  1.
         11    1    4    4    0    0  0.37222078021E+02  0.98789877246E+02 -0.17921658487E+03  0.20799881546E+03  0.00000000000E+00 0. -1.
        -12    1    4    4    0    0  0.64255957473E+02  0.21732622319E+02 -0.79347334578E+02  0.10438934068E+03  0.00000000000E+00 0.  1.
</event>
<event>
12    1  0.1040325E-001  0.1988853E+03  0.7818608E-02  0.1150916E+00
         21   -1    0    0  501  502  0.00000000000E+00  0.00000000000E+00  0.46205097902E+02  0.46205097902E+02  0.00000000000E+00 0. -1.
         21   -1    0    0  502  503 -0.00000000000E+00 -0.00000000000E+00 -0.10257688392E+04  0.10257688392E+04  0.00000000000E+00 0. -1.
         -6    2    1    2    0  503 -0.95498243901E+02  0.35961192675E+01 -0.71189908657E+03  0.73915876530E+03  0.17442053837E+03 0.  0.
        -24    2    3    3    0    0  0.51153394081E+01  0.36930990045E+02 -0.35593818646E+03  0.36772295771E+03  0.84487373753E+02 0.  0.
          6    2    1    2  501    0  0.95498243901E+02 -0.35961192675E+01 -0.26766465468E+03  0.33281517175E+03  0.17317252819E+03 0.  0.
         24    2    5    5    0    0  0.75673052896E+01 -0.16273100321E+01 -0.21586514685E+03  0.23063393479E+03  0.80835252244E+02 0.  0.
          5    1    5    5  501    0  0.87930938612E+02 -0.19688092354E+01 -0.51799507830E+02  0.10218123696E+03  0.47000000000E+01 0. -1.
        -13    1    6    6    0    0  0.89216238445E+01 -0.27512017806E+02 -0.25640735309E+02  0.38651698578E+02  0.00000000000E+00 0.  1.
         14    1    6    6    0    0 -0.13543185548E+01  0.25884707774E+02 -0.19022441154E+03  0.19198223621E+03  0.00000000000E+00 0. -1.
         -5    1    3    3    0  503 -0.10061358331E+03 -0.33334870777E+02 -0.35596090011E+03  0.37143580759E+03  0.47000000000E+01 0.  1.
         13    1    4    4    0    0 -0.15380158460E+02  0.59559558666E+02 -0.25152825598E+03  0.25894083081E+03  0.00000000000E+00 0. -1.
        -14    1    4    4    0    0  0.20495497868E+02 -0.22628568621E+02 -0.10440993048E+03  0.10878212690E+03  0.00000000000E+00 0.  1.
</event>
<event>
12    1  0.1040325E-001  0.2657668E+03  0.7818608E-02  0.1103932E+00
         21   -1    0    0  501  502  0.00000000000E+00  0.00000000000E+00  0.28915140037E+03  0.28915140037E+03  0.00000000000E+00 0. -1.
         21   -1    0    0  502  503 -0.00000000000E+00 -0.00000000000E+00 -0.42542989363E+03  0.42542989363E+03  0.00000000000E+00 0. -1.
         -6    2    1    2    0  503  0.85573268675E+02  0.18321428093E+03 -0.30201038006E+03  0.40137358000E+03  0.17029452137E+03 0.  0.
        -24    2    3    3    0    0  0.81386963087E+02  0.20536185075E+03 -0.29646177016E+03  0.37768989204E+03  0.77218818168E+02 0.  0.
          6    2    1    2  501    0 -0.85573268675E+02 -0.18321428093E+03  0.16573188680E+03  0.31320771400E+03  0.17245798549E+03 0.  0.
         24    2    5    5    0    0 -0.67590114187E+02 -0.33027746518E+02  0.45168347802E+02  0.11972116176E+03  0.81447660207E+02 0.  0.
          5    1    5    5  501    0 -0.17983154487E+02 -0.15018653441E+03  0.12056353900E+03  0.19348655225E+03  0.47000000000E+01 0. -1.
        -11    1    6    6    0    0 -0.30269495507E+02 -0.18724723813E+01 -0.21524821236E+02  0.37189601239E+02  0.00000000000E+00 0.  1.
         12    1    6    6    0    0 -0.37320618681E+02 -0.31155274137E+02  0.66693169038E+02  0.82531560518E+02  0.00000000000E+00 0. -1.
         -5    1    3    3    0  503  0.41863055876E+01 -0.22147569821E+02 -0.55486099006E+01  0.23683687958E+02  0.47000000000E+01 0.  1.
         11    1    4    4    0    0  0.18830610833E+02  0.53024340889E+02 -0.13851385450E+03  0.14950672400E+03  0.00000000000E+00 0. -1.
        -12    1    4    4    0    0  0.62556352254E+02  0.15233750986E+03 -0.15794791566E+03  0.22818316804E+03  0.00000000000E+00 0.  1.
</event>
<event>
12    1  0.1040325E-001  0.1869153E+03  0.7818608E-02  0.1161461E+00
         21   -1    0    0  501  502  0.00000000000E+00  0.00000000000E+00  0.10328197316E+04  0.10328197316E+04  0.00000000000E+00 0.  1.
         21   -1    0    0  502  503 -0.00000000000E+00 -0.00000000000E+00 -0.34732895542E+02  0.34732895542E+02  0.00000000000E+00 0.  1.
         -6    2    1    2    0  503 -0.69934963389E+02 -0.10803383576E+01  0.59091631822E+03  0.61952902471E+03  0.17245883882E+03 0.  0.
        -24    2    3    3    0    0  0.18643886991E+02  0.34544394163E+02  0.25134064874E+03  0.26675564192E+03  0.80284127318E+02 0.  0.
          6    2    1    2  501    0  0.69934963389E+02  0.10803383576E+01  0.40717051781E+03  0.44802360240E+03  0.17333566136E+03 0.  0.
         24    2    5    5    0    0  0.10318931304E+03 -0.58643348887E+01  0.38667272280E+03  0.40806950552E+03  0.79514162437E+02 0.  0.
          5    1    5    5  501    0 -0.33254349651E+02  0.69446732464E+01  0.20497795010E+02  0.39954096880E+02  0.47000000000E+01 0. -1.
        -11    1    6    6    0    0  0.43840379072E+02  0.31294709536E+02  0.23378062529E+03  0.23990564488E+03  0.00000000000E+00 0.  1.
         12    1    6    6    0    0  0.59348933968E+02 -0.37159044425E+02  0.15289209751E+03  0.16816386064E+03  0.00000000000E+00 0. -1.
         -5    1    3    3    0  503 -0.88578850379E+02 -0.35624732521E+02  0.33957566948E+03  0.35277338279E+03  0.47000000000E+01 0.  1.
         13    1    4    4    0    0  0.36572872032E+02  0.12753628607E+00  0.19464217411E+03  0.19804839605E+03  0.00000000000E+00 0. -1.
        -14    1    4    4    0    0 -0.17928985042E+02  0.34416857877E+02  0.56698474627E+02  0.68707245875E+02  0.00000000000E+00 0.  1.
</event>
<event>
12    1  0.1040325E-001  0.1827445E+03  0.7818608E-02  0.1165594E+00
         21   -1    0    0  501  502  0.00000000000E+00  0.00000000000E+00  0.49701931693E+02  0.49701931693E+02  0.00000000000E+00 0.  1.
         21   -1    0    0  502  503 -0.00000000000E+00 -0.00000000000E+00 -0.10417011197E+04  0.10417011197E+04  0.00000000000E+00 0.  1.
         -6    2    1    2    0  503 -0.36029571567E+02 -0.48513004922E+02 -0.82242496709E+03  0.84210209148E+03  0.17059151296E+03 0.  0.
        -24    2    3    3    0    0  0.21089876067E+02  0.12022538378E+02 -0.57860583088E+03  0.58442585182E+03  0.78610078501E+02 0.  0.
          6    2    1    2  501    0  0.36029571567E+02  0.48513004922E+02 -0.16957422091E+03  0.24930095991E+03  0.17246422975E+03 0.  0.
         24    2    5    5    0    0 -0.62717240168E+01  0.12921175910E+02 -0.53979605082E+01  0.76003203494E+02  0.74438280842E+02 0.  0.
          5    1    5    5  501    0  0.42301295583E+02  0.35591829011E+02 -0.16417626040E+03  0.17329775642E+03  0.47000000000E+01 0. -1.
        -11    1    6    6    0    0  0.96928802147E+01  0.41744547555E+02 -0.35596381473E+01  0.43002676675E+02  0.00000000000E+00 0.  1.
         12    1    6    6    0    0 -0.15964604232E+02 -0.28823371645E+02 -0.18383223609E+01  0.33000526819E+02  0.00000000000E+00 0. -1.
         -5    1    3    3    0  503 -0.57119447634E+02 -0.60535543299E+02 -0.24381913621E+03  0.25767623965E+03  0.47000000000E+01 0.  1.
         11    1    4    4    0    0  0.18765911132E+02 -0.20654354500E+02 -0.79676446591E+02  0.84422141182E+02  0.00000000000E+00 0. -1.
        -12    1    4    4    0    0  0.23239649351E+01  0.32676892878E+02 -0.49892938429E+03  0.50000371064E+03  0.00000000000E+00 0.  1.
</event>
<event>
12    1  0.1040325E-001  0.1876390E+03  0.7818608E-02  0.1160928E+00
         21   -1    0    0  503  502  0.00000000000E+00  0.00000000000E+00  0.20193207788E+03  0.20193207788E+03  0.00000000000E+00 0. -1.
         21   -1    0    0  501  503 -0.00000000000E+00 -0.00000000000E+00 -0.20302594823E+03  0.20302594823E+03  0.00000000000E+00 0. -1.
          6    2    1    2  501    0 -0.50620852295E+02  0.55936303824E+02 -0.78323959391E+02  0.20332989327E+03  0.17180530291E+03 0.  0.
         24    2    3    3    0    0  0.10083550154E+02 -0.27357917167E+02 -0.40288519927E+02  0.93367461580E+02  0.79020152041E+02 0.  0.
         -6    2    1    2    0  502  0.50620852295E+02 -0.55936303824E+02  0.77230089045E+02  0.20162813285E+03  0.17028821606E+03 0.  0.
        -24    2    5    5    0    0  0.76058537899E+02 -0.76000450724E+02  0.19388611078E+02  0.13516481655E+03  0.79577884467E+02 0.  0.
          5    1    3    3  501    0 -0.60704402449E+02  0.83294220991E+02 -0.38035439464E+02  0.10996243169E+03  0.47000000000E+01 0. -1.
        -11    1    4    4    0    0  0.11562853584E+02  0.19598159619E+02  0.97282170753E+01  0.24747235217E+02  0.00000000000E+00 0.  1.
         12    1    4    4    0    0 -0.14793034301E+01 -0.46956076785E+02 -0.50016737002E+02  0.68620226363E+02  0.00000000000E+00 0. -1.
         -5    1    5    5    0  502 -0.25437685604E+02  0.20064146900E+02  0.57841477967E+02  0.66463316296E+02  0.47000000000E+01 0.  1.
         13    1    6    6    0    0  0.14316839250E+02  0.35760769578E+01  0.30452203752E+02  0.33839280812E+02  0.00000000000E+00 0. -1.
        -14    1    6    6    0    0  0.61741698649E+02 -0.79576527681E+02 -0.11063592674E+02  0.10132553574E+03  0.00000000000E+00 0.  1.
</event>
<event>
12    1  0.1040325E-001  0.1852331E+03  0.7818608E-02  0.1163745E+00
         21   -1    0    0  501  502  0.00000000000E+00  0.00000000000E+00  0.46685516996E+03  0.46685516996E+03  0.00000000000E+00 0. -1.
         21   -1    0    0  502  503 -0.00000000000E+00 -0.00000000000E+00 -0.13561325524E+03  0.13561325524E+03  0.00000000000E+00 0. -1.
         -6    2    1    2    0  503  0.40984693136E+02  0.51440587498E+02 -0.39811676817E+02  0.18946307772E+03  0.17316295532E+03 0.  0.
        -24    2    3    3    0    0  0.44120951680E+01  0.98872383708E+02 -0.28362710624E+02  0.12830345836E+03  0.76564477596E+02 0.  0.
          6    2    1    2  501    0 -0.40984693136E+02 -0.51440587498E+02  0.37105359154E+03  0.41300534748E+03  0.16901707056E+03 0.  0.
         24    2    5    5    0    0 -0.12218548578E+01 -0.93261998205E+02  0.23894330286E+03  0.26876481200E+03  0.80257890252E+02 0.  0.
          5    1    5    5  501    0 -0.39762838279E+02  0.41821410707E+02  0.13211028868E+03  0.14424053548E+03  0.47000000000E+01 0. -1.
        -13    1    6    6    0    0  0.53793375025E+01 -0.33085939174E+02  0.14892556364E+02  0.36679761150E+02  0.00000000000E+00 0.  1.
         14    1    6    6    0    0 -0.66011923603E+01 -0.60176059031E+02  0.22405074649E+03  0.23208505084E+03  0.00000000000E+00 0. -1.
         -5    1    3    3    0  503  0.36572597968E+02 -0.47431796210E+02 -0.11448966193E+02  0.61159619364E+02  0.47000000000E+01 0.  1.
         11    1    4    4    0    0  0.20887464986E+02  0.82359288132E+02 -0.48196895895E+02  0.97684590950E+02  0.00000000000E+00 0. -1.
        -12    1    4    4    0    0 -0.16475369818E+02  0.16513095576E+02  0.19834185271E+02  0.30618867411E+02  0.00000000000E+00 0.  1.
</event>
