<event>
12    1  0.8798177E-003  0.2027164E+03  0.7818608E-02  0.1147536E+00
         21   -1    0    0  501  502  0.00000000000E+00  0.00000000000E+00  0.17210044009E+03  0.17210044009E+03  0.00000000000E+00 0.  1.
         21   -1    0    0  502  503 -0.00000000000E+00 -0.00000000000E+00 -0.31461397661E+03  0.31461397661E+03  0.00000000000E+00 0. -1.
          6    2    1    2  501    0 -0.42297416774E+02  0.98316092910E+02  0.48574951570E+02  0.20813096208E+03  0.17176683576E+03 0.  0.
         24    2    3    3    0    0 -0.62215371750E+01  0.12333007940E+03  0.59210557605E+01  0.14674192856E+03  0.79051367404E+02 0.  0.
         -6    2    1    2    0  503  0.42297416774E+02 -0.98316092910E+02 -0.19108848809E+03  0.27858345461E+03  0.17215924406E+03 0.  0.
        -24    2    5    5    0    0 -0.38422894903E+02 -0.49812052081E+02 -0.63304692088E+02  0.11977791562E+03  0.79885578460E+02 0.  0.
          5    1    3    3  501    0 -0.36075879599E+02 -0.25013986485E+02  0.42653895809E+02  0.61389033519E+02  0.47000000000E+01 0. -1.
        -11    1    4    4    0    0  0.17538706664E+02 -0.33233144881E-01  0.11524791600E+02  0.20986380281E+02  0.00000000000E+00 0.  1.
         12    1    4    4    0    0 -0.23760243839E+02  0.12336331254E+03 -0.56037358396E+01  0.12575554828E+03  0.00000000000E+00 0. -1.
         -5    1    5    5    0  503  0.80720311677E+02 -0.48504040829E+02 -0.12778379600E+03  0.15880553899E+03  0.47000000000E+01 0.  1.
         13    1    6    6    0    0 -0.27277850506E+02  0.11857857294E+02 -0.45974174705E+02  0.54756868497E+02  0.00000000000E+00 0. -1.
        -14    1    6    6    0    0 -0.11145044397E+02 -0.61669909374E+02 -0.17330517383E+02  0.65021047128E+02  0.00000000000E+00 0.  1.
</event>
<event>
12    1  0.8798177E-003  0.2407775E+03  0.7818608E-02  0.1119280E+00
         21   -1    0    0  501  502  0.00000000000E+00  0.00000000000E+00  0.22187863650E+03  0.22187863650E+03  0.00000000000E+00 0.  1.
         21   -1    0    0  502  503 -0.00000000000E+00 -0.00000000000E+00 -0.26885894545E+03  0.26885894545E+03  0.00000000000E+00 0. -1.
          6    2    1    2  501    0  0.12601708100E+02  0.16842674024E+03  0.17764173784E+02  0.24143193066E+03  0.17160256816E+03 0.  0.
         24    2    3    3    0    0 -0.37785194794E+02  0.37186881556E+02  0.28240479693E+02  0.10038377053E+03  0.80428798250E+02 0.  0.
         -6    2    1    2    0  503 -0.12601708100E+02 -0.16842674024E+03 -0.64744482732E+02  0.24930565129E+03  0.17156657555E+03 0.  0.
        -24    2    5    5    0    0 -0.69115527057E+02 -0.81791185927E+02 -0.58018037153E+02  0.14554214097E+03  0.79684803993E+02 0.  0.
          5    1    3    3  501    0  0.50386902893E+02  0.13123985868E+03 -0.10476305908E+02  0.14104816013E+03  0.47000000000E+01 0. -1.
        -11    1    4    4    0    0 -0.22400364756E+02 -0.16778456183E+02 -0.12885841454E+02  0.30811326538E+02  0.00000000000E+00 0.  1.
         12    1    4    4    0    0 -0.15384830038E+02  0.53965337738E+02  0.41126321146E+02  0.69572443996E+02  0.00000000000E+00 0. -1.
         -5    1    5    5    0  503  0.56513818957E+02 -0.86635554312E+02 -0.67264455798E+01  0.10376351032E+03  0.47000000000E+01 0.  1.
         13    1    6    6    0    0 -0.19072478632E+02 -0.20177342933E+01  0.16621356822E+02  0.25379129131E+02  0.00000000000E+00 0. -1.
        -14    1    6    6    0    0 -0.50043048425E+02 -0.79773451634E+02 -0.74639393975E+02  0.12016301184E+03  0.00000000000E+00 0.  1.
</event>
<event>
12    1  0.8798177E-003  0.1849993E+03  0.7818608E-02  0.1163618E+00
         21   -1    0    0  503  502  0.00000000000E+00  0.00000000000E+00  0.45667482586E+02  0.45667482586E+02  0.00000000000E+00 0. -1.
         21   -1    0    0  501  503 -0.00000000000E+00 -0.00000000000E+00 -0.74598673323E+03  0.74598673323E+03  0.00000000000E+00 0. -1.
          6    2    1    2  501    0 -0.60835901232E+02 -0.23339109955E+02 -0.31604984759E+03  0.36621338117E+03  0.17314448723E+03 0.  0.
         24    2    3    3    0    0 -0.72446818035E+02  0.43448391085E+02 -0.18150544046E+03  0.21548292249E+03  0.79701699095E+02 0.  0.
         -6    2    1    2    0  502  0.60835901232E+02  0.23339109955E+02 -0.38426940305E+03  0.42544083464E+03  0.17056145146E+03 0.  0.
        -24    2    5    5    0    0 -0.30908467350E+02  0.28170810822E+02 -0.20583087750E+03  0.22468533185E+03  0.79801129562E+02 0.  0.
          5    1    3    3  501    0  0.11610916803E+02 -0.66787501040E+02 -0.13454440713E+03  0.15073045868E+03  0.47000000000E+01 0. -1.
        -11    1    4    4    0    0 -0.52246703894E+01  0.41460052768E+02 -0.10826561434E+03  0.11605031842E+03  0.00000000000E+00 0.  1.
         12    1    4    4    0    0 -0.67222147646E+02  0.19883383168E+01 -0.73239826116E+02  0.99432604074E+02  0.00000000000E+00 0. -1.
         -5    1    5    5    0  502  0.91744368582E+02 -0.48317008670E+01 -0.17843852555E+03  0.20075550279E+03  0.47000000000E+01 0.  1.
         13    1    6    6    0    0 -0.22730137286E+02  0.45220062548E+02 -0.63971494715E+02  0.81571228592E+02  0.00000000000E+00 0. -1.
        -14    1    6    6    0    0 -0.81783300635E+01 -0.17049251726E+02 -0.14185938278E+03  0.14311410325E+03  0.00000000000E+00 0.  1.
</event>
<event>
12    1  0.8798177E-003  0.2077850E+03  0.7818608E-02  0.1143675E+00
         21   -1    0    0  501  502  0.00000000000E+00  0.00000000000E+00  0.62080501615E+03  0.62080501615E+03  0.00000000000E+00 0. -1.
         21   -1    0    0  502  503 -0.00000000000E+00 -0.00000000000E+00 -0.70005007499E+02  0.70005007499E+02  0.00000000000E+00 0.  1.
          6    2    1    2  501    0 -0.38917853387E+02 -0.10891035730E+03  0.31836126495E+03  0.38016906641E+03  0.17262259062E+03 0.  0.
         24    2    3    3    0    0 -0.57715130162E+02 -0.12471791079E+03  0.18348995395E+03  0.24299918308E+03  0.80588127259E+02 0.  0.
         -6    2    1    2    0  503  0.38917853387E+02  0.10891035730E+03  0.23243874370E+03  0.31064095724E+03  0.17056954448E+03 0.  0.
        -24    2    5    5    0    0  0.44824633585E+02  0.99928187644E+01  0.15898882829E+03  0.18720453816E+03  0.87515640785E+02 0.  0.
          5    1    3    3  501    0  0.18797276775E+02  0.15807553489E+02  0.13487131100E+03  0.13716988333E+03  0.47000000000E+01 0. -1.
        -11    1    4    4    0    0 -0.22017468465E+02  0.53239273676E+01  0.14909993694E+02  0.27118647315E+02  0.00000000000E+00 0.  1.
         12    1    4    4    0    0 -0.35697661697E+02 -0.13004183816E+03  0.16857996026E+03  0.21588053577E+03  0.00000000000E+00 0. -1.
         -5    1    5    5    0  503 -0.59067801984E+01  0.98917538538E+02  0.73449915409E+02  0.12343641908E+03  0.47000000000E+01 0.  1.
         13    1    6    6    0    0  0.48137325805E+02 -0.24388480787E+02  0.52633242850E+02  0.75380756057E+02  0.00000000000E+00 0. -1.
        -14    1    6    6    0    0 -0.33126922199E+01  0.34381299551E+02  0.10635558544E+03  0.11182378210E+03  0.00000000000E+00 0.  1.
</event>
<event>
12    1  0.8798177E-003  0.1917315E+03  0.7818608E-02  0.1156964E+00
         21   -1    0    0  503  502  0.00000000000E+00  0.00000000000E+00  0.13384710100E+02  0.13384710100E+02  0.00000000000E+00 0.  1.
         21   -1    0    0  501  503 -0.00000000000E+00 -0.00000000000E+00 -0.27622697294E+04  0.27622697294E+04  0.00000000000E+00 0. -1.
          6    2    1    2  501    0 -0.18646960957E+02 -0.84384581999E+02 -0.12592198273E+04  0.12737329197E+04  0.17115054911E+03 0.  0.
         24    2    3    3    0    0  0.16379255826E+02  0.11607425097E+02 -0.73892168174E+03  0.74347491500E+03  0.79666085313E+02 0.  0.
         -6    2    1    2    0  502  0.18646960957E+02  0.84384581999E+02 -0.14896651919E+04  0.15019215197E+04  0.17087246857E+03 0.  0.
        -24    2    5    5    0    0  0.36918638028E+02  0.45206699358E+01 -0.11082109681E+04  0.11117401344E+04  0.80319077142E+02 0.  0.
          5    1    3    3  501    0 -0.35026216783E+02 -0.95992007096E+02 -0.52029814558E+03  0.53025800473E+03  0.47000000000E+01 0. -1.
        -11    1    4    4    0    0 -0.13235720242E+02 -0.28971653862E+02 -0.30160796674E+03  0.30328519024E+03  0.00000000000E+00 0.  1.
         12    1    4    4    0    0  0.29614976068E+02  0.40579078959E+02 -0.43731371500E+03  0.44018972476E+03  0.00000000000E+00 0. -1.
         -5    1    5    5    0  502 -0.18271677072E+02  0.79863912063E+02 -0.38145422380E+03  0.39018138537E+03  0.47000000000E+01 0.  1.
         11    1    6    6    0    0  0.21928889091E+02 -0.37743245145E+02 -0.53527434304E+03  0.53705125551E+03  0.00000000000E+00 0. -1.
        -12    1    6    6    0    0  0.14989748938E+02  0.42263915081E+02 -0.57293662510E+03  0.57468887885E+03  0.00000000000E+00 0.  1.
</event>
<event>
12    1  0.8798177E-003  0.2412035E+03  0.7818608E-02  0.1119140E+00
         21   -1    0    0  503  502  0.00000000000E+00  0.00000000000E+00  0.12627253204E+03  0.12627253204E+03  0.00000000000E+00 0. -1.
         21   -1    0    0  501  503 -0.00000000000E+00 -0.00000000000E+00 -0.46152714516E+03  0.46152714516E+03  0.00000000000E+00 0. -1.
          6    2    1    2  501    0  0.22158754715E+02 -0.16790848978E+03 -0.18942469691E+03  0.30669341294E+03  0.17174068357E+03 0.  0.
         24    2    3    3    0    0 -0.21317598700E+02 -0.18897183219E+02 -0.92275590595E+02  0.12351426116E+03  0.77002886587E+02 0.  0.
         -6    2    1    2    0  502 -0.22158754715E+02  0.16790848978E+03 -0.14582991622E+03  0.28110626426E+03  0.17049954835E+03 0.  0.
        -24    2    5    5    0    0 -0.11111515454E+02  0.10787132547E+03 -0.16942486659E+03  0.21549137054E+03  0.77279083363E+02 0.  0.
          5    1    3    3  501    0  0.43476353415E+02 -0.14901130656E+03 -0.97149106311E+02  0.18317915178E+03  0.47000000000E+01 0. -1.
        -11    1    4    4    0    0 -0.14712422287E+02 -0.45734744054E+02 -0.79900036482E+02  0.93231636331E+02  0.00000000000E+00 0.  1.
         12    1    4    4    0    0 -0.66051764132E+01  0.26837560835E+02 -0.12375554113E+02  0.30282624831E+02  0.00000000000E+00 0. -1.
         -5    1    5    5    0  502 -0.11047239261E+02  0.60037164312E+02  0.23594950368E+02  0.65614893711E+02  0.47000000000E+01 0.  1.
         13    1    6    6    0    0 -0.15159479885E+02  0.11746894315E+03 -0.13533331404E+03  0.17984401109E+03  0.00000000000E+00 0. -1.
        -14    1    6    6    0    0  0.40479644311E+01 -0.95976176766E+01 -0.34091552546E+02  0.35647359455E+02  0.00000000000E+00 0.  1.
</event>
<event>
12    1  0.8798177E-003  0.2256927E+03  0.7818608E-02  0.1129888E+00
         21   -1    0    0  503  502  0.00000000000E+00  0.00000000000E+00  0.54572787267E+03  0.54572787267E+03  0.00000000000E+00 0. -1.
         21   -1    0    0  501  503 -0.00000000000E+00 -0.00000000000E+00 -0.94100644384E+02  0.94100644384E+02  0.00000000000E+00 0. -1.
          6    2    1    2  501    0  0.14966093072E+03 -0.50084397147E+00  0.19059748237E+03  0.29540581066E+03  0.16893355989E+03 0.  0.
         24    2    3    3    0    0  0.95411485196E+02  0.63342714658E+02  0.98061447600E+02  0.17048979868E+03  0.79593171451E+02 0.  0.
         -6    2    1    2    0  502 -0.14966093072E+03  0.50084397147E+00  0.26102974592E+03  0.34442270640E+03  0.16760616755E+03 0.  0.
        -24    2    5    5    0    0 -0.20500074805E+02  0.25461908427E+02  0.55220083819E+02  0.10011697897E+03  0.76847836493E+02 0.  0.
          5    1    3    3  501    0  0.54249445519E+02 -0.63843558630E+02  0.92536034766E+02  0.12491601198E+03  0.47000000000E+01 0. -1.
        -11    1    4    4    0    0  0.14278627175E+02 -0.14867754238E+02 -0.72889300704E+00  0.20626696175E+02  0.00000000000E+00 0.  1.
         12    1    4    4    0    0  0.81132858021E+02  0.78210468897E+02  0.98790340608E+02  0.14986310251E+03  0.00000000000E+00 0. -1.
         -5    1    5    5    0  502 -0.12916085591E+03 -0.24961064456E+02  0.20580966210E+03  0.24430572743E+03  0.47000000000E+01 0.  1.
         11    1    6    6    0    0 -0.47558159784E+02  0.29768941538E+02  0.36542055659E+02  0.66957376548E+02  0.00000000000E+00 0. -1.
        -12    1    6    6    0    0  0.27058084980E+02 -0.43070331107E+01  0.18678028160E+02  0.33159602424E+02  0.00000000000E+00 0.  1.
</event>
<event>
12    1  0.8798177E-003  0.1826652E+03  0.7818608E-02  0.1165785E+00
         21   -1    0    0  503  502  0.00000000000E+00  0.00000000000E+00  0.19784871460E+03  0.19784871460E+03  0.00000000000E+00 0.  1.
         21   -1    0    0  501  503 -0.00000000000E+00 -0.00000000000E+00 -0.33740780927E+03  0.33740780927E+03  0.00000000000E+00 0.  1.
          6    2    1    2  501    0 -0.26111138390E+02 -0.53511142493E+02 -0.26042098896E+03  0.31809695490E+03  0.17268858476E+03 0.  0.
         24    2    3    3    0    0 -0.12076746190E+02 -0.83821327217E+02 -0.25883841548E+03  0.28432912996E+03  0.81693733678E+02 0.  0.
         -6    2    1    2    0  502  0.26111138390E+02  0.53511142493E+02  0.12086189430E+03  0.21715956897E+03  0.17030985580E+03 0.  0.
        -24    2    5    5    0    0  0.58850044553E+02 -0.17084771545E+02  0.62630438988E+02  0.11985277864E+03  0.81773464509E+02 0.  0.
          5    1    3    3  501    0 -0.14034392200E+02  0.30310184724E+02 -0.15825734881E+01  0.33767824941E+02  0.47000000000E+01 0. -1.
        -11    1    4    4    0    0 -0.32181251177E+02 -0.34450530503E+02 -0.19756943950E+03  0.20311611311E+03  0.00000000000E+00 0.  1.
         12    1    4    4    0    0  0.20104504988E+02 -0.49370796714E+02 -0.61268975972E+02  0.81213016848E+02  0.00000000000E+00 0. -1.
         -5    1    5    5    0  502 -0.32738906163E+02  0.70595914038E+02  0.58231455313E+02  0.97306790326E+02  0.47000000000E+01 0.  1.
         13    1    6    6    0    0  0.76505839882E+02  0.12990070640E+01  0.50012105591E+02  0.91411386933E+02  0.00000000000E+00 0. -1.
        -14    1    6    6    0    0 -0.17655795329E+02 -0.18383778609E+02  0.12618333397E+02  0.28441391709E+02  0.00000000000E+00 0.  1.
</event>
<event>
12    1  0.8798177E-003  0.2035117E+03  0.7818608E-02  0.1146881E+00
         21   -1    0    0  501  502  0.00000000000E+00  0.00000000000E+00  0.79795706934E+03  0.79795706934E+03  0.00000000000E+00 0.  1.
         21   -1    0    0  502  503 -0.00000000000E+00 -0.00000000000E+00 -0.53564753817E+02  0.53564753817E+02  0.00000000000E+00 0.  1.
          6    2    1    2  501    0 -0.85716973137E+02  0.65145342143E+02  0.29496231601E+03  0.35816156920E+03  0.17229517318E+03 0.  0.
         24    2    3    3    0    0 -0.12044414290E+03  0.26465947274E+02  0.18633970077E+03  0.23765001603E+03  0.80918527617E+02 0.  0.
         -6    2    1    2    0  503  0.85716973137E+02 -0.65145342143E+02  0.44942999952E+03  0.49336025396E+03  0.17270118886E+03 0.  0.
        -24    2    5    5    0    0  0.59578632479E+02 -0.22842249665E+02  0.11082203702E+03  0.15108813013E+03  0.80465628430E+02 0.  0.
          5    1    3    3  501    0  0.34727169758E+02  0.38679394869E+02  0.10862261524E+03  0.12051155317E+03  0.47000000000E+01 0. -1.
        -11    1    4    4    0    0 -0.84589325006E+02  0.48997917510E+02  0.91987856689E+02  0.13423082956E+03  0.00000000000E+00 0.  1.
         12    1    4    4    0    0 -0.35854817889E+02 -0.22531970236E+02  0.94351844083E+02  0.10341918647E+03  0.00000000000E+00 0. -1.
         -5    1    5    5    0  503  0.26138340658E+02 -0.42303092478E+02  0.33860796250E+03  0.34227212384E+03  0.47000000000E+01 0.  1.
         13    1    6    6    0    0  0.51780298925E+02 -0.49249116723E+02  0.96420583437E+02  0.12001501475E+03  0.00000000000E+00 0. -1.
        -14    1    6    6    0    0  0.77983335536E+01  0.26406867059E+02  0.14401453582E+02  0.31073115379E+02  0.00000000000E+00 0.  1.
</event>
<event>
12    1  0.8798177E-003  0.2644659E+03  0.7818608E-02  0.1104553E+00
         21   -1    0    0  501  502  0.00000000000E+00  0.00000000000E+00  0.94417132707E+02  0.94417132707E+02  0.00000000000E+00 0.  1.
         21   -1    0    0  502  503 -0.00000000000E+00 -0.00000000000E+00 -0.74761703598E+03  0.74761703598E+03  0.00000000000E+00 0. -1.
          6    2    1    2  501    0 -0.95464084238E+02 -0.17636265808E+03 -0.28264395892E+03  0.38678265681E+03  0.17174410484E+03 0.  0.
         24    2    3    3    0    0 -0.10627496188E+03 -0.66509006513E+02 -0.12640808980E+03  0.19542843909E+03  0.80594380502E+02 0.  0.
         -6    2    1    2    0  503  0.95464084238E+02  0.17636265808E+03 -0.37055594435E+03  0.45525151188E+03  0.17240954912E+03 0.  0.
        -24    2    5    5    0    0  0.30919372428E+02  0.17539813416E+03 -0.23822191252E+03  0.30793777827E+03  0.79721280855E+02 0.  0.
          5    1    3    3  501    0  0.10810877640E+02 -0.10985365157E+03 -0.15623586912E+03  0.19135421772E+03  0.47000000000E+01 0. -1.
        -11    1    4    4    0    0 -0.84538327674E+02 -0.96043111626E+01 -0.92631455141E+02  0.12577582486E+03  0.00000000000E+00 0.  1.
         12    1    4    4    0    0 -0.21736634204E+02 -0.56904695350E+02 -0.33776634658E+02  0.69652614224E+02  0.00000000000E+00 0. -1.
         -5    1    5    5    0  503  0.64544711810E+02  0.96452391633E+00 -0.13233403183E+03  0.14731373360E+03  0.47000000000E+01 0.  1.
         13    1    6    6    0    0  0.30185787031E+02  0.32603431600E+02 -0.98958588175E+02  0.10847565471E+03  0.00000000000E+00 0. -1.
        -14    1    6    6    0    0  0.73358539738E+00  0.14279470257E+03 -0.13926332435E+03  0.19946212356E+03  0.00000000000E+00 0.  1.
</event>
<event>
12    1  0.8798177E-003  0.2488634E+03  0.7818608E-02  0.1114499E+00
         21   -1    0    0  501  502  0.00000000000E+00  0.00000000000E+00  0.67064838501E+03  0.67064838501E+03  0.00000000000E+00 0. -1.
         21   -1    0    0  502  503 -0.00000000000E+00 -0.00000000000E+00 -0.15507134174E+03  0.15507134174E+03  0.00000000000E+00 0.  1.
          6    2    1    2  501    0  0.10398469212E+03 -0.14169804506E+03  0.52173425108E+03  0.57678017530E+03  0.17198136441E+03 0.  0.
         24    2    3    3    0    0  0.11850777653E+03 -0.53927514362E+02  0.26217543325E+03  0.30235813546E+03  0.75711388670E+02 0.  0.
         -6    2    1    2    0  503 -0.10398469212E+03  0.14169804506E+03 -0.61572078051E+01  0.24893955145E+03  0.17618693736E+03 0.  0.
        -24    2    5    5    0    0 -0.26473871270E+02  0.10291278115E+03  0.55043928411E+02  0.14273271024E+03  0.77787442003E+02 0.  0.
          5    1    3    3  501    0 -0.14523084411E+02 -0.87770530697E+02  0.25955881783E+03  0.27442203984E+03  0.47000000000E+01 0. -1.
        -13    1    4    4    0    0  0.49581436309E+02 -0.63903890578E+02  0.13576020765E+03  0.15802803561E+03  0.00000000000E+00 0.  1.
         14    1    4    4    0    0  0.68926340222E+02  0.99763762160E+01  0.12641522560E+03  0.14433009985E+03  0.00000000000E+00 0. -1.
         -5    1    5    5    0  503 -0.77510820851E+02  0.38785263912E+02 -0.61201136216E+02  0.10620684121E+03  0.47000000000E+01 0.  1.
         13    1    6    6    0    0  0.22145550313E+02  0.64958698943E+02  0.18659176897E+02  0.71121184253E+02  0.00000000000E+00 0. -1.
        -14    1    6    6    0    0 -0.48619421584E+02  0.37954082204E+02  0.36384751514E+02  0.71611525985E+02  0.00000000000E+00 0.  1.
</event>
<event>
12    1  0.8798177E-003  0.2051710E+03  0.7818608E-02  0.1146136E+00
         21   -1    0    0  503  502  0.00000000000E+00  0.00000000000E+00  0.30965670279E+03  0.30965670279E+03  0.00000000000E+00 0.  1.
         21   -1    0    0  501  503 -0.00000000000E+00 -0.00000000000E+00 -0.13408560906E+03  0.13408560906E+03  0.00000000000E+00 0.  1.
          6    2    1    2  501    0  0.81489324759E+02  0.63648945314E+02  0.99832265259E+02  0.22817015257E+03  0.17721015503E+03 0.  0.
         24    2    3    3    0    0 -0.19710657926E+02  0.44574937461E+02  0.80139193683E+02  0.12321701379E+03  0.79904361819E+02 0.  0.
         -6    2    1    2    0  502 -0.81489324759E+02 -0.63648945314E+02  0.75738828474E+02  0.21557215928E+03  0.17332999575E+03 0.  0.
        -24    2    5    5    0    0 -0.80521874981E+02 -0.10616516864E+03  0.41637188567E+02  0.16085856819E+03  0.79918759407E+02 0.  0.
          5    1    3    3  501    0  0.10119998269E+03  0.19074007853E+02  0.19693071575E+02  0.10495313878E+03  0.47000000000E+01 0. -1.
        -13    1    4    4    0    0  0.17914719724E+02 -0.14461065982E+02  0.25928203198E+02  0.34674649720E+02  0.00000000000E+00 0.  1.
         14    1    4    4    0    0 -0.37625377651E+02  0.59036003443E+02  0.54210990485E+02  0.88542364071E+02  0.00000000000E+00 0. -1.
         -5    1    5    5    0  502 -0.96744977809E+00  0.42516223330E+02  0.34101639906E+02  0.54713591086E+02  0.47000000000E+01 0.  1.
         11    1    6    6    0    0 -0.10202390756E+02 -0.53423381503E+01  0.36010065427E+02  0.37806800527E+02  0.00000000000E+00 0. -1.
        -12    1    6    6    0    0 -0.70319484225E+02 -0.10082283049E+03  0.56271231404E+01  0.12305176766E+03  0.00000000000E+00 0.  1.
</event>
<event>
12    1  0.8798177E-003  0.1854963E+03  0.7818608E-02  0.1165766E+00
         21   -1    0    0  501  502  0.00000000000E+00  0.00000000000E+00  0.64423974405E+02  0.64423974405E+02  0.00000000000E+00 0.  1.
         21   -1    0    0  502  503 -0.00000000000E+00 -0.00000000000E+00 -0.49694328081E+03  0.49694328081E+03  0.00000000000E+00 0. -1.
          6    2    1    2  501    0 -0.40944655126E+02  0.55160683967E+02 -0.22423594443E+03  0.29101653852E+03  0.17230699661E+03 0.  0.
         24    2    3    3    0    0  0.33803590811E+02  0.48063784618E+02 -0.17620352721E+03  0.20175921751E+03  0.78780001933E+02 0.  0.
         -6    2    1    2    0  503  0.40944655126E+02 -0.55160683967E+02 -0.20828336198E+03  0.27035071669E+03  0.15807714984E+03 0.  0.
        -24    2    5    5    0    0  0.57166787870E+02 -0.56598371475E+02 -0.22129696934E+03  0.24898091293E+03  0.80918039231E+02 0.  0.
          5    1    3    3  501    0 -0.74748245937E+02  0.70968993489E+01 -0.48032417220E+02  0.89257321016E+02  0.47000000000E+01 0. -1.
        -13    1    4    4    0    0 -0.19599872323E+02  0.28062438143E+02 -0.10556011780E+03  0.11097113994E+03  0.00000000000E+00 0.  1.
         14    1    4    4    0    0  0.53403463134E+02  0.20001346475E+02 -0.70643409412E+02  0.90788077570E+02  0.00000000000E+00 0. -1.
         -5    1    5    5    0  503 -0.16222132744E+02  0.14376875079E+01  0.13013607369E+02  0.21369803763E+02  0.47000000000E+01 0.  1.
         13    1    6    6    0    0  0.10332357006E+02 -0.56286139527E+02 -0.68989761667E+02  0.89635229229E+02  0.00000000000E+00 0. -1.
        -14    1    6    6    0    0  0.46834430864E+02 -0.31223194766E+00 -0.15230720768E+03  0.15934568370E+03  0.00000000000E+00 0.  1.
</event>
<event>
12    1  0.8798177E-003  0.1916143E+03  0.7818608E-02  0.1158585E+00
         21   -1    0    0  503  502  0.00000000000E+00  0.00000000000E+00  0.57713453479E+02  0.57713453479E+02  0.00000000000E+00 0.  1.
         21   -1    0    0  501  503 -0.00000000000E+00 -0.00000000000E+00 -0.73583534595E+03  0.73583534595E+03  0.00000000000E+00 0.  1.
          6    2    1    2  501    0 -0.67239776093E+02 -0.38590664958E+01 -0.50604679731E+03  0.54110941712E+03  0.17938773744E+03 0.  0.
         24    2    3    3    0    0  0.19646040946E+02  0.24939221618E+02 -0.34378416383E+03  0.35475025092E+03  0.81561372787E+02 0.  0.
         -6    2    1    2    0  502  0.67239776093E+02  0.38590664958E+01 -0.17207509515E+03  0.25243938230E+03  0.17198756781E+03 0.  0.
        -24    2    5    5    0    0  0.86252007885E+02 -0.23548289256E+02 -0.54896167804E+02  0.13051473704E+03  0.77631028299E+02 0.  0.
          5    1    3    3  501    0 -0.86885817039E+02 -0.28798288114E+02 -0.16226263349E+03  0.18635916620E+03  0.47000000000E+01 0. -1.
        -13    1    4    4    0    0 -0.12037411470E+01  0.12802489015E+02 -0.32196584400E+03  0.32222252779E+03  0.00000000000E+00 0.  1.
         14    1    4    4    0    0  0.20849782093E+02  0.12136732604E+02 -0.21818319830E+02  0.32527723127E+02  0.00000000000E+00 0. -1.
         -5    1    5    5    0  502 -0.19012231792E+02  0.27407355752E+02 -0.11717892735E+03  0.12192464526E+03  0.47000000000E+01 0.  1.
         11    1    6    6    0    0 -0.35568329489E+01 -0.62427498860E+01 -0.36527533274E+02  0.37227458600E+02  0.00000000000E+00 0. -1.
        -12    1    6    6    0    0  0.89808840834E+02 -0.17305539370E+02 -0.18368634531E+02  0.93287278443E+02  0.00000000000E+00 0.  1.
</event>
<event>
12    1  0.8798177E-003  0.2136186E+03  0.7818608E-02  0.1140645E+00
         21   -1    0    0  501  502  0.00000000000E+00  0.00000000000E+00  0.23037810097E+02  0.23037810097E+02  0.00000000000E+00 0. -1.
         21   -1    0    0  502  503 -0.00000000000E+00 -0.00000000000E+00 -0.40300606921E+04  0.40300606921E+04  0.00000000000E+00 0. -1.
          6    2    1    2  501    0 -0.10745874431E+03  0.22703443627E+02 -0.50604299063E+03  0.54560750457E+03  0.17188720894E+03 0.  0.
         24    2    3    3    0    0  0.84602054207E+01  0.32496858529E+02 -0.26504472569E+03  0.27795966208E+03  0.76715358575E+02 0.  0.
         -6    2    1    2    0  503  0.10745874431E+03 -0.22703443627E+02 -0.35009798914E+04  0.35074909976E+04  0.18322137037E+03 0.  0.
        -24    2    5    5    0    0  0.89475273284E+02 -0.83579245169E+02 -0.20986427655E+04  0.21037101126E+04  0.79394370734E+02 0.  0.
          5    1    3    3  501    0 -0.11591894973E+03 -0.97934149016E+01 -0.24099826495E+03  0.26764784249E+03  0.47000000000E+01 0. -1.
        -13    1    4    4    0    0 -0.23389266363E+02  0.41511784730E+02 -0.11844554763E+03  0.12767001921E+03  0.00000000000E+00 0.  1.
         14    1    4    4    0    0  0.31849471784E+02 -0.90149262009E+01 -0.14659917806E+03  0.15028964287E+03  0.00000000000E+00 0. -1.
         -5    1    5    5    0  503  0.17983471024E+02  0.60875801542E+02 -0.14023371259E+04  0.14037808850E+04  0.47000000000E+01 0.  1.
         13    1    6    6    0    0  0.81817578760E+02 -0.51360577009E+02 -0.10213086540E+04  0.10258671414E+04  0.00000000000E+00 0. -1.
        -14    1    6    6    0    0  0.76576945240E+01 -0.32218668160E+02 -0.10773341115E+04  0.10778429712E+04  0.00000000000E+00 0.  1.
</event>
<event>
12    1  0.8798177E-003  0.1994014E+03  0.7818608E-02  0.1150252E+00
         21   -1    0    0  503  502  0.00000000000E+00  0.00000000000E+00  0.22862457632E+04  0.22862457632E+04  0.00000000000E+00 0. -1.
         21   -1    0    0  501  503 -0.00000000000E+00 -0.00000000000E+00 -0.21038398795E+02  0.21038398795E+02  0.00000000000E+00 0. -1.
          6    2    1    2  501    0  0.43730231247E+02 -0.92417863126E+02  0.65201629090E+03  0.68181611452E+03  0.17115658293E+03 0.  0.
         24    2    3    3    0    0 -0.15804287687E+02 -0.94621809115E+02  0.54310254795E+03  0.55758443690E+03  0.82079013239E+02 0.  0.
         -6    2    1    2    0  502 -0.43730231247E+02  0.92417863126E+02  0.16131910736E+04  0.16254680475E+04  0.17119444838E+03 0.  0.
        -24    2    5    5    0    0 -0.94109886789E+02  0.56810328301E+02  0.10058286188E+04  0.10149623164E+04  0.79832381962E+02 0.  0.
          5    1    3    3  501    0  0.59534518933E+02  0.22039459894E+01  0.10891374295E+03  0.12423167762E+03  0.47000000000E+01 0. -1.
        -13    1    4    4    0    0 -0.53171200073E+01 -0.58223880293E+02  0.48310691173E+03  0.48663187335E+03  0.00000000000E+00 0.  1.
         14    1    4    4    0    0 -0.10487167680E+02 -0.36397928822E+02  0.59995636217E+02  0.70952563544E+02  0.00000000000E+00 0. -1.
         -5    1    5    5    0  502  0.50379655542E+02  0.35607534824E+02  0.60736245480E+03  0.61050573112E+03  0.47000000000E+01 0.  1.
         11    1    6    6    0    0  0.58010456997E+01  0.27988203973E+02  0.32288246229E+03  0.32414514673E+03  0.00000000000E+00 0. -1.
        -12    1    6    6    0    0 -0.99910932489E+02  0.28822124328E+02  0.68294615647E+03  0.69081716967E+03  0.00000000000E+00 0.  1.
</event>
<event>
12    1  0.8798177E-003  0.2164399E+03  0.7818608E-02  0.1136634E+00
         21   -1    0    0  503  502  0.00000000000E+00  0.00000000000E+00  0.62244822224E+02  0.62244822224E+02  0.00000000000E+00 0.  1.
         21   -1    0    0  501  503 -0.00000000000E+00 -0.00000000000E+00 -0.81220495953E+03  0.81220495953E+03  0.00000000000E+00 0. -1.
          6    2    1    2  501    0  0.97483263232E+02 -0.88328067879E+02 -0.49435522873E+03  0.53951682557E+03  0.17142484859E+03 0.  0.
         24    2    3    3    0    0  0.10953735140E+03 -0.10704747748E+03 -0.32087131535E+03  0.36454689804E+03  0.80488794695E+02 0.  0.
         -6    2    1    2    0  502 -0.97483263232E+02  0.88328067879E+02 -0.25560490858E+03  0.33493295619E+03  0.17187606485E+03 0.  0.
        -24    2    5    5    0    0 -0.16505974948E+02  0.30115445323E+01 -0.17228307211E+03  0.19070796250E+03  0.80040948355E+02 0.  0.
          5    1    3    3  501    0 -0.12054088166E+02  0.18719409596E+02 -0.17348391338E+03  0.17496992753E+03  0.47000000000E+01 0. -1.
        -11    1    4    4    0    0  0.76546947824E+02 -0.30330110452E+02 -0.21133234852E+03  0.22680545045E+03  0.00000000000E+00 0.  1.
         12    1    4    4    0    0  0.32990403573E+02 -0.76717367023E+02 -0.10953896682E+03  0.13774144759E+03  0.00000000000E+00 0. -1.
         -5    1    5    5    0  502 -0.80977288283E+02  0.85316523347E+02 -0.83321836468E+02  0.14422499369E+03  0.47000000000E+01 0.  1.
         11    1    6    6    0    0 -0.18635740687E+02  0.37708420164E+02 -0.60804047011E+02  0.73934754447E+02  0.00000000000E+00 0. -1.
        -12    1    6    6    0    0  0.21297657384E+01 -0.34696875632E+02 -0.11147902510E+03  0.11677320805E+03  0.00000000000E+00 0.  1.
</event>
<event>
12    1  0.8798177E-003  0.1732136E+03  0.7818608E-02  0.1175457E+00
         21   -1    0    0  503  502  0.00000000000E+00  0.00000000000E+00  0.12105614919E+03  0.12105614919E+03  0.00000000000E+00 0. -1.
         21   -1    0    0  501  503 -0.00000000000E+00 -0.00000000000E+00 -0.24275815333E+03  0.24275815333E+03  0.00000000000E+00 0. -1.
          6    2    1    2  501    0 -0.11389389645E+02  0.89818210797E+01 -0.60907646523E+02  0.18361015047E+03  0.17260519877E+03 0.  0.
         24    2    3    3    0    0 -0.24749582020E+02  0.65449407255E+02 -0.65340489873E+02  0.12522502283E+03  0.80720257723E+02 0.  0.
         -6    2    1    2    0  502  0.11389389645E+02 -0.89818210797E+01 -0.60794357617E+02  0.18020415205E+03  0.16901831614E+03 0.  0.
        -24    2    5    5    0    0  0.22581103995E+02 -0.67235589098E+02 -0.57144409808E+02  0.12058730815E+03  0.79027113161E+02 0.  0.
          5    1    3    3  501    0  0.13360192376E+02 -0.56467586175E+02  0.44328433504E+01  0.58385127634E+02  0.47000000000E+01 0. -1.
        -11    1    4    4    0    0 -0.37440926626E+02  0.65734169584E+01 -0.23679927697E+01  0.38087270667E+02  0.00000000000E+00 0.  1.
         12    1    4    4    0    0  0.12691344606E+02  0.58875990296E+02 -0.62972497103E+02  0.87137752167E+02  0.00000000000E+00 0. -1.
         -5    1    5    5    0  502 -0.11191714350E+02  0.58253768018E+02 -0.36499478094E+01  0.59616843907E+02  0.47000000000E+01 0.  1.
         13    1    6    6    0    0  0.20807101266E+02  0.32439754186E+01  0.99243783556E+01  0.23279865235E+02  0.00000000000E+00 0. -1.
        -14    1    6    6    0    0  0.17740027288E+01 -0.70479564516E+02 -0.67068788164E+02  0.97307442911E+02  0.00000000000E+00 0.  1.
</event>
<event>
12    1  0.8798177E-003  0.2746608E+03  0.7818608E-02  0.1098883E+00
         21   -1    0    0  501  502  0.00000000000E+00  0.00000000000E+00  0.16651642989E+03  0.16651642989E+03  0.00000000000E+00 0. -1.
         21   -1    0    0  502  503 -0.00000000000E+00 -0.00000000000E+00 -0.45056973276E+03  0.45056973276E+03  0.00000000000E+00 0.  1.
          6    2    1    2  501    0  0.17971785516E+03 -0.11034132284E+03 -0.15028233568E+03  0.31158128295E+03  0.17327550456E+03 0.  0.
         24    2    3    3    0    0  0.15518166668E+03 -0.65571095390E+02 -0.17397186039E+03  0.25510401856E+03  0.80193103541E+02 0.  0.
         -6    2    1    2    0  503 -0.17971785516E+03  0.11034132284E+03 -0.13377096719E+03  0.30550487969E+03  0.17596830642E+03 0.  0.
        -24    2    5    5    0    0 -0.16188766342E+03  0.28973850084E+02 -0.55150532954E+02  0.19086699747E+03  0.79633723264E+02 0.  0.
          5    1    3    3  501    0  0.24536188476E+02 -0.44770227453E+02  0.23689524716E+02  0.56477264384E+02  0.47000000000E+01 0. -1.
        -13    1    4    4    0    0 -0.25937430812E+01 -0.20863737974E+02 -0.31497108269E+02  0.37869392584E+02  0.00000000000E+00 0.  1.
         14    1    4    4    0    0  0.15777540976E+03 -0.44707357416E+02 -0.14247475212E+03  0.21723462598E+03  0.00000000000E+00 0. -1.
         -5    1    5    5    0  503 -0.17830191733E+02  0.81367472758E+02 -0.78620434240E+02  0.11463788222E+03  0.47000000000E+01 0.  1.
         11    1    6    6    0    0 -0.53716756272E+02  0.46192368230E+02 -0.69131942684E+01  0.71182982812E+02  0.00000000000E+00 0. -1.
        -12    1    6    6    0    0 -0.10817090715E+03 -0.17218518146E+02 -0.48237338686E+02  0.11968401466E+03  0.00000000000E+00 0.  1.
</event>
<event>
12    1  0.8798177E-003  0.2147934E+03  0.7818608E-02  0.1137975E+00
         21   -1    0    0  503  502  0.00000000000E+00  0.00000000000E+00  0.14729880411E+03  0.14729880411E+03  0.00000000000E+00 0. -1.
         21   -1    0    0  501  503 -0.00000000000E+00 -0.00000000000E+00 -0.32700826321E+03  0.32700826321E+03  0.00000000000E+00 0. -1.
          6    2    1    2  501    0  0.38487219677E+02  0.12122452313E+03 -0.39342999768E+02  0.21836683103E+03  0.17308827280E+03 0.  0.
         24    2    3    3    0    0  0.38879523277E+02 -0.33991008991E+01 -0.30055108074E+02  0.93308618590E+02  0.79246561848E+02 0.  0.
         -6    2    1    2    0  502 -0.38487219677E+02 -0.12122452313E+03 -0.14036645933E+03  0.25594023628E+03  0.17212208039E+03 0.  0.
        -24    2    5    5    0    0 -0.16252402309E+02 -0.15294303217E+03 -0.13416926655E+03  0.21643142565E+03  0.72010126025E+02 0.  0.
          5    1    3    3  501    0 -0.39230359961E+00  0.12462362403E+03 -0.92878916933E+01  0.12505821244E+03  0.47000000000E+01 0. -1.
        -11    1    4    4    0    0  0.40810129418E+02 -0.18928393067E+02  0.13548417503E+02  0.46982021498E+02  0.00000000000E+00 0.  1.
         12    1    4    4    0    0 -0.19306061414E+01  0.15529292167E+02 -0.43603525578E+02  0.46326597092E+02  0.00000000000E+00 0. -1.
         -5    1    5    5    0  502 -0.22234817368E+02  0.31718509044E+02 -0.61971927767E+01  0.39508810634E+02  0.47000000000E+01 0.  1.
         11    1    6    6    0    0 -0.32089855669E+02 -0.14582336907E+03 -0.10517852164E+03  0.18263826329E+03  0.00000000000E+00 0. -1.
        -12    1    6    6    0    0  0.15837453360E+02 -0.71196631061E+01 -0.28990744914E+02  0.33793162361E+02  0.00000000000E+00 0.  1.
</event>
<event>
12    1  0.8798177E-003  0.2340465E+03  0.7818608E-02  0.1124066E+00
         21   -1    0    0  503  502  0.00000000000E+00  0.00000000000E+00  0.22815363719E+03  0.22815363719E+03  0.00000000000E+00 0. -1.
         21   -1    0    0  501  503 -0.00000000000E+00 -0.00000000000E+00 -0.34769426042E+03  0.34769426042E+03  0.00000000000E+00 0. -1.
          6    2    1    2  501    0  0.13143583025E+03 -0.87870173078E+02 -0.22088487165E+03  0.32080200818E+03  0.17066709448E+03 0.  0.
         24    2    3    3    0    0  0.59062534718E+02 -0.76686417153E+02 -0.21356669768E+03  0.24705503555E+03  0.77822019046E+02 0.  0.
         -6    2    1    2    0  502 -0.13143583025E+03  0.87870173078E+02  0.10134424841E+03  0.25504588943E+03  0.17257231597E+03 0.  0.
        -24    2    5    5    0    0 -0.24040494807E+02  0.68154526458E+01  0.52608020451E+01  0.89644122680E+02  0.85930186242E+02 0.  0.
          5    1    3    3  501    0  0.72373295527E+02 -0.11183755925E+02 -0.73181739672E+01  0.73746972631E+02  0.47000000000E+01 0. -1.
        -13    1    4    4    0    0 -0.42100544110E+01  0.12231957864E+02 -0.11084454799E+02  0.17035565430E+02  0.00000000000E+00 0.  1.
         14    1    4    4    0    0  0.63272589130E+02 -0.88918375017E+02 -0.20248224288E+03  0.23001947012E+03  0.00000000000E+00 0. -1.
         -5    1    5    5    0  502 -0.10739533544E+03  0.81054720432E+02  0.96083446370E+02  0.16540176675E+03  0.47000000000E+01 0.  1.
         13    1    6    6    0    0  0.47132512813E+01  0.25951854388E+02  0.35164974504E+02  0.43957808359E+02  0.00000000000E+00 0. -1.
        -14    1    6    6    0    0 -0.28753746088E+02 -0.19136401742E+02 -0.29904172459E+02  0.45686314321E+02  0.00000000000E+00 0.  1.
</event>
<event>
12    1  0.8798177E-003  0.2035322E+03  0.7818608E-02  0.1146889E+00
         21   -1    0    0  503  502  0.00000000000E+00  0.00000000000E+00  0.16965978713E+03  0.16965978713E+03  0.00000000000E+00 0. -1.
         21   -1    0    0  501  503 -0.00000000000E+00 -0.00000000000E+00 -0.26148468896E+03  0.26148468896E+03  0.00000000000E+00 0. -1.
          6    2    1    2  501    0  0.20109961779E+02  0.10565524180E+03 -0.10223281792E+03  0.22734636682E+03  0.17224221539E+03 0.  0.
         24    2    3    3    0    0 -0.38263638497E+02  0.10365180936E+03 -0.41496054392E+02  0.14295125206E+03  0.80655652755E+02 0.  0.
         -6    2    1    2    0  502 -0.20109961779E+02 -0.10565524180E+03  0.10407916084E+02  0.20379810927E+03  0.17279439789E+03 0.  0.
        -24    2    5    5    0    0 -0.43807445981E+02 -0.22129761893E+02  0.48394895838E+02  0.10891303573E+03  0.84327722152E+02 0.  0.
          5    1    3    3  501    0  0.58373600276E+02  0.20034324339E+01 -0.60736763525E+02  0.84395114753E+02  0.47000000000E+01 0. -1.
        -11    1    4    4    0    0 -0.23101209184E+01 -0.12784019496E+02  0.28007057312E+01  0.13289535949E+02  0.00000000000E+00 0.  1.
         12    1    4    4    0    0 -0.35953517579E+02  0.11643582886E+03 -0.44296760123E+02  0.12966171612E+03  0.00000000000E+00 0. -1.
         -5    1    5    5    0  502  0.23697484202E+02 -0.83525479905E+02 -0.37986979753E+02  0.94885073545E+02  0.47000000000E+01 0.  1.
         13    1    6    6    0    0  0.23508833601E+02 -0.11218739392E+02  0.26817815317E+02  0.37386101552E+02  0.00000000000E+00 0. -1.
        -14    1    6    6    0    0 -0.67316279582E+02 -0.10911022502E+02  0.21577080520E+02  0.71526934176E+02  0.00000000000E+00 0.  1.
</event>
<event>
12    1  0.8798177E-003  0.2244077E+03  0.7818608E-02  0.1131148E+00
         21   -1    0    0  503  502  0.00000000000E+00  0.00000000000E+00  0.25039568842E+03  0.25039568842E+03  0.00000000000E+00 0.  1.
         21   -1    0    0  501  503 -0.00000000000E+00 -0.00000000000E+00 -0.20995785759E+03  0.20995785759E+03  0.00000000000E+00 0.  1.
          6    2    1    2  501    0 -0.14025396354E+03 -0.11590244902E+02 -0.33362629871E+02  0.22412207059E+03  0.17120785434E+03 0.  0.
         24    2    3    3    0    0 -0.14506665277E+03  0.35615308394E+02 -0.64957156761E+01  0.16939139073E+03  0.79614477285E+02 0.  0.
         -6    2    1    2    0  502  0.14025396354E+03  0.11590244902E+02  0.73800460698E+02  0.23623147543E+03  0.17479500541E+03 0.  0.
        -24    2    5    5    0    0  0.14163768525E+03  0.57167427390E+02  0.81768846724E+02  0.18970428525E+03  0.77280158584E+02 0.  0.
          5    1    3    3  501    0  0.48126892281E+01 -0.47205553296E+02 -0.26866914195E+02  0.54730679860E+02  0.47000000000E+01 0. -1.
        -13    1    4    4    0    0 -0.96949036905E+02 -0.15732788730E+02  0.36982710950E+01  0.98286894381E+02  0.00000000000E+00 0.  1.
         14    1    4    4    0    0 -0.48117615865E+02  0.51348097123E+02 -0.10193986771E+02  0.71104496349E+02  0.00000000000E+00 0. -1.
         -5    1    5    5    0  502 -0.13837217130E+01 -0.45577182489E+02 -0.79683860254E+01  0.46527190171E+02  0.47000000000E+01 0.  1.
         13    1    6    6    0    0  0.41699711908E+02  0.16525325387E+02 -0.12360902880E+02  0.46526812402E+02  0.00000000000E+00 0. -1.
        -14    1    6    6    0    0  0.99937973347E+02  0.40642102004E+02  0.94129749603E+02  0.14317747285E+03  0.00000000000E+00 0.  1.
</event>
<event>
12    1  0.8798177E-003  0.1802690E+03  0.7818608E-02  0.1168456E+00
         21   -1    0    0  503  502  0.00000000000E+00  0.00000000000E+00  0.43178640818E+03  0.43178640818E+03  0.00000000000E+00 0. -1.
         21   -1    0    0  501  503 -0.00000000000E+00 -0.00000000000E+00 -0.73800137722E+02  0.73800137722E+02  0.00000000000E+00 0. -1.
          6    2    1    2  501    0  0.43906513152E+01 -0.39976264262E+02  0.17193490960E+03  0.24911545569E+03  0.17572568850E+03 0.  0.
         24    2    3    3    0    0 -0.48634259767E+02  0.24818508003E+02  0.90538431136E+02  0.13225023240E+03  0.79445999864E+02 0.  0.
         -6    2    1    2    0  502 -0.43906513152E+01  0.39976264262E+02  0.18605136086E+03  0.25647109022E+03  0.17188639188E+03 0.  0.
        -24    2    5    5    0    0 -0.26475822744E+02  0.43856829160E+02  0.20565343566E+03  0.22631906014E+03  0.79388857727E+02 0.  0.
          5    1    3    3  501    0  0.53024911082E+02 -0.64794772265E+02  0.81396478463E+02  0.11686522329E+03  0.47000000000E+01 0. -1.
        -11    1    4    4    0    0 -0.14770424162E+02  0.46561821471E+02  0.74158145577E+02  0.88800896415E+02  0.00000000000E+00 0.  1.
         12    1    4    4    0    0 -0.33863835605E+02 -0.21743313468E+02  0.16380285558E+02  0.43449335983E+02  0.00000000000E+00 0. -1.
         -5    1    5    5    0  502  0.22085171429E+02 -0.38805648981E+01 -0.19602074801E+02  0.30152030072E+02  0.47000000000E+01 0.  1.
         11    1    6    6    0    0  0.13645159447E+02  0.40863619735E+02  0.15890704175E+03  0.16464347455E+03  0.00000000000E+00 0. -1.
        -12    1    6    6    0    0 -0.40120982191E+02  0.29932094256E+01  0.46746393912E+02  0.61675585595E+02  0.00000000000E+00 0.  1.
</event>
<event>
12    1  0.8798177E-003  0.1807201E+03  0.7818608E-02  0.1167111E+00
         21   -1    0    0  503  502  0.00000000000E+00  0.00000000000E+00  0.94155608261E+02  0.94155608261E+02  0.00000000000E+00 0.  1.
         21   -1    0    0  501  503 -0.00000000000E+00 -0.00000000000E+00 -0.50074699579E+03  0.50074699579E+03  0.00000000000E+00 0.  1.
          6    2    1    2  501    0 -0.47937403173E+02 -0.30036676322E+02 -0.36820345091E+03  0.41016281562E+03  0.17163786734E+03 0.  0.
         24    2    3    3    0    0 -0.93843364157E+02 -0.44427763677E+02 -0.24078243023E+03  0.27388124254E+03  0.79084468292E+02 0.  0.
         -6    2    1    2    0  502  0.47937403173E+02  0.30036676322E+02 -0.38387936613E+02  0.18473978843E+03  0.17162447146E+03 0.  0.
        -24    2    5    5    0    0  0.69975219124E+02 -0.53245004319E+01 -0.74449630541E+02  0.12943505154E+03  0.79283059251E+02 0.  0.
          5    1    3    3  501    0  0.45905960984E+02  0.14391087355E+02 -0.12742102068E+03  0.13628157308E+03  0.47000000000E+01 0. -1.
        -11    1    4    4    0    0 -0.16180307118E+02 -0.10112906144E+02 -0.14347707653E+03  0.14474026633E+03  0.00000000000E+00 0.  1.
         12    1    4    4    0    0 -0.77663057039E+02 -0.34314857533E+02 -0.97305353704E+02  0.12914097621E+03  0.00000000000E+00 0. -1.
         -5    1    5    5    0  502 -0.22037815951E+02  0.35361176754E+02  0.36061693928E+02  0.55304736888E+02  0.47000000000E+01 0.  1.
         11    1    6    6    0    0  0.30939892245E+02 -0.21999050711E+01 -0.83643930435E+02  0.89209997270E+02  0.00000000000E+00 0. -1.
        -12    1    6    6    0    0  0.39035326879E+02 -0.31245953608E+01  0.91942998940E+01  0.40225054273E+02  0.00000000000E+00 0.  1.
</event>
<event>
12    1  0.8798177E-003  0.1789085E+03  0.7818608E-02  0.1168971E+00
         21   -1    0    0  503  502  0.00000000000E+00  0.00000000000E+00  0.20515130813E+03  0.20515130813E+03  0.00000000000E+00 0.  1.
         21   -1    0    0  501  503 -0.00000000000E+00 -0.00000000000E+00 -0.15862317367E+03  0.15862317367E+03  0.00000000000E+00 0.  1.
          6    2    1    2  501    0  0.33851554384E+02 -0.34920247812E+02 -0.16496728228E+01  0.17891606716E+03  0.17217109579E+03 0.  0.
         24    2    3    3    0    0  0.54263619996E+02  0.24509173121E+02  0.18248161961E+02  0.11283640066E+03  0.94094728214E+02 0.  0.
         -6    2    1    2    0  502 -0.33851554384E+02  0.34920247812E+02  0.48177807287E+02  0.18485841465E+03  0.17171540673E+03 0.  0.
        -24    2    5    5    0    0  0.21729622510E+02  0.10275381638E+02  0.79871053578E+02  0.11613295711E+03  0.80806674008E+02 0.  0.
          5    1    3    3  501    0 -0.20412065612E+02 -0.59429420933E+02 -0.19897834784E+02  0.66079666495E+02  0.47000000000E+01 0. -1.
        -11    1    4    4    0    0 -0.50724498106E+01  0.26321865702E+02 -0.27111838356E+02  0.38126396895E+02  0.00000000000E+00 0.  1.
         12    1    4    4    0    0  0.59336069806E+02 -0.18126925812E+01  0.45360000317E+02  0.74710003769E+02  0.00000000000E+00 0. -1.
         -5    1    5    5    0  502 -0.55581176894E+02  0.24644866174E+02 -0.31693246291E+02  0.68725457540E+02  0.47000000000E+01 0.  1.
         11    1    6    6    0    0  0.11479958387E+01 -0.19302978226E+02 -0.81782221126E+01  0.20995384726E+02  0.00000000000E+00 0. -1.
        -12    1    6    6    0    0  0.20581626671E+02  0.29578359865E+02  0.88049275691E+02  0.95137572380E+02  0.00000000000E+00 0.  1.
</event>
<event>
12    1  0.8798177E-003  0.2027148E+03  0.7818608E-02  0.1147948E+00
         21   -1    0    0  503  502  0.00000000000E+00  0.00000000000E+00  0.34037642333E+03  0.34037642333E+03  0.00000000000E+00 0.  1.
         21   -1    0    0  501  503 -0.00000000000E+00 -0.00000000000E+00 -0.11939283312E+03  0.11939283312E+03  0.00000000000E+00 0. -1.
          6    2    1    2  501    0 -0.72595907893E+02  0.76026212029E+02  0.10621136381E+03  0.22681872267E+03  0.17063331560E+03 0.  0.
         24    2    3    3    0    0  0.17710045206E+02  0.17806952612E+02  0.13119135050E+02  0.84576322565E+02  0.79688828399E+02 0.  0.
         -6    2    1    2    0  502  0.72595907893E+02 -0.76026212029E+02  0.11477222639E+03  0.23295053377E+03  0.17332956030E+03 0.  0.
        -24    2    5    5    0    0 -0.14065612458E+02  0.85670024441E+01  0.44524133406E+02  0.92868002336E+02  0.79817494433E+02 0.  0.
          5    1    3    3  501    0 -0.90305953099E+02  0.58219259417E+02  0.93092228764E+02  0.14224240011E+03  0.47000000000E+01 0. -1.
        -13    1    4    4    0    0  0.27120630468E+02 -0.10783661060E+02  0.36305124330E+02  0.46581949245E+02  0.00000000000E+00 0.  1.
         14    1    4    4    0    0 -0.94105852621E+01  0.28590613672E+02 -0.23185989280E+02  0.37994373320E+02  0.00000000000E+00 0. -1.
         -5    1    5    5    0  502  0.86661520350E+02 -0.84593214473E+02  0.70248092988E+02  0.14008253143E+03  0.47000000000E+01 0.  1.
         11    1    6    6    0    0  0.25013002454E+02  0.12830604310E+02 -0.61073413270E+01  0.28767591433E+02  0.00000000000E+00 0. -1.
        -12    1    6    6    0    0 -0.39078614912E+02 -0.42636018656E+01  0.50631474733E+02  0.64100410903E+02  0.00000000000E+00 0.  1.
</event>
<event>
12    1  0.8798177E-003  0.2044872E+03  0.7818608E-02  0.1146022E+00
         21   -1    0    0  501  502  0.00000000000E+00  0.00000000000E+00  0.45224512296E+03  0.45224512296E+03  0.00000000000E+00 0. -1.
         21   -1    0    0  502  503 -0.00000000000E+00 -0.00000000000E+00 -0.23052114766E+03  0.23052114766E+03  0.00000000000E+00 0. -1.
          6    2    1    2  501    0  0.28273854340E+02 -0.10749461250E+03  0.37509311751E+03  0.42721171285E+03  0.17164060778E+03 0.  0.
         24    2    3    3    0    0  0.26544974770E+02  0.32861582938E+01  0.11547360973E+03  0.14490027663E+03  0.83345672359E+02 0.  0.
         -6    2    1    2    0  503 -0.28273854340E+02  0.10749461250E+03 -0.15336914220E+03  0.25555455777E+03  0.17155621720E+03 0.  0.
        -24    2    5    5    0    0  0.36369937865E+02  0.63445485055E+02 -0.36184518428E+02  0.11458125694E+03  0.80445280240E+02 0.  0.
          5    1    3    3  501    0  0.17288795696E+01 -0.11078077079E+03  0.25961950778E+03  0.28231143622E+03  0.47000000000E+01 0. -1.
        -13    1    4    4    0    0 -0.14917866029E+02  0.31074257484E+02  0.28958983715E+02  0.45019717268E+02  0.00000000000E+00 0.  1.
         14    1    4    4    0    0  0.41462840800E+02 -0.27788099190E+02  0.86514626014E+02  0.99880559360E+02  0.00000000000E+00 0. -1.
         -5    1    5    5    0  503 -0.64643792204E+02  0.44049127445E+02 -0.11718462377E+03  0.14097330083E+03  0.47000000000E+01 0.  1.
         13    1    6    6    0    0  0.49387129059E+02  0.31365619053E+02 -0.50337254257E+02  0.77179853209E+02  0.00000000000E+00 0. -1.
        -14    1    6    6    0    0 -0.13017191194E+02  0.32079866002E+02  0.14152735828E+02  0.37401403727E+02  0.00000000000E+00 0.  1.
</event>
<event>
12    1  0.8798177E-003  0.2526947E+03  0.7818608E-02  0.1112360E+00
         21   -1    0    0  503  502  0.00000000000E+00  0.00000000000E+00  0.61406020754E+02  0.61406020754E+02  0.00000000000E+00 0.  1.
         21   -1    0    0  501  503 -0.00000000000E+00 -0.00000000000E+00 -0.10682848213E+04  0.10682848213E+04  0.00000000000E+00 0. -1.
          6    2    1    2  501    0 -0.94848692348E+02  0.15091769822E+03 -0.38849009230E+03  0.46344272585E+03  0.17911499729E+03 0.  0.
         24    2    3    3    0    0 -0.51093104163E+02  0.25440837800E+01 -0.17469308374E+03  0.19950990897E+03  0.81667328935E+02 0.  0.
         -6    2    1    2    0  502  0.94848692348E+02 -0.15091769822E+03 -0.61838870823E+03  0.66624811619E+03  0.17236453168E+03 0.  0.
        -24    2    5    5    0    0  0.13159327493E+03 -0.12674723522E+03 -0.55026715510E+03  0.58502612637E+03  0.77974193822E+02 0.  0.
          5    1    3    3  501    0 -0.43755588185E+02  0.14837361444E+03 -0.21379700856E+03  0.26393281688E+03  0.47000000000E+01 0. -1.
        -13    1    4    4    0    0 -0.61539414144E+02  0.13430886356E+02 -0.17325961923E+03  0.18435396350E+03  0.00000000000E+00 0.  1.
         14    1    4    4    0    0  0.10446309981E+02 -0.10886802576E+02 -0.14334645056E+01  0.15155945469E+02  0.00000000000E+00 0. -1.
         -5    1    5    5    0  502 -0.36744582578E+02 -0.24170462991E+02 -0.68121553129E+02  0.81221989823E+02  0.47000000000E+01 0.  1.
         11    1    6    6    0    0  0.23103430505E+02 -0.45819627707E+02 -0.25644119375E+03  0.26152493693E+03  0.00000000000E+00 0. -1.
        -12    1    6    6    0    0  0.10848984442E+03 -0.80927607517E+02 -0.29382596135E+03  0.32350118943E+03  0.00000000000E+00 0.  1.
</event>
<event>
12    1  0.8798177E-003  0.2506999E+03  0.7818608E-02  0.1112955E+00
         21   -1    0    0  501  502  0.00000000000E+00  0.00000000000E+00  0.17791230767E+04  0.17791230767E+04  0.00000000000E+00 0.  1.
         21   -1    0    0  502  503 -0.00000000000E+00 -0.00000000000E+00 -0.44343885137E+02  0.44343885137E+02  0.00000000000E+00 0. -1.
          6    2    1    2  501    0  0.29560168784E+02 -0.17942643317E+03  0.12812000025E+04  0.13054975708E+04  0.17257697502E+03 0.  0.
         24    2    3    3    0    0 -0.14574009886E+02 -0.17340657611E+03  0.11710809298E+04  0.11866179485E+04  0.79682929349E+02 0.  0.
         -6    2    1    2    0  503 -0.29560168784E+02  0.17942643317E+03  0.45357918902E+03  0.51796939106E+03  0.17172815977E+03 0.  0.
        -24    2    5    5    0    0 -0.30616650905E+02  0.12951946432E+03  0.43905168347E+03  0.46576824057E+03  0.80380359668E+02 0.  0.
          5    1    3    3  501    0  0.44134178670E+02 -0.60198570592E+01  0.11011907277E+03  0.11887962228E+03  0.47000000000E+01 0. -1.
        -11    1    4    4    0    0 -0.38511550716E+02 -0.73732857874E+02  0.38518317968E+03  0.39406313679E+03  0.00000000000E+00 0.  1.
         12    1    4    4    0    0  0.23937540830E+02 -0.99673718239E+02  0.78589775007E+03  0.79255481169E+03  0.00000000000E+00 0. -1.
         -5    1    5    5    0  503  0.10564821209E+01  0.49906968848E+02  0.14527505557E+02  0.52201150484E+02  0.47000000000E+01 0.  1.
         13    1    6    6    0    0  0.33549242508E+01  0.26428324351E+02  0.21193502215E+02  0.34042273438E+02  0.00000000000E+00 0. -1.
        -14    1    6    6    0    0 -0.33971575156E+02  0.10309113997E+03  0.41785818125E+03  0.43172596713E+03  0.00000000000E+00 0.  1.
</event>
<event>
12    1  0.8798177E-003  0.1778870E+03  0.7818608E-02  0.1170069E+00
         21   -1    0    0  501  502  0.00000000000E+00  0.00000000000E+00  0.15249034746E+03  0.15249034746E+03  0.00000000000E+00 0. -1.
         21   -1    0    0  502  503 -0.00000000000E+00 -0.00000000000E+00 -0.26872270123E+03  0.26872270123E+03  0.00000000000E+00 0. -1.
          6    2    1    2  501    0 -0.43701068690E+02  0.84379622564E+00  0.43088212863E+02  0.18303103867E+03  0.17243338317E+03 0.  0.
         24    2    3    3    0    0 -0.75081638007E+02  0.41402315922E+02  0.55789655445E+02  0.12999189940E+03  0.80212244240E+02 0.  0.
         -6    2    1    2    0  503  0.43701068690E+02 -0.84379622564E+00 -0.15932056663E+03  0.23818201002E+03  0.17157252563E+03 0.  0.
        -24    2    5    5    0    0  0.21872299618E+02 -0.53014608378E+02 -0.15209597184E+03  0.18097559806E+03  0.79561524938E+02 0.  0.
          5    1    3    3  501    0  0.31380569317E+02 -0.40558519696E+02 -0.12701442582E+02  0.53039139268E+02  0.47000000000E+01 0. -1.
        -13    1    4    4    0    0 -0.86009400713E+01  0.32414744860E+02 -0.11032723027E+02  0.35304572393E+02  0.00000000000E+00 0.  1.
         14    1    4    4    0    0 -0.66480697935E+02  0.89875710622E+01  0.66822378472E+02  0.94687327009E+02  0.00000000000E+00 0. -1.
         -5    1    5    5    0  503  0.21828769072E+02  0.52170812152E+02 -0.72245947897E+01  0.57206411963E+02  0.47000000000E+01 0.  1.
         13    1    6    6    0    0  0.49415423063E+02 -0.16538224231E+02 -0.87565984313E+02  0.10189798087E+03  0.00000000000E+00 0. -1.
        -14    1    6    6    0    0 -0.27543123445E+02 -0.36476384146E+02 -0.64529987530E+02  0.79077617188E+02  0.00000000000E+00 0.  1.
</event>
<event>
12    1  0.8798177E-003  0.2192763E+03  0.7818608E-02  0.1135282E+00
         21   -1    0    0  503  502  0.00000000000E+00  0.00000000000E+00  0.62343561351E+02  0.62343561351E+02  0.00000000000E+00 0. -1.
         21   -1    0    0  501  503 -0.00000000000E+00 -0.00000000000E+00 -0.78222717130E+03  0.78222717130E+03  0.00000000000E+00 0.  1.
          6    2    1    2  501    0 -0.94859441119E+02 -0.96967551231E+02 -0.44180308917E+03  0.49322617326E+03  0.17228194574E+03 0.  0.
         24    2    3    3    0    0 -0.63035811886E+02 -0.20368660293E+02 -0.36682905107E+03  0.38131848872E+03  0.80323354193E+02 0.  0.
         -6    2    1    2    0  502  0.94859441119E+02  0.96967551231E+02 -0.27808052078E+03  0.35134455939E+03  0.16647283206E+03 0.  0.
        -24    2    5    5    0    0  0.60480005142E+02  0.97770861819E+02 -0.10403505049E+03  0.17387200756E+03  0.78684247718E+02 0.  0.
          5    1    3    3  501    0 -0.31823629232E+02 -0.76598890937E+02 -0.74974038103E+02  0.11190768454E+03  0.47000000000E+01 0. -1.
        -13    1    4    4    0    0 -0.39624889164E+02  0.36418067345E+01 -0.32628732752E+03  0.32870475308E+03  0.00000000000E+00 0.  1.
         14    1    4    4    0    0 -0.23410922722E+02 -0.24010467028E+02 -0.40541723550E+02  0.52613735640E+02  0.00000000000E+00 0. -1.
         -5    1    5    5    0  502  0.34379435977E+02 -0.80331058833E+00 -0.17404547029E+03  0.17747255183E+03  0.47000000000E+01 0.  1.
         11    1    6    6    0    0  0.31323064628E+02  0.76432909459E+01 -0.62731700376E+02  0.70532407489E+02  0.00000000000E+00 0. -1.
        -12    1    6    6    0    0  0.29156940514E+02  0.90127570873E+02 -0.41303350113E+02  0.10333960007E+03  0.00000000000E+00 0.  1.
</event>
<event>
12    1  0.8798177E-003  0.2243872E+03  0.7818608E-02  0.1130847E+00
         21   -1    0    0  501  502  0.00000000000E+00  0.00000000000E+00  0.20095165138E+03  0.20095165138E+03  0.00000000000E+00 0. -1.
         21   -1    0    0  502  503 -0.00000000000E+00 -0.00000000000E+00 -0.25155372251E+03  0.25155372251E+03  0.00000000000E+00 0.  1.
          6    2    1    2  501    0  0.95225000043E+02  0.10816168093E+03 -0.46316183646E+02  0.22807729028E+03  0.17060865048E+03 0.  0.
         24    2    3    3    0    0  0.12523440510E+03  0.97944062174E+02 -0.80255341681E+01  0.17814505658E+03  0.79965970566E+02 0.  0.
         -6    2    1    2    0  503 -0.95225000043E+02 -0.10816168093E+03 -0.42858874814E+01  0.22442808362E+03  0.17199664540E+03 0.  0.
        -24    2    5    5    0    0 -0.10552792552E+03 -0.10205354954E+03 -0.54590893520E+02  0.17250368497E+03  0.72293053852E+02 0.  0.
          5    1    3    3  501    0 -0.30009405055E+02  0.10217618756E+02 -0.38290649478E+02  0.49932233699E+02  0.47000000000E+01 0. -1.
        -13    1    4    4    0    0  0.49336051317E+02  0.35414650818E+02 -0.42293648032E+02  0.74006730207E+02  0.00000000000E+00 0.  1.
         14    1    4    4    0    0  0.75898353781E+02  0.62529411357E+02  0.34268113864E+02  0.10413832637E+03  0.00000000000E+00 0. -1.
         -5    1    5    5    0  503  0.10302925475E+02 -0.61081313951E+01  0.50305006039E+02  0.51924398649E+02  0.47000000000E+01 0.  1.
         11    1    6    6    0    0 -0.57737132928E+02 -0.11168982281E+02 -0.66579334836E+01  0.59183196621E+02  0.00000000000E+00 0. -1.
        -12    1    6    6    0    0 -0.47790792590E+02 -0.90884567254E+02 -0.47932960037E+02  0.11332048835E+03  0.00000000000E+00 0.  1.
</event>
<event>
12    1  0.8798177E-003  0.1876718E+03  0.7818608E-02  0.1162326E+00
         21   -1    0    0  503  502  0.00000000000E+00  0.00000000000E+00  0.28248477482E+03  0.28248477482E+03  0.00000000000E+00 0.  1.
         21   -1    0    0  501  503 -0.00000000000E+00 -0.00000000000E+00 -0.18987606247E+03  0.18987606247E+03  0.00000000000E+00 0.  1.
          6    2    1    2  501    0 -0.68346828303E+02  0.19330333178E+02 -0.97779647247E+02  0.20502503711E+03  0.16561840389E+03 0.  0.
         24    2    3    3    0    0 -0.17579630623E+02  0.67373914656E+02 -0.35535955308E+02  0.11131345156E+03  0.79243880449E+02 0.  0.
         -6    2    1    2    0  502  0.68346828303E+02 -0.19330333178E+02  0.19038835960E+03  0.26733580017E+03  0.17371169178E+03 0.  0.
        -24    2    5    5    0    0 -0.28234219052E+02 -0.28638938390E+01  0.56998749440E+02  0.10176430374E+03  0.79383518843E+02 0.  0.
          5    1    3    3  501    0 -0.50767197681E+02 -0.48043581478E+02 -0.62243691940E+02  0.93711585558E+02  0.47000000000E+01 0. -1.
        -11    1    4    4    0    0  0.83657206662E+01 -0.29258348441E+01 -0.35282194166E+02  0.36378276717E+02  0.00000000000E+00 0.  1.
         12    1    4    4    0    0 -0.25945351289E+02  0.70299749500E+02 -0.25376114203E+00  0.74935174838E+02  0.00000000000E+00 0. -1.
         -5    1    5    5    0  502  0.96581047355E+02 -0.16466439339E+02  0.13338961016E+03  0.16557149644E+03  0.47000000000E+01 0.  1.
         13    1    6    6    0    0  0.50909932824E+00 -0.29635700099E+02 -0.32756201531E+01  0.29820522965E+02  0.00000000000E+00 0. -1.
        -14    1    6    6    0    0 -0.28743318380E+02  0.26771806260E+02  0.60274369593E+02  0.71943780772E+02  0.00000000000E+00 0.  1.
</event>
<event>
12    1  0.8798177E-003  0.2193879E+03  0.7818608E-02  0.1134708E+00
         21   -1    0    0  501  502  0.00000000000E+00  0.00000000000E+00  0.59707412007E+03  0.59707412007E+03  0.00000000000E+00 0.  1.
         21   -1    0    0  502  503 -0.00000000000E+00 -0.00000000000E+00 -0.82057365961E+02  0.82057365961E+02  0.00000000000E+00 0. -1.
          6    2    1    2  501    0 -0.10882861027E+03  0.78479111713E+02  0.31152185002E+03  0.37989709221E+03  0.17109441908E+03 0.  0.
         24    2    3    3    0    0 -0.11176515589E+03  0.59061975048E+02  0.32306052558E+03  0.35664027536E+03  0.82730984844E+02 0.  0.
         -6    2    1    2    0  503  0.10882861027E+03 -0.78479111713E+02  0.20349490408E+03  0.29923439382E+03  0.17357536999E+03 0.  0.
        -24    2    5    5    0    0  0.27477612951E+02  0.15546828373E+02  0.43813733983E+02  0.96801619157E+02  0.80337955537E+02 0.  0.
          5    1    3    3  501    0  0.29365456255E+01  0.19417136665E+02 -0.11538675554E+02  0.23256816851E+02  0.47000000000E+01 0. -1.
        -13    1    4    4    0    0 -0.11678315981E+02  0.41488925633E+02  0.14878772802E+03  0.15490481601E+03  0.00000000000E+00 0.  1.
         14    1    4    4    0    0 -0.10008683991E+03  0.17573049415E+02  0.17427279756E+03  0.20173545934E+03  0.00000000000E+00 0. -1.
         -5    1    5    5    0  503  0.81350997316E+02 -0.94025940086E+02  0.15968117010E+03  0.20243277466E+03  0.47000000000E+01 0.  1.
         11    1    6    6    0    0  0.38778917944E+02  0.33839454574E+02  0.52583894052E+02  0.73579746374E+02  0.00000000000E+00 0. -1.
        -12    1    6    6    0    0 -0.11301304993E+02 -0.18292626202E+02 -0.87701600687E+01  0.23221872783E+02  0.00000000000E+00 0.  1.
</event>
<event>
12    1  0.8798177E-003  0.2282560E+03  0.7818608E-02  0.1129521E+00
         21   -1    0    0  503  502  0.00000000000E+00  0.00000000000E+00  0.36293073002E+03  0.36293073002E+03  0.00000000000E+00 0.  1.
         21   -1    0    0  501  503 -0.00000000000E+00 -0.00000000000E+00 -0.15908656909E+03  0.15908656909E+03  0.00000000000E+00 0. -1.
          6    2    1    2  501    0 -0.60443789511E+02 -0.12162337077E+03  0.84957619066E+01  0.22841400447E+03  0.18345321872E+03 0.  0.
         24    2    3    3    0    0  0.37258432047E+02 -0.47770928855E+02  0.28743565177E+02  0.10418852073E+03  0.79742102493E+02 0.  0.
         -6    2    1    2    0  502  0.60443789511E+02  0.12162337077E+03  0.19534839903E+03  0.29360329464E+03  0.17203546615E+03 0.  0.
        -24    2    5    5    0    0  0.60775568827E+02  0.79721997022E+01  0.11617418815E+03  0.15501273063E+03  0.82312082540E+02 0.  0.
          5    1    3    3  501    0 -0.97702221558E+02 -0.73852441918E+02 -0.20247803270E+02  0.12422548375E+03  0.47000000000E+01 0. -1.
        -13    1    4    4    0    0 -0.10643608021E+02  0.13950267768E+02  0.18319612792E+02  0.25367391970E+02  0.00000000000E+00 0.  1.
         14    1    4    4    0    0  0.47902040068E+02 -0.61721196623E+02  0.10423952384E+02  0.78821128757E+02  0.00000000000E+00 0. -1.
         -5    1    5    5    0  502 -0.33177931621E+00  0.11365117107E+03  0.79174210880E+02  0.13859056401E+03  0.47000000000E+01 0.  1.
         11    1    6    6    0    0 -0.18986345298E+02 -0.88330006504E+01  0.20214780938E+02  0.29105679457E+02  0.00000000000E+00 0. -1.
        -12    1    6    6    0    0  0.79761914125E+02  0.16805200353E+02  0.95959407212E+02  0.12590705118E+03  0.00000000000E+00 0.  1.
</event>
<event>
12    1  0.8798177E-003  0.2787689E+03  0.7818608E-02  0.1096398E+00
         21   -1    0    0  503  502  0.00000000000E+00  0.00000000000E+00  0.15428360271E+03  0.15428360271E+03  0.00000000000E+00 0. -1.
         21   -1    0    0  501  503 -0.00000000000E+00 -0.00000000000E+00 -0.54788897424E+03  0.54788897424E+03  0.00000000000E+00 0.  1.
          6    2    1    2  501    0  0.20468105189E+03 -0.77201370054E+02 -0.29694141065E+03  0.40712000703E+03  0.17238942609E+03 0.  0.
         24    2    3    3    0    0  0.25920516947E+02 -0.44133039259E+02 -0.11683262827E+03  0.15117058459E+03  0.81136208106E+02 0.  0.
         -6    2    1    2    0  502 -0.20468105189E+03  0.77201370054E+02 -0.96663960886E+02  0.29505256992E+03  0.17279384578E+03 0.  0.
        -24    2    5    5    0    0 -0.19943661025E+03  0.68927839456E+02 -0.28950665133E+02  0.22647315684E+03  0.76980135074E+02 0.  0.
          5    1    3    3  501    0  0.17876053494E+03 -0.33068330795E+02 -0.18010878239E+03  0.25594942244E+03  0.47000000000E+01 0. -1.
        -13    1    4    4    0    0  0.32008933169E+02 -0.65934651890E+02 -0.88938344744E+02  0.11524746977E+03  0.00000000000E+00 0.  1.
         14    1    4    4    0    0 -0.60884162227E+01  0.21801612631E+02 -0.27894283523E+02  0.35923114824E+02  0.00000000000E+00 0. -1.
         -5    1    5    5    0  502 -0.52444416424E+01  0.82735305985E+01 -0.67713295753E+02  0.68579413080E+02  0.47000000000E+01 0.  1.
         13    1    6    6    0    0 -0.78404356217E+02  0.42569602167E+02  0.23028958764E+02  0.92139823336E+02  0.00000000000E+00 0. -1.
        -14    1    6    6    0    0 -0.12103225403E+03  0.26358237288E+02 -0.51979623897E+02  0.13433333350E+03  0.00000000000E+00 0.  1.
</event>
<event>
12    1  0.8798177E-003  0.1829145E+03  0.7818608E-02  0.1165249E+00
         21   -1    0    0  503  502  0.00000000000E+00  0.00000000000E+00  0.74957953532E+03  0.74957953532E+03  0.00000000000E+00 0. -1.
         21   -1    0    0  501  503 -0.00000000000E+00 -0.00000000000E+00 -0.45866340893E+02  0.45866340893E+02  0.00000000000E+00 0. -1.
          6    2    1    2  501    0  0.60181837464E+02 -0.76870251881E+01  0.42409773595E+03  0.46186208782E+03  0.17255942341E+03 0.  0.
         24    2    3    3    0    0  0.29727862540E+02  0.47976582765E+02  0.14038154986E+03  0.17109956257E+03  0.79891066243E+02 0.  0.
         -6    2    1    2    0  502 -0.60181837464E+02  0.76870251881E+01  0.27961545847E+03  0.33358378839E+03  0.17150042374E+03 0.  0.
        -24    2    5    5    0    0 -0.29719115974E+02 -0.55405367462E+02  0.11308315768E+03  0.15285270468E+03  0.81382849424E+02 0.  0.
          5    1    3    3  501    0  0.30453974924E+02 -0.55663607954E+02  0.28371618609E+03  0.29076252525E+03  0.47000000000E+01 0. -1.
        -11    1    4    4    0    0  0.19907657130E+02  0.31252638025E+02  0.14622297689E+03  0.15084495738E+03  0.00000000000E+00 0.  1.
         12    1    4    4    0    0  0.98202054101E+01  0.16723944740E+02 -0.58414270249E+01  0.20254605196E+02  0.00000000000E+00 0. -1.
         -5    1    5    5    0  502 -0.30462721490E+02  0.63092392650E+02  0.16653230079E+03  0.18073108371E+03  0.47000000000E+01 0.  1.
         13    1    6    6    0    0 -0.72639686795E+01  0.55616274297E+01  0.78918046155E+02  0.79446554044E+02  0.00000000000E+00 0. -1.
        -14    1    6    6    0    0 -0.22455147294E+02 -0.60966994892E+02  0.34165111525E+02  0.73406150639E+02  0.00000000000E+00 0.  1.
</event>
<event>
12    1  0.8798177E-003  0.4664652E+03  0.7818608E-02  0.1022982E+00
         21   -1    0    0  501  502  0.00000000000E+00  0.00000000000E+00  0.39625848201E+03  0.39625848201E+03  0.00000000000E+00 0.  1.
         21   -1    0    0  502  503 -0.00000000000E+00 -0.00000000000E+00 -0.56464134639E+03  0.56464134639E+03  0.00000000000E+00 0. -1.
          6    2    1    2  501    0 -0.43267968215E+03  0.12652546773E+02 -0.19519773718E+01  0.46563320237E+03  0.17157702250E+03 0.  0.
         24    2    3    3    0    0 -0.42426308830E+03 -0.93043513309E+01  0.21136699163E+02  0.43234474476E+03  0.79934218058E+02 0.  0.
         -6    2    1    2    0  503  0.43267968215E+03 -0.12652546773E+02 -0.16643088701E+03  0.49526662603E+03  0.17383324315E+03 0.  0.
        -24    2    5    5    0    0  0.29291868658E+03  0.60357962843E+02 -0.10903290091E+03  0.32739676809E+03  0.76524699594E+02 0.  0.
          5    1    3    3  501    0 -0.84165938456E+01  0.21956898104E+02 -0.23088676535E+02  0.33288457615E+02  0.47000000000E+01 0. -1.
        -13    1    4    4    0    0 -0.12419067271E+03 -0.22223670732E+02  0.37293935999E+02  0.13156007142E+03  0.00000000000E+00 0.  1.
         14    1    4    4    0    0 -0.30007241559E+03  0.12919319401E+02 -0.16157236836E+02  0.30078467334E+03  0.00000000000E+00 0. -1.
         -5    1    5    5    0  503  0.13976099556E+03 -0.73010509616E+02 -0.57397986101E+02  0.16786985794E+03  0.47000000000E+01 0.  1.
         13    1    6    6    0    0  0.10862259165E+03 -0.81401981743E+01 -0.16766909080E+02  0.11021006979E+03  0.00000000000E+00 0. -1.
        -14    1    6    6    0    0  0.18429609493E+03  0.68498161017E+02 -0.92265991833E+02  0.21718669830E+03  0.00000000000E+00 0.  1.
</event>
<event>
12    1  0.8798177E-003  0.1945810E+03  0.7818608E-02  0.1155874E+00
         21   -1    0    0  503  502  0.00000000000E+00  0.00000000000E+00  0.24935438510E+03  0.24935438510E+03  0.00000000000E+00 0. -1.
         21   -1    0    0  501  503 -0.00000000000E+00 -0.00000000000E+00 -0.14764985422E+03  0.14764985422E+03  0.00000000000E+00 0. -1.
          6    2    1    2  501    0  0.48765764149E+02 -0.57840810084E+02  0.65935581563E+02  0.19916289445E+03  0.17203109761E+03 0.  0.
         24    2    3    3    0    0  0.31098342076E+02  0.24298799634E+02 -0.45458449726E+01  0.89395983342E+02  0.80083947128E+02 0.  0.
         -6    2    1    2    0  502 -0.48765764149E+02  0.57840810084E+02  0.35768949313E+02  0.19784134487E+03  0.17927108227E+03 0.  0.
        -24    2    5    5    0    0 -0.54647167464E+02  0.89346599273E+02  0.70038943974E+02  0.15068492228E+03  0.82652068428E+02 0.  0.
          5    1    3    3  501    0  0.17667422073E+02 -0.82139609718E+02  0.70481426536E+02  0.10976691111E+03  0.47000000000E+01 0. -1.
        -13    1    4    4    0    0 -0.80137264206E+01  0.44173520098E+02  0.24889800339E+01  0.44963481967E+02  0.00000000000E+00 0.  1.
         14    1    4    4    0    0  0.39112068497E+02 -0.19874720464E+02 -0.70348250065E+01  0.44432501375E+02  0.00000000000E+00 0. -1.
         -5    1    5    5    0  502  0.58814033144E+01 -0.31505789189E+02 -0.34269994660E+02  0.47156422589E+02  0.47000000000E+01 0.  1.
         13    1    6    6    0    0 -0.75292781093E+02  0.54689215216E+02  0.47684139536E+02  0.10456428792E+03  0.00000000000E+00 0. -1.
        -14    1    6    6    0    0  0.20645613629E+02  0.34657384057E+02  0.22354804438E+02  0.46120634354E+02  0.00000000000E+00 0.  1.
</event>
<event>
12    1  0.8798177E-003  0.2729317E+03  0.7818608E-02  0.1099717E+00
         21   -1    0    0  503  502  0.00000000000E+00  0.00000000000E+00  0.87751022470E+03  0.87751022470E+03  0.00000000000E+00 0.  1.
         21   -1    0    0  501  503 -0.00000000000E+00 -0.00000000000E+00 -0.85404801392E+02  0.85404801392E+02  0.00000000000E+00 0.  1.
          6    2    1    2  501    0  0.19325521801E+03 -0.85367519039E+02  0.44044702839E+03  0.51776861937E+03  0.17162623866E+03 0.  0.
         24    2    3    3    0    0  0.15957691057E+03 -0.12835606146E+03  0.34679297314E+03  0.40925403401E+03  0.72687201311E+02 0.  0.
         -6    2    1    2    0  502 -0.19325521801E+03  0.85367519039E+02  0.35165839492E+03  0.44514640672E+03  0.17279034725E+03 0.  0.
        -24    2    5    5    0    0 -0.55705947907E+02  0.80964905952E+02  0.11758722890E+03  0.17357581650E+03  0.81506680993E+02 0.  0.
          5    1    3    3  501    0  0.33678307443E+02  0.42988542422E+02  0.93654055253E+02  0.10851458537E+03  0.47000000000E+01 0. -1.
        -11    1    4    4    0    0  0.26828143038E+02 -0.56799218394E+02  0.13869646211E+03  0.15225836289E+03  0.00000000000E+00 0.  1.
         12    1    4    4    0    0  0.13274876753E+03 -0.71556843068E+02  0.20809651103E+03  0.25699567112E+03  0.00000000000E+00 0. -1.
         -5    1    5    5    0  502 -0.13754927010E+03  0.44026130871E+01  0.23407116602E+03  0.27157059022E+03  0.47000000000E+01 0.  1.
         11    1    6    6    0    0 -0.32434340016E+02  0.42595407259E+02  0.67044391233E+01  0.53956506890E+02  0.00000000000E+00 0. -1.
        -12    1    6    6    0    0 -0.23271607891E+02  0.38369498693E+02  0.11088278977E+03  0.11961930961E+03  0.00000000000E+00 0.  1.
</event>
<event>
12    1  0.8798177E-003  0.2125688E+03  0.7818608E-02  0.1142577E+00
         21   -1    0    0  501  502  0.00000000000E+00  0.00000000000E+00  0.55774781658E+03  0.55774781658E+03  0.00000000000E+00 0.  1.
         21   -1    0    0  502  503 -0.00000000000E+00 -0.00000000000E+00 -0.76057064426E+02  0.76057064426E+02  0.00000000000E+00 0.  1.
          6    2    1    2  501    0 -0.56609717243E+02 -0.79360102438E+02  0.26120008369E+03  0.32753439452E+03  0.17190290844E+03 0.  0.
         24    2    3    3    0    0 -0.28753754928E+01 -0.79471473168E+02  0.24708905728E+03  0.27177954762E+03  0.80542767799E+02 0.  0.
         -6    2    1    2    0  503  0.56609717243E+02  0.79360102438E+02  0.22049066847E+03  0.30627048649E+03  0.18889888847E+03 0.  0.
        -24    2    5    5    0    0 -0.40688409326E+02  0.71165406903E+02  0.13014646221E+03  0.17316059177E+03  0.79538840334E+02 0.  0.
          5    1    3    3  501    0 -0.53734341750E+02  0.11137072995E+00  0.14111026407E+02  0.55754846901E+02  0.47000000000E+01 0. -1.
        -13    1    4    4    0    0 -0.26256352533E+02 -0.47085870435E+01  0.11635568445E+03  0.11937425243E+03  0.00000000000E+00 0.  1.
         14    1    4    4    0    0  0.23380977041E+02 -0.74762886125E+02  0.13073337283E+03  0.15240529519E+03  0.00000000000E+00 0. -1.
         -5    1    5    5    0  503  0.97298126568E+02  0.81946955351E+01  0.90344206258E+02  0.13310989472E+03  0.47000000000E+01 0.  1.
         13    1    6    6    0    0 -0.34506584494E+02  0.53417350728E+02  0.13864558357E+03  0.15253430950E+03  0.00000000000E+00 0. -1.
        -14    1    6    6    0    0 -0.61818248319E+01  0.17748056176E+02 -0.84991213565E+01  0.20626282265E+02  0.00000000000E+00 0.  1.
</event>
<event>
12    1  0.8798177E-003  0.3260242E+03  0.7818608E-02  0.1073052E+00
         21   -1    0    0  501  502  0.00000000000E+00  0.00000000000E+00  0.16995751392E+04  0.16995751392E+04  0.00000000000E+00 0.  1.
         21   -1    0    0  502  503 -0.00000000000E+00 -0.00000000000E+00 -0.93804772988E+02  0.93804772988E+02  0.00000000000E+00 0.  1.
          6    2    1    2  501    0 -0.21174675848E+02 -0.27474163399E+03  0.13236055370E+04  0.13631666815E+04  0.17424250834E+03 0.  0.
         24    2    3    3    0    0 -0.11743410246E+02 -0.21558333586E+03  0.12338789807E+04  0.12551778028E+04  0.79999346369E+02 0.  0.
         -6    2    1    2    0  503  0.21174675848E+02  0.27474163399E+03  0.28216482927E+03  0.43021323071E+03  0.17185779197E+03 0.  0.
        -24    2    5    5    0    0  0.48997276806E+02  0.72929434875E+02  0.79765934437E+02  0.14300309255E+03  0.79798775533E+02 0.  0.
          5    1    3    3  501    0 -0.94312656029E+01 -0.59158298133E+02  0.89726556291E+02  0.10798887865E+03  0.47000000000E+01 0. -1.
        -13    1    4    4    0    0 -0.36237856083E+02 -0.13610901499E+03  0.90774624618E+03  0.91860878160E+03  0.00000000000E+00 0.  1.
         14    1    4    4    0    0  0.24494445838E+02 -0.79474320863E+02  0.32613273450E+03  0.33656902125E+03  0.00000000000E+00 0. -1.
         -5    1    5    5    0  503 -0.27822600957E+02  0.20181219911E+03  0.20239889483E+03  0.28721013816E+03  0.47000000000E+01 0.  1.
         13    1    6    6    0    0  0.15851567638E+02  0.92016445725E+01  0.67734120125E+02  0.70170175207E+02  0.00000000000E+00 0. -1.
        -14    1    6    6    0    0  0.33145709167E+02  0.63727790302E+02  0.12031814312E+02  0.72832917343E+02  0.00000000000E+00 0.  1.
</event>
<event>
12    1  0.8798177E-003  0.1786452E+03  0.7818608E-02  0.1169285E+00
         21   -1    0    0  501  502  0.00000000000E+00  0.00000000000E+00  0.31449788172E+02  0.31449788172E+02  0.00000000000E+00 0. -1.
         21   -1    0    0  502  503 -0.00000000000E+00 -0.00000000000E+00 -0.10461932901E+04  0.10461932901E+04  0.00000000000E+00 0. -1.
          6    2    1    2  501    0  0.42214618071E+02  0.23140252407E+02 -0.40939749841E+03  0.44667710573E+03  0.17203656533E+03 0.  0.
         24    2    3    3    0    0 -0.33050214719E+02  0.48640758362E+02 -0.23036234254E+03  0.25074153494E+03  0.79663469786E+02 0.  0.
         -6    2    1    2    0  503 -0.42214618071E+02 -0.23140252407E+02 -0.60534600354E+03  0.63096597257E+03  0.17133805556E+03 0.  0.
        -24    2    5    5    0    0 -0.90893903098E+02 -0.28404826344E+02 -0.48842772856E+03  0.50412212545E+03  0.80677974430E+02 0.  0.
          5    1    3    3  501    0  0.75264832790E+02 -0.25500505955E+02 -0.17903515587E+03  0.19593557078E+03  0.47000000000E+01 0. -1.
        -13    1    4    4    0    0 -0.12713409818E+02  0.68593406559E+02 -0.17696463264E+03  0.19021873571E+03  0.00000000000E+00 0.  1.
         14    1    4    4    0    0 -0.20336804900E+02 -0.19952648197E+02 -0.53397709905E+02  0.60522799231E+02  0.00000000000E+00 0. -1.
         -5    1    5    5    0  503  0.48679285026E+02  0.52645739367E+01 -0.11691827497E+03  0.12684384712E+03  0.47000000000E+01 0.  1.
         13    1    6    6    0    0 -0.36104031728E+02 -0.19174608383E+02 -0.63128351491E+02  0.75208746005E+02  0.00000000000E+00 0. -1.
        -14    1    6    6    0    0 -0.54789871369E+02 -0.92302179603E+01 -0.42529937707E+03  0.42891337944E+03  0.00000000000E+00 0.  1.
</event>
<event>
12    1  0.8798177E-003  0.2123289E+03  0.7818608E-02  0.1140020E+00
         21   -1    0    0  503  502  0.00000000000E+00  0.00000000000E+00  0.74730864825E+02  0.74730864825E+02  0.00000000000E+00 0.  1.
         21   -1    0    0  501  503 -0.00000000000E+00 -0.00000000000E+00 -0.65772702229E+03  0.65772702229E+03  0.00000000000E+00 0. -1.
          6    2    1    2  501    0  0.10342226513E+03 -0.64365362539E+02 -0.39987792931E+03  0.45207269576E+03  0.17212872825E+03 0.  0.
         24    2    3    3    0    0  0.23704258710E+02  0.16909860397E+02 -0.10697863327E+03  0.13779143633E+03  0.81818192908E+02 0.  0.
         -6    2    1    2    0  502 -0.10342226513E+03  0.64365362539E+02 -0.18311822816E+03  0.28038519135E+03  0.17390947423E+03 0.  0.
        -24    2    5    5    0    0 -0.62095137563E+02 -0.30384637324E+02 -0.11490572373E+03  0.15644758726E+03  0.80582193566E+02 0.  0.
          5    1    3    3  501    0  0.79718006421E+02 -0.81275222936E+02 -0.29289929604E+03  0.31428125944E+03  0.47000000000E+01 0. -1.
        -11    1    4    4    0    0  0.23361686773E+02  0.95077414073E+01  0.48779445608E+01  0.25689684674E+02  0.00000000000E+00 0.  1.
         12    1    4    4    0    0  0.34257193740E+00  0.74021189900E+01 -0.11185657783E+03  0.11210175166E+03  0.00000000000E+00 0. -1.
         -5    1    5    5    0  502 -0.41327127569E+02  0.94749999862E+02 -0.68212504429E+02  0.12393760409E+03  0.47000000000E+01 0.  1.
         13    1    6    6    0    0 -0.32176421868E+02 -0.34733420248E+02 -0.11692462125E+03  0.12614713497E+03  0.00000000000E+00 0. -1.
        -14    1    6    6    0    0 -0.29918715695E+02  0.43487829249E+01  0.20188975236E+01  0.30300452290E+02  0.00000000000E+00 0.  1.
</event>
<event>
12    1  0.8798177E-003  0.1915736E+03  0.7818608E-02  0.1157187E+00
         21   -1    0    0  503  502  0.00000000000E+00  0.00000000000E+00  0.94637799976E+02  0.94637799976E+02  0.00000000000E+00 0.  1.
         21   -1    0    0  501  503 -0.00000000000E+00 -0.00000000000E+00 -0.39242523961E+03  0.39242523961E+03  0.00000000000E+00 0. -1.
          6    2    1    2  501    0  0.83568854608E+02  0.41277446960E+01 -0.17891022373E+03  0.26212459719E+03  0.17233584816E+03 0.  0.
         24    2    3    3    0    0 -0.16370911218E+02  0.16006257566E+02 -0.17753195052E+01  0.58340593511E+02  0.53630831399E+02 0.  0.
         -6    2    1    2    0  502 -0.83568854608E+02 -0.41277446960E+01 -0.11887721591E+03  0.22493844240E+03  0.17165290172E+03 0.  0.
        -24    2    5    5    0    0  0.23940663063E+02  0.10170488031E+02 -0.56751886063E+02  0.99860936598E+02  0.77941233708E+02 0.  0.
          5    1    3    3  501    0  0.99939765826E+02 -0.11878512870E+02 -0.17713490422E+03  0.20378400368E+03  0.47000000000E+01 0. -1.
        -13    1    4    4    0    0  0.13514902538E+02  0.21485885291E+02  0.76799327429E+01  0.26519374507E+02  0.00000000000E+00 0.  1.
         14    1    4    4    0    0 -0.29885813755E+02 -0.54796277244E+01 -0.94552522481E+01  0.31821219004E+02  0.00000000000E+00 0. -1.
         -5    1    5    5    0  502 -0.10750951767E+03 -0.14298232727E+02 -0.62125329848E+02  0.12507750580E+03  0.47000000000E+01 0.  1.
         13    1    6    6    0    0 -0.90558798133E+01  0.40080954580E+01 -0.64627911641E+02  0.65382266338E+02  0.00000000000E+00 0. -1.
        -14    1    6    6    0    0  0.32996542877E+02  0.61623925727E+01  0.78760255782E+01  0.34478670261E+02  0.00000000000E+00 0.  1.
</event>
<event>
12    1  0.8798177E-003  0.2702916E+03  0.7818608E-02  0.1101179E+00
         21   -1    0    0  501  502  0.00000000000E+00  0.00000000000E+00  0.94846163550E+03  0.94846163550E+03  0.00000000000E+00 0. -1.
         21   -1    0    0  502  503 -0.00000000000E+00 -0.00000000000E+00 -0.86438431396E+02  0.86438431396E+02  0.00000000000E+00 0. -1.
          6    2    1    2  501    0  0.18743411329E+03 -0.91921669703E+02  0.60326327700E+03  0.66104773912E+03  0.17168690057E+03 0.  0.
         24    2    3    3    0    0  0.31523768091E+02 -0.78970077465E+01  0.26496935965E+03  0.27916680994E+03  0.81665387588E+02 0.  0.
         -6    2    1    2    0  503 -0.18743411329E+03  0.91921669703E+02  0.25875992710E+03  0.37385232777E+03  0.17096117374E+03 0.  0.
        -24    2    5    5    0    0 -0.15491607850E+03  0.59186304328E+02  0.10299423457E+03  0.21132827509E+03  0.80930942778E+02 0.  0.
          5    1    3    3  501    0  0.15591034520E+03 -0.84024661956E+02  0.33829391735E+03  0.38188092918E+03  0.47000000000E+01 0. -1.
        -13    1    4    4    0    0  0.24883107974E+02 -0.38882812668E+02  0.21571222320E+03  0.22059647645E+03  0.00000000000E+00 0.  1.
         14    1    4    4    0    0  0.66406601178E+01  0.30985804922E+02  0.49257136448E+02  0.58570333485E+02  0.00000000000E+00 0. -1.
         -5    1    5    5    0  503 -0.32518034785E+02  0.32735365375E+02  0.15576569253E+03  0.16252405268E+03  0.47000000000E+01 0.  1.
         13    1    6    6    0    0 -0.13839814944E+03  0.76302269629E+02  0.76042414808E+02  0.17538110778E+03  0.00000000000E+00 0. -1.
        -14    1    6    6    0    0 -0.16517929069E+02 -0.17115965301E+02  0.26951819762E+02  0.35947167307E+02  0.00000000000E+00 0.  1.
</event>
<event>
12    1  0.8798177E-003  0.1801438E+03  0.7818608E-02  0.1167742E+00
         21   -1    0    0  501  502  0.00000000000E+00  0.00000000000E+00  0.12434794763E+04  0.12434794763E+04  0.00000000000E+00 0.  1.
         21   -1    0    0  502  503 -0.00000000000E+00 -0.00000000000E+00 -0.33355802817E+02  0.33355802817E+02  0.00000000000E+00 0.  1.
          6    2    1    2  501    0  0.34965290054E+02 -0.37148527514E+02  0.90340056274E+03  0.92112349689E+03  0.17243356737E+03 0.  0.
         24    2    3    3    0    0  0.50983221521E+02 -0.82709873779E+02  0.74018817155E+03  0.75085081840E+03  0.80362989555E+02 0.  0.
         -6    2    1    2    0  503 -0.34965290054E+02  0.37148527514E+02  0.30672311072E+03  0.35571178221E+03  0.17276927026E+03 0.  0.
        -24    2    5    5    0    0 -0.82226162419E+02  0.58378703395E+02  0.20471169538E+03  0.24120095615E+03  0.78114071883E+02 0.  0.
          5    1    3    3  501    0 -0.16017931467E+02  0.45561346265E+02  0.16321239119E+03  0.17027267849E+03  0.47000000000E+01 0. -1.
        -11    1    4    4    0    0  0.66073200610E+02 -0.39230495559E+02  0.37645211682E+03  0.38421464818E+03  0.00000000000E+00 0.  1.
         12    1    4    4    0    0 -0.15089979089E+02 -0.43479378219E+02  0.36373605473E+03  0.36663617022E+03  0.00000000000E+00 0. -1.
         -5    1    5    5    0  503  0.47260872365E+02 -0.21230175881E+02  0.10201141535E+03  0.11451082606E+03  0.47000000000E+01 0.  1.
         13    1    6    6    0    0 -0.32943487715E+01 -0.31216503772E+01 -0.62426655224E+01  0.77180507727E+01  0.00000000000E+00 0. -1.
        -14    1    6    6    0    0 -0.78931813647E+02  0.61500353772E+02  0.21095436090E+03  0.23348290537E+03  0.00000000000E+00 0.  1.
</event>
<event>
12    1  0.8798177E-003  0.1877221E+03  0.7818608E-02  0.1161210E+00
         21   -1    0    0  503  502  0.00000000000E+00  0.00000000000E+00  0.17289649610E+03  0.17289649610E+03  0.00000000000E+00 0. -1.
         21   -1    0    0  501  503 -0.00000000000E+00 -0.00000000000E+00 -0.23044575262E+03  0.23044575262E+03  0.00000000000E+00 0.  1.
          6    2    1    2  501    0 -0.56098796325E+02 -0.52780499189E+02 -0.10149048743E+03  0.21340078646E+03  0.17119205758E+03 0.  0.
         24    2    3    3    0    0  0.88629388699E+01 -0.78997365400E+02 -0.43239899699E+02  0.12217265437E+03  0.82081259274E+02 0.  0.
         -6    2    1    2    0  502  0.56098796325E+02  0.52780499189E+02  0.43941230911E+02  0.18994146226E+03  0.16797044761E+03 0.  0.
        -24    2    5    5    0    0  0.75829115345E+02  0.23059621216E+02 -0.20190941477E+02  0.11640479378E+03  0.82828745209E+02 0.  0.
          5    1    3    3  501    0 -0.64961735195E+02  0.26216866211E+02 -0.58250587728E+02  0.91228132087E+02  0.47000000000E+01 0. -1.
        -13    1    4    4    0    0  0.22437763073E+02 -0.40914287733E+02  0.16965777977E+02  0.49651483107E+02  0.00000000000E+00 0.  1.
         14    1    4    4    0    0 -0.13574824203E+02 -0.38083077667E+02 -0.60205677676E+02  0.72521171262E+02  0.00000000000E+00 0. -1.
         -5    1    5    5    0  502 -0.19730319020E+02  0.29720877973E+02  0.64132172388E+02  0.73536668481E+02  0.47000000000E+01 0.  1.
         13    1    6    6    0    0  0.44922638901E+02 -0.12774889418E+02  0.23246906019E+02  0.52169530618E+02  0.00000000000E+00 0. -1.
        -14    1    6    6    0    0  0.30906476444E+02  0.35834510633E+02 -0.43437847497E+02  0.64235263163E+02  0.00000000000E+00 0.  1.
</event>
<event>
12    1  0.8798177E-003  0.2036844E+03  0.7818608E-02  0.1147249E+00
         21   -1    0    0  501  502  0.00000000000E+00  0.00000000000E+00  0.41933883194E+02  0.41933883194E+02  0.00000000000E+00 0. -1.
         21   -1    0    0  502  503 -0.00000000000E+00 -0.00000000000E+00 -0.10067881344E+04  0.10067881344E+04  0.00000000000E+00 0. -1.
          6    2    1    2  501    0  0.34403187433E+02  0.98399758589E+02 -0.38716974040E+03  0.43618080857E+03  0.17171836851E+03 0.  0.
         24    2    3    3    0    0 -0.44971129625E+02  0.38502322728E+02 -0.18079626899E+03  0.20705183891E+03  0.81721121889E+02 0.  0.
         -6    2    1    2    0  503 -0.34403187433E+02 -0.98399758589E+02 -0.57768451080E+03  0.61254120902E+03  0.17498927663E+03 0.  0.
        -24    2    5    5    0    0  0.24089939751E+02 -0.13529161789E+02 -0.17698352775E+03  0.19876852753E+03  0.86153322782E+02 0.  0.
          5    1    3    3  501    0  0.79374317058E+02  0.59897435861E+02 -0.20637347141E+03  0.22912896965E+03  0.47000000000E+01 0. -1.
        -11    1    4    4    0    0 -0.11556356858E+02  0.33172525418E+02 -0.16675874549E+03  0.17041844098E+03  0.00000000000E+00 0.  1.
         12    1    4    4    0    0 -0.33414772767E+02  0.53297973100E+01 -0.14037523491E+02  0.36633397934E+02  0.00000000000E+00 0. -1.
         -5    1    5    5    0  503 -0.58493127184E+02 -0.84870596800E+02 -0.40070098305E+03  0.41377268148E+03  0.47000000000E+01 0.  1.
         13    1    6    6    0    0 -0.16513795131E+02  0.12583088244E+02 -0.12915152811E+03  0.13080962026E+03  0.00000000000E+00 0. -1.
        -14    1    6    6    0    0  0.40603734882E+02 -0.26112250034E+02 -0.47831999646E+02  0.67958907277E+02  0.00000000000E+00 0.  1.
</event>
<event>
12    1  0.8798177E-003  0.3217735E+03  0.7818608E-02  0.1075257E+00
         21   -1    0    0  503  502  0.00000000000E+00  0.00000000000E+00  0.26922117306E+03  0.26922117306E+03  0.00000000000E+00 0. -1.
         21   -1    0    0  501  503 -0.00000000000E+00 -0.00000000000E+00 -0.53532393767E+03  0.53532393767E+03  0.00000000000E+00 0. -1.
          6    2    1    2  501    0 -0.42449858372E+02 -0.26515919829E+03 -0.34904164886E+03  0.47225448591E+03  0.17053690483E+03 0.  0.
         24    2    3    3    0    0 -0.46915450457E+00 -0.62275651672E+02 -0.64869711105E+02  0.12054452985E+03  0.80277190785E+02 0.  0.
         -6    2    1    2    0  502  0.42449858372E+02  0.26515919829E+03  0.82938884249E+02  0.33229062482E+03  0.17727608386E+03 0.  0.
        -24    2    5    5    0    0  0.70802462865E+02  0.12040390433E+03 -0.64363928864E+01  0.15975658333E+03  0.77269980181E+02 0.  0.
          5    1    3    3  501    0 -0.41980703868E+02 -0.20288354662E+03 -0.28417193775E+03  0.35170995606E+03  0.47000000000E+01 0. -1.
        -11    1    4    4    0    0 -0.30695033232E+02 -0.21480805194E+02  0.87763250484E+00  0.37475062318E+02  0.00000000000E+00 0.  1.
         12    1    4    4    0    0  0.30225878728E+02 -0.40794846478E+02 -0.65747343610E+02  0.83069467530E+02  0.00000000000E+00 0. -1.
         -5    1    5    5    0  502 -0.28352604493E+02  0.14475529396E+03  0.89375277136E+02  0.17253404149E+03  0.47000000000E+01 0.  1.
         11    1    6    6    0    0  0.83316578539E+02  0.11912765357E+03  0.53873963139E+00  0.14537310737E+03  0.00000000000E+00 0. -1.
        -12    1    6    6    0    0 -0.12514115674E+02  0.12762507600E+01 -0.69751325178E+01  0.14383475962E+02  0.00000000000E+00 0.  1.
</event>
<event>
12    1  0.8798177E-003  0.1813188E+03  0.7818608E-02  0.1166924E+00
         21   -1    0    0  503  502  0.00000000000E+00  0.00000000000E+00  0.29984548876E+03  0.29984548876E+03  0.00000000000E+00 0.  1.
         21   -1    0    0  501  503 -0.00000000000E+00 -0.00000000000E+00 -0.11197377562E+03  0.11197377562E+03  0.00000000000E+00 0.  1.
          6    2    1    2  501    0  0.40059811633E+02 -0.35673113733E+02  0.12973899620E+03  0.22295449562E+03  0.17320259938E+03 0.  0.
         24    2    3    3    0    0  0.67387920020E+02 -0.77845615867E+02  0.10291838833E+03  0.16579873956E+03  0.79347058608E+02 0.  0.
         -6    2    1    2    0  502 -0.40059811633E+02  0.35673113733E+02  0.58132716941E+02  0.18886476876E+03  0.17150256135E+03 0.  0.
        -24    2    5    5    0    0  0.42787448998E+02  0.35437885247E+02  0.39233851596E+02  0.10375906368E+03  0.78358398928E+02 0.  0.
          5    1    3    3  501    0 -0.27328108387E+02  0.42172502134E+02  0.26820607866E+02  0.57155756058E+02  0.47000000000E+01 0. -1.
        -11    1    4    4    0    0  0.26343096015E+02 -0.37167383971E+02  0.97671709396E+02  0.10777354014E+03  0.00000000000E+00 0.  1.
         12    1    4    4    0    0  0.41044824005E+02 -0.40678231896E+02  0.52466789365E+01  0.58025199420E+02  0.00000000000E+00 0. -1.
         -5    1    5    5    0  502 -0.82847260631E+02  0.23522848583E+00  0.18898865345E+02  0.85105705083E+02  0.47000000000E+01 0.  1.
         11    1    6    6    0    0  0.11062918885E+02  0.10176665515E+02 -0.24189142946E+02  0.28479243876E+02  0.00000000000E+00 0. -1.
        -12    1    6    6    0    0  0.31724530112E+02  0.25261219732E+02  0.63422994542E+02  0.75279819805E+02  0.00000000000E+00 0.  1.
</event>
<event>
12    1  0.8798177E-003  0.2252995E+03  0.7818608E-02  0.1130799E+00
         21   -1    0    0  503  502  0.00000000000E+00  0.00000000000E+00  0.65334894397E+03  0.65334894397E+03  0.00000000000E+00 0. -1.
         21   -1    0    0  501  503 -0.00000000000E+00 -0.00000000000E+00 -0.86280183640E+02  0.86280183640E+02  0.00000000000E+00 0. -1.
          6    2    1    2  501    0 -0.37407798606E+02 -0.13088449898E+03  0.15450870002E+03  0.26955928439E+03  0.17395164255E+03 0.  0.
         24    2    3    3    0    0 -0.34735481922E+02 -0.76613763761E+02  0.17213362199E+03  0.21224277845E+03  0.91327929384E+02 0.  0.
         -6    2    1    2    0  502  0.37407798606E+02  0.13088449898E+03  0.41256006030E+03  0.47006984322E+03  0.17952648461E+03 0.  0.
        -24    2    5    5    0    0  0.86581393002E+02  0.41941289745E+02  0.21407758199E+03  0.24703101016E+03  0.77069445765E+02 0.  0.
          5    1    3    3  501    0 -0.26723166844E+01 -0.54270735221E+02 -0.17624921964E+02  0.57316505931E+02  0.47000000000E+01 0. -1.
        -11    1    4    4    0    0  0.12674356193E+02 -0.67641487145E+02  0.13437968717E+03  0.15097652272E+03  0.00000000000E+00 0.  1.
         12    1    4    4    0    0 -0.47409838115E+02 -0.89722766161E+01  0.37753934818E+02  0.61266255737E+02  0.00000000000E+00 0. -1.
         -5    1    5    5    0  502 -0.49173594396E+02  0.88943209237E+02  0.19848247832E+03  0.22303883306E+03  0.47000000000E+01 0.  1.
         11    1    6    6    0    0  0.51663658283E+02  0.59730132464E+02  0.17345615246E+03  0.19058819255E+03  0.00000000000E+00 0. -1.
        -12    1    6    6    0    0  0.34917734720E+02 -0.17788842719E+02  0.40621429524E+02  0.56442817610E+02  0.00000000000E+00 0.  1.
</event>
<event>
12    1  0.8798177E-003  0.1983199E+03  0.7818608E-02  0.1151267E+00
         21   -1    0    0  501  502  0.00000000000E+00  0.00000000000E+00  0.12828120474E+04  0.12828120474E+04  0.00000000000E+00 0. -1.
         21   -1    0    0  502  503 -0.00000000000E+00 -0.00000000000E+00 -0.34793398933E+02  0.34793398933E+02  0.00000000000E+00 0.  1.
          6    2    1    2  501    0  0.63927029654E+02  0.74672588353E+02  0.85378847480E+03  0.87651899858E+03  0.17224440366E+03 0.  0.
         24    2    3    3    0    0  0.32872485205E+02  0.40538163391E+02  0.15383571437E+03  0.17503093700E+03  0.65164859526E+02 0.  0.
         -6    2    1    2    0  503 -0.63927029654E+02 -0.74672588353E+02  0.39423017362E+03  0.44108644771E+03  0.17168914931E+03 0.  0.
        -24    2    5    5    0    0 -0.58699554229E+02 -0.89853752809E+02  0.40129457842E+03  0.42292632467E+03  0.79435526501E+02 0.  0.
          5    1    3    3  501    0  0.31054544449E+02  0.34134424963E+02  0.69995276043E+03  0.70148806158E+03  0.47000000000E+01 0. -1.
        -11    1    4    4    0    0  0.39022389521E+02  0.45913428219E+02  0.15543687651E+03  0.16670756538E+03  0.00000000000E+00 0.  1.
         12    1    4    4    0    0 -0.61499043152E+01 -0.53752648280E+01 -0.16011621365E+01  0.83233716272E+01  0.00000000000E+00 0. -1.
         -5    1    5    5    0  503 -0.52274754256E+01  0.15181164456E+02 -0.70644048017E+01  0.18160123038E+02  0.47000000000E+01 0.  1.
         11    1    6    6    0    0 -0.50449919478E+02 -0.77884706878E+01  0.15364311581E+03  0.16190139495E+03  0.00000000000E+00 0. -1.
        -12    1    6    6    0    0 -0.82496347504E+01 -0.82065282121E+02  0.24765146261E+03  0.26102492972E+03  0.00000000000E+00 0.  1.
</event>
<event>
12    1  0.8798177E-003  0.2213195E+03  0.7818608E-02  0.1133141E+00
         21   -1    0    0  501  502  0.00000000000E+00  0.00000000000E+00  0.40044833409E+03  0.40044833409E+03  0.00000000000E+00 0.  1.
         21   -1    0    0  502  503 -0.00000000000E+00 -0.00000000000E+00 -0.13356429736E+03  0.13356429736E+03  0.00000000000E+00 0.  1.
          6    2    1    2  501    0  0.13354509631E+03  0.34256516114E+02  0.21296240394E+03  0.30621914014E+03  0.17149161686E+03 0.  0.
         24    2    3    3    0    0  0.46678535121E+02  0.46429248213E+02  0.39809983429E+02  0.11205986123E+03  0.81474026460E+02 0.  0.
         -6    2    1    2    0  503 -0.13354509631E+03 -0.34256516114E+02  0.53921632786E+02  0.22779349130E+03  0.17313154118E+03 0.  0.
        -24    2    5    5    0    0 -0.11387581005E+03  0.39327381892E+02  0.30404359854E+02  0.14793973125E+03  0.80295677992E+02 0.  0.
          5    1    3    3  501    0  0.86866561186E+02 -0.12172732099E+02  0.17315242051E+03  0.19415927891E+03  0.47000000000E+01 0. -1.
        -13    1    4    4    0    0  0.61599833542E+02  0.98610667497E+01  0.36847666789E+02  0.72453645027E+02  0.00000000000E+00 0.  1.
         14    1    4    4    0    0 -0.14921298421E+02  0.36568181463E+02  0.29623166401E+01  0.39606216203E+02  0.00000000000E+00 0. -1.
         -5    1    5    5    0  503 -0.19669286258E+02 -0.73583898006E+02  0.23517272932E+02  0.79853760048E+02  0.47000000000E+01 0.  1.
         11    1    6    6    0    0 -0.38244718394E+02  0.50032173582E+02  0.33813318298E+02  0.71478789670E+02  0.00000000000E+00 0. -1.
        -12    1    6    6    0    0 -0.75631091654E+02 -0.10704791691E+02 -0.34089584436E+01  0.76460941582E+02  0.00000000000E+00 0.  1.
</event>
<event>
12    1  0.8798177E-003  0.2492402E+03  0.7818608E-02  0.1113812E+00
         21   -1    0    0  501  502  0.00000000000E+00  0.00000000000E+00  0.79711840856E+03  0.79711840856E+03  0.00000000000E+00 0. -1.
         21   -1    0    0  502  503 -0.00000000000E+00 -0.00000000000E+00 -0.96300082499E+02  0.96300082499E+02  0.00000000000E+00 0. -1.
          6    2    1    2  501    0 -0.20109882036E+02 -0.17921048284E+03  0.54568385711E+03  0.59984165375E+03  0.17180900195E+03 0.  0.
         24    2    3    3    0    0 -0.32095256652E+02 -0.10051654162E+03  0.47582253150E+03  0.49382712454E+03  0.79526516372E+02 0.  0.
         -6    2    1    2    0  503  0.20109882036E+02  0.17921048284E+03  0.15513446895E+03  0.29357683730E+03  0.17204607357E+03 0.  0.
        -24    2    5    5    0    0  0.87655184294E+01  0.12350763745E+03  0.21919033025E+02  0.14866326328E+03  0.79305428672E+02 0.  0.
          5    1    3    3  501    0  0.11985374616E+02 -0.78693941212E+02  0.69861325609E+02  0.10601452921E+03  0.47000000000E+01 0. -1.
        -13    1    4    4    0    0  0.48866035646E+00  0.11085381799E+02  0.95199058828E+02  0.95843545846E+02  0.00000000000E+00 0.  1.
         14    1    4    4    0    0 -0.32583917008E+02 -0.11160192342E+03  0.38062347268E+03  0.39798357870E+03  0.00000000000E+00 0. -1.
         -5    1    5    5    0  503  0.11344363606E+02  0.55702845382E+02  0.13321543592E+03  0.14491357403E+03  0.47000000000E+01 0.  1.
         13    1    6    6    0    0 -0.21542098958E+02  0.42414418901E+02 -0.21042665640E+02  0.52017677144E+02  0.00000000000E+00 0. -1.
        -14    1    6    6    0    0  0.30307617388E+02  0.81093218553E+02  0.42961698664E+02  0.96645586134E+02  0.00000000000E+00 0.  1.
</event>
<event>
12    1  0.8798177E-003  0.1750589E+03  0.7818608E-02  0.1172841E+00
         21   -1    0    0  503  502  0.00000000000E+00  0.00000000000E+00  0.90832813006E+03  0.90832813006E+03  0.00000000000E+00 0. -1.
         21   -1    0    0  501  503 -0.00000000000E+00 -0.00000000000E+00 -0.37190645991E+02  0.37190645991E+02  0.00000000000E+00 0. -1.
          6    2    1    2  501    0 -0.19083285690E+02 -0.13194719917E+02  0.58152049697E+03  0.60710539267E+03  0.17283690862E+03 0.  0.
         24    2    3    3    0    0 -0.55974198970E+02  0.42326425034E+02  0.30671044527E+03  0.32428709139E+03  0.78525048233E+02 0.  0.
         -6    2    1    2    0  502  0.19083285690E+02  0.13194719917E+02  0.28961698710E+03  0.33841338338E+03  0.17351468644E+03 0.  0.
        -24    2    5    5    0    0  0.60402482988E+02  0.55717858802E+02  0.19399149224E+03  0.22579980218E+03  0.81239841579E+02 0.  0.
          5    1    3    3  501    0  0.36890913280E+02 -0.55521144951E+02  0.27481005170E+03  0.28281830128E+03  0.47000000000E+01 0. -1.
        -13    1    4    4    0    0  0.20120282209E+02  0.10091376433E+02  0.58520095229E+02  0.62699786124E+02  0.00000000000E+00 0.  1.
         14    1    4    4    0    0 -0.76094481179E+02  0.32235048601E+02  0.24819035004E+03  0.26158730527E+03  0.00000000000E+00 0. -1.
         -5    1    5    5    0  502 -0.41319197298E+02 -0.42523138885E+02  0.95625494856E+02  0.11261358121E+03  0.47000000000E+01 0.  1.
         11    1    6    6    0    0 -0.17725866830E+02  0.25204871245E+01  0.53966680402E+02  0.56859140020E+02  0.00000000000E+00 0. -1.
        -12    1    6    6    0    0  0.78128349818E+02  0.53197371677E+02  0.14002481184E+03  0.16894066216E+03  0.00000000000E+00 0.  1.
</event>
<event>
12    1  0.8798177E-003  0.2668886E+03  0.7818608E-02  0.1103133E+00
         21   -1    0    0  501  502  0.00000000000E+00  0.00000000000E+00  0.92107515117E+03  0.92107515117E+03  0.00000000000E+00 0. -1.
         21   -1    0    0  502  503 -0.00000000000E+00 -0.00000000000E+00 -0.85023945563E+02  0.85023945563E+02  0.00000000000E+00 0. -1.
          6    2    1    2  501    0  0.53242280551E+02 -0.19720224928E+03  0.57019582667E+03  0.62939147872E+03  0.17113411460E+03 0.  0.
         24    2    3    3    0    0 -0.21784895384E+01 -0.13782344007E+03  0.22241702885E+03  0.27222276935E+03  0.75072331663E+02 0.  0.
         -6    2    1    2    0  503 -0.53242280551E+02  0.19720224928E+03  0.26585537894E+03  0.37670761801E+03  0.17177333728E+03 0.  0.
        -24    2    5    5    0    0 -0.43553223974E+02  0.15704327263E+03  0.27927440796E+03  0.33301801327E+03  0.79670128803E+02 0.  0.
          5    1    3    3  501    0  0.55420770090E+02 -0.59378809206E+02  0.34777879782E+03  0.35716870937E+03  0.47000000000E+01 0. -1.
        -13    1    4    4    0    0 -0.17454154941E+02 -0.90780258545E+02  0.19468443292E+03  0.21551735727E+03  0.00000000000E+00 0.  1.
         14    1    4    4    0    0  0.15275665402E+02 -0.47043181527E+02  0.27732595930E+02  0.56705412075E+02  0.00000000000E+00 0. -1.
         -5    1    5    5    0  503 -0.96890565776E+01  0.40158976645E+02 -0.13419029022E+02  0.43689604741E+02  0.47000000000E+01 0.  1.
         13    1    6    6    0    0 -0.40490601267E+02  0.12345982000E+03  0.14554855245E+03  0.19510560491E+03  0.00000000000E+00 0. -1.
        -14    1    6    6    0    0 -0.30626227062E+01  0.33583452628E+02  0.13372585551E+03  0.13791240836E+03  0.00000000000E+00 0.  1.
</event>
<event>
12    1  0.8798177E-003  0.2546989E+03  0.7818608E-02  0.1110812E+00
         21   -1    0    0  501  502  0.00000000000E+00  0.00000000000E+00  0.11991995989E+03  0.11991995989E+03  0.00000000000E+00 0. -1.
         21   -1    0    0  502  503 -0.00000000000E+00 -0.00000000000E+00 -0.57147123901E+03  0.57147123901E+03  0.00000000000E+00 0. -1.
          6    2    1    2  501    0 -0.14998858404E+03  0.11142966116E+03 -0.31199378343E+03  0.40096426460E+03  0.16887591854E+03 0.  0.
         24    2    3    3    0    0 -0.11236082018E+03  0.37578202431E+02 -0.10314626276E+03  0.17622160408E+03  0.79861298603E+02 0.  0.
         -6    2    1    2    0  503  0.14998858404E+03 -0.11142966116E+03 -0.13955749570E+03  0.29042693430E+03  0.17308484865E+03 0.  0.
        -24    2    5    5    0    0  0.86831114318E+02 -0.96741378543E+02 -0.18821054720E+02  0.15329929373E+03  0.79043688052E+02 0.  0.
          5    1    3    3  501    0 -0.37627763859E+02  0.73851458728E+02 -0.20884752067E+03  0.22474266052E+03  0.47000000000E+01 0. -1.
        -11    1    4    4    0    0  0.56730323755E+01  0.17984551039E+02 -0.97243786800E+00  0.18883140835E+02  0.00000000000E+00 0.  1.
         12    1    4    4    0    0 -0.11803385256E+03  0.19593651393E+02 -0.10217382489E+03  0.15733846325E+03  0.00000000000E+00 0. -1.
         -5    1    5    5    0  503  0.63157469721E+02 -0.14688282616E+02 -0.12073644098E+03  0.13712764057E+03  0.47000000000E+01 0.  1.
         13    1    6    6    0    0  0.96225351220E+02 -0.10096963809E+03 -0.24380407335E+02  0.14159304466E+03  0.00000000000E+00 0. -1.
        -14    1    6    6    0    0 -0.93942369016E+01  0.42282595501E+01  0.55593526146E+01  0.11706249070E+02  0.00000000000E+00 0.  1.
</event>
<event>
12    1  0.8798177E-003  0.2835315E+03  0.7818608E-02  0.1093838E+00
         21   -1    0    0  501  502  0.00000000000E+00  0.00000000000E+00  0.21221772878E+04  0.21221772878E+04  0.00000000000E+00 0. -1.
         21   -1    0    0  502  503 -0.00000000000E+00 -0.00000000000E+00 -0.44436465154E+02  0.44436465154E+02  0.00000000000E+00 0.  1.
          6    2    1    2  501    0  0.17628312216E+03 -0.14023601774E+03  0.14561895730E+04  0.14834475395E+04  0.17142534875E+03 0.  0.
         24    2    3    3    0    0  0.97143976527E+02 -0.18522488218E+02  0.49248575000E+03  0.50885822289E+03  0.81329221728E+02 0.  0.
         -6    2    1    2    0  503 -0.17628312216E+03  0.14023601774E+03  0.62155124965E+03  0.68316621342E+03  0.17218664117E+03 0.  0.
        -24    2    5    5    0    0 -0.12828822230E+03  0.66766543318E+02  0.53439733214E+03  0.55939558112E+03  0.80170245653E+02 0.  0.
          5    1    3    3  501    0  0.79139145636E+02 -0.12171352952E+03  0.96370382300E+03  0.97458931664E+03  0.47000000000E+01 0. -1.
        -11    1    4    4    0    0  0.82649256265E+02 -0.43132192738E+02  0.43231782178E+03  0.44225556485E+03  0.00000000000E+00 0.  1.
         12    1    4    4    0    0  0.14494720262E+02  0.24609704521E+02  0.60167928216E+02  0.66602658039E+02  0.00000000000E+00 0. -1.
         -5    1    5    5    0  503 -0.47994899868E+02  0.73469474420E+02  0.87153917505E+02  0.12377063231E+03  0.47000000000E+01 0.  1.
         11    1    6    6    0    0 -0.46597270238E+01  0.15910047277E+01 -0.18316950939E+01  0.52535187157E+01  0.00000000000E+00 0. -1.
        -12    1    6    6    0    0 -0.12362849527E+03  0.65175538590E+02  0.53622902724E+03  0.55414206240E+03  0.00000000000E+00 0.  1.
</event>
<event>
12    1  0.8798177E-003  0.1864478E+03  0.7818608E-02  0.1161835E+00
         21   -1    0    0  503  502  0.00000000000E+00  0.00000000000E+00  0.33340874573E+03  0.33340874573E+03  0.00000000000E+00 0.  1.
         21   -1    0    0  501  503 -0.00000000000E+00 -0.00000000000E+00 -0.10558570679E+03  0.10558570679E+03  0.00000000000E+00 0. -1.
          6    2    1    2  501    0 -0.41812524390E+02 -0.58937252631E+02  0.86426640760E+02  0.20499507342E+03  0.17126449997E+03 0.  0.
         24    2    3    3    0    0 -0.78619998534E+02 -0.80271546784E+02  0.85200033573E+02  0.16217525528E+03  0.80107067805E+02 0.  0.
         -6    2    1    2    0  502  0.41812524390E+02  0.58937252631E+02  0.14139639817E+03  0.23399937911E+03  0.17187460854E+03 0.  0.
        -24    2    5    5    0    0 -0.10316156126E+02 -0.63452034049E+01  0.11909076382E+03  0.14740359559E+03  0.86014680627E+02 0.  0.
          5    1    3    3  501    0  0.36807474144E+02  0.21334294153E+02  0.12266071867E+01  0.42819818135E+02  0.47000000000E+01 0. -1.
        -13    1    4    4    0    0 -0.11040722043E+02 -0.32515958608E+02  0.70099933069E+02  0.78058860635E+02  0.00000000000E+00 0.  1.
         14    1    4    4    0    0 -0.67579276491E+02 -0.47755588176E+02  0.15100100504E+02  0.84116394647E+02  0.00000000000E+00 0. -1.
         -5    1    5    5    0  502  0.52128680516E+02  0.65282456036E+02  0.22305634357E+02  0.86595783514E+02  0.47000000000E+01 0.  1.
         13    1    6    6    0    0 -0.13254215531E+02  0.38136719456E+02  0.41373798229E+02  0.57808950692E+02  0.00000000000E+00 0. -1.
        -14    1    6    6    0    0  0.29380594042E+01 -0.44481922861E+02  0.77716965588E+02  0.89594644900E+02  0.00000000000E+00 0.  1.
</event>
<event>
12    1  0.8798177E-003  0.2948309E+03  0.7818608E-02  0.1087868E+00
         21   -1    0    0  501  502  0.00000000000E+00  0.00000000000E+00  0.58047792175E+02  0.58047792175E+02  0.00000000000E+00 0. -1.
         21   -1    0    0  502  503 -0.00000000000E+00 -0.00000000000E+00 -0.15875770392E+04  0.15875770392E+04  0.00000000000E+00 0. -1.
          6    2    1    2  501    0 -0.46254049061E+02 -0.23456594107E+03 -0.56826802124E+03  0.64019824351E+03  0.17252428598E+03 0.  0.
         24    2    3    3    0    0  0.17264865029E+02 -0.11850175524E+03 -0.18561200860E+03  0.23528681900E+03  0.81039051703E+02 0.  0.
         -6    2    1    2    0  503  0.46254049061E+02  0.23456594107E+03 -0.96126122583E+03  0.10054265879E+04  0.17233357666E+03 0.  0.
        -24    2    5    5    0    0  0.38140351982E+02  0.35984932848E+02 -0.26970761146E+03  0.28586509614E+03  0.78911695382E+02 0.  0.
          5    1    3    3  501    0 -0.63518914090E+02 -0.11606418583E+03 -0.38265601265E+03  0.40491142451E+03  0.47000000000E+01 0. -1.
        -11    1    4    4    0    0 -0.98927422088E+01  0.94860205034E+01 -0.15787250349E+02  0.20906654610E+02  0.00000000000E+00 0.  1.
         12    1    4    4    0    0  0.27157607238E+02 -0.12798777574E+03 -0.16982475825E+03  0.21438016439E+03  0.00000000000E+00 0. -1.
         -5    1    5    5    0  503  0.81136970793E+01  0.19858100822E+03 -0.69155361436E+03  0.71956149178E+03  0.47000000000E+01 0.  1.
         11    1    6    6    0    0  0.40802911261E+02  0.50099637944E+02 -0.26141027912E+03  0.26927715335E+03  0.00000000000E+00 0. -1.
        -12    1    6    6    0    0 -0.26625592797E+01 -0.14114705096E+02 -0.82973323475E+01  0.16587942788E+02  0.00000000000E+00 0.  1.
</event>
<event>
12    1  0.8798177E-003  0.3424335E+03  0.7818608E-02  0.1065814E+00
         21   -1    0    0  501  502  0.00000000000E+00  0.00000000000E+00  0.12048183011E+04  0.12048183011E+04  0.00000000000E+00 0.  1.
         21   -1    0    0  502  503 -0.00000000000E+00 -0.00000000000E+00 -0.10836533219E+03  0.10836533219E+03  0.00000000000E+00 0.  1.
          6    2    1    2  501    0 -0.17774499267E+03 -0.23700871084E+03  0.75872713183E+03  0.83222684789E+03  0.17078716096E+03 0.  0.
         24    2    3    3    0    0 -0.80636294458E+02 -0.34889287464E+02  0.31843498831E+03  0.33809971625E+03  0.72049302496E+02 0.  0.
         -6    2    1    2    0  503  0.17774499267E+03  0.23700871084E+03  0.33772583706E+03  0.48095678538E+03  0.17173897912E+03 0.  0.
        -24    2    5    5    0    0  0.16759010923E+03  0.15421955729E+03  0.17385420026E+03  0.29701883674E+03  0.78261036702E+02 0.  0.
          5    1    3    3  501    0 -0.97108698215E+02 -0.20211942337E+03  0.44029214352E+03  0.49412713164E+03  0.47000000000E+01 0. -1.
        -13    1    4    4    0    0 -0.64323709735E+02 -0.56060510983E+02  0.26420904188E+03  0.27764498615E+03  0.00000000000E+00 0.  1.
         14    1    4    4    0    0 -0.16312584723E+02  0.21171223519E+02  0.54225946427E+02  0.60454730100E+02  0.00000000000E+00 0. -1.
         -5    1    5    5    0  503  0.10154883440E+02  0.82789153551E+02  0.16387163679E+03  0.18393794864E+03  0.47000000000E+01 0.  1.
         11    1    6    6    0    0  0.17377599083E+02  0.52857410868E+02  0.65255877378E+02  0.85756727818E+02  0.00000000000E+00 0. -1.
        -12    1    6    6    0    0  0.15021251015E+03  0.10136214642E+03  0.10859832289E+03  0.21126210892E+03  0.00000000000E+00 0.  1.
</event>
<event>
12    1  0.8798177E-003  0.1979029E+03  0.7818608E-02  0.1151591E+00
         21   -1    0    0  503  502  0.00000000000E+00  0.00000000000E+00  0.36830753197E+03  0.36830753197E+03  0.00000000000E+00 0.  1.
         21   -1    0    0  501  503 -0.00000000000E+00 -0.00000000000E+00 -0.10621777689E+03  0.10621777689E+03  0.00000000000E+00 0.  1.
          6    2    1    2  501    0  0.39822627659E+02  0.88036963115E+02  0.13630393680E+03  0.24003085436E+03  0.17233600700E+03 0.  0.
         24    2    3    3    0    0  0.59389574450E+02  0.12212132664E+03  0.11088566771E+03  0.19299057750E+03  0.80678322521E+02 0.  0.
         -6    2    1    2    0  502 -0.39822627659E+02 -0.88036963115E+02  0.12578581828E+03  0.23449445451E+03  0.17271140254E+03 0.  0.
        -24    2    5    5    0    0  0.36866099755E+02 -0.44513146117E+02  0.10466704433E+03  0.14370031278E+03  0.79712359371E+02 0.  0.
          5    1    3    3  501    0 -0.19566946791E+02 -0.34084363525E+02  0.25418269085E+02  0.47040276858E+02  0.47000000000E+01 0. -1.
        -11    1    4    4    0    0  0.17390467307E+02  0.11302215616E+03  0.72722151751E+02  0.13551733281E+03  0.00000000000E+00 0.  1.
         12    1    4    4    0    0  0.41999107143E+02  0.90991704768E+01  0.38163515961E+02  0.57473244685E+02  0.00000000000E+00 0. -1.
         -5    1    5    5    0  502 -0.76688727414E+02 -0.43523816998E+02  0.21118773948E+02  0.90794141725E+02  0.47000000000E+01 0.  1.
         13    1    6    6    0    0  0.13150466985E+02 -0.56185504801E+02  0.10192527243E+03  0.11712602995E+03  0.00000000000E+00 0. -1.
        -14    1    6    6    0    0  0.23715632770E+02  0.11672358684E+02  0.27417718993E+01  0.26574282832E+02  0.00000000000E+00 0.  1.
</event>
<event>
12    1  0.8798177E-003  0.2051000E+03  0.7818608E-02  0.1145809E+00
         21   -1    0    0  503  502  0.00000000000E+00  0.00000000000E+00  0.25054219070E+03  0.25054219070E+03  0.00000000000E+00 0. -1.
         21   -1    0    0  501  503 -0.00000000000E+00 -0.00000000000E+00 -0.16848915890E+03  0.16848915890E+03  0.00000000000E+00 0. -1.
          6    2    1    2  501    0  0.93635488178E+02  0.60697000286E+02  0.19539144207E+02  0.20602861384E+03  0.17208800386E+03 0.  0.
         24    2    3    3    0    0  0.56610585765E+02  0.84137752759E+02 -0.38672968236E+02  0.13301455827E+03  0.76898337956E+02 0.  0.
         -6    2    1    2    0  502 -0.93635488178E+02 -0.60697000286E+02  0.62513887591E+02  0.21300273577E+03  0.17032453966E+03 0.  0.
        -24    2    5    5    0    0 -0.58045767660E+02 -0.20478469445E+02 -0.29193440074E+02  0.10662377931E+03  0.82022524446E+02 0.  0.
          5    1    3    3  501    0  0.37024902413E+02 -0.23440752473E+02  0.58212112443E+02  0.73014055566E+02  0.47000000000E+01 0. -1.
        -11    1    4    4    0    0  0.32934115763E+02  0.58615700593E+02 -0.61716823241E+02  0.91265670479E+02  0.00000000000E+00 0.  1.
         12    1    4    4    0    0  0.23676470003E+02  0.25522052166E+02  0.23043855005E+02  0.41748887794E+02  0.00000000000E+00 0. -1.
         -5    1    5    5    0  502 -0.35589720518E+02 -0.40218530841E+02  0.91707327665E+02  0.10637895646E+03  0.47000000000E+01 0.  1.
         11    1    6    6    0    0 -0.36845635647E+02 -0.37714940444E+02  0.14864653565E+02  0.54781160306E+02  0.00000000000E+00 0. -1.
        -12    1    6    6    0    0 -0.21200132013E+02  0.17236470998E+02 -0.44058093639E+02  0.51842619002E+02  0.00000000000E+00 0.  1.
</event>
<event>
12    1  0.8798177E-003  0.1861339E+03  0.7818608E-02  0.1162058E+00
         21   -1    0    0  501  502  0.00000000000E+00  0.00000000000E+00  0.90767331615E+02  0.90767331615E+02  0.00000000000E+00 0.  1.
         21   -1    0    0  502  503 -0.00000000000E+00 -0.00000000000E+00 -0.39093968735E+03  0.39093968735E+03  0.00000000000E+00 0.  1.
          6    2    1    2  501    0 -0.43386512068E+01 -0.71851063862E+02 -0.11185830602E+03  0.21692782550E+03  0.17135927630E+03 0.  0.
         24    2    3    3    0    0  0.39976006470E+00 -0.82505958167E+02 -0.13650301945E+03  0.18926139794E+03  0.10187938697E+03 0.  0.
         -6    2    1    2    0  503  0.43386512068E+01  0.71851063862E+02 -0.18831404972E+03  0.26477919347E+03  0.17165209205E+03 0.  0.
        -24    2    5    5    0    0  0.18401687699E+02  0.13268560720E+00 -0.24539543030E+02  0.85376089223E+02  0.79675891732E+02 0.  0.
          5    1    3    3  501    0 -0.47384112715E+01  0.10654894305E+02  0.24644713425E+02  0.27666427558E+02  0.47000000000E+01 0. -1.
        -13    1    4    4    0    0 -0.69399264595E+01 -0.10064361386E+03 -0.77842006966E+02  0.12742322253E+03  0.00000000000E+00 0.  1.
         14    1    4    4    0    0  0.73396865242E+01  0.18137655697E+02 -0.58661012483E+02  0.61838175410E+02  0.00000000000E+00 0. -1.
         -5    1    5    5    0  503 -0.14063036492E+02  0.71718378255E+02 -0.16377450669E+03  0.17940310425E+03  0.47000000000E+01 0.  1.
         11    1    6    6    0    0  0.11329080949E+02  0.39716661472E+02 -0.15844789852E+02  0.44235942841E+02  0.00000000000E+00 0. -1.
        -12    1    6    6    0    0  0.70726067492E+01 -0.39583975864E+02 -0.86947531785E+01  0.41140146382E+02  0.00000000000E+00 0.  1.
</event>
<event>
12    1  0.8798177E-003  0.2311641E+03  0.7818608E-02  0.1127064E+00
         21   -1    0    0  501  502  0.00000000000E+00  0.00000000000E+00  0.58779208779E+03  0.58779208779E+03  0.00000000000E+00 0. -1.
         21   -1    0    0  502  503 -0.00000000000E+00 -0.00000000000E+00 -0.89999937362E+02  0.89999937362E+02  0.00000000000E+00 0. -1.
          6    2    1    2  501    0  0.49991033387E+02 -0.13610785280E+03  0.20451267340E+03  0.30864589123E+03  0.18003444554E+03 0.  0.
         24    2    3    3    0    0 -0.29154479876E+02 -0.12574700724E+03  0.13160713420E+03  0.20043929699E+03  0.78696762836E+02 0.  0.
         -6    2    1    2    0  503 -0.49991033387E+02  0.13610785280E+03  0.29327947703E+03  0.36914613392E+03  0.17097241161E+03 0.  0.
        -24    2    5    5    0    0  0.24784699353E+02  0.23430086659E+02  0.90355497609E+02  0.12524467716E+03  0.79742478797E+02 0.  0.
          5    1    3    3  501    0  0.79145513262E+02 -0.10360845555E+02  0.72905539207E+02  0.10820659424E+03  0.47000000000E+01 0. -1.
        -11    1    4    4    0    0 -0.31294683090E+02 -0.10254357981E+03  0.13940752889E+03  0.17586643245E+03  0.00000000000E+00 0.  1.
         12    1    4    4    0    0  0.21402032143E+01 -0.23203427437E+02 -0.78003946983E+01  0.24572864547E+02  0.00000000000E+00 0. -1.
         -5    1    5    5    0  503 -0.74775732740E+02  0.11267776614E+03  0.20292397942E+03  0.24390145676E+03  0.47000000000E+01 0.  1.
         13    1    6    6    0    0  0.99817935604E+01  0.41457492693E+02  0.92464200610E+02  0.10182331903E+03  0.00000000000E+00 0. -1.
        -14    1    6    6    0    0  0.14802905793E+02 -0.18027406034E+02 -0.21087030013E+01  0.23421358129E+02  0.00000000000E+00 0.  1.
</event>
<event>
12    1  0.8798177E-003  0.1858777E+03  0.7818608E-02  0.1162431E+00
         21   -1    0    0  503  502  0.00000000000E+00  0.00000000000E+00  0.25120245436E+03  0.25120245436E+03  0.00000000000E+00 0.  1.
         21   -1    0    0  501  503 -0.00000000000E+00 -0.00000000000E+00 -0.15933534647E+03  0.15933534647E+03  0.00000000000E+00 0.  1.
          6    2    1    2  501    0 -0.36161573981E+02  0.58156264483E+02 -0.30980528262E+02  0.18844179019E+03  0.17280250180E+03 0.  0.
         24    2    3    3    0    0 -0.25966165314E+02  0.10474009651E+03 -0.34064986499E+02  0.14042508844E+03  0.83150782327E+02 0.  0.
         -6    2    1    2    0  502  0.36161573981E+02 -0.58156264483E+02  0.12284763615E+03  0.22209601064E+03  0.17188742159E+03 0.  0.
        -24    2    5    5    0    0  0.17975344570E+02  0.28252094544E+02  0.95766576476E+02  0.12961564925E+03  0.80670226857E+02 0.  0.
          5    1    3    3  501    0 -0.10195408667E+02 -0.46583832025E+02  0.30844582375E+01  0.48016701746E+02  0.47000000000E+01 0. -1.
        -11    1    4    4    0    0  0.28858941140E+02  0.32332495767E+02 -0.22614602129E+02  0.48884036205E+02  0.00000000000E+00 0.  1.
         12    1    4    4    0    0 -0.54825106454E+02  0.72407600740E+02 -0.11450384370E+02  0.91541052238E+02  0.00000000000E+00 0. -1.
         -5    1    5    5    0  502  0.18186229411E+02 -0.86408359027E+02  0.27081059670E+02  0.92480361389E+02  0.47000000000E+01 0.  1.
         13    1    6    6    0    0 -0.10821060411E+02  0.46086417793E+02  0.31178261047E+02  0.56684541237E+02  0.00000000000E+00 0. -1.
        -14    1    6    6    0    0  0.28796404981E+02 -0.17834323249E+02  0.64588315429E+02  0.72931108010E+02  0.00000000000E+00 0.  1.
</event>
<event>
12    1  0.8798177E-003  0.1829590E+03  0.7818608E-02  0.1164996E+00
         21   -1    0    0  503  502  0.00000000000E+00  0.00000000000E+00  0.58479522790E+03  0.58479522790E+03  0.00000000000E+00 0.  1.
         21   -1    0    0  501  503 -0.00000000000E+00 -0.00000000000E+00 -0.86259728050E+02  0.86259728050E+02  0.00000000000E+00 0.  1.
          6    2    1    2  501    0  0.14727141401E+02 -0.61353554454E+02  0.54590918484E+02  0.19092974647E+03  0.17173483156E+03 0.  0.
         24    2    3    3    0    0  0.10138719912E+02  0.32300030308E+02  0.12778050676E+02  0.88155948915E+02  0.80387232510E+02 0.  0.
         -6    2    1    2    0  502 -0.14727141401E+02  0.61353554454E+02  0.44394458137E+03  0.48012520948E+03  0.17161666035E+03 0.  0.
        -24    2    5    5    0    0  0.51960382553E+02  0.67277716770E+01  0.19819943663E+03  0.21965646249E+03  0.78872051869E+02 0.  0.
          5    1    3    3  501    0  0.45884214890E+01 -0.93653584762E+02  0.41812867809E+02  0.10277379756E+03  0.47000000000E+01 0. -1.
        -11    1    4    4    0    0 -0.29890246865E+02 -0.43272158115E+01  0.15267257654E+02  0.33841406746E+02  0.00000000000E+00 0.  1.
         12    1    4    4    0    0  0.40028966777E+02  0.36627246120E+02 -0.24892069779E+01  0.54314542168E+02  0.00000000000E+00 0. -1.
         -5    1    5    5    0  502 -0.66687523955E+02  0.54625782777E+02  0.24574514473E+03  0.26046874699E+03  0.47000000000E+01 0.  1.
         13    1    6    6    0    0  0.47652820347E+02 -0.20405796266E+02  0.17843515725E+03  0.18581252151E+03  0.00000000000E+00 0. -1.
        -14    1    6    6    0    0  0.43075622058E+01  0.27133567943E+02  0.19764279384E+02  0.33843940980E+02  0.00000000000E+00 0.  1.
</event>
<event>
12    1  0.8798177E-003  0.4187277E+03  0.7818608E-02  0.1037595E+00
         21   -1    0    0  501  502  0.00000000000E+00  0.00000000000E+00  0.92251726082E+03  0.92251726082E+03  0.00000000000E+00 0.  1.
         21   -1    0    0  502  503 -0.00000000000E+00 -0.00000000000E+00 -0.24598775504E+03  0.24598775504E+03  0.00000000000E+00 0.  1.
          6    2    1    2  501    0  0.33898516734E+03 -0.17321756554E+03  0.61798599767E+03  0.74570452970E+03  0.17103591323E+03 0.  0.
         24    2    3    3    0    0  0.23183994876E+03 -0.74477879786E+02  0.29387584947E+03  0.39031868083E+03  0.81785947993E+02 0.  0.
         -6    2    1    2    0  503 -0.33898516734E+03  0.17321756554E+03  0.58543508110E+02  0.42280048615E+03  0.17440653676E+03 0.  0.
        -24    2    5    5    0    0 -0.22147871114E+03  0.18409477058E+03  0.57316198477E+02  0.30469173489E+03  0.81290852216E+02 0.  0.
          5    1    3    3  501    0  0.10714521858E+03 -0.98739685754E+02  0.32411014820E+03  0.35538584887E+03  0.47000000000E+01 0. -1.
        -13    1    4    4    0    0  0.97014165471E+02 -0.68143271335E+02  0.16900699401E+03  0.20644277114E+03  0.00000000000E+00 0.  1.
         14    1    4    4    0    0  0.13482578329E+03 -0.63346084514E+01  0.12486885546E+03  0.18387590970E+03  0.00000000000E+00 0. -1.
         -5    1    5    5    0  503 -0.11750645619E+03 -0.10877205045E+02  0.12273096330E+01  0.11810875127E+03  0.47000000000E+01 0.  1.
         11    1    6    6    0    0 -0.10863120767E+03  0.11758685169E+03  0.66574425135E+02  0.17337693345E+03  0.00000000000E+00 0. -1.
        -12    1    6    6    0    0 -0.11284750347E+03  0.66507918897E+02 -0.92582266582E+01  0.13131480144E+03  0.00000000000E+00 0.  1.
</event>
<event>
12    1  0.8798177E-003  0.1807932E+03  0.7818608E-02  0.1167195E+00
         21   -1    0    0  503  502  0.00000000000E+00  0.00000000000E+00  0.82329013592E+02  0.82329013592E+02  0.00000000000E+00 0. -1.
         21   -1    0    0  501  503 -0.00000000000E+00 -0.00000000000E+00 -0.45474017413E+03  0.45474017413E+03  0.00000000000E+00 0. -1.
          6    2    1    2  501    0 -0.50253141633E+02  0.26152087463E+02 -0.28276300620E+03  0.33526987956E+03  0.17100194311E+03 0.  0.
         24    2    3    3    0    0  0.28709677291E+02 -0.17455598992E+02 -0.16613227186E+03  0.18775182886E+03  0.80758120223E+02 0.  0.
         -6    2    1    2    0  502  0.50253141633E+02 -0.26152087463E+02 -0.89648154346E+02  0.20179930816E+03  0.17168826190E+03 0.  0.
        -24    2    5    5    0    0 -0.87681865333E+00 -0.40021488465E+02 -0.11285182301E+03  0.14377230270E+03  0.79576709641E+02 0.  0.
          5    1    3    3  501    0 -0.78962818924E+02  0.43607686455E+02 -0.11663073433E+03  0.14751805070E+03  0.47000000000E+01 0. -1.
        -13    1    4    4    0    0 -0.16324396313E+02 -0.35341537300E+02 -0.69951550103E+02  0.80054541005E+02  0.00000000000E+00 0.  1.
         14    1    4    4    0    0  0.45034073603E+02  0.17885938308E+02 -0.96180721759E+02  0.10769728786E+03  0.00000000000E+00 0. -1.
         -5    1    5    5    0  502  0.51129960286E+02  0.13869401002E+02  0.23203668667E+02  0.58027005460E+02  0.47000000000E+01 0.  1.
         11    1    6    6    0    0  0.13959691710E+02  0.20853684000E+02 -0.44193358825E+02  0.50821275990E+02  0.00000000000E+00 0. -1.
        -12    1    6    6    0    0 -0.14836510363E+02 -0.60875172465E+02 -0.68658464188E+02  0.92951026713E+02  0.00000000000E+00 0.  1.
</event>
<event>
12    1  0.8798177E-003  0.1966766E+03  0.7818608E-02  0.1152849E+00
         21   -1    0    0  503  502  0.00000000000E+00  0.00000000000E+00  0.46258754730E+03  0.46258754730E+03  0.00000000000E+00 0. -1.
         21   -1    0    0  501  503 -0.00000000000E+00 -0.00000000000E+00 -0.88709253242E+02  0.88709253242E+02  0.00000000000E+00 0. -1.
          6    2    1    2  501    0 -0.52264448676E+02 -0.76523082167E+02  0.11692816376E+03  0.22771521192E+03  0.17203100756E+03 0.  0.
         24    2    3    3    0    0 -0.14750134968E+02  0.20423415870E+02  0.84983785504E+02  0.11886448608E+03  0.79194948419E+02 0.  0.
         -6    2    1    2    0  502  0.52264448676E+02  0.76523082167E+02  0.25695013030E+03  0.32358158862E+03  0.17347714642E+03 0.  0.
        -24    2    5    5    0    0  0.81533503025E+01  0.11068249039E+03  0.17156654668E+03  0.22147820708E+03  0.85442527297E+02 0.  0.
          5    1    3    3  501    0 -0.37514313707E+02 -0.96946498038E+02  0.31944378251E+02  0.10885072584E+03  0.47000000000E+01 0. -1.
        -13    1    4    4    0    0 -0.35406342009E+02 -0.95797664483E+01  0.70870371342E+02  0.79799689935E+02  0.00000000000E+00 0.  1.
         14    1    4    4    0    0  0.20656207040E+02  0.30003182318E+02  0.14113414163E+02  0.39064796145E+02  0.00000000000E+00 0. -1.
         -5    1    5    5    0  502  0.44111098373E+02 -0.34159408222E+02  0.85383583623E+02  0.10210338154E+03  0.47000000000E+01 0.  1.
         13    1    6    6    0    0 -0.85423974824E+01  0.75986233297E+01  0.85199783037E+02  0.85963449563E+02  0.00000000000E+00 0. -1.
        -14    1    6    6    0    0  0.16695747785E+02  0.10308386706E+03  0.86366763639E+02  0.13551475751E+03  0.00000000000E+00 0.  1.
</event>
<event>
12    1  0.8798177E-003  0.1992524E+03  0.7818608E-02  0.1152746E+00
         21   -1    0    0  501  502  0.00000000000E+00  0.00000000000E+00  0.10251696560E+03  0.10251696560E+03  0.00000000000E+00 0. -1.
         21   -1    0    0  502  503 -0.00000000000E+00 -0.00000000000E+00 -0.41477572044E+03  0.41477572044E+03  0.00000000000E+00 0. -1.
          6    2    1    2  501    0 -0.75199613553E+02  0.67849722595E+02 -0.71718828712E+02  0.21176667369E+03  0.17158953044E+03 0.  0.
         24    2    3    3    0    0 -0.79137809911E+02  0.83709953542E+01  0.70491207415E+01  0.11287426626E+03  0.79737339814E+02 0.  0.
         -6    2    1    2    0  503  0.75199613553E+02 -0.67849722595E+02 -0.24053992613E+03  0.30552601235E+03  0.15883362813E+03 0.  0.
        -24    2    5    5    0    0  0.99074107916E+02 -0.42332324247E+02 -0.12922015504E+03  0.18875567992E+03  0.85575426957E+02 0.  0.
          5    1    3    3  501    0  0.39381963576E+01  0.59478727241E+02 -0.78767949454E+02  0.98892407423E+02  0.47000000000E+01 0. -1.
        -13    1    4    4    0    0 -0.74166954027E+02 -0.12534499591E+02 -0.20474816653E+02  0.77955556997E+02  0.00000000000E+00 0.  1.
         14    1    4    4    0    0 -0.49708558832E+01  0.20905494945E+02  0.27523937395E+02  0.34918709266E+02  0.00000000000E+00 0. -1.
         -5    1    5    5    0  503 -0.23874494363E+02 -0.25517398348E+02 -0.11131977109E+03  0.11677033243E+03  0.47000000000E+01 0.  1.
         13    1    6    6    0    0  0.70104957503E+02 -0.22011313593E+02 -0.23306149641E+02  0.77086831585E+02  0.00000000000E+00 0. -1.
        -14    1    6    6    0    0  0.28969150412E+02 -0.20321010654E+02 -0.10591400540E+03  0.11166884834E+03  0.00000000000E+00 0.  1.
</event>
<event>
12    1  0.8798177E-003  0.1980873E+03  0.7818608E-02  0.1151599E+00
         21   -1    0    0  501  502  0.00000000000E+00  0.00000000000E+00  0.55016379727E+03  0.55016379727E+03  0.00000000000E+00 0. -1.
         21   -1    0    0  502  503 -0.00000000000E+00 -0.00000000000E+00 -0.71214552625E+02  0.71214552625E+02  0.00000000000E+00 0.  1.
          6    2    1    2  501    0 -0.88053985088E+02 -0.39059782021E+02  0.25863619441E+03  0.32510750715E+03  0.17182269725E+03 0.  0.
         24    2    3    3    0    0 -0.10848279151E+03 -0.45157553012E+02  0.26650320752E+03  0.30190192941E+03  0.79454985470E+02 0.  0.
         -6    2    1    2    0  503  0.88053985088E+02  0.39059782021E+02  0.22031305024E+03  0.29627084274E+03  0.17308784270E+03 0.  0.
        -24    2    5    5    0    0  0.11992707768E+03  0.36005455927E+02  0.12215912259E+03  0.19291946900E+03  0.81339863986E+02 0.  0.
          5    1    3    3  501    0  0.20428806422E+02  0.60977709911E+01 -0.78670131171E+01  0.23205577740E+02  0.47000000000E+01 0. -1.
        -13    1    4    4    0    0 -0.68796139423E+02 -0.67430652555E+02  0.18234683935E+03  0.20622844500E+03  0.00000000000E+00 0.  1.
         14    1    4    4    0    0 -0.39686652086E+02  0.22273099543E+02  0.84156368171E+02  0.95673484419E+02  0.00000000000E+00 0. -1.
         -5    1    5    5    0  503 -0.31873092590E+02  0.30543260940E+01  0.98153927653E+02  0.10335137373E+03  0.47000000000E+01 0.  1.
         11    1    6    6    0    0  0.97549508642E+02  0.27835902540E+02  0.13256324867E+03  0.16692441105E+03  0.00000000000E+00 0. -1.
        -12    1    6    6    0    0  0.22377569036E+02  0.81695533865E+01 -0.10404126084E+02  0.25995057955E+02  0.00000000000E+00 0.  1.
</event>
<event>
12    1  0.8798177E-003  0.2158701E+03  0.7818608E-02  0.1137025E+00
         21   -1    0    0  503  502  0.00000000000E+00  0.00000000000E+00  0.73018389059E+02  0.73018389059E+02  0.00000000000E+00 0. -1.
         21   -1    0    0  501  503 -0.00000000000E+00 -0.00000000000E+00 -0.79092818408E+03  0.79092818408E+03  0.00000000000E+00 0. -1.
          6    2    1    2  501    0 -0.93148763514E+02  0.91688944929E+02 -0.54893300570E+03  0.58980603131E+03  0.17163960808E+03 0.  0.
         24    2    3    3    0    0 -0.54074207596E+02  0.64930086159E+02 -0.15079916032E+03  0.18883782026E+03  0.76022362436E+02 0.  0.
         -6    2    1    2    0  502  0.93148763514E+02 -0.91688944929E+02 -0.16897678933E+03  0.27414054183E+03  0.17180316230E+03 0.  0.
        -24    2    5    5    0    0  0.11227192901E+03 -0.48688826670E+02 -0.17593030234E+03  0.22633733094E+03  0.72811593912E+02 0.  0.
          5    1    3    3  501    0 -0.39074555918E+02  0.26758858770E+02 -0.39813384537E+03  0.40096821105E+03  0.47000000000E+01 0. -1.
        -11    1    4    4    0    0 -0.19512346595E+02  0.27168337194E+02 -0.12888342830E+03  0.13315325120E+03  0.00000000000E+00 0.  1.
         12    1    4    4    0    0 -0.34561861001E+02  0.37761748965E+02 -0.21915732020E+02  0.55684569054E+02  0.00000000000E+00 0. -1.
         -5    1    5    5    0  502 -0.19123165494E+02 -0.43000118259E+02  0.69535130111E+01  0.47803210896E+02  0.47000000000E+01 0.  1.
         11    1    6    6    0    0  0.61364697997E+02  0.57222074588E+01 -0.47322128266E+02  0.77702983482E+02  0.00000000000E+00 0. -1.
        -12    1    6    6    0    0  0.50907231011E+02 -0.54411034129E+02 -0.12860817408E+03  0.14863434745E+03  0.00000000000E+00 0.  1.
</event>
<event>
12    1  0.8798177E-003  0.2632816E+03  0.7818608E-02  0.1105544E+00
         21   -1    0    0  503  502  0.00000000000E+00  0.00000000000E+00  0.21982373947E+04  0.21982373947E+04  0.00000000000E+00 0. -1.
         21   -1    0    0  501  503 -0.00000000000E+00 -0.00000000000E+00 -0.61038259993E+02  0.61038259993E+02  0.00000000000E+00 0.  1.
          6    2    1    2  501    0 -0.12465840392E+03 -0.15146504893E+03  0.28190686375E+03  0.38573134703E+03  0.17560129140E+03 0.  0.
         24    2    3    3    0    0 -0.31115327664E+02 -0.14603324981E+03  0.16577506708E+03  0.23643802583E+03  0.78279585654E+02 0.  0.
         -6    2    1    2    0  502  0.12465840392E+03  0.15146504893E+03  0.18552922710E+04  0.18735443077E+04  0.17198105526E+03 0.  0.
        -24    2    5    5    0    0  0.54483115937E+02  0.47627024490E+02  0.12862135716E+04  0.12908097520E+04  0.81287886898E+02 0.  0.
          5    1    3    3  501    0 -0.93543076260E+02 -0.54317991197E+01  0.11613179667E+03  0.14929332120E+03  0.47000000000E+01 0. -1.
        -11    1    4    4    0    0 -0.39196144108E+02 -0.61936788786E+02  0.36188556812E+02  0.81744205679E+02  0.00000000000E+00 0.  1.
         12    1    4    4    0    0  0.80808164438E+01 -0.84096461020E+02  0.12958651026E+03  0.15469382015E+03  0.00000000000E+00 0. -1.
         -5    1    5    5    0  502  0.70175287987E+02  0.10383802444E+03  0.56907869934E+03  0.58273455570E+03  0.47000000000E+01 0.  1.
         11    1    6    6    0    0  0.45435441008E+02  0.92555662434E+01  0.27915321009E+03  0.28297801948E+03  0.00000000000E+00 0. -1.
        -12    1    6    6    0    0  0.90476749294E+01  0.38371458246E+02  0.10070603615E+04  0.10078317325E+04  0.00000000000E+00 0.  1.
</event>
<event>
12    1  0.8798177E-003  0.1737361E+03  0.7818608E-02  0.1174121E+00
         21   -1    0    0  501  502  0.00000000000E+00  0.00000000000E+00  0.98887817516E+02  0.98887817516E+02  0.00000000000E+00 0.  1.
         21   -1    0    0  502  503 -0.00000000000E+00 -0.00000000000E+00 -0.30629004802E+03  0.30629004802E+03  0.00000000000E+00 0.  1.
          6    2    1    2  501    0 -0.57598790552E+01 -0.24056761684E+02 -0.87835337006E+02  0.19427388679E+03  0.17150916206E+03 0.  0.
         24    2    3    3    0    0 -0.34634620352E+02 -0.23269920528E+02 -0.12315676690E+03  0.14840381797E+03  0.71519632457E+02 0.  0.
         -6    2    1    2    0  503  0.57598790552E+01  0.24056761684E+02 -0.11956689350E+03  0.21090397875E+03  0.17196610783E+03 0.  0.
        -24    2    5    5    0    0 -0.53829569019E+02  0.49276400017E+02 -0.64213884770E+02  0.12562222188E+03  0.79572190703E+02 0.  0.
          5    1    3    3  501    0  0.28874741297E+02 -0.78684115624E+00  0.35321429891E+02  0.45870068820E+02  0.47000000000E+01 0. -1.
        -13    1    4    4    0    0  0.18106157834E+02 -0.18800307236E+02 -0.63476858587E+02  0.68633782350E+02  0.00000000000E+00 0.  1.
         14    1    4    4    0    0 -0.52740778186E+02 -0.44696132919E+01 -0.59679908310E+02  0.79770035618E+02  0.00000000000E+00 0. -1.
         -5    1    5    5    0  503  0.59589448075E+02 -0.25219638332E+02 -0.55353008731E+02  0.85281756871E+02  0.47000000000E+01 0.  1.
         11    1    6    6    0    0 -0.69574767686E+02  0.20615439903E+02 -0.56646668578E+02  0.92056991706E+02  0.00000000000E+00 0. -1.
        -12    1    6    6    0    0  0.15745198667E+02  0.28660960114E+02 -0.75672161918E+01  0.33565230174E+02  0.00000000000E+00 0.  1.
</event>
<event>
12    1  0.8798177E-003  0.2139494E+03  0.7818608E-02  0.1138516E+00
         21   -1    0    0  501  502  0.00000000000E+00  0.00000000000E+00  0.17875443968E+03  0.17875443968E+03  0.00000000000E+00 0.  1.
         21   -1    0    0  502  503 -0.00000000000E+00 -0.00000000000E+00 -0.25695576163E+03  0.25695576163E+03  0.00000000000E+00 0. -1.
          6    2    1    2  501    0 -0.61294384774E+02 -0.11024164135E+03 -0.24683697330E+02  0.21536862135E+03  0.17281243316E+03 0.  0.
         24    2    3    3    0    0 -0.71134569694E+02 -0.14092707627E+03  0.52810344597E+01  0.17111480448E+03  0.65816556845E+02 0.  0.
         -6    2    1    2    0  503  0.61294384774E+02  0.11024164135E+03 -0.53517624622E+02  0.22034157996E+03  0.17255739516E+03 0.  0.
        -24    2    5    5    0    0 -0.87700479457E+01  0.49029807394E+02  0.27100351104E+02  0.97145551789E+02  0.78879613643E+02 0.  0.
          5    1    3    3  501    0  0.98401849202E+01  0.30685434928E+02 -0.29964731790E+02  0.44253816866E+02  0.47000000000E+01 0. -1.
        -13    1    4    4    0    0 -0.30522987727E+02 -0.34522762598E+02  0.29449339901E+02  0.54687636060E+02  0.00000000000E+00 0.  1.
         14    1    4    4    0    0 -0.40611581967E+02 -0.10640431368E+03 -0.24168305441E+02  0.11642716842E+03  0.00000000000E+00 0. -1.
         -5    1    5    5    0  503  0.70064432720E+02  0.61211833951E+02 -0.80617975726E+02  0.12319602818E+03  0.47000000000E+01 0.  1.
         11    1    6    6    0    0 -0.17995189893E+01  0.53162688019E+02 -0.14201463745E+02  0.55056255216E+02  0.00000000000E+00 0. -1.
        -12    1    6    6    0    0 -0.69705289564E+01 -0.41328806243E+01  0.41301814849E+02  0.42089296573E+02  0.00000000000E+00 0.  1.
</event>
<event>
12    1  0.8798177E-003  0.1741231E+03  0.7818608E-02  0.1173818E+00
         21   -1    0    0  501  502  0.00000000000E+00  0.00000000000E+00  0.24478131320E+03  0.24478131320E+03  0.00000000000E+00 0. -1.
         21   -1    0    0  502  503 -0.00000000000E+00 -0.00000000000E+00 -0.13449322628E+03  0.13449322628E+03  0.00000000000E+00 0. -1.
          6    2    1    2  501    0 -0.80693185192E+01 -0.28082770108E+02  0.10975708332E+03  0.20515059892E+03  0.17084026170E+03 0.  0.
         24    2    3    3    0    0  0.22692456372E+02  0.43814522941E+02  0.60444965445E+02  0.11258017971E+03  0.81154439313E+02 0.  0.
         -6    2    1    2    0  503  0.80693185192E+01  0.28082770108E+02  0.53100359579E+00  0.17412394056E+03  0.17165403821E+03 0.  0.
        -24    2    5    5    0    0  0.30440319468E+02  0.62891999979E+02  0.42287629229E+02  0.11515064192E+03  0.81175181177E+02 0.  0.
          5    1    3    3  501    0 -0.30761774891E+02 -0.71897293049E+02  0.49312117879E+02  0.92570419206E+02  0.47000000000E+01 0. -1.
        -11    1    4    4    0    0 -0.10541121579E+02  0.54881238651E+02  0.20680531379E+02  0.59588169783E+02  0.00000000000E+00 0.  1.
         12    1    4    4    0    0  0.33233577950E+02 -0.11066715710E+02  0.39764434066E+02  0.52992009932E+02  0.00000000000E+00 0. -1.
         -5    1    5    5    0  503 -0.22371000949E+02 -0.34809229872E+02 -0.41756625633E+02  0.58973298636E+02  0.47000000000E+01 0.  1.
         13    1    6    6    0    0  0.15059546948E+02  0.39713459746E+02  0.66075647404E+02  0.78548965742E+02  0.00000000000E+00 0. -1.
        -14    1    6    6    0    0  0.15380772520E+02  0.23178540234E+02 -0.23788018175E+02  0.36601676183E+02  0.00000000000E+00 0.  1.
</event>
<event>
12    1  0.8798177E-003  0.1963058E+03  0.7818608E-02  0.1153234E+00
         21   -1    0    0  501  502  0.00000000000E+00  0.00000000000E+00  0.86003055914E+02  0.86003055914E+02  0.00000000000E+00 0. -1.
         21   -1    0    0  502  503 -0.00000000000E+00 -0.00000000000E+00 -0.46281176342E+03  0.46281176342E+03  0.00000000000E+00 0. -1.
          6    2    1    2  501    0  0.91595474421E+02 -0.58807756820E+01 -0.24225213403E+03  0.31082016421E+03  0.17175204097E+03 0.  0.
         24    2    3    3    0    0  0.97068759769E+02  0.42702210526E+02 -0.21984910653E+03  0.25683637921E+03  0.79909155515E+02 0.  0.
         -6    2    1    2    0  503 -0.91595474421E+02  0.58807756820E+01 -0.13455657347E+03  0.23799465513E+03  0.17352714470E+03 0.  0.
        -24    2    5    5    0    0 -0.66381260199E+02 -0.39926782697E+02 -0.21928013205E+02  0.11373133958E+03  0.80332808722E+02 0.  0.
          5    1    3    3  501    0 -0.54732853483E+01 -0.48582986208E+02 -0.22403027501E+02  0.53983784997E+02  0.47000000000E+01 0. -1.
        -11    1    4    4    0    0  0.73290422616E+02  0.60667298112E+02 -0.12298008458E+03  0.15548668210E+03  0.00000000000E+00 0.  1.
         12    1    4    4    0    0  0.23778337153E+02 -0.17965087586E+02 -0.96869021954E+02  0.10134969711E+03  0.00000000000E+00 0. -1.
         -5    1    5    5    0  503 -0.25214214222E+02  0.45807558379E+02 -0.11262856027E+03  0.12426331555E+03  0.47000000000E+01 0.  1.
         13    1    6    6    0    0 -0.50169996047E+02 -0.17361261247E+02 -0.50929472754E+02  0.73568016763E+02  0.00000000000E+00 0. -1.
        -14    1    6    6    0    0 -0.16211264152E+02 -0.22565521449E+02  0.29001459549E+02  0.40163322816E+02  0.00000000000E+00 0.  1.
</event>
<event>
12    1  0.8798177E-003  0.1870437E+03  0.7818608E-02  0.1161699E+00
         21   -1    0    0  501  502  0.00000000000E+00  0.00000000000E+00  0.46378764988E+03  0.46378764988E+03  0.00000000000E+00 0. -1.
         21   -1    0    0  502  503 -0.00000000000E+00 -0.00000000000E+00 -0.76814449754E+02  0.76814449754E+02  0.00000000000E+00 0.  1.
          6    2    1    2  501    0  0.34229402039E+02  0.63939044548E+02  0.14527951183E+03  0.23498600281E+03  0.16986003526E+03 0.  0.
         24    2    3    3    0    0 -0.12789905507E+02  0.20960470318E+02  0.14706168493E+03  0.17108577381E+03  0.83906375368E+02 0.  0.
         -6    2    1    2    0  503 -0.34229402039E+02 -0.63939044548E+02  0.24169368829E+03  0.30561609682E+03  0.17241086478E+03 0.  0.
        -24    2    5    5    0    0  0.19797365784E+02 -0.39382699998E+02  0.46777975535E+02  0.10181194873E+03  0.78959237320E+02 0.  0.
          5    1    3    3  501    0  0.47019307546E+02  0.42978574230E+02 -0.17821731005E+01  0.63900228997E+02  0.47000000000E+01 0. -1.
        -13    1    4    4    0    0  0.15501682780E+02 -0.84521579691E+01 -0.82092703166E+00  0.17675267029E+02  0.00000000000E+00 0.  1.
         14    1    4    4    0    0 -0.28291588287E+02  0.29412628288E+02  0.14788261196E+03  0.15341050678E+03  0.00000000000E+00 0. -1.
         -5    1    5    5    0  503 -0.54026767823E+02 -0.24556344550E+02  0.19491571276E+03  0.20380414809E+03  0.47000000000E+01 0.  1.
         11    1    6    6    0    0 -0.23051975981E+02  0.85172974332E+01  0.21830244741E+02  0.32870922373E+02  0.00000000000E+00 0. -1.
        -12    1    6    6    0    0  0.42849341764E+02 -0.47899997431E+02  0.24947730794E+02  0.68941026358E+02  0.00000000000E+00 0.  1.
</event>
<event>
12    1  0.8798177E-003  0.1912202E+03  0.7818608E-02  0.1157457E+00
         21   -1    0    0  501  502  0.00000000000E+00  0.00000000000E+00  0.26335472033E+03  0.26335472033E+03  0.00000000000E+00 0. -1.
         21   -1    0    0  502  503 -0.00000000000E+00 -0.00000000000E+00 -0.23053599035E+03  0.23053599035E+03  0.00000000000E+00 0. -1.
          6    2    1    2  501    0 -0.41172334708E+02 -0.71415218834E+02  0.17240997414E+03  0.25746912549E+03  0.17253943541E+03 0.  0.
         24    2    3    3    0    0  0.16350375295E+02 -0.98420814469E+02  0.10747616429E+03  0.16649300762E+03  0.78834029467E+02 0.  0.
         -6    2    1    2    0  503  0.41172334708E+02  0.71415218834E+02 -0.13959124416E+03  0.23642158519E+03  0.17208764009E+03 0.  0.
        -24    2    5    5    0    0  0.15435704566E+02 -0.61003114095E+01 -0.13080954164E+03  0.15414011790E+03  0.79828347024E+02 0.  0.
          5    1    3    3  501    0 -0.57522710003E+02  0.27005595635E+02  0.64933809846E+02  0.90976117871E+02  0.47000000000E+01 0. -1.
        -11    1    4    4    0    0  0.38223205098E+02 -0.18732217136E+02  0.50862106914E+02  0.66323926953E+02  0.00000000000E+00 0.  1.
         12    1    4    4    0    0 -0.21872829803E+02 -0.79688597333E+02  0.56614057377E+02  0.10016908066E+03  0.00000000000E+00 0. -1.
         -5    1    5    5    0  503  0.25736630142E+02  0.77515530243E+02 -0.87817025248E+01  0.82281467289E+02  0.47000000000E+01 0.  1.
         11    1    6    6    0    0 -0.23327675717E+02  0.85259234086E+00 -0.10378428141E+03  0.10637708605E+03  0.00000000000E+00 0. -1.
        -12    1    6    6    0    0  0.38763380283E+02 -0.69529037504E+01 -0.27025260225E+02  0.47763031852E+02  0.00000000000E+00 0.  1.
</event>
<event>
12    1  0.8798177E-003  0.2702959E+03  0.7818608E-02  0.1101200E+00
         21   -1    0    0  501  502  0.00000000000E+00  0.00000000000E+00  0.13862029376E+03  0.13862029376E+03  0.00000000000E+00 0.  1.
         21   -1    0    0  502  503 -0.00000000000E+00 -0.00000000000E+00 -0.75176782315E+03  0.75176782315E+03  0.00000000000E+00 0. -1.
          6    2    1    2  501    0  0.20593292298E+03 -0.18227939939E+02 -0.62761013158E+02  0.27748657607E+03  0.17412417570E+03 0.  0.
         24    2    3    3    0    0  0.41725377131E+02 -0.10973975843E+02  0.15079068246E+02  0.95558275953E+02  0.83920024794E+02 0.  0.
         -6    2    1    2    0  503 -0.20593292298E+03  0.18227939939E+02 -0.55038651624E+03  0.61290154085E+03  0.17315413640E+03 0.  0.
        -24    2    5    5    0    0 -0.93145783422E+02  0.72831645123E+02 -0.26105604635E+03  0.29756566551E+03  0.80090451696E+02 0.  0.
          5    1    3    3  501    0  0.16420754585E+03 -0.72539640959E+01 -0.77840081404E+02  0.18192830011E+03  0.47000000000E+01 0. -1.
        -11    1    4    4    0    0  0.61837856215E+02 -0.26269505676E+02  0.22592811593E+01  0.67224338904E+02  0.00000000000E+00 0.  1.
         12    1    4    4    0    0 -0.20112479084E+02  0.15295529833E+02  0.12819787086E+02  0.28333937049E+02  0.00000000000E+00 0. -1.
         -5    1    5    5    0  503 -0.11278713956E+03 -0.54603705184E+02 -0.28933046989E+03  0.31533587534E+03  0.47000000000E+01 0.  1.
         13    1    6    6    0    0 -0.80137881034E+02  0.58302908139E+02 -0.25975887730E+03  0.27802155206E+03  0.00000000000E+00 0. -1.
        -14    1    6    6    0    0 -0.13007902388E+02  0.14528736984E+02 -0.12971690488E+01  0.19544113447E+02  0.00000000000E+00 0.  1.
</event>
<event>
12    1  0.8798177E-003  0.2810029E+03  0.7818608E-02  0.1095508E+00
         21   -1    0    0  501  502  0.00000000000E+00  0.00000000000E+00  0.18421740156E+03  0.18421740156E+03  0.00000000000E+00 0. -1.
         21   -1    0    0  502  503 -0.00000000000E+00 -0.00000000000E+00 -0.53754954951E+03  0.53754954951E+03  0.00000000000E+00 0. -1.
          6    2    1    2  501    0 -0.16602586408E+03 -0.14336349861E+03 -0.11888625406E+02  0.28125428588E+03  0.17562731460E+03 0.  0.
         24    2    3    3    0    0 -0.47206659497E+02 -0.75959729007E+02  0.50643562194E+02  0.13094248987E+03  0.81134555701E+02 0.  0.
         -6    2    1    2    0  503  0.16602586408E+03  0.14336349861E+03 -0.34144352254E+03  0.44051266520E+03  0.17131855952E+03 0.  0.
        -24    2    5    5    0    0  0.21809112505E+02  0.28692904068E+02 -0.91393687890E+02  0.12987650102E+03  0.84948097085E+02 0.  0.
          5    1    3    3  501    0 -0.11881920458E+03 -0.67403769598E+02 -0.62532187600E+02  0.15031179601E+03  0.47000000000E+01 0. -1.
        -13    1    4    4    0    0 -0.23091105147E+02 -0.96955453290E+01  0.54854327400E+02  0.60300911856E+02  0.00000000000E+00 0.  1.
         14    1    4    4    0    0 -0.24115554350E+02 -0.66264183678E+02 -0.42107652058E+01  0.70641578010E+02  0.00000000000E+00 0. -1.
         -5    1    5    5    0  503  0.14421675157E+03  0.11467059454E+03 -0.25004983465E+03  0.31063616418E+03  0.47000000000E+01 0.  1.
         11    1    6    6    0    0  0.39601721143E+02 -0.12834345319E+02 -0.22035454721E+02  0.47101783427E+02  0.00000000000E+00 0. -1.
        -12    1    6    6    0    0 -0.17792608638E+02  0.41527249387E+02 -0.69358233169E+02  0.82774717591E+02  0.00000000000E+00 0.  1.
</event>
<event>
12    1  0.8798177E-003  0.1780506E+03  0.7818608E-02  0.1170611E+00
         21   -1    0    0  503  502  0.00000000000E+00  0.00000000000E+00  0.66272702458E+03  0.66272702458E+03  0.00000000000E+00 0.  1.
         21   -1    0    0  501  503 -0.00000000000E+00 -0.00000000000E+00 -0.87367344503E+02  0.87367344503E+02  0.00000000000E+00 0.  1.
          6    2    1    2  501    0 -0.15961959161E+02 -0.25430426461E+02  0.30702952317E+02  0.17707344175E+03  0.17178719906E+03 0.  0.
         24    2    3    3    0    0  0.32526010344E+02  0.30181969459E+02 -0.92943685823E+01  0.93015738677E+02  0.81219761911E+02 0.  0.
         -6    2    1    2    0  502  0.15961959161E+02  0.25430426461E+02  0.54465672776E+03  0.57302092734E+03  0.17550083002E+03 0.  0.
        -24    2    5    5    0    0 -0.59727040610E+02  0.10367082238E+02  0.27446016293E+03  0.29198000029E+03  0.79051525993E+02 0.  0.
          5    1    3    3  501    0 -0.48487969506E+02 -0.55612395919E+02  0.39997320899E+02  0.84057703072E+02  0.47000000000E+01 0. -1.
        -11    1    4    4    0    0  0.14661374949E+02  0.10342703242E+02 -0.44992920767E+02  0.48438521291E+02  0.00000000000E+00 0.  1.
         12    1    4    4    0    0  0.17864635396E+02  0.19839266217E+02  0.35698552184E+02  0.44577217386E+02  0.00000000000E+00 0. -1.
         -5    1    5    5    0  502  0.75688999771E+02  0.15063344223E+02  0.27019656484E+03  0.28104092705E+03  0.47000000000E+01 0.  1.
         13    1    6    6    0    0 -0.41618244461E+02 -0.29317603633E+02  0.10080919873E+03  0.11293402811E+03  0.00000000000E+00 0. -1.
        -14    1    6    6    0    0 -0.18108796149E+02  0.39684685871E+02  0.17365096419E+03  0.17904597218E+03  0.00000000000E+00 0.  1.
</event>
<event>
12    1  0.8798177E-003  0.3839449E+03  0.7818608E-02  0.1049912E+00
         21   -1    0    0  503  502  0.00000000000E+00  0.00000000000E+00  0.36218669728E+03  0.36218669728E+03  0.00000000000E+00 0.  1.
         21   -1    0    0  501  503 -0.00000000000E+00 -0.00000000000E+00 -0.41186858462E+03  0.41186858462E+03  0.00000000000E+00 0. -1.
          6    2    1    2  501    0  0.12131788655E+03  0.32090521933E+03  0.34904211936E+02  0.38090327354E+03  0.16177394844E+03 0.  0.
         24    2    3    3    0    0  0.34523020007E+01  0.98159604155E+02 -0.16346556678E+02  0.12369394948E+03  0.73387716584E+02 0.  0.
         -6    2    1    2    0  502 -0.12131788655E+03 -0.32090521933E+03 -0.84586099269E+02  0.39315200836E+03  0.17238185549E+03 0.  0.
        -24    2    5    5    0    0 -0.15614258832E+03 -0.25779089697E+03 -0.66871304216E+02  0.31877404453E+03  0.79425850241E+02 0.  0.
          5    1    3    3  501    0  0.11786558455E+03  0.22274561518E+03  0.51250768614E+02  0.25720932406E+03  0.47000000000E+01 0. -1.
        -11    1    4    4    0    0  0.22056956472E+02  0.91227011272E+02  0.56956308878E+01  0.94028278329E+02  0.00000000000E+00 0.  1.
         12    1    4    4    0    0 -0.18604654471E+02  0.69325928831E+01 -0.22042187566E+02  0.29665671149E+02  0.00000000000E+00 0. -1.
         -5    1    5    5    0  502  0.34824701778E+02 -0.63114322359E+02 -0.17714795053E+02  0.74377963836E+02  0.47000000000E+01 0.  1.
         13    1    6    6    0    0 -0.44250321672E+02 -0.10754727571E+03  0.90416356902E+01  0.11664586858E+03  0.00000000000E+00 0. -1.
        -14    1    6    6    0    0 -0.11189226665E+03 -0.15024362126E+03 -0.75912939907E+02  0.20212817594E+03  0.00000000000E+00 0.  1.
</event>
<event>
12    1  0.8798177E-003  0.1936787E+03  0.7818608E-02  0.1155994E+00
         21   -1    0    0  503  502  0.00000000000E+00  0.00000000000E+00  0.63609076685E+02  0.63609076685E+02  0.00000000000E+00 0.  1.
         21   -1    0    0  501  503 -0.00000000000E+00 -0.00000000000E+00 -0.57868488692E+03  0.57868488692E+03  0.00000000000E+00 0.  1.
          6    2    1    2  501    0  0.59292079373E+02  0.65674589451E+02 -0.25480898205E+03  0.31787102454E+03  0.16818343715E+03 0.  0.
         24    2    3    3    0    0  0.31638085302E+02  0.76616465131E+02 -0.79351903156E+02  0.13984927147E+03  0.79937744686E+02 0.  0.
         -6    2    1    2    0  502 -0.59292079373E+02 -0.65674589451E+02 -0.26026682819E+03  0.32442293907E+03  0.17228673531E+03 0.  0.
        -24    2    5    5    0    0 -0.94851754563E+01 -0.97265756300E+02 -0.21697377936E+03  0.25110781391E+03  0.80168057064E+02 0.  0.
          5    1    3    3  501    0  0.27653994071E+02 -0.10941875680E+02 -0.17545707890E+03  0.17802175307E+03  0.47000000000E+01 0. -1.
        -13    1    4    4    0    0 -0.27134769116E+02  0.25251188669E+02 -0.27170230849E+02  0.45958020721E+02  0.00000000000E+00 0.  1.
         14    1    4    4    0    0  0.58772854418E+02  0.51365276461E+02 -0.52181672307E+02  0.93891250749E+02  0.00000000000E+00 0. -1.
         -5    1    5    5    0  502 -0.49806903916E+02  0.31591166849E+02 -0.43293048825E+02  0.73315125159E+02  0.47000000000E+01 0.  1.
         13    1    6    6    0    0  0.30221760549E+02 -0.39131104563E+02 -0.52067830710E+02  0.71802904885E+02  0.00000000000E+00 0. -1.
        -14    1    6    6    0    0 -0.39706936005E+02 -0.58134651737E+02 -0.16490594865E+03  0.17930490902E+03  0.00000000000E+00 0.  1.
</event>
<event>
12    1  0.8798177E-003  0.1878488E+03  0.7818608E-02  0.1160858E+00
         21   -1    0    0  503  502  0.00000000000E+00  0.00000000000E+00  0.21729913581E+02  0.21729913581E+02  0.00000000000E+00 0. -1.
         21   -1    0    0  501  503 -0.00000000000E+00 -0.00000000000E+00 -0.16645527175E+04  0.16645527175E+04  0.00000000000E+00 0.  1.
          6    2    1    2  501    0 -0.35340623762E+01  0.72979382512E+02 -0.98183024724E+03  0.99963882969E+03  0.17305685645E+03 0.  0.
         24    2    3    3    0    0 -0.18201013572E+02 -0.26065234001E+02 -0.47875741427E+03  0.48667750485E+03  0.81459552437E+02 0.  0.
         -6    2    1    2    0  502  0.35340623762E+01 -0.72979382512E+02 -0.66099255667E+03  0.68664380138E+03  0.17096803834E+03 0.  0.
        -24    2    5    5    0    0 -0.36438259671E+02  0.85497708689E+01 -0.21671340838E+03  0.23315638040E+03  0.77436109155E+02 0.  0.
          5    1    3    3  501    0  0.14666951195E+02  0.99044616513E+02 -0.50307283297E+03  0.51296132485E+03  0.47000000000E+01 0. -1.
        -13    1    4    4    0    0  0.20523626902E+02 -0.13243971752E+02 -0.36519608066E+03  0.36601202081E+03  0.00000000000E+00 0.  1.
         14    1    4    4    0    0 -0.38724640473E+02 -0.12821262249E+02 -0.11356133362E+03  0.12066548404E+03  0.00000000000E+00 0. -1.
         -5    1    5    5    0  502  0.39972322048E+02 -0.81529153381E+02 -0.44427914829E+03  0.45348742098E+03  0.47000000000E+01 0.  1.
         13    1    6    6    0    0 -0.17757893606E+02  0.32941437584E+02 -0.18595171649E+03  0.18968005156E+03  0.00000000000E+00 0. -1.
        -14    1    6    6    0    0 -0.18680366065E+02 -0.24391666715E+02 -0.30761691892E+02  0.43476328841E+02  0.00000000000E+00 0.  1.
</event>
<event>
12    1  0.8798177E-003  0.3493573E+03  0.7818608E-02  0.1062942E+00
         21   -1    0    0  503  502  0.00000000000E+00  0.00000000000E+00  0.62506302179E+03  0.62506302179E+03  0.00000000000E+00 0.  1.
         21   -1    0    0  501  503 -0.00000000000E+00 -0.00000000000E+00 -0.47414401455E+03  0.47414401455E+03  0.00000000000E+00 0. -1.
          6    2    1    2  501    0  0.29271669616E+03 -0.83120095648E+02 -0.34627913533E+03  0.49189404539E+03  0.17163478030E+03 0.  0.
         24    2    3    3    0    0  0.79013694894E+02 -0.27658212640E+02 -0.54945868664E+02  0.12632304615E+03  0.77008589117E+02 0.  0.
         -6    2    1    2    0  502 -0.29271669616E+03  0.83120095648E+02  0.49719814257E+03  0.60731299096E+03  0.17038503896E+03 0.  0.
        -24    2    5    5    0    0 -0.13951462906E+03  0.37467281104E+02  0.14062174486E+03  0.21651397581E+03  0.78966434121E+02 0.  0.
          5    1    3    3  501    0  0.21370300127E+03 -0.55461883007E+02 -0.29133326666E+03  0.36557099924E+03  0.47000000000E+01 0. -1.
        -13    1    4    4    0    0  0.49860746115E+02 -0.53865063256E+02 -0.44182113438E+02  0.85671454935E+02  0.00000000000E+00 0.  1.
         14    1    4    4    0    0  0.29152948779E+02  0.26206850616E+02 -0.10763755225E+02  0.40651591214E+02  0.00000000000E+00 0. -1.
         -5    1    5    5    0  502 -0.15320206711E+03  0.45652814543E+02  0.35657639771E+03  0.39079901515E+03  0.47000000000E+01 0.  1.
         11    1    6    6    0    0 -0.35766953249E+01  0.28147317471E+02  0.23865650864E+02  0.37076050510E+02  0.00000000000E+00 0. -1.
        -12    1    6    6    0    0 -0.13593793373E+03  0.93199636335E+01  0.11675609400E+03  0.17943792530E+03  0.00000000000E+00 0.  1.
</event>
<event>
12    1  0.8798177E-003  0.3208554E+03  0.7818608E-02  0.1075701E+00
         21   -1    0    0  501  502  0.00000000000E+00  0.00000000000E+00  0.15921736256E+03  0.15921736256E+03  0.00000000000E+00 0.  1.
         21   -1    0    0  502  503 -0.00000000000E+00 -0.00000000000E+00 -0.64503329536E+03  0.64503329536E+03  0.00000000000E+00 0.  1.
          6    2    1    2  501    0  0.15367302406E+03  0.22260583922E+03 -0.20498668328E+03  0.38074630045E+03  0.17256722460E+03 0.  0.
         24    2    3    3    0    0  0.52001723469E+02  0.14782702746E+03 -0.18096858475E+03  0.25218548563E+03  0.79315075504E+02 0.  0.
         -6    2    1    2    0  503 -0.15367302406E+03 -0.22260583922E+03 -0.28082924951E+03  0.42350435747E+03  0.16529402723E+03 0.  0.
        -24    2    5    5    0    0 -0.80877967264E+02 -0.12925337457E+03 -0.76062032182E+02  0.18693405874E+03  0.76884518272E+02 0.  0.
          5    1    3    3  501    0  0.10167130059E+03  0.74778811754E+02 -0.24018098534E+02  0.12856081482E+03  0.47000000000E+01 0. -1.
        -13    1    4    4    0    0  0.16688830369E+02  0.13208379342E+03 -0.11598828089E+03  0.17657272396E+03  0.00000000000E+00 0.  1.
         14    1    4    4    0    0  0.35312893099E+02  0.15743234044E+02 -0.64980303854E+02  0.75612761662E+02  0.00000000000E+00 0. -1.
         -5    1    5    5    0  503 -0.72795056795E+02 -0.93352464645E+02 -0.20476721733E+03  0.23657029873E+03  0.47000000000E+01 0.  1.
         11    1    6    6    0    0 -0.15892333884E+02 -0.22316557485E+02  0.15868371289E+02  0.31660704692E+02  0.00000000000E+00 0. -1.
        -12    1    6    6    0    0 -0.64985633381E+02 -0.10693681709E+03 -0.91930403470E+02  0.15527335405E+03  0.00000000000E+00 0.  1.
</event>
<event>
12    1  0.8798177E-003  0.1737165E+03  0.7818608E-02  0.1174450E+00
         21   -1    0    0  503  502  0.00000000000E+00  0.00000000000E+00  0.34259675146E+03  0.34259675146E+03  0.00000000000E+00 0.  1.
         21   -1    0    0  501  503 -0.00000000000E+00 -0.00000000000E+00 -0.87283188565E+02  0.87283188565E+02  0.00000000000E+00 0.  1.
          6    2    1    2  501    0 -0.32032942000E+02  0.32557296340E+02  0.12242567410E+03  0.21116408852E+03  0.16587989535E+03 0.  0.
         24    2    3    3    0    0 -0.39410682060E+02 -0.17560372398E+02  0.13146085271E+03  0.15949266295E+03  0.79337161531E+02 0.  0.
         -6    2    1    2    0  502  0.32032942000E+02 -0.32557296340E+02  0.13288788880E+03  0.21871585151E+03  0.16760473083E+03 0.  0.
        -24    2    5    5    0    0  0.69417349832E+02 -0.79448509612E+01  0.13830750228E+03  0.17338563392E+03  0.77792825814E+02 0.  0.
          5    1    3    3  501    0  0.73777400602E+01  0.50117668738E+02 -0.90351786074E+01  0.51671425571E+02  0.47000000000E+01 0. -1.
        -13    1    4    4    0    0 -0.28488516802E+02 -0.46432547593E+02  0.10713991756E+03  0.12019375608E+03  0.00000000000E+00 0.  1.
         14    1    4    4    0    0 -0.10922165258E+02  0.28872175195E+02  0.24320935145E+02  0.39298906864E+02  0.00000000000E+00 0. -1.
         -5    1    5    5    0  502 -0.37384407832E+02 -0.24612445378E+02 -0.54196134844E+01  0.45330217591E+02  0.47000000000E+01 0.  1.
         11    1    6    6    0    0  0.26183141476E+02 -0.35876373213E+02  0.99372404414E+02  0.10884643224E+03  0.00000000000E+00 0. -1.
        -12    1    6    6    0    0  0.43234208357E+02  0.27931522252E+02  0.38935097870E+02  0.64539201682E+02  0.00000000000E+00 0.  1.
</event>
<event>
12    1  0.8798177E-003  0.2269222E+03  0.7818608E-02  0.1128939E+00
         21   -1    0    0  503  502  0.00000000000E+00  0.00000000000E+00  0.13842913349E+03  0.13842913349E+03  0.00000000000E+00 0.  1.
         21   -1    0    0  501  503 -0.00000000000E+00 -0.00000000000E+00 -0.46678217751E+03  0.46678217751E+03  0.00000000000E+00 0.  1.
          6    2    1    2  501    0  0.90738001934E+00  0.14747282442E+03 -0.30147187514E+03  0.37733140179E+03  0.17246633873E+03 0.  0.
         24    2    3    3    0    0  0.52502457476E+02  0.10182394059E+03 -0.11497455844E+03  0.17846156559E+03  0.74194058968E+02 0.  0.
         -6    2    1    2    0  502 -0.90738001934E+00 -0.14747282442E+03 -0.26881168883E+02  0.22787990921E+03  0.17163216045E+03 0.  0.
        -24    2    5    5    0    0  0.59442951828E+02 -0.86526332974E+02 -0.13121227465E+02  0.14088529236E+03  0.93038853024E+02 0.  0.
          5    1    3    3  501    0 -0.51595077457E+02  0.45648883830E+02 -0.18649731670E+03  0.19886983620E+03  0.47000000000E+01 0. -1.
        -13    1    4    4    0    0  0.27696571599E+02  0.96850510557E+02 -0.11537127176E+03  0.15315891035E+03  0.00000000000E+00 0.  1.
         14    1    4    4    0    0  0.24805885877E+02  0.49734300332E+01  0.39671332342E+00  0.25302655234E+02  0.00000000000E+00 0. -1.
         -5    1    5    5    0  502 -0.60350331847E+02 -0.60946491446E+02 -0.13759941417E+02  0.86994616853E+02  0.47000000000E+01 0.  1.
         13    1    6    6    0    0 -0.44040018960E+01 -0.21423091732E+02  0.32303864521E+02  0.39011328547E+02  0.00000000000E+00 0. -1.
        -14    1    6    6    0    0  0.63846953724E+02 -0.65103241243E+02 -0.45425091986E+02  0.10187396381E+03  0.00000000000E+00 0.  1.
</event>
<event>
12    1  0.8798177E-003  0.1783070E+03  0.7818608E-02  0.1169632E+00
         21   -1    0    0  501  502  0.00000000000E+00  0.00000000000E+00  0.34362469728E+03  0.34362469728E+03  0.00000000000E+00 0.  1.
         21   -1    0    0  502  503 -0.00000000000E+00 -0.00000000000E+00 -0.92235212267E+02  0.92235212267E+02  0.00000000000E+00 0.  1.
          6    2    1    2  501    0 -0.44303521298E+02  0.15752285871E+02  0.11906079294E+03  0.21440352606E+03  0.17199553210E+03 0.  0.
         24    2    3    3    0    0 -0.68836292493E+02 -0.80433971109E+01  0.16261263290E+02  0.10596956142E+03  0.78498330317E+02 0.  0.
         -6    2    1    2    0  503  0.44303521298E+02 -0.15752285871E+02  0.13232869208E+03  0.22145638349E+03  0.17123408111E+03 0.  0.
        -24    2    5    5    0    0  0.21682305944E+02  0.56238966506E+02  0.57976651731E+02  0.11541499673E+03  0.79538579189E+02 0.  0.
          5    1    3    3  501    0  0.24532771196E+02  0.23795682982E+02  0.10279952965E+03  0.10843396464E+03  0.47000000000E+01 0. -1.
        -11    1    4    4    0    0 -0.25861908847E+02 -0.64008197934E+01 -0.31793897420E+02  0.41480847827E+02  0.00000000000E+00 0.  1.
         12    1    4    4    0    0 -0.42974383646E+02 -0.16425773175E+01  0.48055160711E+02  0.64488713593E+02  0.00000000000E+00 0. -1.
         -5    1    5    5    0  503  0.22621215353E+02 -0.71991252377E+02  0.74352040344E+02  0.10604138676E+03  0.47000000000E+01 0.  1.
         13    1    6    6    0    0  0.14159566238E+02  0.23595588834E+02 -0.17656318113E+02  0.32695423193E+02  0.00000000000E+00 0. -1.
        -14    1    6    6    0    0  0.75227397060E+01  0.32643377672E+02  0.75632969844E+02  0.82719573536E+02  0.00000000000E+00 0.  1.
</event>
<event>
12    1  0.8798177E-003  0.2130663E+03  0.7818608E-02  0.1139533E+00
         21   -1    0    0  501  502  0.00000000000E+00  0.00000000000E+00  0.26876884619E+03  0.26876884619E+03  0.00000000000E+00 0. -1.
         21   -1    0    0  502  503 -0.00000000000E+00 -0.00000000000E+00 -0.16787181948E+03  0.16787181948E+03  0.00000000000E+00 0. -1.
          6    2    1    2  501    0  0.12019770895E+03 -0.38035757958E+02  0.39090129502E+02  0.21662241339E+03  0.17176444229E+03 0.  0.
         24    2    3    3    0    0  0.12177231115E+03 -0.60943109302E+02 -0.14090460916E+02  0.15850622532E+03  0.79894455646E+02 0.  0.
         -6    2    1    2    0  503 -0.12019770895E+03  0.38035757958E+02  0.61806897205E+02  0.22001825228E+03  0.16939223912E+03 0.  0.
        -24    2    5    5    0    0 -0.12370945758E+03  0.59192420721E+02  0.91043010660E+02  0.18345628997E+03  0.80991406795E+02 0.  0.
          5    1    3    3  501    0 -0.15746021978E+01  0.22907351344E+02  0.53180590418E+02  0.58116188062E+02  0.47000000000E+01 0. -1.
        -13    1    4    4    0    0  0.10107400542E+03 -0.21665678935E+02 -0.35394785849E+02  0.10926182811E+03  0.00000000000E+00 0.  1.
         14    1    4    4    0    0  0.20698305727E+02 -0.39277430367E+02  0.21304324933E+02  0.49244397215E+02  0.00000000000E+00 0. -1.
         -5    1    5    5    0  503  0.35117486292E+01 -0.21156662762E+02 -0.29236113456E+02  0.36561962306E+02  0.47000000000E+01 0.  1.
         13    1    6    6    0    0 -0.87500836633E+02  0.60714500961E+02  0.27001090500E+02  0.10987131530E+03  0.00000000000E+00 0. -1.
        -14    1    6    6    0    0 -0.36208620949E+02 -0.15220802401E+01  0.64041920160E+02  0.73584974670E+02  0.00000000000E+00 0.  1.
</event>
<event>
12    1  0.8798177E-003  0.2050267E+03  0.7818608E-02  0.1145591E+00
         21   -1    0    0  501  502  0.00000000000E+00  0.00000000000E+00  0.22934347398E+03  0.22934347398E+03  0.00000000000E+00 0. -1.
         21   -1    0    0  502  503 -0.00000000000E+00 -0.00000000000E+00 -0.18398784520E+03  0.18398784520E+03  0.00000000000E+00 0. -1.
          6    2    1    2  501    0  0.97705884720E+02  0.49985271742E+02  0.89720471948E+01  0.20522288622E+03  0.17317900594E+03 0.  0.
         24    2    3    3    0    0  0.75799585636E+02  0.17153474452E+02 -0.59419664569E+02  0.12611960506E+03  0.79596729673E+02 0.  0.
         -6    2    1    2    0  503 -0.97705884720E+02 -0.49985271742E+02  0.36383581585E+02  0.20810843296E+03  0.17303290889E+03 0.  0.
        -24    2    5    5    0    0 -0.47109265758E+02 -0.94672904140E+02  0.24317638311E+02  0.13937213013E+03  0.87470002998E+02 0.  0.
          5    1    3    3  501    0  0.21906299085E+02  0.32831797290E+02  0.68391711764E+02  0.79103281164E+02  0.47000000000E+01 0. -1.
        -11    1    4    4    0    0  0.46765842127E+02  0.33508937439E+02  0.52627304188E+00  0.57534075480E+02  0.00000000000E+00 0.  1.
         12    1    4    4    0    0  0.29033743509E+02 -0.16355462987E+02 -0.59945937611E+02  0.68585529579E+02  0.00000000000E+00 0. -1.
         -5    1    5    5    0  503 -0.50596618962E+02  0.44687632397E+02  0.12065943274E+02  0.68736302830E+02  0.47000000000E+01 0.  1.
         11    1    6    6    0    0 -0.67835805529E+01 -0.31694399712E+02 -0.32159280984E+02  0.45659295785E+02  0.00000000000E+00 0. -1.
        -12    1    6    6    0    0 -0.40325685205E+02 -0.62978504428E+02  0.56476919295E+02  0.93712834341E+02  0.00000000000E+00 0.  1.
</event>
<event>
12    1  0.8798177E-003  0.2146093E+03  0.7818608E-02  0.1138347E+00
         21   -1    0    0  501  502  0.00000000000E+00  0.00000000000E+00  0.17798402345E+04  0.17798402345E+04  0.00000000000E+00 0. -1.
         21   -1    0    0  502  503 -0.00000000000E+00 -0.00000000000E+00 -0.35306672027E+02  0.35306672027E+02  0.00000000000E+00 0.  1.
          6    2    1    2  501    0 -0.12439789525E+03 -0.54919582382E+00  0.13500398763E+04  0.13669911573E+04  0.17487715341E+03 0.  0.
         24    2    3    3    0    0 -0.89438486365E+02 -0.34139743109E+01  0.43245132684E+03  0.44872038940E+03  0.79529489564E+02 0.  0.
         -6    2    1    2    0  503  0.12439789525E+03  0.54919582382E+00  0.39449368625E+03  0.44815574923E+03  0.17246208023E+03 0.  0.
        -24    2    5    5    0    0  0.56829625500E+02 -0.62393255074E+02  0.26602512801E+03  0.28987282640E+03  0.78322168905E+02 0.  0.
          5    1    3    3  501    0 -0.34959408880E+02  0.28647784871E+01  0.91758854942E+03  0.91827076794E+03  0.47000000000E+01 0. -1.
        -13    1    4    4    0    0 -0.10957743295E+02  0.28693283980E+02  0.69310976997E+02  0.75811530891E+02  0.00000000000E+00 0.  1.
         14    1    4    4    0    0 -0.78480743070E+02 -0.32107258291E+02  0.36314034985E+03  0.37290885851E+03  0.00000000000E+00 0. -1.
         -5    1    5    5    0  503  0.67568269745E+02  0.62942450898E+02  0.12846855824E+03  0.15828292282E+03  0.47000000000E+01 0.  1.
         11    1    6    6    0    0 -0.15554124462E+02 -0.24884209520E+01  0.14647530227E+02  0.21509838873E+02  0.00000000000E+00 0. -1.
        -12    1    6    6    0    0  0.72383749962E+02 -0.59904834122E+02  0.25137759778E+03  0.26836298753E+03  0.00000000000E+00 0.  1.
</event>
<event>
12    1  0.8798177E-003  0.2023230E+03  0.7818608E-02  0.1148333E+00
         21   -1    0    0  503  502  0.00000000000E+00  0.00000000000E+00  0.73724910125E+03  0.73724910125E+03  0.00000000000E+00 0.  1.
         21   -1    0    0  501  503 -0.00000000000E+00 -0.00000000000E+00 -0.59489731036E+02  0.59489731036E+02  0.00000000000E+00 0.  1.
          6    2    1    2  501    0  0.75847584908E+02  0.71913701219E+02  0.22524222017E+03  0.30105104719E+03  0.17021527167E+03 0.  0.
         24    2    3    3    0    0  0.89839566892E+02  0.23140673659E+02  0.73215581293E+02  0.14071149279E+03  0.76371226931E+02 0.  0.
         -6    2    1    2    0  502 -0.75847584908E+02 -0.71913701219E+02  0.45251715005E+03  0.49568778509E+03  0.17323444417E+03 0.  0.
        -24    2    5    5    0    0 -0.11687159986E+03 -0.65806878015E+02  0.30752710527E+03  0.34480880652E+03  0.79565548641E+02 0.  0.
          5    1    3    3  501    0 -0.13991981984E+02  0.48773027560E+02  0.15202663888E+03  0.16033955440E+03  0.47000000000E+01 0. -1.
        -13    1    4    4    0    0  0.57192310045E+02  0.51252066422E+02  0.51495640099E+02  0.92463698769E+02  0.00000000000E+00 0.  1.
         14    1    4    4    0    0  0.32647256847E+02 -0.28111392762E+02  0.21719941194E+02  0.48247794024E+02  0.00000000000E+00 0. -1.
         -5    1    5    5    0  502  0.41024014947E+02 -0.61068232043E+01  0.14499004477E+03  0.15087897857E+03  0.47000000000E+01 0.  1.
         11    1    6    6    0    0 -0.40000778586E+02 -0.53940005295E+02  0.80530267165E+02  0.10485566455E+03  0.00000000000E+00 0. -1.
        -12    1    6    6    0    0 -0.76870821270E+02 -0.11866872720E+02  0.22699683811E+03  0.23995314197E+03  0.00000000000E+00 0.  1.
</event>
<event>
12    1  0.8798177E-003  0.1844696E+03  0.7818608E-02  0.1163595E+00
         21   -1    0    0  503  502  0.00000000000E+00  0.00000000000E+00  0.23412609354E+03  0.23412609354E+03  0.00000000000E+00 0. -1.
         21   -1    0    0  501  503 -0.00000000000E+00 -0.00000000000E+00 -0.15087565430E+03  0.15087565430E+03  0.00000000000E+00 0. -1.
          6    2    1    2  501    0 -0.38147378660E+02  0.51408092231E+02  0.42044334768E+01  0.18430968754E+03  0.17278416946E+03 0.  0.
         24    2    3    3    0    0 -0.56562241524E+02  0.10488786461E+02 -0.52641954147E+02  0.11173490856E+03  0.80026324707E+02 0.  0.
         -6    2    1    2    0  502  0.38147378660E+02 -0.51408092231E+02  0.79046005771E+02  0.20069206030E+03  0.17300583110E+03 0.  0.
        -24    2    5    5    0    0 -0.32910444199E+02 -0.43437918652E+02  0.84618049648E+02  0.12881803488E+03  0.80398517840E+02 0.  0.
          5    1    3    3  501    0  0.18414862864E+02  0.40919305769E+02  0.56846387624E+02  0.72574778986E+02  0.47000000000E+01 0. -1.
        -11    1    4    4    0    0  0.17066279705E+02  0.12532491486E+02  0.45863535090E-01  0.21173647519E+02  0.00000000000E+00 0.  1.
         12    1    4    4    0    0 -0.73628521228E+02 -0.20437050248E+01 -0.52687817682E+02  0.90561261037E+02  0.00000000000E+00 0. -1.
         -5    1    5    5    0  502  0.71057822859E+02 -0.79701735786E+01 -0.55720438771E+01  0.71874025415E+02  0.47000000000E+01 0.  1.
         11    1    6    6    0    0  0.26040560186E+02 -0.10109143827E+02  0.35438585192E+02  0.45124260483E+02  0.00000000000E+00 0. -1.
        -12    1    6    6    0    0 -0.58951004384E+02 -0.33328774825E+02  0.49179464456E+02  0.83693774401E+02  0.00000000000E+00 0.  1.
</event>
<event>
12    1  0.8798177E-003  0.1897374E+03  0.7818608E-02  0.1159004E+00
         21   -1    0    0  503  502  0.00000000000E+00  0.00000000000E+00  0.44220497776E+02  0.44220497776E+02  0.00000000000E+00 0. -1.
         21   -1    0    0  501  503 -0.00000000000E+00 -0.00000000000E+00 -0.88727982636E+03  0.88727982636E+03  0.00000000000E+00 0.  1.
          6    2    1    2  501    0  0.69747657894E+02  0.36696352538E+02 -0.56182536015E+03  0.59299916933E+03  0.17259467387E+03 0.  0.
         24    2    3    3    0    0  0.16759338959E+02  0.85418568345E+02 -0.38560557593E+03  0.40258614822E+03  0.76201963832E+02 0.  0.
         -6    2    1    2    0  502 -0.69747657894E+02 -0.36696352538E+02 -0.28123396844E+03  0.33850115481E+03  0.17111145120E+03 0.  0.
        -24    2    5    5    0    0 -0.81461487783E+02 -0.41485938485E+02 -0.99715626518E+02  0.15648150643E+03  0.78652390921E+02 0.  0.
          5    1    3    3  501    0  0.52988318936E+02 -0.48722215807E+02 -0.17621978422E+03  0.19041302111E+03  0.47000000000E+01 0. -1.
        -11    1    4    4    0    0  0.25410184177E+02  0.19055038712E+02 -0.42735756800E+02  0.53245815512E+02  0.00000000000E+00 0.  1.
         12    1    4    4    0    0 -0.86508452186E+01  0.66363529633E+02 -0.34286981913E+03  0.34934033271E+03  0.00000000000E+00 0. -1.
         -5    1    5    5    0  502  0.11713829889E+02  0.47895859474E+01 -0.18151834192E+03  0.18201964839E+03  0.47000000000E+01 0.  1.
         13    1    6    6    0    0 -0.48333757268E+02 -0.49918293628E+02 -0.24179942313E+02  0.73570766889E+02  0.00000000000E+00 0. -1.
        -14    1    6    6    0    0 -0.33127730515E+02  0.84323551423E+01 -0.75535684205E+02  0.82910739537E+02  0.00000000000E+00 0.  1.
</event>
<event>
12    1  0.8798177E-003  0.1986479E+03  0.7818608E-02  0.1151222E+00
         21   -1    0    0  503  502  0.00000000000E+00  0.00000000000E+00  0.11183531432E+04  0.11183531432E+04  0.00000000000E+00 0.  1.
         21   -1    0    0  501  503 -0.00000000000E+00 -0.00000000000E+00 -0.38514867010E+02  0.38514867010E+02  0.00000000000E+00 0. -1.
          6    2    1    2  501    0 -0.97299581544E+02 -0.63452601684E+01  0.36335464763E+03  0.41335623519E+03  0.17125801097E+03 0.  0.
         24    2    3    3    0    0 -0.16065253101E+02  0.47158872572E+02  0.22757459297E+03  0.24626338202E+03  0.79833616593E+02 0.  0.
         -6    2    1    2    0  502  0.97299581544E+02  0.63452601684E+01  0.71648362860E+03  0.74351177506E+03  0.17307079101E+03 0.  0.
        -24    2    5    5    0    0  0.39388593894E+02  0.26319180475E+02  0.16438680409E+03  0.18800692934E+03  0.77970658138E+02 0.  0.
          5    1    3    3  501    0 -0.81234328444E+02 -0.53504132741E+02  0.13578005465E+03  0.16709285317E+03  0.47000000000E+01 0. -1.
        -11    1    4    4    0    0 -0.31833402358E+02  0.17153521436E+02  0.19801178648E+03  0.20128655293E+03  0.00000000000E+00 0.  1.
         12    1    4    4    0    0  0.15768149258E+02  0.30005351136E+02  0.29562806493E+02  0.44976829097E+02  0.00000000000E+00 0. -1.
         -5    1    5    5    0  502  0.57910987650E+02 -0.19973920307E+02  0.55209682451E+03  0.55550484572E+03  0.47000000000E+01 0.  1.
         11    1    6    6    0    0  0.26647126567E+02 -0.22590177910E+02  0.10140139236E+03  0.10725030473E+03  0.00000000000E+00 0. -1.
        -12    1    6    6    0    0  0.12741467328E+02  0.48909358385E+02  0.62985411732E+02  0.80756624609E+02  0.00000000000E+00 0.  1.
</event>
<event>
12    1  0.8798177E-003  0.1875537E+03  0.7818608E-02  0.1160946E+00
         21   -1    0    0  503  502  0.00000000000E+00  0.00000000000E+00  0.11243673407E+03  0.11243673407E+03  0.00000000000E+00 0. -1.
         21   -1    0    0  501  503 -0.00000000000E+00 -0.00000000000E+00 -0.39846630552E+03  0.39846630552E+03  0.00000000000E+00 0. -1.
          6    2    1    2  501    0 -0.92047602243E+00 -0.75239322221E+02 -0.26304947675E+03  0.32306562826E+03  0.17179805022E+03 0.  0.
         24    2    3    3    0    0 -0.35678815169E+02  0.17078376111E+02 -0.12831716163E+03  0.15601597605E+03  0.79442067137E+02 0.  0.
         -6    2    1    2    0  502  0.92047602243E+00  0.75239322221E+02 -0.22980094699E+02  0.18783741134E+03  0.17056671851E+03 0.  0.
        -24    2    5    5    0    0 -0.36826747654E+02  0.20342064341E+02  0.37641768033E+02  0.97639506379E+02  0.79665309771E+02 0.  0.
          5    1    3    3  501    0  0.34758339146E+02 -0.92317698332E+02 -0.13473231512E+03  0.16704965221E+03  0.47000000000E+01 0. -1.
        -11    1    4    4    0    0 -0.42292483382E+02 -0.15307064513E+02 -0.34918340389E+02  0.56940766329E+02  0.00000000000E+00 0.  1.
         12    1    4    4    0    0  0.66136682135E+01  0.32385440624E+02 -0.93398821239E+02  0.99075209717E+02  0.00000000000E+00 0. -1.
         -5    1    5    5    0  502  0.37747223676E+02  0.54897257880E+02 -0.60621862732E+02  0.90197904960E+02  0.47000000000E+01 0.  1.
         11    1    6    6    0    0  0.46372987431E+01  0.29966073153E+02  0.45178555080E+02  0.54411137821E+02  0.00000000000E+00 0. -1.
        -12    1    6    6    0    0 -0.41464046397E+02 -0.96240088123E+01 -0.75367870470E+01  0.43228368558E+02  0.00000000000E+00 0.  1.
</event>
<event>
12    1  0.8798177E-003  0.1895141E+03  0.7818608E-02  0.1159344E+00
         21   -1    0    0  503  502  0.00000000000E+00  0.00000000000E+00  0.11068414945E+03  0.11068414945E+03  0.00000000000E+00 0. -1.
         21   -1    0    0  501  503 -0.00000000000E+00 -0.00000000000E+00 -0.35756975563E+03  0.35756975563E+03  0.00000000000E+00 0. -1.
          6    2    1    2  501    0  0.64062976147E+02  0.43485320926E+02 -0.19872469896E+03  0.27460352322E+03  0.17297557903E+03 0.  0.
         24    2    3    3    0    0  0.85275212807E+02 -0.22153049843E+02 -0.11194334812E+03  0.16364656060E+03  0.80537345813E+02 0.  0.
         -6    2    1    2    0  502 -0.64062976147E+02 -0.43485320926E+02 -0.48160907217E+02  0.19365038186E+03  0.17083898666E+03 0.  0.
        -24    2    5    5    0    0 -0.20035537526E+02  0.56958145542E+02 -0.15720303868E+02  0.79187339560E+02  0.48763241128E+02 0.  0.
          5    1    3    3  501    0 -0.21212236660E+02  0.65638370769E+02 -0.86781350837E+02  0.11095696262E+03  0.47000000000E+01 0. -1.
        -13    1    4    4    0    0  0.48119614728E+01 -0.34388812484E+02 -0.52159377943E+02  0.62660562594E+02  0.00000000000E+00 0.  1.
         14    1    4    4    0    0  0.80463251334E+02  0.12235762640E+02 -0.59783970178E+02  0.10098599800E+03  0.00000000000E+00 0. -1.
         -5    1    5    5    0  502 -0.44027438621E+02 -0.10044346647E+03 -0.32440603349E+02  0.11446304230E+03  0.47000000000E+01 0.  1.
         13    1    6    6    0    0 -0.20865624752E+02  0.28091343104E+02  0.14053045572E+02  0.37709228891E+02  0.00000000000E+00 0. -1.
        -14    1    6    6    0    0  0.83008722577E+00  0.28866802438E+02 -0.29773349440E+02  0.41478110669E+02  0.00000000000E+00 0.  1.
</event>
<event>
12    1  0.8798177E-003  0.1901683E+03  0.7818608E-02  0.1158605E+00
         21   -1    0    0  503  502  0.00000000000E+00  0.00000000000E+00  0.52943452046E+02  0.52943452046E+02  0.00000000000E+00 0.  1.
         21   -1    0    0  501  503 -0.00000000000E+00 -0.00000000000E+00 -0.11620160069E+04  0.11620160069E+04  0.00000000000E+00 0.  1.
          6    2    1    2  501    0 -0.67346334381E+02 -0.27888481475E+02 -0.94532665705E+03  0.96400783635E+03  0.17422779305E+03 0.  0.
         24    2    3    3    0    0 -0.83330542106E+02  0.25543761947E+02 -0.79098101088E+03  0.79982754513E+03  0.80477819064E+02 0.  0.
         -6    2    1    2    0  502  0.67346334381E+02  0.27888481475E+02 -0.16374589777E+03  0.25095162255E+03  0.17564367815E+03 0.  0.
        -24    2    5    5    0    0  0.92537249644E+02 -0.28746175428E+02 -0.12911727121E+03  0.17979476518E+03  0.79154296709E+02 0.  0.
          5    1    3    3  501    0  0.15984207725E+02 -0.53432243421E+02 -0.15434564617E+03  0.16418029122E+03  0.47000000000E+01 0. -1.
        -13    1    4    4    0    0 -0.71920242478E+02  0.35419549190E+02 -0.76898502873E+03  0.77315266290E+03  0.00000000000E+00 0.  1.
         14    1    4    4    0    0 -0.11410299627E+02 -0.98757872438E+01 -0.21995982143E+02  0.26674882225E+02  0.00000000000E+00 0. -1.
         -5    1    5    5    0  502 -0.25190915263E+02  0.56634656903E+02 -0.34628626558E+02  0.71156857376E+02  0.47000000000E+01 0.  1.
         13    1    6    6    0    0  0.81394274871E+02 -0.40691453776E+02 -0.13467744213E+03  0.16253872096E+03  0.00000000000E+00 0. -1.
        -14    1    6    6    0    0  0.11142974773E+02  0.11945278348E+02  0.55601709163E+01  0.17256044223E+02  0.00000000000E+00 0.  1.
</event>
<event>
12    1  0.8798177E-003  0.2484161E+03  0.7818608E-02  0.1114495E+00
         21   -1    0    0  501  502  0.00000000000E+00  0.00000000000E+00  0.96795480588E+02  0.96795480588E+02  0.00000000000E+00 0.  1.
         21   -1    0    0  502  503 -0.00000000000E+00 -0.00000000000E+00 -0.99829712986E+03  0.99829712986E+03  0.00000000000E+00 0.  1.
          6    2    1    2  501    0 -0.19178237243E+02 -0.17622164974E+03 -0.12091267101E+03  0.27627963503E+03  0.17403645625E+03 0.  0.
         24    2    3    3    0    0 -0.50586667818E+02 -0.19321010002E+03 -0.10593962408E+03  0.23727477522E+03  0.72020561615E+02 0.  0.
         -6    2    1    2    0  503  0.19178237243E+02  0.17622164974E+03 -0.78058897826E+03  0.81881297541E+03  0.17237650972E+03 0.  0.
        -24    2    5    5    0    0  0.49935508167E+02  0.32303694782E+02 -0.30072658972E+03  0.31686836750E+03  0.80199731222E+02 0.  0.
          5    1    3    3  501    0  0.31408430576E+02  0.16988450287E+02 -0.14973046924E+02  0.39004859807E+02  0.47000000000E+01 0. -1.
        -11    1    4    4    0    0 -0.33644776934E+02 -0.67861929750E+02 -0.58379191129E+01  0.75969032006E+02  0.00000000000E+00 0.  1.
         12    1    4    4    0    0 -0.16941890885E+02 -0.12534817027E+03 -0.10010170497E+03  0.16130574322E+03  0.00000000000E+00 0. -1.
         -5    1    5    5    0  503 -0.30757270924E+02  0.14391795495E+03 -0.47986238854E+03  0.50194460791E+03  0.47000000000E+01 0.  1.
         13    1    6    6    0    0  0.32880004826E+02  0.49673535077E+02 -0.27528496238E+03  0.28165646685E+03  0.00000000000E+00 0. -1.
        -14    1    6    6    0    0  0.17055503341E+02 -0.17369840296E+02 -0.25441627336E+02  0.35211900653E+02  0.00000000000E+00 0.  1.
</event>
<event>
12    1  0.8798177E-003  0.1872256E+03  0.7818608E-02  0.1161058E+00
         21   -1    0    0  501  502  0.00000000000E+00  0.00000000000E+00  0.96389274951E+02  0.96389274951E+02  0.00000000000E+00 0.  1.
         21   -1    0    0  502  503 -0.00000000000E+00 -0.00000000000E+00 -0.36625898968E+03  0.36625898968E+03  0.00000000000E+00 0.  1.
          6    2    1    2  501    0  0.21046221517E+02  0.70646070189E+02 -0.15660895653E+03  0.24408968221E+03  0.17210344861E+03 0.  0.
         24    2    3    3    0    0  0.41114878012E+02  0.98881528329E+02 -0.69096350127E+02  0.14985307389E+03  0.78826697977E+02 0.  0.
         -6    2    1    2    0  503 -0.21046221517E+02 -0.70646070189E+02 -0.11326075821E+03  0.21855858242E+03  0.17177323403E+03 0.  0.
        -24    2    5    5    0    0  0.14385930910E+02 -0.77601752688E+02 -0.13556208146E+03  0.17585895756E+03  0.79500364754E+02 0.  0.
          5    1    3    3  501    0 -0.20068656494E+02 -0.28235458140E+02 -0.87512606400E+02  0.94236608326E+02  0.47000000000E+01 0. -1.
        -11    1    4    4    0    0  0.28123435840E+02  0.69783113608E+02 -0.16473465309E+01  0.75255061882E+02  0.00000000000E+00 0.  1.
         12    1    4    4    0    0  0.12991442172E+02  0.29098414721E+02 -0.67449003596E+02  0.74598012005E+02  0.00000000000E+00 0. -1.
         -5    1    5    5    0  503 -0.35432152427E+02  0.69556824994E+01  0.22301323252E+02  0.42699624863E+02  0.47000000000E+01 0.  1.
         13    1    6    6    0    0 -0.19694853027E+02 -0.10664362748E+02 -0.18244223919E+01  0.22470967617E+02  0.00000000000E+00 0. -1.
        -14    1    6    6    0    0  0.34080783937E+02 -0.66937389940E+02 -0.13373765907E+03  0.15338798994E+03  0.00000000000E+00 0.  1.
</event>
<event>
12    1  0.8798177E-003  0.3313280E+03  0.7818608E-02  0.1070558E+00
         21   -1    0    0  501  502  0.00000000000E+00  0.00000000000E+00  0.25636843941E+03  0.25636843941E+03  0.00000000000E+00 0. -1.
         21   -1    0    0  502  503 -0.00000000000E+00 -0.00000000000E+00 -0.44901552028E+03  0.44901552028E+03  0.00000000000E+00 0. -1.
          6    2    1    2  501    0 -0.80303769730E+01 -0.28288229936E+03 -0.20229300001E+02  0.33187874598E+03  0.17218418978E+03 0.  0.
         24    2    3    3    0    0 -0.46523324757E+02 -0.81340061244E+02 -0.65094535239E+00  0.12570798485E+03  0.83794083417E+02 0.  0.
         -6    2    1    2    0  503  0.80303769730E+01  0.28288229936E+03 -0.17241778086E+03  0.37350521371E+03  0.17231184309E+03 0.  0.
        -24    2    5    5    0    0 -0.17570965638E+02  0.23154235671E+03 -0.19337404587E+03  0.31224777745E+03  0.78641917088E+02 0.  0.
          5    1    3    3  501    0  0.38492947784E+02 -0.20154223811E+03 -0.19578354648E+02  0.20617076113E+03  0.47000000000E+01 0. -1.
        -13    1    4    4    0    0 -0.21163633203E+02 -0.60886709668E+02 -0.39037605136E+02  0.75359308645E+02  0.00000000000E+00 0.  1.
         14    1    4    4    0    0 -0.25359691553E+02 -0.20453351576E+02  0.38386659784E+02  0.50348676206E+02  0.00000000000E+00 0. -1.
         -5    1    5    5    0  503  0.25601342611E+02  0.51339942651E+02  0.20956265004E+02  0.61257436266E+02  0.47000000000E+01 0.  1.
         13    1    6    6    0    0  0.17179965104E+02  0.18002357670E+03 -0.12491211281E+03  0.21978779606E+03  0.00000000000E+00 0. -1.
        -14    1    6    6    0    0 -0.34750930742E+02  0.51518780002E+02 -0.68461933054E+02  0.92459981386E+02  0.00000000000E+00 0.  1.
</event>
<event>
12    1  0.8798177E-003  0.3543637E+03  0.7818608E-02  0.1060909E+00
         21   -1    0    0  503  502  0.00000000000E+00  0.00000000000E+00  0.34400345483E+03  0.34400345483E+03  0.00000000000E+00 0.  1.
         21   -1    0    0  501  503 -0.00000000000E+00 -0.00000000000E+00 -0.38851566485E+03  0.38851566485E+03  0.00000000000E+00 0.  1.
          6    2    1    2  501    0 -0.26641572896E+03  0.14977640377E+03 -0.11369594383E+03  0.37215637635E+03  0.17934126422E+03 0.  0.
         24    2    3    3    0    0 -0.15748512734E+03  0.17913256808E+02 -0.23152529868E+02  0.17857444200E+03  0.78932512902E+02 0.  0.
         -6    2    1    2    0  502  0.26641572896E+03 -0.14977640377E+03  0.69183733808E+02  0.36036274332E+03  0.17794551411E+03 0.  0.
        -24    2    5    5    0    0  0.64877816283E+02 -0.45062461191E+01 -0.31828113360E+01  0.10155788285E+03  0.77938668074E+02 0.  0.
          5    1    3    3  501    0 -0.10893060162E+03  0.13186314696E+03 -0.90543413963E+02  0.19358193435E+03  0.47000000000E+01 0. -1.
        -11    1    4    4    0    0 -0.13468545287E+03  0.36419147462E+02 -0.39446961900E+02  0.14499168363E+03  0.00000000000E+00 0.  1.
         12    1    4    4    0    0 -0.22799674468E+02 -0.18505890654E+02  0.16294432032E+02  0.33582758373E+02  0.00000000000E+00 0. -1.
         -5    1    5    5    0  502  0.20153791268E+03 -0.14527015765E+03  0.72366545144E+02  0.25880486048E+03  0.47000000000E+01 0.  1.
         11    1    6    6    0    0  0.77009351318E+02 -0.22117346824E+02 -0.26168502938E+01  0.80165236396E+02  0.00000000000E+00 0. -1.
        -12    1    6    6    0    0 -0.12131535036E+02  0.17611100705E+02 -0.56596104221E+00  0.21392646453E+02  0.00000000000E+00 0.  1.
</event>
<event>
12    1  0.8798177E-003  0.1785403E+03  0.7818608E-02  0.1170819E+00
         21   -1    0    0  501  502  0.00000000000E+00  0.00000000000E+00  0.31287251842E+03  0.31287251842E+03  0.00000000000E+00 0.  1.
         21   -1    0    0  502  503 -0.00000000000E+00 -0.00000000000E+00 -0.10429808668E+03  0.10429808668E+03  0.00000000000E+00 0.  1.
          6    2    1    2  501    0  0.31834773482E+02  0.44531427382E+02  0.15265679871E+03  0.23007854819E+03  0.16320398070E+03 0.  0.
         24    2    3    3    0    0 -0.25944556506E+02  0.66356039163E+02  0.80470567776E+02  0.13495911490E+03  0.81622340508E+02 0.  0.
         -6    2    1    2    0  503 -0.31834773482E+02 -0.44531427382E+02  0.55917633027E+02  0.18709205691E+03  0.16994162306E+03 0.  0.
        -24    2    5    5    0    0 -0.93193818863E+01 -0.47772064270E+02 -0.26944527958E+02  0.10103584093E+03  0.84339863423E+02 0.  0.
          5    1    3    3  501    0  0.57779329988E+02 -0.21824611781E+02  0.72186230934E+02  0.95119433292E+02  0.47000000000E+01 0. -1.
        -11    1    4    4    0    0 -0.40651533901E+02  0.32061861721E+02  0.82709284056E+02  0.97577332688E+02  0.00000000000E+00 0.  1.
         12    1    4    4    0    0  0.14706977395E+02  0.34294177442E+02 -0.22387162802E+01  0.37381782209E+02  0.00000000000E+00 0. -1.
         -5    1    5    5    0  503 -0.22515391596E+02  0.32406368873E+01  0.82862160985E+02  0.86056215982E+02  0.47000000000E+01 0.  1.
         13    1    6    6    0    0  0.13994385902E+02  0.10299053662E+02  0.17205198228E+02  0.24452651987E+02  0.00000000000E+00 0. -1.
        -14    1    6    6    0    0 -0.23313767789E+02 -0.58071117932E+02 -0.44149726186E+02  0.76583188943E+02  0.00000000000E+00 0.  1.
</event>
<event>
12    1  0.8798177E-003  0.1812455E+03  0.7818608E-02  0.1166827E+00
         21   -1    0    0  501  502  0.00000000000E+00  0.00000000000E+00  0.73898253705E+03  0.73898253705E+03  0.00000000000E+00 0.  1.
         21   -1    0    0  502  503 -0.00000000000E+00 -0.00000000000E+00 -0.45722673286E+02  0.45722673286E+02  0.00000000000E+00 0.  1.
          6    2    1    2  501    0 -0.47543807149E+02  0.26319860965E+02  0.41677738999E+03  0.45411107155E+03  0.17193116014E+03 0.  0.
         24    2    3    3    0    0 -0.95919328761E+02  0.36412563690E+02  0.32437374544E+03  0.34921790083E+03  0.78793547353E+02 0.  0.
         -6    2    1    2    0  503  0.47543807149E+02 -0.26319860965E+02  0.27648247377E+03  0.33059413878E+03  0.17290684663E+03 0.  0.
        -24    2    5    5    0    0 -0.23814410661E+02  0.10610265185E+02  0.20965017713E+03  0.22597829227E+03  0.80207779687E+02 0.  0.
          5    1    3    3  501    0  0.48375521612E+02 -0.10092702725E+02  0.92403644541E+02  0.10489317072E+03  0.47000000000E+01 0. -1.
        -11    1    4    4    0    0 -0.48923789993E+02  0.57137285931E+02  0.22684103285E+03  0.23898757469E+03  0.00000000000E+00 0.  1.
         12    1    4    4    0    0 -0.46995538768E+02 -0.20724722241E+02  0.97532712594E+02  0.11023032614E+03  0.00000000000E+00 0. -1.
         -5    1    5    5    0  503  0.71358217810E+02 -0.36930126150E+02  0.66832296642E+02  0.10461584651E+03  0.47000000000E+01 0.  1.
         11    1    6    6    0    0 -0.44811938403E+02 -0.18144730368E+02  0.10989910340E+03  0.12006312503E+03  0.00000000000E+00 0. -1.
        -12    1    6    6    0    0  0.20997527742E+02  0.28754995554E+02  0.99751073729E+02  0.10591516724E+03  0.00000000000E+00 0.  1.
</event>
<event>
12    1  0.8798177E-003  0.1716612E+03  0.7818608E-02  0.1176304E+00
         21   -1    0    0  501  502  0.00000000000E+00  0.00000000000E+00  0.45591773286E+02  0.45591773286E+02  0.00000000000E+00 0.  1.
         21   -1    0    0  502  503 -0.00000000000E+00 -0.00000000000E+00 -0.69843364054E+03  0.69843364054E+03  0.00000000000E+00 0.  1.
          6    2    1    2  501    0  0.81992118109E+01  0.11049319500E+02 -0.22172442015E+03  0.27998896243E+03  0.17041944154E+03 0.  0.
         24    2    3    3    0    0  0.74074783772E+00 -0.30749565703E+02 -0.22184725408E+03  0.23727034146E+03  0.78325770331E+02 0.  0.
         -6    2    1    2    0  503 -0.81992118109E+01 -0.11049319500E+02 -0.43111744710E+03  0.46403645140E+03  0.17110891413E+03 0.  0.
        -24    2    5    5    0    0 -0.50455838120E+02 -0.56608732652E+02 -0.24610185221E+03  0.26880801354E+03  0.77079739697E+02 0.  0.
          5    1    3    3  501    0  0.74584639731E+01  0.41798885204E+02  0.12283392215E+00  0.42718620966E+02  0.47000000000E+01 0. -1.
        -11    1    4    4    0    0  0.60470788691E+01  0.20433199826E+02 -0.20931741701E+02  0.29870062414E+02  0.00000000000E+00 0.  1.
         12    1    4    4    0    0 -0.53063310314E+01 -0.51182765529E+02 -0.20091551237E+03  0.20740027905E+03  0.00000000000E+00 0. -1.
         -5    1    5    5    0  503  0.42256626310E+02  0.45559413152E+02 -0.18501559489E+03  0.19522843785E+03  0.47000000000E+01 0.  1.
         13    1    6    6    0    0 -0.12024877270E+02 -0.14774964597E+02 -0.31564750024E+01  0.19309598303E+02  0.00000000000E+00 0. -1.
        -14    1    6    6    0    0 -0.38430960851E+02 -0.41833768055E+02 -0.24294537721E+03  0.24949841524E+03  0.00000000000E+00 0.  1.
</event>
<event>
12    1  0.8798177E-003  0.2155270E+03  0.7818608E-02  0.1137432E+00
         21   -1    0    0  503  502  0.00000000000E+00  0.00000000000E+00  0.30845048437E+03  0.30845048437E+03  0.00000000000E+00 0. -1.
         21   -1    0    0  501  503 -0.00000000000E+00 -0.00000000000E+00 -0.24100800492E+03  0.24100800492E+03  0.00000000000E+00 0. -1.
          6    2    1    2  501    0 -0.85820490134E+02 -0.94344046113E+02 -0.13507453178E+03  0.25435609896E+03  0.17374101525E+03 0.  0.
         24    2    3    3    0    0 -0.49022317639E+02  0.13144848139E+02 -0.28844864675E+02  0.98745045176E+02  0.79640335694E+02 0.  0.
         -6    2    1    2    0  502  0.85820490134E+02  0.94344046113E+02  0.20251701123E+03  0.29510239033E+03  0.17264508500E+03 0.  0.
        -24    2    5    5    0    0  0.76937559977E+02 -0.90797793354E+01  0.10334723101E+03  0.15146350482E+03  0.79112025689E+02 0.  0.
          5    1    3    3  501    0 -0.36798172495E+02 -0.10748889425E+03 -0.10622966711E+03  0.15561105379E+03  0.47000000000E+01 0. -1.
        -13    1    4    4    0    0 -0.63889945964E+02 -0.12209161276E+02 -0.19994080961E+02  0.68049629594E+02  0.00000000000E+00 0.  1.
         14    1    4    4    0    0  0.14867628325E+02  0.25354009415E+02 -0.88507837140E+01  0.30695415583E+02  0.00000000000E+00 0. -1.
         -5    1    5    5    0  502  0.88829301575E+01  0.10342382545E+03  0.99169780226E+02  0.14363888550E+03  0.47000000000E+01 0.  1.
         13    1    6    6    0    0  0.24055932344E+02 -0.18484978816E+02  0.91585284704E+02  0.96479255268E+02  0.00000000000E+00 0. -1.
        -14    1    6    6    0    0  0.52881627633E+02  0.94051994808E+01  0.11761946304E+02  0.54984249556E+02  0.00000000000E+00 0.  1.
</event>
<event>
12    1  0.8798177E-003  0.2576049E+03  0.7818608E-02  0.1108785E+00
         21   -1    0    0  501  502  0.00000000000E+00  0.00000000000E+00  0.17513482600E+03  0.17513482600E+03  0.00000000000E+00 0. -1.
         21   -1    0    0  502  503 -0.00000000000E+00 -0.00000000000E+00 -0.37718311825E+03  0.37718311825E+03  0.00000000000E+00 0.  1.
          6    2    1    2  501    0 -0.50794832655E+02  0.18353365620E+03 -0.10614248758E+03  0.27743941669E+03  0.17158579278E+03 0.  0.
         24    2    3    3    0    0 -0.45161183863E+02  0.17985105006E+03 -0.13798703453E+03  0.24455378522E+03  0.79876150591E+02 0.  0.
         -6    2    1    2    0  503  0.50794832655E+02 -0.18353365620E+03 -0.95905804666E+02  0.27487852756E+03  0.17348072965E+03 0.  0.
        -24    2    5    5    0    0  0.87412076737E+02 -0.18210005945E+03 -0.98159586534E+02  0.23786437761E+03  0.78376366933E+02 0.  0.
          5    1    3    3  501    0 -0.56336487921E+01  0.36826061356E+01  0.31844546949E+02  0.32885631468E+02  0.47000000000E+01 0. -1.
        -11    1    4    4    0    0 -0.25088331545E+02  0.30419086186E+02  0.10700587295E+01  0.39444774175E+02  0.00000000000E+00 0.  1.
         12    1    4    4    0    0 -0.20072852319E+02  0.14943196388E+03 -0.13905709326E+03  0.20510901105E+03  0.00000000000E+00 0. -1.
         -5    1    5    5    0  503 -0.36617244081E+02 -0.14335967474E+01  0.22537818679E+01  0.37014149949E+02  0.47000000000E+01 0.  1.
         13    1    6    6    0    0  0.88962870362E+02 -0.18798922936E+03 -0.87595852009E+02  0.22567094617E+03  0.00000000000E+00 0. -1.
        -14    1    6    6    0    0 -0.15507936255E+01  0.58891699039E+01 -0.10563734526E+02  0.12193431435E+02  0.00000000000E+00 0.  1.
</event>
<event>
12    1  0.8798177E-003  0.2471390E+03  0.7818608E-02  0.1115247E+00
         21   -1    0    0  503  502  0.00000000000E+00  0.00000000000E+00  0.93791135435E+03  0.93791135435E+03  0.00000000000E+00 0. -1.
         21   -1    0    0  501  503 -0.00000000000E+00 -0.00000000000E+00 -0.79458123016E+02  0.79458123016E+02  0.00000000000E+00 0. -1.
          6    2    1    2  501    0 -0.17507627194E+03 -0.22714401252E+02  0.21219562314E+03  0.32573710110E+03  0.17294516916E+03 0.  0.
         24    2    3    3    0    0 -0.16194241733E+03  0.36842359976E+02  0.13455651955E+03  0.22689669261E+03  0.76117975176E+02 0.  0.
         -6    2    1    2    0  502  0.17507627194E+03  0.22714401252E+02  0.64625760819E+03  0.69163237626E+03  0.17186856235E+03 0.  0.
        -24    2    5    5    0    0  0.18418505044E+03 -0.52336845278E+01  0.62044684506E+03  0.65223249253E+03  0.80631336989E+02 0.  0.
          5    1    3    3  501    0 -0.13133854606E+02 -0.59556761228E+02  0.77639103591E+02  0.98840408493E+02  0.47000000000E+01 0. -1.
        -11    1    4    4    0    0 -0.73149606931E+02 -0.83111856287E+01  0.93864616485E+02  0.11929168885E+03  0.00000000000E+00 0.  1.
         12    1    4    4    0    0 -0.88792810401E+02  0.45153545604E+02  0.40691903064E+02  0.10760500376E+03  0.00000000000E+00 0. -1.
         -5    1    5    5    0  502 -0.91087785024E+01  0.27948085780E+02  0.25810763127E+02  0.39399883728E+02  0.47000000000E+01 0.  1.
         13    1    6    6    0    0  0.55963640413E+02 -0.37486821798E+02  0.24926954727E+03  0.25821018193E+03  0.00000000000E+00 0. -1.
        -14    1    6    6    0    0  0.12822141003E+03  0.32253137270E+02  0.37117729780E+03  0.39402231060E+03  0.00000000000E+00 0.  1.
</event>
<event>
12    1  0.8798177E-003  0.2031616E+03  0.7818608E-02  0.1147512E+00
         21   -1    0    0  503  502  0.00000000000E+00  0.00000000000E+00  0.84750509936E+02  0.84750509936E+02  0.00000000000E+00 0. -1.
         21   -1    0    0  501  503 -0.00000000000E+00 -0.00000000000E+00 -0.48863083026E+03  0.48863083026E+03  0.00000000000E+00 0.  1.
          6    2    1    2  501    0  0.91980052799E+01  0.10420111851E+03 -0.16820868140E+03  0.26222906148E+03  0.17183551376E+03 0.  0.
         24    2    3    3    0    0 -0.25333960117E+02  0.56921112498E+02 -0.20185810676E+02  0.10297857998E+03  0.79468851749E+02 0.  0.
         -6    2    1    2    0  502 -0.91980052799E+01 -0.10420111851E+03 -0.23567163892E+03  0.31115227871E+03  0.17416125503E+03 0.  0.
        -24    2    5    5    0    0 -0.33861384215E+02 -0.79745010140E+02 -0.24804638022E+03  0.27398229459E+03  0.77675163487E+02 0.  0.
          5    1    3    3  501    0  0.34531965397E+02  0.47280006015E+02 -0.14802287072E+03  0.15925048151E+03  0.47000000000E+01 0. -1.
        -13    1    4    4    0    0 -0.35138218706E+02 -0.29524831894E+01 -0.23238559948E+02  0.42230820964E+02  0.00000000000E+00 0.  1.
         14    1    4    4    0    0  0.98042585894E+01  0.59873595688E+02  0.30527492727E+01  0.60747759014E+02  0.00000000000E+00 0. -1.
         -5    1    5    5    0  502  0.24663378935E+02 -0.24456108374E+02  0.12374741301E+02  0.37169984121E+02  0.47000000000E+01 0.  1.
         13    1    6    6    0    0  0.13697719398E+02 -0.49483705405E+02 -0.67299987761E+02  0.84649589308E+02  0.00000000000E+00 0. -1.
        -14    1    6    6    0    0 -0.47559103612E+02 -0.30261304735E+02 -0.18074639246E+03  0.18933270528E+03  0.00000000000E+00 0.  1.
</event>
<event>
12    1  0.8798177E-003  0.2123338E+03  0.7818608E-02  0.1139991E+00
         21   -1    0    0  501  502  0.00000000000E+00  0.00000000000E+00  0.13259369580E+03  0.13259369580E+03  0.00000000000E+00 0.  1.
         21   -1    0    0  502  503 -0.00000000000E+00 -0.00000000000E+00 -0.56469790436E+03  0.56469790436E+03  0.00000000000E+00 0.  1.
          6    2    1    2  501    0  0.11587100460E+03  0.41071390306E+02  0.53016537347E+01  0.21107198844E+03  0.17149439630E+03 0.  0.
         24    2    3    3    0    0  0.70474675727E+02  0.31813974750E+02  0.70404891075E+02  0.13102795099E+03  0.78947237735E+02 0.  0.
         -6    2    1    2    0  503 -0.11587100460E+03 -0.41071390306E+02 -0.43740586229E+03  0.48621961172E+03  0.17312617840E+03 0.  0.
        -24    2    5    5    0    0 -0.15199356401E+03 -0.37147531094E+02 -0.36365236189E+03  0.40386729062E+03  0.79898470306E+02 0.  0.
          5    1    3    3  501    0  0.45396328874E+02  0.92574155559E+01 -0.65103237341E+02  0.80044037444E+02  0.47000000000E+01 0. -1.
        -11    1    4    4    0    0 -0.12329410810E+00  0.41993070974E+00 -0.15489995251E+02  0.15496176823E+02  0.00000000000E+00 0.  1.
         12    1    4    4    0    0  0.70597969836E+02  0.31394044040E+02  0.85894886327E+02  0.11553177417E+03  0.00000000000E+00 0. -1.
         -5    1    5    5    0  503  0.36122559410E+02 -0.39238592118E+01 -0.73753500405E+02  0.82352321106E+02  0.47000000000E+01 0.  1.
         13    1    6    6    0    0  0.71187053469E+01 -0.10777016677E+02 -0.15529676485E+02  0.20198784766E+02  0.00000000000E+00 0. -1.
        -14    1    6    6    0    0 -0.15911226936E+03 -0.26370514417E+02 -0.34812268540E+03  0.38366850585E+03  0.00000000000E+00 0.  1.
</event>
<event>
12    1  0.8798177E-003  0.2553984E+03  0.7818608E-02  0.1109956E+00
         21   -1    0    0  501  502  0.00000000000E+00  0.00000000000E+00  0.18702609211E+03  0.18702609211E+03  0.00000000000E+00 0. -1.
         21   -1    0    0  502  503 -0.00000000000E+00 -0.00000000000E+00 -0.36923932824E+03  0.36923932824E+03  0.00000000000E+00 0. -1.
          6    2    1    2  501    0  0.99911648223E+02  0.16045763908E+03 -0.25371923763E+02  0.25655299376E+03  0.17160044493E+03 0.  0.
         24    2    3    3    0    0  0.84986894567E+02  0.80849207129E+02 -0.75514842036E+02  0.16117661847E+03  0.80722019504E+02 0.  0.
         -6    2    1    2    0  503 -0.99911648223E+02 -0.16045763908E+03 -0.15684131237E+03  0.29971242659E+03  0.17175374813E+03 0.  0.
        -24    2    5    5    0    0 -0.79682439420E+02 -0.18898206535E+03 -0.13975535769E+03  0.26050931919E+03  0.79183541252E+02 0.  0.
          5    1    3    3  501    0  0.14924753656E+02  0.79608431951E+02  0.50142918273E+02  0.95376375285E+02  0.47000000000E+01 0. -1.
        -11    1    4    4    0    0 -0.95927864668E+00  0.14268922620E+02 -0.46505193360E+02  0.48654448694E+02  0.00000000000E+00 0.  1.
         12    1    4    4    0    0  0.85946173213E+02  0.66580284508E+02 -0.29009648676E+02  0.11252216978E+03  0.00000000000E+00 0. -1.
         -5    1    5    5    0  503 -0.20229208803E+02  0.28524426270E+02 -0.17085954678E+02  0.39203107403E+02  0.47000000000E+01 0.  1.
         13    1    6    6    0    0 -0.22411577767E+02 -0.48366525023E+01 -0.32712401026E+02  0.39947130138E+02  0.00000000000E+00 0. -1.
        -14    1    6    6    0    0 -0.57270861653E+02 -0.18414541285E+03 -0.10704295667E+03  0.22056218905E+03  0.00000000000E+00 0.  1.
</event>
<event>
12    1  0.8798177E-003  0.2373779E+03  0.7818608E-02  0.1121626E+00
         21   -1    0    0  503  502  0.00000000000E+00  0.00000000000E+00  0.12300690780E+03  0.12300690780E+03  0.00000000000E+00 0.  1.
         21   -1    0    0  501  503 -0.00000000000E+00 -0.00000000000E+00 -0.57741595845E+03  0.57741595845E+03  0.00000000000E+00 0. -1.
          6    2    1    2  501    0 -0.12034014970E+02  0.16221762593E+03 -0.38713190717E+03  0.45411384246E+03  0.17288404405E+03 0.  0.
         24    2    3    3    0    0 -0.22766305402E+01  0.10059794699E+03 -0.10129004124E+03  0.16150513839E+03  0.75492431971E+02 0.  0.
         -6    2    1    2    0  502  0.12034014970E+02 -0.16221762593E+03 -0.67277143478E+02  0.24630902379E+03  0.17228623128E+03 0.  0.
        -24    2    5    5    0    0  0.47237360723E+02 -0.73062342770E+02 -0.88887802983E+02  0.14793702233E+03  0.80092739228E+02 0.  0.
          5    1    3    3  501    0 -0.97573844298E+01  0.61619678937E+02 -0.28584186593E+03  0.29260870407E+03  0.47000000000E+01 0. -1.
        -13    1    4    4    0    0 -0.37569187380E+02  0.41376055314E+02 -0.35494227429E+02  0.66206207975E+02  0.00000000000E+00 0.  1.
         14    1    4    4    0    0  0.35292556840E+02  0.59221891677E+02 -0.65795813813E+02  0.95298930411E+02  0.00000000000E+00 0. -1.
         -5    1    5    5    0  502 -0.35203345753E+02 -0.89155283158E+02  0.21610659505E+02  0.98372001461E+02  0.47000000000E+01 0.  1.
         13    1    6    6    0    0  0.13349643547E+02 -0.10043668273E+02 -0.72675689517E+02  0.74571067459E+02  0.00000000000E+00 0. -1.
        -14    1    6    6    0    0  0.33887717176E+02 -0.63018674498E+02 -0.16212113466E+02  0.73365954870E+02  0.00000000000E+00 0.  1.
</event>
<event>
12    1  0.8798177E-003  0.1838218E+03  0.7818608E-02  0.1164278E+00
         21   -1    0    0  501  502  0.00000000000E+00  0.00000000000E+00  0.67065356108E+03  0.67065356108E+03  0.00000000000E+00 0.  1.
         21   -1    0    0  502  503 -0.00000000000E+00 -0.00000000000E+00 -0.10948770339E+03  0.10948770339E+03  0.00000000000E+00 0.  1.
          6    2    1    2  501    0 -0.28750824607E+02  0.59129153525E+02  0.56770726760E+03  0.59672606535E+03  0.17166126141E+03 0.  0.
         24    2    3    3    0    0  0.26798814455E+02  0.32661781579E+02  0.48540273345E+03  0.49385522147E+03  0.80574175179E+02 0.  0.
         -6    2    1    2    0  503  0.28750824607E+02 -0.59129153525E+02 -0.65414099094E+01  0.18341519912E+03  0.17110078466E+03 0.  0.
        -24    2    5    5    0    0  0.39396421281E+02  0.29314058909E+02 -0.10650840714E+02  0.94115098472E+02  0.79579012893E+02 0.  0.
          5    1    3    3  501    0 -0.55549639063E+02  0.26467371947E+02  0.82304534156E+02  0.10287084388E+03  0.47000000000E+01 0. -1.
        -13    1    4    4    0    0 -0.43006261732E+01 -0.76363337467E+01  0.33418405616E+03  0.33429895658E+03  0.00000000000E+00 0.  1.
         14    1    4    4    0    0  0.31099440629E+02  0.40298115325E+02  0.15121867729E+03  0.15955626489E+03  0.00000000000E+00 0. -1.
         -5    1    5    5    0  503 -0.10645596674E+02 -0.88443212434E+02  0.41094308043E+01  0.89300100648E+02  0.47000000000E+01 0.  1.
         11    1    6    6    0    0 -0.22982039489E+01 -0.24906436253E+02 -0.92876956901E+00  0.25029481040E+02  0.00000000000E+00 0. -1.
        -12    1    6    6    0    0  0.41694625230E+02  0.54220495162E+02 -0.97220711447E+01  0.69085617432E+02  0.00000000000E+00 0.  1.
</event>
<event>
12    1  0.8798177E-003  0.2156783E+03  0.7818608E-02  0.1137198E+00
         21   -1    0    0  503  502  0.00000000000E+00  0.00000000000E+00  0.12338713145E+03  0.12338713145E+03  0.00000000000E+00 0. -1.
         21   -1    0    0  501  503 -0.00000000000E+00 -0.00000000000E+00 -0.40012412143E+03  0.40012412143E+03  0.00000000000E+00 0.  1.
          6    2    1    2  501    0 -0.96295796231E+02  0.87518368676E+02 -0.20201390457E+03  0.29551098786E+03  0.17200227056E+03 0.  0.
         24    2    3    3    0    0 -0.91932357497E-01  0.43785268530E+02 -0.15426549319E+03  0.17945165708E+03  0.80547480690E+02 0.  0.
         -6    2    1    2    0  502  0.96295796231E+02 -0.87518368676E+02 -0.74723085414E+02  0.22800026502E+03  0.17166314726E+03 0.  0.
        -24    2    5    5    0    0  0.70694585345E+02  0.18010465286E+02 -0.49634474969E+02  0.11645079092E+03  0.75994107302E+02 0.  0.
          5    1    3    3  501    0 -0.96203863873E+02  0.43733100145E+02 -0.47748411376E+02  0.11605933078E+03  0.47000000000E+01 0. -1.
        -11    1    4    4    0    0 -0.14152953593E+02  0.64833846764E+02 -0.11080161328E+03  0.12915390543E+03  0.00000000000E+00 0.  1.
         12    1    4    4    0    0  0.14061021236E+02 -0.21048578234E+02 -0.43463879915E+02  0.50297751651E+02  0.00000000000E+00 0. -1.
         -5    1    5    5    0  502  0.25601210886E+02 -0.10552883396E+03 -0.25088610445E+02  0.11154947409E+03  0.47000000000E+01 0.  1.
         11    1    6    6    0    0  0.36623540452E+02 -0.28236539271E+02 -0.11995227757E+02  0.47775216946E+02  0.00000000000E+00 0. -1.
        -12    1    6    6    0    0  0.34071044893E+02  0.46247004557E+02 -0.37639247212E+02  0.68675573979E+02  0.00000000000E+00 0.  1.
</event>
<event>
12    1  0.8798177E-003  0.2409637E+03  0.7818608E-02  0.1119353E+00
         21   -1    0    0  501  502  0.00000000000E+00  0.00000000000E+00  0.46715677687E+03  0.46715677687E+03  0.00000000000E+00 0.  1.
         21   -1    0    0  502  503 -0.00000000000E+00 -0.00000000000E+00 -0.12567245113E+03  0.12567245113E+03  0.00000000000E+00 0.  1.
          6    2    1    2  501    0 -0.88488084193E+02  0.14354476953E+03  0.20857122825E+03  0.31869334252E+03  0.17212857813E+03 0.  0.
         24    2    3    3    0    0 -0.68391791245E+02  0.17462655169E+03  0.17259238205E+03  0.26686183139E+03  0.79090056558E+02 0.  0.
         -6    2    1    2    0  503  0.88488084193E+02 -0.14354476953E+03  0.13291309749E+03  0.27413588548E+03  0.17043869960E+03 0.  0.
        -24    2    5    5    0    0  0.43024481296E+02 -0.64155275516E+01  0.78571953090E+02  0.11971303041E+03  0.79154234580E+02 0.  0.
          5    1    3    3  501    0 -0.20096292948E+02 -0.31081782155E+02  0.35978846203E+02  0.51831511133E+02  0.47000000000E+01 0. -1.
        -13    1    4    4    0    0 -0.71654107660E+01  0.36529229084E+02  0.83655586651E+02  0.91564102502E+02  0.00000000000E+00 0.  1.
         14    1    4    4    0    0 -0.61226380479E+02  0.13809732261E+03  0.88936795394E+02  0.17529772889E+03  0.00000000000E+00 0. -1.
         -5    1    5    5    0  503  0.45463602897E+02 -0.13712924198E+03  0.54341144396E+02  0.15442285507E+03  0.47000000000E+01 0.  1.
         13    1    6    6    0    0  0.59119779946E+02 -0.88454194793E+01  0.83512465891E+02  0.10270210215E+03  0.00000000000E+00 0. -1.
        -14    1    6    6    0    0 -0.16095298650E+02  0.24298919277E+01 -0.49405128016E+01  0.17010928256E+02  0.00000000000E+00 0.  1.
</event>
<event>
12    1  0.8798177E-003  0.2260304E+03  0.7818608E-02  0.1129546E+00
         21   -1    0    0  503  502  0.00000000000E+00  0.00000000000E+00  0.61424588444E+03  0.61424588444E+03  0.00000000000E+00 0.  1.
         21   -1    0    0  501  503 -0.00000000000E+00 -0.00000000000E+00 -0.96834999604E+02  0.96834999604E+02  0.00000000000E+00 0.  1.
          6    2    1    2  501    0  0.89539687468E+02  0.11511888493E+03  0.12458451071E+03  0.25809117947E+03  0.17268480915E+03 0.  0.
         24    2    3    3    0    0  0.11419144735E+03  0.13099381990E+03  0.86208194825E+02  0.20956742810E+03  0.79294303495E+02 0.  0.
         -6    2    1    2    0  502 -0.89539687468E+02 -0.11511888493E+03  0.39282637413E+03  0.45298970458E+03  0.17209706257E+03 0.  0.
        -24    2    5    5    0    0 -0.47136090298E+01 -0.90884001644E+02  0.30101004085E+03  0.32557258561E+03  0.84310995374E+02 0.  0.
          5    1    3    3  501    0 -0.24651759881E+02 -0.15874934969E+02  0.38376315886E+02  0.48523751365E+02  0.47000000000E+01 0. -1.
        -11    1    4    4    0    0  0.60008935203E+02  0.74047545508E+02  0.33685673738E+01  0.95370113485E+02  0.00000000000E+00 0.  1.
         12    1    4    4    0    0  0.54182512145E+02  0.56946274393E+02  0.82839627451E+02  0.11419731462E+03  0.00000000000E+00 0. -1.
         -5    1    5    5    0  502 -0.84826078438E+02 -0.24234883288E+02  0.91816333280E+02  0.12741711898E+03  0.47000000000E+01 0.  1.
         11    1    6    6    0    0  0.31821509968E+02 -0.28695321333E+02  0.58172642245E+02  0.72250164490E+02  0.00000000000E+00 0. -1.
        -12    1    6    6    0    0 -0.36535118998E+02 -0.62188680311E+02  0.24283739860E+03  0.25332242112E+03  0.00000000000E+00 0.  1.
</event>
<event>
12    1  0.8798177E-003  0.1780916E+03  0.7818608E-02  0.1170119E+00
         21   -1    0    0  501  502  0.00000000000E+00  0.00000000000E+00  0.26923883360E+02  0.26923883360E+02  0.00000000000E+00 0.  1.
         21   -1    0    0  502  503 -0.00000000000E+00 -0.00000000000E+00 -0.17105446060E+04  0.17105446060E+04  0.00000000000E+00 0.  1.
          6    2    1    2  501    0 -0.88616506290E+01 -0.44287989401E+02 -0.34857543511E+03  0.39059710667E+03  0.17035642319E+03 0.  0.
         24    2    3    3    0    0 -0.14702719220E+02 -0.88477599902E+02 -0.30383869497E+03  0.32727013235E+03  0.82117789367E+02 0.  0.
         -6    2    1    2    0  503  0.88616506290E+01  0.44287989401E+02 -0.13350452875E+04  0.13468713827E+04  0.17226911184E+03 0.  0.
        -24    2    5    5    0    0  0.25835711679E+02  0.84498759410E+02 -0.68625368058E+03  0.69659631472E+03  0.80590242784E+02 0.  0.
          5    1    3    3  501    0  0.58410685911E+01  0.44189610501E+02 -0.44736740143E+02  0.63326974325E+02  0.47000000000E+01 0. -1.
        -11    1    4    4    0    0 -0.38408026956E+02 -0.36209116361E+02 -0.77501742109E+02  0.93769913470E+02  0.00000000000E+00 0.  1.
         12    1    4    4    0    0  0.23705307735E+02 -0.52268483541E+02 -0.22633695286E+03  0.23350021888E+03  0.00000000000E+00 0. -1.
         -5    1    5    5    0  503 -0.16974061050E+02 -0.40210770010E+02 -0.64879160695E+03  0.65027506797E+03  0.47000000000E+01 0.  1.
         13    1    6    6    0    0  0.28557963405E+02  0.39762624575E+02 -0.13640323523E+03  0.14492227630E+03  0.00000000000E+00 0. -1.
        -14    1    6    6    0    0 -0.27222517259E+01  0.44736134836E+02 -0.54985044535E+03  0.55167403842E+03  0.00000000000E+00 0.  1.
</event>
<event>
12    1  0.8798177E-003  0.1868207E+03  0.7818608E-02  0.1161561E+00
         21   -1    0    0  501  502  0.00000000000E+00  0.00000000000E+00  0.18978875245E+03  0.18978875245E+03  0.00000000000E+00 0.  1.
         21   -1    0    0  502  503 -0.00000000000E+00 -0.00000000000E+00 -0.26309200597E+03  0.26309200597E+03  0.00000000000E+00 0.  1.
          6    2    1    2  501    0  0.33623714901E+02  0.62943415832E+02  0.88192271948E+02  0.20659100040E+03  0.17265438545E+03 0.  0.
         24    2    3    3    0    0  0.59951424223E+02  0.84749729747E+02  0.11024729634E+03  0.16563764027E+03  0.67116850089E+02 0.  0.
         -6    2    1    2    0  503 -0.33623714901E+02 -0.62943415832E+02 -0.16149552547E+03  0.24628975802E+03  0.17171316885E+03 0.  0.
        -24    2    5    5    0    0  0.12991514729E+02 -0.87084224202E+02 -0.15360930150E+03  0.19299772493E+03  0.76810564115E+02 0.  0.
          5    1    3    3  501    0 -0.26327709323E+02 -0.21806313915E+02 -0.22055024395E+02  0.40953360128E+02  0.47000000000E+01 0. -1.
        -13    1    4    4    0    0  0.56084689153E+02  0.27183218687E+02  0.76945470041E+02  0.99020326678E+02  0.00000000000E+00 0.  1.
         14    1    4    4    0    0  0.38667350705E+01  0.57566511060E+02  0.33301826303E+02  0.66617313596E+02  0.00000000000E+00 0. -1.
         -5    1    5    5    0  503 -0.46615229630E+02  0.24140808370E+02 -0.78862239673E+01  0.53292033088E+02  0.47000000000E+01 0.  1.
         13    1    6    6    0    0 -0.32152349426E+02 -0.41384694236E+02 -0.63438565508E+02  0.82285588558E+02  0.00000000000E+00 0. -1.
        -14    1    6    6    0    0  0.45143864155E+02 -0.45699529966E+02 -0.90170735994E+02  0.11071213637E+03  0.00000000000E+00 0.  1.
</event>
<event>
12    1  0.8798177E-003  0.2075230E+03  0.7818608E-02  0.1143623E+00
         21   -1    0    0  501  502  0.00000000000E+00  0.00000000000E+00  0.31688087135E+02  0.31688087135E+02  0.00000000000E+00 0. -1.
         21   -1    0    0  502  503 -0.00000000000E+00 -0.00000000000E+00 -0.14093617956E+04  0.14093617956E+04  0.00000000000E+00 0.  1.
          6    2    1    2  501    0 -0.11665512904E+03 -0.88686412902E+01 -0.82783031601E+03  0.85334797326E+03  0.17091711279E+03 0.  0.
         24    2    3    3    0    0 -0.14177550780E+03  0.44566189077E+01 -0.52106478129E+03  0.54523147050E+03  0.75157794380E+02 0.  0.
         -6    2    1    2    0  503  0.11665512904E+03  0.88686412902E+01 -0.54984339244E+03  0.58770190945E+03  0.17140217686E+03 0.  0.
        -24    2    5    5    0    0  0.12450640285E+03  0.57476493072E+02 -0.40612749905E+03  0.43571271981E+03  0.78106575338E+02 0.  0.
          5    1    3    3  501    0  0.25120378754E+02 -0.13325260198E+02 -0.30676553471E+03  0.30811650277E+03  0.47000000000E+01 0. -1.
        -11    1    4    4    0    0 -0.67495965832E+02 -0.31450184813E+02 -0.30479863994E+03  0.31376269765E+03  0.00000000000E+00 0.  1.
         12    1    4    4    0    0 -0.74279541965E+02  0.35906803721E+02 -0.21626614135E+03  0.23146877284E+03  0.00000000000E+00 0. -1.
         -5    1    5    5    0  503 -0.78512738114E+01 -0.48607851782E+02 -0.14371589339E+03  0.15198918964E+03  0.47000000000E+01 0.  1.
         13    1    6    6    0    0  0.64746324603E+02 -0.16887117308E+01 -0.10781365416E+03  0.12577250224E+03  0.00000000000E+00 0. -1.
        -14    1    6    6    0    0  0.59760078251E+02  0.59165204802E+02 -0.29831384490E+03  0.30994021757E+03  0.00000000000E+00 0.  1.
</event>
<event>
12    1  0.8798177E-003  0.1753698E+03  0.7818608E-02  0.1173484E+00
         21   -1    0    0  501  502  0.00000000000E+00  0.00000000000E+00  0.51049409918E+03  0.51049409918E+03  0.00000000000E+00 0. -1.
         21   -1    0    0  502  503 -0.00000000000E+00 -0.00000000000E+00 -0.60862166404E+02  0.60862166404E+02  0.00000000000E+00 0. -1.
          6    2    1    2  501    0  0.32319663743E+02  0.16359716412E+02  0.17416980663E+03  0.24716329899E+03  0.17158780213E+03 0.  0.
         24    2    3    3    0    0  0.45687869771E+01 -0.48768080452E+02  0.11582037598E+03  0.15530206047E+03  0.91132710968E+02 0.  0.
         -6    2    1    2    0  503 -0.32319663743E+02 -0.16359716412E+02  0.27546212614E+03  0.32419296659E+03  0.16706135299E+03 0.  0.
        -24    2    5    5    0    0 -0.16088201460E+01  0.47348400162E+02  0.19862857880E+03  0.21965893371E+03  0.80946127421E+02 0.  0.
          5    1    3    3  501    0  0.27750876766E+02  0.65127796864E+02  0.58349430650E+02  0.91861238523E+02  0.47000000000E+01 0. -1.
        -13    1    4    4    0    0  0.20878578314E+02 -0.17504739634E+02  0.11689053611E+03  0.12002386586E+03  0.00000000000E+00 0.  1.
         14    1    4    4    0    0 -0.16309791337E+02 -0.31263340818E+02 -0.10701601324E+01  0.35278194615E+02  0.00000000000E+00 0. -1.
         -5    1    5    5    0  503 -0.30710843597E+02 -0.63708116574E+02  0.76833547348E+02  0.10453403288E+03  0.47000000000E+01 0.  1.
         11    1    6    6    0    0 -0.36913895890E+02  0.73349767567E+01  0.10938452654E+03  0.11567805427E+03  0.00000000000E+00 0. -1.
        -12    1    6    6    0    0  0.35305075744E+02  0.40013423406E+02  0.89244052259E+02  0.10398087944E+03  0.00000000000E+00 0.  1.
</event>
<event>
12    1  0.8798177E-003  0.3318164E+03  0.7818608E-02  0.1070421E+00
         21   -1    0    0  501  502  0.00000000000E+00  0.00000000000E+00  0.19556084612E+03  0.19556084612E+03  0.00000000000E+00 0. -1.
         21   -1    0    0  502  503 -0.00000000000E+00 -0.00000000000E+00 -0.68136115267E+03  0.68136115267E+03  0.00000000000E+00 0.  1.
          6    2    1    2  501    0  0.31155316683E+01  0.28344364828E+03 -0.58915714936E+02  0.33624408924E+03  0.17099420397E+03 0.  0.
         24    2    3    3    0    0  0.18161169660E+02  0.15947132163E+03 -0.98332533077E+02  0.20520484111E+03  0.81723982085E+02 0.  0.
         -6    2    1    2    0  503 -0.31155316683E+01 -0.28344364828E+03 -0.42688459162E+03  0.54067790955E+03  0.17248808374E+03 0.  0.
        -24    2    5    5    0    0 -0.27518650127E+02 -0.17482982999E+03 -0.36142648801E+03  0.41145203350E+03  0.85679192801E+02 0.  0.
          5    1    3    3  501    0 -0.15045637992E+02  0.12397232665E+03  0.39416818141E+02  0.13103924812E+03  0.47000000000E+01 0. -1.
        -11    1    4    4    0    0 -0.18253845538E+02  0.13051755929E+03 -0.59465008910E+02  0.14458258348E+03  0.00000000000E+00 0.  1.
         12    1    4    4    0    0  0.36415015198E+02  0.28953762336E+02 -0.38867524167E+02  0.60622257630E+02  0.00000000000E+00 0. -1.
         -5    1    5    5    0  503  0.24403118459E+02 -0.10861381828E+03 -0.65458103609E+02  0.12922587605E+03  0.47000000000E+01 0.  1.
         13    1    6    6    0    0  0.15506462616E+02 -0.23939762507E+02 -0.12129448536E+03  0.12460302882E+03  0.00000000000E+00 0. -1.
        -14    1    6    6    0    0 -0.43025112744E+02 -0.15089006749E+03 -0.24013200264E+03  0.28684900468E+03  0.00000000000E+00 0.  1.
</event>
<event>
12    1  0.8798177E-003  0.1769456E+03  0.7818608E-02  0.1171432E+00
         21   -1    0    0  503  502  0.00000000000E+00  0.00000000000E+00  0.39662771156E+03  0.39662771156E+03  0.00000000000E+00 0.  1.
         21   -1    0    0  501  503 -0.00000000000E+00 -0.00000000000E+00 -0.86396807441E+02  0.86396807441E+02  0.00000000000E+00 0.  1.
          6    2    1    2  501    0  0.18298165835E+02 -0.26019716006E+02  0.77915550070E+02  0.19099683806E+03  0.17145585646E+03 0.  0.
         24    2    3    3    0    0  0.65675758735E+02 -0.37509528366E+02  0.16783531668E+02  0.11266507075E+03  0.81801352238E+02 0.  0.
         -6    2    1    2    0  502 -0.18298165835E+02  0.26019716006E+02  0.23231535405E+03  0.29202768094E+03  0.17406290303E+03 0.  0.
        -24    2    5    5    0    0 -0.64095522185E+02  0.13057195170E+02  0.22072290582E+03  0.24281488127E+03  0.77212298918E+02 0.  0.
          5    1    3    3  501    0 -0.47377592900E+02  0.11489812360E+02  0.61132018402E+02  0.78331767316E+02  0.47000000000E+01 0. -1.
        -13    1    4    4    0    0  0.28795731530E+02 -0.21803212742E+02 -0.32879602657E+02  0.48843039536E+02  0.00000000000E+00 0.  1.
         14    1    4    4    0    0  0.36880027204E+02 -0.15706315624E+02  0.49663134325E+02  0.63822031213E+02  0.00000000000E+00 0. -1.
         -5    1    5    5    0  502  0.45797356350E+02  0.12962520836E+02  0.11592448233E+02  0.49212799668E+02  0.47000000000E+01 0.  1.
         13    1    6    6    0    0 -0.41440330554E+02  0.31795441506E+02  0.60549536367E+02  0.79965601675E+02  0.00000000000E+00 0. -1.
        -14    1    6    6    0    0 -0.22655191631E+02 -0.18738246337E+02  0.16017336945E+03  0.16284927960E+03  0.00000000000E+00 0.  1.
</event>
<event>
12    1  0.8798177E-003  0.2671390E+03  0.7818608E-02  0.1102974E+00
         21   -1    0    0  501  502  0.00000000000E+00  0.00000000000E+00  0.16036218141E+03  0.16036218141E+03  0.00000000000E+00 0. -1.
         21   -1    0    0  502  503 -0.00000000000E+00 -0.00000000000E+00 -0.47226091689E+03  0.47226091689E+03  0.00000000000E+00 0.  1.
          6    2    1    2  501    0 -0.95608500999E+02  0.17956217093E+03 -0.79158084166E+02  0.27831894450E+03  0.17266115338E+03 0.  0.
         24    2    3    3    0    0 -0.64565876814E+01  0.19984764995E+02 -0.40617697673E+02  0.91448766240E+02  0.79195966603E+02 0.  0.
         -6    2    1    2    0  503  0.95608500999E+02 -0.17956217093E+03 -0.23274065131E+03  0.35430415379E+03  0.17314636562E+03 0.  0.
        -24    2    5    5    0    0  0.52103449679E+02 -0.94538658851E+02 -0.41907009397E+02  0.14085332577E+03  0.80194354275E+02 0.  0.
          5    1    3    3  501    0 -0.89151913318E+02  0.15957740593E+03 -0.38540386493E+02  0.18687017826E+03  0.47000000000E+01 0. -1.
        -11    1    4    4    0    0  0.25552089650E+02  0.75499987036E+01  0.11512453387E+02  0.29024960791E+02  0.00000000000E+00 0.  1.
         12    1    4    4    0    0 -0.32008677332E+02  0.12434766291E+02 -0.52130151060E+02  0.62423805449E+02  0.00000000000E+00 0. -1.
         -5    1    5    5    0  503  0.43505051321E+02 -0.85023512075E+02 -0.19083364192E+03  0.21345082802E+03  0.47000000000E+01 0.  1.
         11    1    6    6    0    0  0.29425596718E+02 -0.10109189184E+03 -0.49103756063E+02  0.11617493360E+03  0.00000000000E+00 0. -1.
        -12    1    6    6    0    0  0.22677852961E+02  0.65532329856E+01  0.71967466657E+01  0.24678392169E+02  0.00000000000E+00 0.  1.
</event>
<event>
12    1  0.8798177E-003  0.1783257E+03  0.7818608E-02  0.1170431E+00
         21   -1    0    0  501  502  0.00000000000E+00  0.00000000000E+00  0.49841047515E+03  0.49841047515E+03  0.00000000000E+00 0.  1.
         21   -1    0    0  502  503 -0.00000000000E+00 -0.00000000000E+00 -0.63375392684E+02  0.63375392684E+02  0.00000000000E+00 0. -1.
          6    2    1    2  501    0 -0.89788133505E+01  0.47566270613E+02  0.25042573843E+03  0.30511358020E+03  0.16744574395E+03 0.  0.
         24    2    3    3    0    0 -0.56145099301E+02  0.55014575983E+02  0.11276579965E+03  0.15933126121E+03  0.80569531986E+02 0.  0.
         -6    2    1    2    0  503  0.89788133505E+01 -0.47566270613E+02  0.18460934404E+03  0.25667228764E+03  0.17163007937E+03 0.  0.
        -24    2    5    5    0    0  0.32740328329E+02  0.29702979102E+02  0.13027140197E+03  0.15915383556E+03  0.80031925742E+02 0.  0.
          5    1    3    3  501    0  0.47166285951E+02 -0.74483053696E+01  0.13765993878E+03  0.14578231899E+03  0.47000000000E+01 0. -1.
        -11    1    4    4    0    0 -0.85960584880E+01 -0.42823554971E+01  0.72850890672E+02  0.73481174880E+02  0.00000000000E+00 0.  1.
         12    1    4    4    0    0 -0.47549040813E+02  0.59296931480E+02  0.39914908973E+02  0.85850086334E+02  0.00000000000E+00 0. -1.
         -5    1    5    5    0  503 -0.23761514978E+02 -0.77269249715E+02  0.54337942077E+02  0.97518452073E+02  0.47000000000E+01 0.  1.
         13    1    6    6    0    0 -0.13916275693E+02  0.39006848570E+02  0.42647411391E+02  0.59447444545E+02  0.00000000000E+00 0. -1.
        -14    1    6    6    0    0  0.46656604022E+02 -0.93038694679E+01  0.87623990575E+02  0.99706391020E+02  0.00000000000E+00 0.  1.
</event>
<event>
12    1  0.8798177E-003  0.1964030E+03  0.7818608E-02  0.1154226E+00
         21   -1    0    0  501  502  0.00000000000E+00  0.00000000000E+00  0.53658699278E+03  0.53658699278E+03  0.00000000000E+00 0.  1.
         21   -1    0    0  502  503 -0.00000000000E+00 -0.00000000000E+00 -0.10691376357E+03  0.10691376357E+03  0.00000000000E+00 0.  1.
          6    2    1    2  501    0 -0.82131757453E+02 -0.17319255314E+02  0.40269790406E+03  0.44525394305E+03  0.17041094354E+03 0.  0.
         24    2    3    3    0    0  0.24054311917E+02 -0.15143547521E+02  0.17369368973E+03  0.19277575545E+03  0.78645133885E+02 0.  0.
         -6    2    1    2    0  503  0.82131757453E+02  0.17319255314E+02  0.26975325143E+02  0.19824681330E+03  0.17756280193E+03 0.  0.
        -24    2    5    5    0    0  0.92008670661E+02  0.22704980815E+02 -0.39967006116E+02  0.13020325984E+03  0.79839937773E+02 0.  0.
          5    1    3    3  501    0 -0.10618606937E+03 -0.21757077934E+01  0.22900421433E+03  0.25247818760E+03  0.47000000000E+01 0. -1.
        -11    1    4    4    0    0 -0.10614808720E+02  0.15066492726E+02  0.12283705032E+03  0.12421197325E+03  0.00000000000E+00 0.  1.
         12    1    4    4    0    0  0.34669120638E+02 -0.30210040246E+02  0.50856639409E+02  0.68563782199E+02  0.00000000000E+00 0. -1.
         -5    1    5    5    0  503 -0.98769132089E+01 -0.53857255006E+01  0.66942331260E+02  0.68043553465E+02  0.47000000000E+01 0.  1.
         11    1    6    6    0    0 -0.13104918882E+02 -0.54209282088E+01  0.28666267807E+00  0.14184764258E+02  0.00000000000E+00 0. -1.
        -12    1    6    6    0    0  0.10511358954E+03  0.28125909023E+02 -0.40253668794E+02  0.11601849558E+03  0.00000000000E+00 0.  1.
</event>
<event>
12    1  0.8798177E-003  0.1920076E+03  0.7818608E-02  0.1157260E+00
         21   -1    0    0  503  502  0.00000000000E+00  0.00000000000E+00  0.78309169287E+03  0.78309169287E+03  0.00000000000E+00 0.  1.
         21   -1    0    0  501  503 -0.00000000000E+00 -0.00000000000E+00 -0.50634759178E+02  0.50634759178E+02  0.00000000000E+00 0. -1.
          6    2    1    2  501    0  0.32981081986E+01 -0.83168191162E+02  0.24841923245E+03  0.31397296399E+03  0.17302913490E+03 0.  0.
         24    2    3    3    0    0 -0.36232693629E+02 -0.76754273000E+01  0.19371451582E+03  0.21259970464E+03  0.79382620914E+02 0.  0.
         -6    2    1    2    0  502 -0.32981081986E+01  0.83168191162E+02  0.48403770124E+03  0.51975348806E+03  0.17006871138E+03 0.  0.
        -24    2    5    5    0    0 -0.55991136958E+02  0.90852142675E+02  0.37998163272E+03  0.40276907121E+03  0.80297971766E+02 0.  0.
          5    1    3    3  501    0  0.39530801827E+02 -0.75492763862E+02  0.54704716635E+02  0.10137325935E+03  0.47000000000E+01 0. -1.
        -13    1    4    4    0    0  0.18588598427E+02  0.13904995607E+02  0.93602777720E+02  0.96438399464E+02  0.00000000000E+00 0.  1.
         14    1    4    4    0    0 -0.54821292056E+02 -0.21580422907E+02  0.10011173810E+03  0.11616130518E+03  0.00000000000E+00 0. -1.
         -5    1    5    5    0  502  0.52693028759E+02 -0.76839515127E+01  0.10405606852E+03  0.11698441685E+03  0.47000000000E+01 0.  1.
         13    1    6    6    0    0 -0.48375712827E+02  0.17522847588E+02  0.22952232312E+03  0.23521852944E+03  0.00000000000E+00 0. -1.
        -14    1    6    6    0    0 -0.76154241305E+01  0.73329295087E+02  0.15045930960E+03  0.16755054177E+03  0.00000000000E+00 0.  1.
</event>
<event>
12    1  0.8798177E-003  0.1889746E+03  0.7818608E-02  0.1161129E+00
         21   -1    0    0  503  502  0.00000000000E+00  0.00000000000E+00  0.38811348467E+02  0.38811348467E+02  0.00000000000E+00 0. -1.
         21   -1    0    0  501  503 -0.00000000000E+00 -0.00000000000E+00 -0.95696658578E+03  0.95696658578E+03  0.00000000000E+00 0. -1.
          6    2    1    2  501    0  0.12923952001E+02 -0.46364615264E+02 -0.58796190474E+03  0.61533209819E+03  0.17497909462E+03 0.  0.
         24    2    3    3    0    0  0.14079156280E+02  0.28938862112E+02 -0.17004356486E+03  0.19065601338E+03  0.79995131760E+02 0.  0.
         -6    2    1    2    0  502 -0.12923952001E+02  0.46364615264E+02 -0.33019333258E+03  0.38044583606E+03  0.18274214405E+03 0.  0.
        -24    2    5    5    0    0 -0.10766942525E+02  0.81727034561E+02 -0.32460262944E+03  0.34427265055E+03  0.79759360866E+02 0.  0.
          5    1    3    3  501    0 -0.11552042790E+01 -0.75303477376E+02 -0.41791833988E+03  0.42467608481E+03  0.47000000000E+01 0. -1.
        -11    1    4    4    0    0  0.20344225248E+02  0.55229141905E+02 -0.12417086344E+03  0.13741378731E+03  0.00000000000E+00 0.  1.
         12    1    4    4    0    0 -0.62650689678E+01 -0.26290279793E+02 -0.45872701418E+02  0.53242226063E+02  0.00000000000E+00 0. -1.
         -5    1    5    5    0  502 -0.21570094764E+01 -0.35362419298E+02 -0.55907031338E+01  0.36173185511E+02  0.47000000000E+01 0.  1.
         11    1    6    6    0    0 -0.40403398594E+02  0.64896645893E+02 -0.26282871918E+03  0.27372055986E+03  0.00000000000E+00 0. -1.
        -12    1    6    6    0    0  0.29636456069E+02  0.16830388668E+02 -0.61773910261E+02  0.70552090684E+02  0.00000000000E+00 0.  1.
</event>
<event>
12    1  0.8798177E-003  0.1776001E+03  0.7818608E-02  0.1170321E+00
         21   -1    0    0  501  502  0.00000000000E+00  0.00000000000E+00  0.13343770592E+03  0.13343770592E+03  0.00000000000E+00 0. -1.
         21   -1    0    0  502  503 -0.00000000000E+00 -0.00000000000E+00 -0.24443866628E+03  0.24443866628E+03  0.00000000000E+00 0. -1.
          6    2    1    2  501    0 -0.16542012227E+02 -0.37397801718E+02 -0.19346160872E+02  0.17865073739E+03  0.17282817562E+03 0.  0.
         24    2    3    3    0    0 -0.59528676830E+02  0.61610321811E+01 -0.47479376343E+02  0.11113190182E+03  0.80711750948E+02 0.  0.
         -6    2    1    2    0  503  0.16542012227E+02  0.37397801718E+02 -0.91654799486E+02  0.19922563480E+03  0.17209885982E+03 0.  0.
        -24    2    5    5    0    0  0.62093937760E+02 -0.16719678284E+02 -0.33937603556E+02  0.10780876400E+03  0.79597511969E+02 0.  0.
          5    1    3    3  501    0  0.42986664603E+02 -0.43558833899E+02  0.28133215471E+02  0.67518835572E+02  0.47000000000E+01 0. -1.
        -13    1    4    4    0    0 -0.22103609327E+02  0.42275440644E+02 -0.29569034925E+02  0.56125843008E+02  0.00000000000E+00 0.  1.
         14    1    4    4    0    0 -0.37425067502E+02 -0.36114408462E+02 -0.17910341417E+02  0.55006058810E+02  0.00000000000E+00 0. -1.
         -5    1    5    5    0  503 -0.45551925533E+02  0.54117480002E+02 -0.57717195930E+02  0.91416870804E+02  0.47000000000E+01 0.  1.
         11    1    6    6    0    0  0.32331731335E+02  0.27388993104E+02  0.38467833059E+01  0.42547567923E+02  0.00000000000E+00 0. -1.
        -12    1    6    6    0    0  0.29762206425E+02 -0.44108671388E+02 -0.37784386862E+02  0.65261196077E+02  0.00000000000E+00 0.  1.
</event>
<event>
12    1  0.8798177E-003  0.3078489E+03  0.7818608E-02  0.1081433E+00
         21   -1    0    0  501  502  0.00000000000E+00  0.00000000000E+00  0.58788398659E+02  0.58788398659E+02  0.00000000000E+00 0.  1.
         21   -1    0    0  502  503 -0.00000000000E+00 -0.00000000000E+00 -0.16138026762E+04  0.16138026762E+04  0.00000000000E+00 0. -1.
          6    2    1    2  501    0  0.35406378280E+02 -0.25286009077E+03 -0.73543327987E+03  0.79710039682E+03  0.17121651888E+03 0.  0.
         24    2    3    3    0    0 -0.19677162657E+02 -0.86339146278E+02 -0.41508218510E+03  0.43184660100E+03  0.79728461042E+02 0.  0.
         -6    2    1    2    0  503 -0.35406378280E+02  0.25286009077E+03 -0.81958099771E+03  0.87549067808E+03  0.17198569265E+03 0.  0.
        -24    2    5    5    0    0 -0.45853752865E+02  0.12051137247E+03 -0.59335293210E+03  0.61314251525E+03  0.85149776475E+02 0.  0.
          5    1    3    3  501    0  0.55083540937E+02 -0.16652094449E+03 -0.32035109477E+03  0.36525379582E+03  0.47000000000E+01 0. -1.
        -13    1    4    4    0    0 -0.32296331379E+02 -0.40976327913E+02 -0.95573590937E+02  0.10888720657E+03  0.00000000000E+00 0.  1.
         14    1    4    4    0    0  0.12619168722E+02 -0.45362818366E+02 -0.31950859416E+03  0.32295939443E+03  0.00000000000E+00 0. -1.
         -5    1    5    5    0  503  0.10447374585E+02  0.13234871829E+03 -0.22622806561E+03  0.26234816283E+03  0.47000000000E+01 0.  1.
         13    1    6    6    0    0 -0.50314512412E+02  0.11844257328E+03 -0.59435298061E+03  0.60812470668E+03  0.00000000000E+00 0. -1.
        -14    1    6    6    0    0  0.44607595471E+01  0.20687991958E+01  0.10000485051E+01  0.50178085717E+01  0.00000000000E+00 0.  1.
</event>
<event>
12    1  0.8798177E-003  0.1961583E+03  0.7818608E-02  0.1153176E+00
         21   -1    0    0  503  502  0.00000000000E+00  0.00000000000E+00  0.11639442341E+04  0.11639442341E+04  0.00000000000E+00 0.  1.
         21   -1    0    0  501  503 -0.00000000000E+00 -0.00000000000E+00 -0.33453854866E+02  0.33453854866E+02  0.00000000000E+00 0. -1.
          6    2    1    2  501    0 -0.86020723230E+02 -0.37195975144E+02  0.64058690617E+03  0.66994749567E+03  0.17232224815E+03 0.  0.
         24    2    3    3    0    0  0.11023953803E+01  0.32825728475E+02  0.28931641690E+03  0.30129247616E+03  0.77423661632E+02 0.  0.
         -6    2    1    2    0  502  0.86020723230E+02  0.37195975144E+02  0.48990347305E+03  0.52745059328E+03  0.17150979580E+03 0.  0.
        -24    2    5    5    0    0  0.82513182143E+02  0.36240310280E+02  0.17416590992E+03  0.21165712452E+03  0.79644138934E+02 0.  0.
          5    1    3    3  501    0 -0.87123118611E+02 -0.70021703619E+02  0.35127048927E+03  0.36865501951E+03  0.47000000000E+01 0. -1.
        -11    1    4    4    0    0 -0.26278871965E+02  0.26796790576E+02  0.25112709840E+03  0.25391625912E+03  0.00000000000E+00 0.  1.
         12    1    4    4    0    0  0.27381267346E+02  0.60289378994E+01  0.38189318501E+02  0.47376217042E+02  0.00000000000E+00 0. -1.
         -5    1    5    5    0  502  0.35075410873E+01  0.95566486363E+00  0.31573756313E+03  0.31579346876E+03  0.47000000000E+01 0.  1.
         13    1    6    6    0    0  0.19541161542E+02 -0.18994902204E+02  0.13377622456E+02  0.30358262248E+02  0.00000000000E+00 0. -1.
        -14    1    6    6    0    0  0.62972020601E+02  0.55235212484E+02  0.16078828746E+03  0.18129886228E+03  0.00000000000E+00 0.  1.
</event>
<event>
12    1  0.8798177E-003  0.1749200E+03  0.7818608E-02  0.1174249E+00
         21   -1    0    0  501  502  0.00000000000E+00  0.00000000000E+00  0.15903006137E+04  0.15903006137E+04  0.00000000000E+00 0.  1.
         21   -1    0    0  502  503 -0.00000000000E+00 -0.00000000000E+00 -0.19279523360E+02  0.19279523360E+02  0.00000000000E+00 0.  1.
          6    2    1    2  501    0 -0.29866198447E+02 -0.11648447590E+02  0.92121771457E+03  0.93664520761E+03  0.16623625105E+03 0.  0.
         24    2    3    3    0    0 -0.49564636504E+01  0.54994855754E+02  0.52711507017E+03  0.53614450962E+03  0.80942184949E+02 0.  0.
         -6    2    1    2    0  503  0.29866198447E+02  0.11648447590E+02  0.64980337580E+03  0.67293492948E+03  0.17195730857E+03 0.  0.
        -24    2    5    5    0    0 -0.29477603794E+02 -0.34248975515E+02  0.45592550297E+03  0.46499508269E+03  0.79438285557E+02 0.  0.
          5    1    3    3  501    0 -0.24909734797E+02 -0.66643303343E+02  0.39410264440E+03  0.40050069799E+03  0.47000000000E+01 0. -1.
        -11    1    4    4    0    0  0.17275104595E+02 -0.14766487142E+02  0.83948760864E+02  0.86970528525E+02  0.00000000000E+00 0.  1.
         12    1    4    4    0    0 -0.22231568245E+02  0.69761342895E+02  0.44316630931E+03  0.44917398110E+03  0.00000000000E+00 0. -1.
         -5    1    5    5    0  503  0.59343802241E+02  0.45897423105E+02  0.19387787283E+03  0.20793984679E+03  0.47000000000E+01 0.  1.
         13    1    6    6    0    0 -0.58197720966E+01 -0.17838762060E+01  0.37098193781E+03  0.37103187214E+03  0.00000000000E+00 0. -1.
        -14    1    6    6    0    0 -0.23657831697E+02 -0.32465099309E+02  0.84943565159E+02  0.93963210544E+02  0.00000000000E+00 0.  1.
</event>
<event>
12    1  0.8798177E-003  0.3565248E+03  0.7818608E-02  0.1060014E+00
         21   -1    0    0  501  502  0.00000000000E+00  0.00000000000E+00  0.19092925104E+04  0.19092925104E+04  0.00000000000E+00 0. -1.
         21   -1    0    0  502  503 -0.00000000000E+00 -0.00000000000E+00 -0.89003781987E+02  0.89003781987E+02  0.00000000000E+00 0.  1.
          6    2    1    2  501    0  0.28349112288E+03  0.13119191103E+03  0.14130999181E+04  0.14573816673E+04  0.17184705825E+03 0.  0.
         24    2    3    3    0    0  0.23726811391E+03  0.14729398029E+03  0.99746249191E+03  0.10388456435E+04  0.79228616813E+02 0.  0.
         -6    2    1    2    0  503 -0.28349112288E+03 -0.13119191103E+03  0.40718881024E+03  0.54091462500E+03  0.17090163862E+03 0.  0.
        -24    2    5    5    0    0 -0.11285533775E+03 -0.48121838459E+02  0.26787263375E+03  0.30544000820E+03  0.80534539812E+02 0.  0.
          5    1    3    3  501    0  0.46223008969E+02 -0.16102069255E+02  0.41563742622E+03  0.41853602386E+03  0.47000000000E+01 0. -1.
        -11    1    4    4    0    0  0.35624266617E+02  0.27924494464E+02  0.79862200185E+02  0.91797803795E+02  0.00000000000E+00 0.  1.
         12    1    4    4    0    0  0.20164384729E+03  0.11936948582E+03  0.91760029173E+03  0.94704783970E+03  0.00000000000E+00 0. -1.
         -5    1    5    5    0  503 -0.17063578513E+03 -0.83070072571E+02  0.13931617649E+03  0.23547461680E+03  0.47000000000E+01 0.  1.
         11    1    6    6    0    0 -0.81157956998E+02 -0.13955584457E+02  0.91887722687E+02  0.12338851609E+03  0.00000000000E+00 0. -1.
        -12    1    6    6    0    0 -0.31697380750E+02 -0.34166254002E+02  0.17598491107E+03  0.18205149212E+03  0.00000000000E+00 0.  1.
</event>
<event>
12    1  0.8798177E-003  0.1878919E+03  0.7818608E-02  0.1160616E+00
         21   -1    0    0  503  502  0.00000000000E+00  0.00000000000E+00  0.61124865786E+02  0.61124865786E+02  0.00000000000E+00 0.  1.
         21   -1    0    0  501  503 -0.00000000000E+00 -0.00000000000E+00 -0.57611413573E+03  0.57611413573E+03  0.00000000000E+00 0.  1.
          6    2    1    2  501    0 -0.73641592722E+02 -0.52012240415E+01 -0.23920423161E+03  0.30353139787E+03  0.17164646272E+03 0.  0.
         24    2    3    3    0    0 -0.33647213596E+02 -0.64774863252E+02 -0.10059562616E+03  0.14738081557E+03  0.79206735203E+02 0.  0.
         -6    2    1    2    0  502  0.73641592722E+02  0.52012240415E+01 -0.27578503833E+03  0.33370760364E+03  0.17278090303E+03 0.  0.
        -24    2    5    5    0    0  0.31221981610E+02 -0.61185637418E+02 -0.12007107490E+03  0.15913507663E+03  0.78666480938E+02 0.  0.
          5    1    3    3  501    0 -0.39994379127E+02  0.59573639211E+02 -0.13860860545E+03  0.15615058231E+03  0.47000000000E+01 0. -1.
        -13    1    4    4    0    0 -0.51603949273E+02 -0.35650583798E+02 -0.93258279323E+02  0.11238789244E+03  0.00000000000E+00 0.  1.
         14    1    4    4    0    0  0.17956735677E+02 -0.29124279454E+02 -0.73373468395E+01  0.34992923121E+02  0.00000000000E+00 0. -1.
         -5    1    5    5    0  502  0.42419611112E+02  0.66386861459E+02 -0.15571396343E+03  0.17457252701E+03  0.47000000000E+01 0.  1.
         13    1    6    6    0    0 -0.10923868413E+02  0.13817810763E+02 -0.28372980977E+02  0.33395940545E+02  0.00000000000E+00 0. -1.
        -14    1    6    6    0    0  0.42145850023E+02 -0.75003448181E+02 -0.91698093923E+02  0.12573913608E+03  0.00000000000E+00 0.  1.
</event>
<event>
12    1  0.8798177E-003  0.2256260E+03  0.7818608E-02  0.1130047E+00
         21   -1    0    0  503  502  0.00000000000E+00  0.00000000000E+00  0.80892373750E+03  0.80892373750E+03  0.00000000000E+00 0.  1.
         21   -1    0    0  501  503 -0.00000000000E+00 -0.00000000000E+00 -0.88829135554E+02  0.88829135554E+02  0.00000000000E+00 0.  1.
          6    2    1    2  501    0  0.26358118692E+02 -0.14341445364E+03  0.60359083787E+03  0.64382329126E+03  0.17007079369E+03 0.  0.
         24    2    3    3    0    0  0.23137269423E+02 -0.17359934659E+03  0.54683122338E+03  0.57928457830E+03  0.76643130267E+02 0.  0.
         -6    2    1    2    0  502 -0.26358118692E+02  0.14341445364E+03  0.11650376407E+03  0.25392958179E+03  0.17217621652E+03 0.  0.
        -24    2    5    5    0    0 -0.81556031487E+02  0.70718244333E+02  0.86130472154E+02  0.15761667878E+03  0.75974356489E+02 0.  0.
          5    1    3    3  501    0  0.32208492688E+01  0.30184892955E+02  0.56759614492E+02  0.64538712955E+02  0.47000000000E+01 0. -1.
        -11    1    4    4    0    0  0.26093826209E+02 -0.91173406457E+02  0.39784589388E+03  0.40899246092E+03  0.00000000000E+00 0.  1.
         12    1    4    4    0    0 -0.29565567858E+01 -0.82425940138E+02  0.14898532950E+03  0.17029211738E+03  0.00000000000E+00 0. -1.
         -5    1    5    5    0  502  0.55197912795E+02  0.72696209307E+02  0.30373291913E+02  0.96312903010E+02  0.47000000000E+01 0.  1.
         13    1    6    6    0    0 -0.76760791920E+02  0.17739090745E+02  0.52840775292E+02  0.94863280832E+02  0.00000000000E+00 0. -1.
        -14    1    6    6    0    0 -0.47952395665E+01  0.52979153588E+02  0.33289696862E+02  0.62753397952E+02  0.00000000000E+00 0.  1.
</event>
<event>
12    1  0.8798177E-003  0.2152661E+03  0.7818608E-02  0.1138648E+00
         21   -1    0    0  501  502  0.00000000000E+00  0.00000000000E+00  0.52704492810E+02  0.52704492810E+02  0.00000000000E+00 0. -1.
         21   -1    0    0  502  503 -0.00000000000E+00 -0.00000000000E+00 -0.94257183284E+03  0.94257183284E+03  0.00000000000E+00 0. -1.
          6    2    1    2  501    0 -0.11812647949E+03  0.24908331560E+02 -0.28708285199E+03  0.35520708171E+03  0.17082510605E+03 0.  0.
         24    2    3    3    0    0 -0.17282337448E+01 -0.20984253841E+02 -0.13168433996E+03  0.15564388734E+03  0.80255395923E+02 0.  0.
         -6    2    1    2    0  503  0.11812647949E+03 -0.24908331560E+02 -0.60278448804E+03  0.64006924394E+03  0.17822796602E+03 0.  0.
        -24    2    5    5    0    0  0.12930083900E+03 -0.52818382637E+02 -0.58105454349E+03  0.60267783113E+03  0.78023695857E+02 0.  0.
          5    1    3    3  501    0 -0.11639824575E+03  0.45892585401E+02 -0.15539851203E+03  0.19956319438E+03  0.47000000000E+01 0. -1.
        -13    1    4    4    0    0 -0.22092665105E+02  0.63359744521E+00 -0.12261465734E+03  0.12459069585E+03  0.00000000000E+00 0.  1.
         14    1    4    4    0    0  0.20364431360E+02 -0.21617851286E+02 -0.90696826137E+01  0.31053191488E+02  0.00000000000E+00 0. -1.
         -5    1    5    5    0  503 -0.11174359506E+02  0.27910051078E+02 -0.21729944555E+02  0.37391412809E+02  0.47000000000E+01 0.  1.
         11    1    6    6    0    0  0.56821110752E+02 -0.19281937767E+02 -0.40417413725E+03  0.40860392188E+03  0.00000000000E+00 0. -1.
        -12    1    6    6    0    0  0.72479728245E+02 -0.33536444870E+02 -0.17688040623E+03  0.19407390925E+03  0.00000000000E+00 0.  1.
</event>
<event>
12    1  0.8798177E-003  0.2547294E+03  0.7818608E-02  0.1111039E+00
         21   -1    0    0  503  502  0.00000000000E+00  0.00000000000E+00  0.69636669938E+03  0.69636669938E+03  0.00000000000E+00 0.  1.
         21   -1    0    0  501  503 -0.00000000000E+00 -0.00000000000E+00 -0.11474564900E+03  0.11474564900E+03  0.00000000000E+00 0. -1.
          6    2    1    2  501    0  0.17511655891E+03 -0.48617752489E+02  0.11058989606E+03  0.27769984105E+03  0.17848692263E+03 0.  0.
         24    2    3    3    0    0  0.91792821497E+02 -0.69560402080E+02  0.38704280004E+01  0.14061382918E+03  0.80577274270E+02 0.  0.
         -6    2    1    2    0  502 -0.17511655891E+03  0.48617752489E+02  0.47103115433E+03  0.53341250733E+03  0.17213093727E+03 0.  0.
        -24    2    5    5    0    0 -0.46066368203E+02  0.70679926189E+02  0.17758850242E+03  0.21205387404E+03  0.79444364552E+02 0.  0.
          5    1    3    3  501    0  0.83323737409E+02  0.20942649591E+02  0.10671946806E+03  0.13708601187E+03  0.47000000000E+01 0. -1.
        -13    1    4    4    0    0 -0.89148700043E+01 -0.15473735431E+02  0.18090478299E+02  0.25420007877E+02  0.00000000000E+00 0.  1.
         14    1    4    4    0    0  0.10070769150E+03 -0.54086666648E+02 -0.14220050298E+02  0.11519382131E+03  0.00000000000E+00 0. -1.
         -5    1    5    5    0  502 -0.12905019070E+03 -0.22062173700E+02  0.29344265190E+03  0.32135863328E+03  0.47000000000E+01 0.  1.
         13    1    6    6    0    0  0.17925855282E+02 -0.25872443833E+01  0.35536897828E+02  0.39886103198E+02  0.00000000000E+00 0. -1.
        -14    1    6    6    0    0 -0.63992223485E+02  0.73267170572E+02  0.14205160460E+03  0.17216777085E+03  0.00000000000E+00 0.  1.
</event>
<event>
12    1  0.8798177E-003  0.2024693E+03  0.7818608E-02  0.1147677E+00
         21   -1    0    0  503  502  0.00000000000E+00  0.00000000000E+00  0.28755573876E+02  0.28755573876E+02  0.00000000000E+00 0. -1.
         21   -1    0    0  501  503 -0.00000000000E+00 -0.00000000000E+00 -0.16879943443E+04  0.16879943443E+04  0.00000000000E+00 0.  1.
          6    2    1    2  501    0 -0.97933908820E+02 -0.39466211511E+02 -0.11681942720E+04  0.11856102538E+04  0.17275758837E+03 0.  0.
         24    2    3    3    0    0 -0.47557564522E+02 -0.80845357776E+02 -0.53018386559E+03  0.54426059991E+03  0.79542287250E+02 0.  0.
         -6    2    1    2    0  502  0.97933908820E+02  0.39466211511E+02 -0.49104449841E+03  0.53113966440E+03  0.17273103755E+03 0.  0.
        -24    2    5    5    0    0  0.52415890315E+02  0.90867052957E+02 -0.34604210495E+03  0.37063508310E+03  0.81369401836E+02 0.  0.
          5    1    3    3  501    0 -0.50376344298E+02  0.41379146265E+02 -0.63801040643E+03  0.64134965387E+03  0.47000000000E+01 0. -1.
        -13    1    4    4    0    0 -0.24967224238E+02 -0.60371690877E+02 -0.48720918664E+03  0.49156982708E+03  0.00000000000E+00 0.  1.
         14    1    4    4    0    0 -0.22590340284E+02 -0.20473666899E+02 -0.42974678946E+02  0.52690772826E+02  0.00000000000E+00 0. -1.
         -5    1    5    5    0  502  0.45518018505E+02 -0.51400841446E+02 -0.14500239346E+03  0.16050458130E+03  0.47000000000E+01 0.  1.
         11    1    6    6    0    0 -0.65275704249E+01  0.85321105353E+01 -0.71310171670E+00  0.10766364284E+02  0.00000000000E+00 0. -1.
        -12    1    6    6    0    0  0.58943460740E+02  0.82334942422E+02 -0.34532900323E+03  0.35986871881E+03  0.00000000000E+00 0.  1.
</event>
<event>
12    1  0.8798177E-003  0.3769474E+03  0.7818608E-02  0.1052085E+00
         21   -1    0    0  501  502  0.00000000000E+00  0.00000000000E+00  0.78570160912E+03  0.78570160912E+03  0.00000000000E+00 0. -1.
         21   -1    0    0  502  503 -0.00000000000E+00 -0.00000000000E+00 -0.19479866065E+03  0.19479866065E+03  0.00000000000E+00 0.  1.
          6    2    1    2  501    0  0.32547696790E+03 -0.80270960207E+02  0.42702361804E+03  0.56947017148E+03  0.17195470962E+03 0.  0.
         24    2    3    3    0    0  0.11757500761E+03 -0.48751801434E+02  0.10139506686E+03  0.18181990925E+03  0.81098084194E+02 0.  0.
         -6    2    1    2    0  503 -0.32547696790E+03  0.80270960207E+02  0.16387933044E+03  0.41103009829E+03  0.17236769728E+03 0.  0.
        -24    2    5    5    0    0 -0.26778618422E+03  0.67009349765E+02  0.19280299041E+03  0.34497886862E+03  0.75084840494E+02 0.  0.
          5    1    3    3  501    0  0.20790196029E+03 -0.31519158772E+02  0.32562855118E+03  0.38765026223E+03  0.47000000000E+01 0. -1.
        -13    1    4    4    0    0  0.54294459593E+02  0.16415650953E+02  0.20899534995E+02  0.60449586447E+02  0.00000000000E+00 0.  1.
         14    1    4    4    0    0  0.63280548019E+02 -0.65167452387E+02  0.80495531864E+02  0.12137032281E+03  0.00000000000E+00 0. -1.
         -5    1    5    5    0  503 -0.57690783686E+02  0.13261610442E+02 -0.28923659974E+02  0.66051229664E+02  0.47000000000E+01 0.  1.
         13    1    6    6    0    0 -0.15631529960E+03  0.17545054581E+01  0.94597881787E+02  0.18271921195E+03  0.00000000000E+00 0. -1.
        -14    1    6    6    0    0 -0.11147088462E+03  0.65254844307E+02  0.98205108623E+02  0.16225965667E+03  0.00000000000E+00 0.  1.
</event>
<event>
12    1  0.8798177E-003  0.2726694E+03  0.7818608E-02  0.1099913E+00
         21   -1    0    0  503  502  0.00000000000E+00  0.00000000000E+00  0.83038264946E+03  0.83038264946E+03  0.00000000000E+00 0. -1.
         21   -1    0    0  501  503 -0.00000000000E+00 -0.00000000000E+00 -0.89185496595E+02  0.89185496595E+02  0.00000000000E+00 0. -1.
          6    2    1    2  501    0  0.20290190426E+03  0.57887132748E+02  0.36945117521E+03  0.45917617605E+03  0.17270925538E+03 0.  0.
         24    2    3    3    0    0  0.14535276279E+03  0.46147275688E+02  0.13824461992E+03  0.22057967746E+03  0.79289485236E+02 0.  0.
         -6    2    1    2    0  502 -0.20290190426E+03 -0.57887132748E+02  0.37174597766E+03  0.46039197001E+03  0.17101342419E+03 0.  0.
        -24    2    5    5    0    0 -0.14386647305E+03 -0.38992923029E+02  0.35772225897E+03  0.39666655918E+03  0.84623486658E+02 0.  0.
          5    1    3    3  501    0  0.57549141478E+02  0.11739857061E+02  0.23120655529E+03  0.23859649859E+03  0.47000000000E+01 0. -1.
        -13    1    4    4    0    0  0.22895031546E+02 -0.12112396650E+02  0.56711511488E+02  0.62346516802E+02  0.00000000000E+00 0.  1.
         14    1    4    4    0    0  0.12245773124E+03  0.58259672338E+02  0.81533108429E+02  0.15823316066E+03  0.00000000000E+00 0. -1.
         -5    1    5    5    0  502 -0.59035431216E+02 -0.18894209720E+02  0.14023718689E+02  0.63725410831E+02  0.47000000000E+01 0.  1.
         11    1    6    6    0    0 -0.12335433626E+03 -0.24530591330E+02  0.19514127237E+03  0.23215976905E+03  0.00000000000E+00 0. -1.
        -12    1    6    6    0    0 -0.20512136794E+02 -0.14462331699E+02  0.16258098660E+03  0.16450679013E+03  0.00000000000E+00 0.  1.
</event>
<event>
12    1  0.8798177E-003  0.2317758E+03  0.7818608E-02  0.1125557E+00
         21   -1    0    0  503  502  0.00000000000E+00  0.00000000000E+00  0.46312082616E+02  0.46312082616E+02  0.00000000000E+00 0. -1.
         21   -1    0    0  501  503 -0.00000000000E+00 -0.00000000000E+00 -0.14908895904E+04  0.14908895904E+04  0.00000000000E+00 0. -1.
          6    2    1    2  501    0 -0.10083284155E+03 -0.11339031288E+03 -0.10880231261E+04  0.11124362274E+04  0.17520106167E+03 0.  0.
         24    2    3    3    0    0  0.13273102979E+02 -0.30158001169E+02 -0.52211901970E+03  0.52915470704E+03  0.79440247741E+02 0.  0.
         -6    2    1    2    0  502  0.10083284155E+03  0.11339031288E+03 -0.35655438168E+03  0.42476544566E+03  0.17398284899E+03 0.  0.
        -24    2    5    5    0    0  0.57229509939E+02  0.11827288035E+03 -0.15393151056E+03  0.21739329735E+03  0.79380380169E+02 0.  0.
          5    1    3    3  501    0 -0.11410594453E+03 -0.83232311708E+02 -0.56590410643E+03  0.58328152033E+03  0.47000000000E+01 0. -1.
        -11    1    4    4    0    0  0.12370735593E+02  0.19093338286E+02 -0.56072296577E+02  0.60511925349E+02  0.00000000000E+00 0.  1.
         12    1    4    4    0    0  0.90236738641E+00 -0.49251339454E+02 -0.46604672312E+03  0.46864278169E+03  0.00000000000E+00 0. -1.
         -5    1    5    5    0  502  0.43603331610E+02 -0.48825674749E+01 -0.20262287112E+03  0.20737214831E+03  0.47000000000E+01 0.  1.
         13    1    6    6    0    0  0.61553456672E+02  0.39213573238E+02 -0.59524802000E+02  0.94179267397E+02  0.00000000000E+00 0. -1.
        -14    1    6    6    0    0 -0.43239467327E+01  0.79059307114E+02 -0.94406708559E+02  0.12321402995E+03  0.00000000000E+00 0.  1.
</event>
<event>
12    1  0.8798177E-003  0.2187547E+03  0.7818608E-02  0.1134887E+00
         21   -1    0    0  501  502  0.00000000000E+00  0.00000000000E+00  0.12477055741E+03  0.12477055741E+03  0.00000000000E+00 0.  1.
         21   -1    0    0  502  503 -0.00000000000E+00 -0.00000000000E+00 -0.41638855047E+03  0.41638855047E+03  0.00000000000E+00 0. -1.
          6    2    1    2  501    0  0.83840514335E+02 -0.10639485631E+03 -0.69149291328E+02  0.22942372413E+03  0.17176880802E+03 0.  0.
         24    2    3    3    0    0  0.68163437718E+02 -0.21186971900E+02 -0.88719533123E+02  0.14047858002E+03  0.82267453265E+02 0.  0.
         -6    2    1    2    0  503 -0.83840514335E+02  0.10639485631E+03 -0.22246870173E+03  0.31173538375E+03  0.17128201580E+03 0.  0.
        -24    2    5    5    0    0 -0.47435579053E+02  0.32489095267E+02 -0.39902606910E+02  0.11138606429E+03  0.86654265955E+02 0.  0.
          5    1    3    3  501    0  0.15677076617E+02 -0.85207884413E+02  0.19570241794E+02  0.88945144113E+02  0.47000000000E+01 0. -1.
        -11    1    4    4    0    0  0.40257974779E+02 -0.99559246566E+01  0.52593515059E+01  0.41802939458E+02  0.00000000000E+00 0.  1.
         12    1    4    4    0    0  0.27905462939E+02 -0.11231047243E+02 -0.93978884628E+02  0.98675640561E+02  0.00000000000E+00 0. -1.
         -5    1    5    5    0  503 -0.36404935282E+02  0.73905761045E+02 -0.18256609482E+03  0.20034931946E+03  0.47000000000E+01 0.  1.
         13    1    6    6    0    0  0.16719569579E+02  0.36721266920E+00 -0.35809273797E+02  0.39521929886E+02  0.00000000000E+00 0. -1.
        -14    1    6    6    0    0 -0.64155148631E+02  0.32121882598E+02 -0.40933331135E+01  0.71864134403E+02  0.00000000000E+00 0.  1.
</event>
<event>
12    1  0.8798177E-003  0.1844883E+03  0.7818608E-02  0.1163843E+00
         21   -1    0    0  501  502  0.00000000000E+00  0.00000000000E+00  0.17684169937E+03  0.17684169937E+03  0.00000000000E+00 0.  1.
         21   -1    0    0  502  503 -0.00000000000E+00 -0.00000000000E+00 -0.25051599307E+03  0.25051599307E+03  0.00000000000E+00 0.  1.
          6    2    1    2  501    0 -0.21493904252E+02  0.59994709660E+02  0.67350595493E+02  0.19514241297E+03  0.17170645160E+03 0.  0.
         24    2    3    3    0    0 -0.23345149516E+02  0.66026604888E+02  0.10932180961E+03  0.15244014508E+03  0.79888867904E+02 0.  0.
         -6    2    1    2    0  503  0.21493904252E+02 -0.59994709660E+02 -0.14102488919E+03  0.23221527947E+03  0.17313163645E+03 0.  0.
        -24    2    5    5    0    0  0.79688218421E+01 -0.82998941017E+02 -0.38457852626E+02  0.12612942035E+03  0.86471370510E+02 0.  0.
          5    1    3    3  501    0  0.18512452640E+01 -0.60318952286E+01 -0.41971214118E+02  0.42702267898E+02  0.47000000000E+01 0. -1.
        -11    1    4    4    0    0  0.14896322071E+02  0.25802617593E+02  0.88131406089E+02  0.93031286271E+02  0.00000000000E+00 0.  1.
         12    1    4    4    0    0 -0.38241471587E+02  0.40223987295E+02  0.21190403522E+02  0.59408858805E+02  0.00000000000E+00 0. -1.
         -5    1    5    5    0  503  0.13525082410E+02  0.23004231357E+02 -0.10256703656E+03  0.10608585912E+03  0.47000000000E+01 0.  1.
         13    1    6    6    0    0  0.10103631949E+02 -0.96278544246E+01  0.25305944131E+02  0.28899303932E+02  0.00000000000E+00 0. -1.
        -14    1    6    6    0    0 -0.21348101068E+01 -0.73371086592E+02 -0.63763796757E+02  0.97230116419E+02  0.00000000000E+00 0.  1.
</event>
<event>
12    1  0.8798177E-003  0.1847051E+03  0.7818608E-02  0.1163389E+00
         21   -1    0    0  501  502  0.00000000000E+00  0.00000000000E+00  0.85148895877E+02  0.85148895877E+02  0.00000000000E+00 0.  1.
         21   -1    0    0  502  503 -0.00000000000E+00 -0.00000000000E+00 -0.48510156005E+03  0.48510156005E+03  0.00000000000E+00 0.  1.
          6    2    1    2  501    0 -0.60745619753E+02  0.27504544079E+02 -0.80726971499E+02  0.20157580181E+03  0.17224816308E+03 0.  0.
         24    2    3    3    0    0 -0.28745050558E+02  0.57496377836E+02  0.57265640461E+01  0.10451988840E+03  0.82216191465E+02 0.  0.
         -6    2    1    2    0  503  0.60745619753E+02 -0.27504544079E+02 -0.31922569267E+03  0.36867465411E+03  0.17195763274E+03 0.  0.
        -24    2    5    5    0    0  0.39496403429E+02  0.16147833931E+02 -0.68108882197E+02  0.11286456478E+03  0.79239331929E+02 0.  0.
          5    1    3    3  501    0 -0.32000569195E+02 -0.29991833757E+02 -0.86453535545E+02  0.97055913417E+02  0.47000000000E+01 0. -1.
        -11    1    4    4    0    0 -0.48006502583E+02  0.65405060537E+02  0.13590118835E+02  0.82262613404E+02  0.00000000000E+00 0.  1.
         12    1    4    4    0    0  0.19261452025E+02 -0.79086827018E+01 -0.78635547893E+01  0.22257274993E+02  0.00000000000E+00 0. -1.
         -5    1    5    5    0  503  0.21249216323E+02 -0.43652378010E+02 -0.25111681047E+03  0.25581008933E+03  0.47000000000E+01 0.  1.
         13    1    6    6    0    0  0.12451151052E+02  0.39372313451E+02 -0.65095966340E+02  0.77088877686E+02  0.00000000000E+00 0. -1.
        -14    1    6    6    0    0  0.27045252377E+02 -0.23224479520E+02 -0.30129158562E+01  0.35775687095E+02  0.00000000000E+00 0.  1.
</event>
<event>
12    1  0.8798177E-003  0.2543358E+03  0.7818608E-02  0.1110681E+00
         21   -1    0    0  501  502  0.00000000000E+00  0.00000000000E+00  0.17597585598E+03  0.17597585598E+03  0.00000000000E+00 0. -1.
         21   -1    0    0  502  503 -0.00000000000E+00 -0.00000000000E+00 -0.39975158737E+03  0.39975158737E+03  0.00000000000E+00 0.  1.
          6    2    1    2  501    0 -0.69011090838E+02 -0.17467922133E+03 -0.29112227851E+02  0.25544540616E+03  0.17067358524E+03 0.  0.
         24    2    3    3    0    0 -0.12402050926E+02 -0.12598803989E+03  0.38270656973E+02  0.15475798035E+03  0.80365367132E+02 0.  0.
         -6    2    1    2    0  503  0.69011090838E+02  0.17467922133E+03 -0.19466350354E+03  0.32028203720E+03  0.17149735484E+03 0.  0.
        -24    2    5    5    0    0  0.64127603438E+02  0.37131739020E+02 -0.12748446167E+03  0.16705582532E+03  0.78512707517E+02 0.  0.
          5    1    3    3  501    0 -0.56609039912E+02 -0.48691181435E+02 -0.67382884824E+02  0.10068742581E+03  0.47000000000E+01 0. -1.
        -11    1    4    4    0    0  0.24313367791E+01  0.10924987997E+02 -0.17918513848E+01  0.11334791249E+02  0.00000000000E+00 0.  1.
         12    1    4    4    0    0 -0.14833387705E+02 -0.13691302789E+03  0.40062508358E+02  0.14342318910E+03  0.00000000000E+00 0. -1.
         -5    1    5    5    0  503  0.48834873996E+01  0.13754748231E+03 -0.67179041871E+02  0.15322621187E+03  0.47000000000E+01 0.  1.
         11    1    6    6    0    0  0.57590768222E+02 -0.15906833479E+01 -0.37142265482E+02  0.68547609316E+02  0.00000000000E+00 0. -1.
        -12    1    6    6    0    0  0.65368352163E+01  0.38722422368E+02 -0.90342196188E+02  0.98508216006E+02  0.00000000000E+00 0.  1.
</event>
<event>
12    1  0.8798177E-003  0.2063309E+03  0.7818608E-02  0.1144598E+00
         21   -1    0    0  501  502  0.00000000000E+00  0.00000000000E+00  0.12906269589E+03  0.12906269589E+03  0.00000000000E+00 0. -1.
         21   -1    0    0  502  503 -0.00000000000E+00 -0.00000000000E+00 -0.40965047035E+03  0.40965047035E+03  0.00000000000E+00 0.  1.
          6    2    1    2  501    0  0.35618882859E+02  0.10819853046E+03 -0.20998920259E+02  0.20739667693E+03  0.17203720568E+03 0.  0.
         24    2    3    3    0    0  0.62932358722E+02  0.10318563738E+03 -0.62259190058E+02  0.15744014658E+03  0.79394177823E+02 0.  0.
         -6    2    1    2    0  503 -0.35618882859E+02 -0.10819853046E+03 -0.25958885420E+03  0.33131648932E+03  0.17148940510E+03 0.  0.
        -24    2    5    5    0    0 -0.82635646568E+02 -0.10918877853E+03 -0.22288412806E+03  0.27147600485E+03  0.72601978115E+02 0.  0.
          5    1    3    3  501    0 -0.27313475863E+02  0.50128930768E+01  0.41260269798E+02  0.49956530349E+02  0.47000000000E+01 0. -1.
        -11    1    4    4    0    0  0.58547618912E+02  0.22886882084E+02 -0.16825042430E+02  0.65074688662E+02  0.00000000000E+00 0.  1.
         12    1    4    4    0    0  0.43847398103E+01  0.80298755297E+02 -0.45434147628E+02  0.92365457917E+02  0.00000000000E+00 0. -1.
         -5    1    5    5    0  503  0.47016763709E+02  0.99024806919E+00 -0.36704726133E+02  0.59840484468E+02  0.47000000000E+01 0.  1.
         11    1    6    6    0    0 -0.16752349557E+02 -0.63120448635E+02 -0.55171891378E+02  0.85491343712E+02  0.00000000000E+00 0. -1.
        -12    1    6    6    0    0 -0.65883297011E+02 -0.46068329893E+02 -0.16771223669E+03  0.18598466114E+03  0.00000000000E+00 0.  1.
</event>
<event>
12    1  0.8798177E-003  0.2336621E+03  0.7818608E-02  0.1124163E+00
         21   -1    0    0  501  502  0.00000000000E+00  0.00000000000E+00  0.90282825707E+02  0.90282825707E+02  0.00000000000E+00 0.  1.
         21   -1    0    0  502  503 -0.00000000000E+00 -0.00000000000E+00 -0.76861728090E+03  0.76861728090E+03  0.00000000000E+00 0. -1.
          6    2    1    2  501    0 -0.11234736804E+03  0.11101544208E+03 -0.14044390522E+03  0.27262146370E+03  0.17219643570E+03 0.  0.
         24    2    3    3    0    0 -0.10115572249E+03  0.14354814918E+03 -0.13845380473E+03  0.23784100279E+03  0.80995896416E+02 0.  0.
         -6    2    1    2    0  503  0.11234736804E+03 -0.11101544208E+03 -0.53789054997E+03  0.58627864291E+03  0.17161015091E+03 0.  0.
        -24    2    5    5    0    0  0.94438630792E+02 -0.11885337388E+03 -0.28449511991E+03  0.33208680587E+03  0.79368721209E+02 0.  0.
          5    1    3    3  501    0 -0.11191645551E+02 -0.32532707099E+02 -0.19901004906E+01  0.34780460913E+02  0.47000000000E+01 0. -1.
        -13    1    4    4    0    0 -0.82266153942E+02  0.83016925131E+02 -0.12842143326E+03  0.17364214483E+03  0.00000000000E+00 0.  1.
         14    1    4    4    0    0 -0.18889568549E+02  0.60531224052E+02 -0.10032371474E+02  0.64198857954E+02  0.00000000000E+00 0. -1.
         -5    1    5    5    0  503  0.17908737250E+02  0.78379317977E+01 -0.25339543006E+03  0.25419183704E+03  0.47000000000E+01 0.  1.
         13    1    6    6    0    0  0.68815949210E+02 -0.33424436620E+02 -0.17408494120E+03  0.19015360785E+03  0.00000000000E+00 0. -1.
        -14    1    6    6    0    0  0.25622681582E+02 -0.85428937262E+02 -0.11041017872E+03  0.14193319801E+03  0.00000000000E+00 0.  1.
</event>
<event>
12    1  0.8798177E-003  0.2368280E+03  0.7818608E-02  0.1122028E+00
         21   -1    0    0  503  502  0.00000000000E+00  0.00000000000E+00  0.14090621503E+03  0.14090621503E+03  0.00000000000E+00 0.  1.
         21   -1    0    0  501  503 -0.00000000000E+00 -0.00000000000E+00 -0.51877196285E+03  0.51877196285E+03  0.00000000000E+00 0. -1.
          6    2    1    2  501    0  0.18870052881E+02  0.16056081281E+03 -0.34891408352E+03  0.42169721872E+03  0.17306545897E+03 0.  0.
         24    2    3    3    0    0 -0.22054880499E+02  0.20935151280E+02 -0.10096430256E+03  0.13417094268E+03  0.82965975899E+02 0.  0.
         -6    2    1    2    0  502 -0.18870052881E+02 -0.16056081281E+03 -0.28951664302E+02  0.23798095917E+03  0.17222335659E+03 0.  0.
        -24    2    5    5    0    0 -0.43559598504E+02 -0.12733037585E+03  0.35951057601E+02  0.16085580818E+03  0.80446561450E+02 0.  0.
          5    1    3    3  501    0  0.40924933380E+02  0.13962566154E+03 -0.24794978096E+03  0.28752627604E+03  0.47000000000E+01 0. -1.
        -13    1    4    4    0    0  0.10660734705E+02 -0.59696740636E+01  0.97492110431E+01  0.15631231200E+02  0.00000000000E+00 0.  1.
         14    1    4    4    0    0 -0.32715615204E+02  0.26904825343E+02 -0.11071351360E+03  0.11853971148E+03  0.00000000000E+00 0. -1.
         -5    1    5    5    0  502  0.24689545623E+02 -0.33230436969E+02 -0.64902721902E+02  0.77125150985E+02  0.47000000000E+01 0.  1.
         13    1    6    6    0    0 -0.59999359577E+02 -0.69340340428E+02  0.20866280499E+01  0.91718918315E+02  0.00000000000E+00 0. -1.
        -14    1    6    6    0    0  0.16439761073E+02 -0.57990035418E+02  0.33864429551E+02  0.69136889869E+02  0.00000000000E+00 0.  1.
</event>
<event>
12    1  0.8798177E-003  0.1927964E+03  0.7818608E-02  0.1156071E+00
         21   -1    0    0  503  502  0.00000000000E+00  0.00000000000E+00  0.95870407944E+02  0.95870407944E+02  0.00000000000E+00 0.  1.
         21   -1    0    0  501  503 -0.00000000000E+00 -0.00000000000E+00 -0.45294238288E+03  0.45294238288E+03  0.00000000000E+00 0.  1.
          6    2    1    2  501    0 -0.60877704492E+02 -0.64270229950E+02 -0.73818121897E+02  0.20644509539E+03  0.17127085253E+03 0.  0.
         24    2    3    3    0    0 -0.56357534124E+01  0.79764902092E+01  0.13332820618E+02  0.80394952530E+02  0.78677812464E+02 0.  0.
         -6    2    1    2    0  502  0.60877704492E+02  0.64270229950E+02 -0.28325385304E+03  0.34236769544E+03  0.17072239530E+03 0.  0.
        -24    2    5    5    0    0  0.29623596095E+02 -0.29731532647E+02 -0.10973272776E+03  0.14250568909E+03  0.80654066251E+02 0.  0.
          5    1    3    3  501    0 -0.55241951079E+02 -0.72246720159E+02 -0.87150942515E+02  0.12605014286E+03  0.47000000000E+01 0. -1.
        -13    1    4    4    0    0 -0.38504162048E+02 -0.12571807514E+02  0.75725518252E+01  0.41206363347E+02  0.00000000000E+00 0.  1.
         14    1    4    4    0    0  0.32868408635E+02  0.20548297723E+02  0.57602687925E+01  0.39188589182E+02  0.00000000000E+00 0. -1.
         -5    1    5    5    0  502  0.31254108397E+02  0.94001762596E+02 -0.17352112528E+03  0.19986200634E+03  0.47000000000E+01 0.  1.
         11    1    6    6    0    0 -0.61272785145E+01  0.23542238512E+02 -0.46203129663E+02  0.52215991102E+02  0.00000000000E+00 0. -1.
        -12    1    6    6    0    0  0.35750874609E+02 -0.53273771158E+02 -0.63529598097E+02  0.90289697990E+02  0.00000000000E+00 0.  1.
</event>
<event>
12    1  0.8798177E-003  0.1835406E+03  0.7818608E-02  0.1166500E+00
         21   -1    0    0  501  502  0.00000000000E+00  0.00000000000E+00  0.29383171032E+03  0.29383171032E+03  0.00000000000E+00 0. -1.
         21   -1    0    0  502  503 -0.00000000000E+00 -0.00000000000E+00 -0.11859472898E+03  0.11859472898E+03  0.00000000000E+00 0. -1.
          6    2    1    2  501    0 -0.55298412717E+02 -0.11975526971E+02  0.14713809358E+03  0.23523772553E+03  0.17460195083E+03 0.  0.
         24    2    3    3    0    0 -0.50830432724E+02  0.59602062262E+02  0.94052865819E+02  0.14588759664E+03  0.79379534947E+02 0.  0.
         -6    2    1    2    0  503  0.55298412717E+02  0.11975526971E+02  0.28098887755E+02  0.17718871378E+03  0.16554445053E+03 0.  0.
        -24    2    5    5    0    0  0.44827933470E+01 -0.21138652348E+02 -0.29922677521E+02  0.93121073861E+02  0.85494033170E+02 0.  0.
          5    1    3    3  501    0 -0.44679799931E+01 -0.71577589232E+02  0.53085227765E+02  0.89350128889E+02  0.47000000000E+01 0. -1.
        -13    1    4    4    0    0 -0.30414958119E+01  0.13923883686E+02 -0.13507296388E+02  0.19635994739E+02  0.00000000000E+00 0.  1.
         14    1    4    4    0    0 -0.47788936912E+02  0.45678178575E+02  0.10756016221E+03  0.12625160190E+03  0.00000000000E+00 0. -1.
         -5    1    5    5    0  503  0.50815619370E+02  0.33114179319E+02  0.58021565277E+02  0.84067639916E+02  0.47000000000E+01 0.  1.
         13    1    6    6    0    0  0.39692440125E+02  0.75725837868E+01 -0.34887471192E+01  0.40558663498E+02  0.00000000000E+00 0. -1.
        -14    1    6    6    0    0 -0.35209646778E+02 -0.28711236135E+02 -0.26433930402E+02  0.52562410363E+02  0.00000000000E+00 0.  1.
</event>
<event>
12    1  0.8798177E-003  0.2207260E+03  0.7818608E-02  0.1133501E+00
         21   -1    0    0  501  502  0.00000000000E+00  0.00000000000E+00  0.58844291935E+02  0.58844291935E+02  0.00000000000E+00 0.  1.
         21   -1    0    0  502  503 -0.00000000000E+00 -0.00000000000E+00 -0.86086245063E+03  0.86086245063E+03  0.00000000000E+00 0.  1.
          6    2    1    2  501    0 -0.69159364757E+02 -0.11870175126E+03 -0.30757407531E+03  0.37857864566E+03  0.17276242547E+03 0.  0.
         24    2    3    3    0    0 -0.42426986904E+02 -0.80817620470E+02 -0.30939538014E+03  0.33193923590E+03  0.78272716053E+02 0.  0.
         -6    2    1    2    0  503  0.69159364757E+02  0.11870175126E+03 -0.49444408338E+03  0.54112809691E+03  0.17167277649E+03 0.  0.
        -24    2    5    5    0    0  0.18412567940E+02  0.65815030253E+02 -0.12039672681E+03  0.15993817364E+03  0.80088742624E+02 0.  0.
          5    1    3    3  501    0 -0.26732377853E+02 -0.37884130789E+02  0.18213048275E+01  0.46639409758E+02  0.47000000000E+01 0. -1.
        -13    1    4    4    0    0  0.46844348822E+01 -0.17067287857E+02 -0.65180988949E+01  0.18860590080E+02  0.00000000000E+00 0.  1.
         14    1    4    4    0    0 -0.47111421786E+02 -0.63750332613E+02 -0.30287728125E+03  0.31307864582E+03  0.00000000000E+00 0. -1.
         -5    1    5    5    0  503  0.50746796817E+02  0.52886721007E+02 -0.37404735656E+03  0.38118992327E+03  0.47000000000E+01 0.  1.
         13    1    6    6    0    0  0.16489361249E+02 -0.10416305062E+02 -0.26889856493E+01  0.19688298285E+02  0.00000000000E+00 0. -1.
        -14    1    6    6    0    0  0.19232066917E+01  0.76231335314E+02 -0.11770774116E+03  0.14024987536E+03  0.00000000000E+00 0.  1.
</event>
<event>
12    1  0.8798177E-003  0.1858713E+03  0.7818608E-02  0.1162751E+00
         21   -1    0    0  501  502  0.00000000000E+00  0.00000000000E+00  0.12256307080E+04  0.12256307080E+04  0.00000000000E+00 0.  1.
         21   -1    0    0  502  503 -0.00000000000E+00 -0.00000000000E+00 -0.27883420854E+02  0.27883420854E+02  0.00000000000E+00 0.  1.
          6    2    1    2  501    0  0.65265176593E+02 -0.18744974813E+02  0.61480952182E+03  0.64166073281E+03  0.17066584471E+03 0.  0.
         24    2    3    3    0    0  0.57823238299E+02 -0.62155983840E+02  0.55511603849E+03  0.56732837039E+03  0.80627355449E+02 0.  0.
         -6    2    1    2    0  503 -0.65265176593E+02  0.18744974813E+02  0.58293776531E+03  0.61185339603E+03  0.17302376326E+03 0.  0.
        -24    2    5    5    0    0 -0.38678616574E+02  0.69999858415E+02  0.25229674073E+03  0.27617574500E+03  0.78888409699E+02 0.  0.
          5    1    3    3  501    0  0.74419382937E+01  0.43411009027E+02  0.59693483330E+02  0.74332362416E+02  0.47000000000E+01 0. -1.
        -13    1    4    4    0    0  0.21158828628E+02 -0.58351177436E+02  0.17990915043E+03  0.19031515533E+03  0.00000000000E+00 0.  1.
         14    1    4    4    0    0  0.36664409672E+02 -0.38048064038E+01  0.37520688806E+03  0.37701321507E+03  0.00000000000E+00 0. -1.
         -5    1    5    5    0  503 -0.26586560019E+02 -0.51254883603E+02  0.33064102458E+03  0.33567765103E+03  0.47000000000E+01 0.  1.
         13    1    6    6    0    0  0.13166931458E+02  0.85797354342E+01  0.12252508589E+03  0.12352884933E+03  0.00000000000E+00 0. -1.
        -14    1    6    6    0    0 -0.51845548032E+02  0.61420122981E+02  0.12977165483E+03  0.15264689566E+03  0.00000000000E+00 0.  1.
</event>
<event>
12    1  0.8798177E-003  0.1827654E+03  0.7818608E-02  0.1165353E+00
         21   -1    0    0  503  502  0.00000000000E+00  0.00000000000E+00  0.19115584111E+04  0.19115584111E+04  0.00000000000E+00 0. -1.
         21   -1    0    0  501  503 -0.00000000000E+00 -0.00000000000E+00 -0.22230442359E+02  0.22230442359E+02  0.00000000000E+00 0. -1.
          6    2    1    2  501    0  0.34950772677E+02  0.48392349682E+02  0.13973571345E+04  0.14092587182E+04  0.17274199728E+03 0.  0.
         24    2    3    3    0    0  0.61578143303E+02 -0.20258145111E+02  0.97729850931E+03  0.98276927419E+03  0.80751531379E+02 0.  0.
         -6    2    1    2    0  502 -0.34950772677E+02 -0.48392349682E+02  0.49197083433E+03  0.52453013529E+03  0.17185221843E+03 0.  0.
        -24    2    5    5    0    0 -0.62574315914E+02 -0.50850460259E+02  0.48008267444E+03  0.49399293185E+03  0.83954321481E+02 0.  0.
          5    1    3    3  501    0 -0.26627370626E+02  0.68650494793E+02  0.42005862515E+03  0.42648944402E+03  0.47000000000E+01 0. -1.
        -13    1    4    4    0    0  0.69100157452E+01 -0.25872711420E+02  0.93380804635E+02  0.97144841284E+02  0.00000000000E+00 0.  1.
         14    1    4    4    0    0  0.54668127558E+02  0.56145663087E+01  0.88391770468E+03  0.88562443291E+03  0.00000000000E+00 0. -1.
         -5    1    5    5    0  502  0.27623543237E+02  0.24581105772E+01  0.11888159886E+02  0.30537203442E+02  0.47000000000E+01 0.  1.
         13    1    6    6    0    0 -0.67304480969E+02 -0.27461394873E+01  0.30583367895E+03  0.31316397242E+03  0.00000000000E+00 0. -1.
        -14    1    6    6    0    0  0.47301650553E+01 -0.48104320772E+02  0.17424899549E+03  0.18082895943E+03  0.00000000000E+00 0.  1.
</event>
<event>
12    1  0.8798177E-003  0.1813859E+03  0.7818608E-02  0.1166998E+00
         21   -1    0    0  501  502  0.00000000000E+00  0.00000000000E+00  0.13536387302E+04  0.13536387302E+04  0.00000000000E+00 0.  1.
         21   -1    0    0  502  503 -0.00000000000E+00 -0.00000000000E+00 -0.24034559563E+02  0.24034559563E+02  0.00000000000E+00 0.  1.
          6    2    1    2  501    0  0.50148092243E+02  0.22458764408E+01  0.64786678027E+03  0.67277947661E+03  0.17430141725E+03 0.  0.
         24    2    3    3    0    0 -0.83964313794E+01 -0.21365568724E+02  0.15964328686E+03  0.18046938012E+03  0.80970553504E+02 0.  0.
         -6    2    1    2    0  503 -0.50148092243E+02 -0.22458764408E+01  0.68173739032E+03  0.70489381311E+03  0.17201611342E+03 0.  0.
        -24    2    5    5    0    0 -0.18401444222E+02  0.22014488432E+01  0.14450505874E+03  0.16668539952E+03  0.80986732766E+02 0.  0.
          5    1    3    3  501    0  0.58544523622E+02  0.23611445164E+02  0.48822349342E+03  0.49231009650E+03  0.47000000000E+01 0. -1.
        -11    1    4    4    0    0 -0.16709814395E+02  0.28700914329E+02  0.69289999974E+02  0.76837910414E+02  0.00000000000E+00 0.  1.
         12    1    4    4    0    0  0.83133830155E+01 -0.50066483052E+02  0.90353286882E+02  0.10363146970E+03  0.00000000000E+00 0. -1.
         -5    1    5    5    0  503 -0.31746648021E+02 -0.44473252840E+01  0.53723233158E+03  0.53820841359E+03  0.47000000000E+01 0.  1.
         13    1    6    6    0    0 -0.32708937857E+02 -0.19530464610E+02  0.13279753969E+03  0.13815390045E+03  0.00000000000E+00 0. -1.
        -14    1    6    6    0    0  0.14307493635E+02  0.21731913453E+02  0.11707519054E+02  0.28531499064E+02  0.00000000000E+00 0.  1.
</event>
<event>
12    1  0.8798177E-003  0.2766556E+03  0.7818608E-02  0.1098206E+00
         21   -1    0    0  501  502  0.00000000000E+00  0.00000000000E+00  0.72901356719E+02  0.72901356719E+02  0.00000000000E+00 0. -1.
         21   -1    0    0  502  503 -0.00000000000E+00 -0.00000000000E+00 -0.11015471544E+04  0.11015471544E+04  0.00000000000E+00 0. -1.
          6    2    1    2  501    0  0.20838036024E+03  0.35348050554E+02 -0.37063649175E+03  0.46250373424E+03  0.17851172498E+03 0.  0.
         24    2    3    3    0    0  0.11616076081E+03  0.83785870083E+02 -0.28708009704E+03  0.32888323440E+03  0.72358865210E+02 0.  0.
         -6    2    1    2    0  503 -0.20838036024E+03 -0.35348050554E+02 -0.65800930596E+03  0.71194477691E+03  0.17093056902E+03 0.  0.
        -24    2    5    5    0    0 -0.21888398195E+03 -0.60350623386E+02 -0.61435241092E+03  0.66033596757E+03  0.84037550907E+02 0.  0.
          5    1    3    3  501    0  0.92219599428E+02 -0.48437819530E+02 -0.83556394703E+02  0.13362049983E+03  0.47000000000E+01 0. -1.
        -13    1    4    4    0    0  0.43073114857E+02  0.40818737484E+02 -0.19448613117E+03  0.20333793982E+03  0.00000000000E+00 0.  1.
         14    1    4    4    0    0  0.73087645958E+02  0.42967132599E+02 -0.92593965872E+02  0.12554529458E+03  0.00000000000E+00 0. -1.
         -5    1    5    5    0  503  0.10503621707E+02  0.25002572832E+02 -0.43656895041E+02  0.51608809343E+02  0.47000000000E+01 0.  1.
         11    1    6    6    0    0 -0.16660055865E+03 -0.28853495962E+02 -0.52928787753E+03  0.55563830652E+03  0.00000000000E+00 0. -1.
        -12    1    6    6    0    0 -0.52283423303E+02 -0.31497127424E+02 -0.85064533393E+02  0.10469766105E+03  0.00000000000E+00 0.  1.
</event>
<event>
12    1  0.8798177E-003  0.1896873E+03  0.7818608E-02  0.1159167E+00
         21   -1    0    0  503  502  0.00000000000E+00  0.00000000000E+00  0.54033841342E+02  0.54033841342E+02  0.00000000000E+00 0.  1.
         21   -1    0    0  501  503 -0.00000000000E+00 -0.00000000000E+00 -0.68174341698E+03  0.68174341698E+03  0.00000000000E+00 0.  1.
          6    2    1    2  501    0 -0.80629344078E+02 -0.10443123094E+01 -0.38199096328E+03  0.42649544625E+03  0.17169475220E+03 0.  0.
         24    2    3    3    0    0  0.13843670905E+02 -0.37094866191E+02 -0.16997618269E+03  0.19155470866E+03  0.78953324215E+02 0.  0.
         -6    2    1    2    0  502  0.80629344078E+02  0.10443123094E+01 -0.24571861236E+03  0.30928181207E+03  0.16963319575E+03 0.  0.
        -24    2    5    5    0    0  0.48501207115E+02 -0.63259182560E+02 -0.13164124441E+03  0.17436371649E+03  0.81970708959E+02 0.  0.
          5    1    3    3  501    0 -0.94473014983E+02  0.36050553882E+02 -0.21201478058E+03  0.23494073759E+03  0.47000000000E+01 0. -1.
        -13    1    4    4    0    0 -0.13704651844E+02  0.70202672183E+01 -0.11442405145E+03  0.11545546840E+03  0.00000000000E+00 0.  1.
         14    1    4    4    0    0  0.27548322749E+02 -0.44115133409E+02 -0.55552131247E+02  0.76099240260E+02  0.00000000000E+00 0. -1.
         -5    1    5    5    0  502  0.32128136962E+02  0.64303494870E+02 -0.11407736794E+03  0.13491809558E+03  0.47000000000E+01 0.  1.
         13    1    6    6    0    0 -0.16588508528E+02 -0.23964500562E+02 -0.72179923317E+02  0.77842258655E+02  0.00000000000E+00 0. -1.
        -14    1    6    6    0    0  0.65089715644E+02 -0.39294681998E+02 -0.59461321096E+02  0.96521457834E+02  0.00000000000E+00 0.  1.
</event>
<event>
12    1  0.8798177E-003  0.2312970E+03  0.7818608E-02  0.1125957E+00
         21   -1    0    0  501  502  0.00000000000E+00  0.00000000000E+00  0.10652667359E+03  0.10652667359E+03  0.00000000000E+00 0. -1.
         21   -1    0    0  502  503 -0.00000000000E+00 -0.00000000000E+00 -0.53359429333E+03  0.53359429333E+03  0.00000000000E+00 0.  1.
          6    2    1    2  501    0 -0.54928055619E+02 -0.14281672658E+03 -0.13307187745E+03  0.26684532491E+03  0.17344911119E+03 0.  0.
         24    2    3    3    0    0 -0.38731983752E+02 -0.73232949935E+01 -0.17623504414E+02  0.88040404440E+02  0.76725013465E+02 0.  0.
         -6    2    1    2    0  503  0.54928055619E+02  0.14281672658E+03 -0.29399574229E+03  0.37327564201E+03  0.17171924690E+03 0.  0.
        -24    2    5    5    0    0 -0.14062090160E+02  0.12202462976E+03 -0.24758909249E+03  0.28744080847E+03  0.78956361397E+02 0.  0.
          5    1    3    3  501    0 -0.16196071867E+02 -0.13549343158E+03 -0.11544837304E+03  0.17880492047E+03  0.47000000000E+01 0. -1.
        -11    1    4    4    0    0 -0.26508365489E+02  0.81814030816E+01 -0.45852655579E+02  0.53591928692E+02  0.00000000000E+00 0.  1.
         12    1    4    4    0    0 -0.12223618263E+02 -0.15504698075E+02  0.28229151165E+02  0.34448475747E+02  0.00000000000E+00 0. -1.
         -5    1    5    5    0  503  0.68990145779E+02  0.20792096820E+02 -0.46406649794E+02  0.85834833546E+02  0.47000000000E+01 0.  1.
         11    1    6    6    0    0 -0.16560997503E+02 -0.51849985135E+01 -0.44776919741E+02  0.48022113545E+02  0.00000000000E+00 0. -1.
        -12    1    6    6    0    0  0.24989073434E+01  0.12720962827E+03 -0.20281217275E+03  0.23941869492E+03  0.00000000000E+00 0.  1.
</event>
<event>
12    1  0.8798177E-003  0.1919971E+03  0.7818608E-02  0.1156987E+00
         21   -1    0    0  501  502  0.00000000000E+00  0.00000000000E+00  0.31854586535E+03  0.31854586535E+03  0.00000000000E+00 0. -1.
         21   -1    0    0  502  503 -0.00000000000E+00 -0.00000000000E+00 -0.11488226544E+03  0.11488226544E+03  0.00000000000E+00 0. -1.
          6    2    1    2  501    0 -0.82814330934E+02  0.15498638024E+01  0.10032574168E+03  0.21662905828E+03  0.17321165943E+03 0.  0.
         24    2    3    3    0    0  0.77393568435E+01 -0.17394199160E+02  0.30362413125E+01  0.82292969409E+02  0.80002863974E+02 0.  0.
         -6    2    1    2    0  503  0.82814330934E+02 -0.15498638024E+01  0.10333785823E+03  0.21679907251E+03  0.17164646635E+03 0.  0.
        -24    2    5    5    0    0  0.11298680481E+03  0.11147533576E+02  0.19050892290E+02  0.12625634940E+03  0.51840560393E+02 0.  0.
          5    1    3    3  501    0 -0.90553687778E+02  0.18944062962E+02  0.97289500364E+02  0.13433608887E+03  0.47000000000E+01 0. -1.
        -11    1    4    4    0    0 -0.19053808505E+01 -0.30104476800E+02 -0.31889143895E+02  0.43895643268E+02  0.00000000000E+00 0.  1.
         12    1    4    4    0    0  0.96447376940E+01  0.12710277641E+02  0.34925385207E+02  0.38397326141E+02  0.00000000000E+00 0. -1.
         -5    1    5    5    0  503 -0.30172473872E+02 -0.12697397378E+02  0.84286965942E+02  0.90542723105E+02  0.47000000000E+01 0.  1.
         13    1    6    6    0    0  0.62452410383E+02  0.29285415884E+02 -0.88578444082E+00  0.68983503537E+02  0.00000000000E+00 0. -1.
        -14    1    6    6    0    0  0.50534394423E+02 -0.18137882308E+02  0.19936676731E+02  0.57272845864E+02  0.00000000000E+00 0.  1.
</event>
<event>
12    1  0.8798177E-003  0.2638406E+03  0.7818608E-02  0.1104877E+00
         21   -1    0    0  501  502  0.00000000000E+00  0.00000000000E+00  0.10019487047E+03  0.10019487047E+03  0.00000000000E+00 0. -1.
         21   -1    0    0  502  503 -0.00000000000E+00 -0.00000000000E+00 -0.26731073738E+04  0.26731073738E+04  0.00000000000E+00 0.  1.
          6    2    1    2  501    0  0.19276727549E+03  0.53867251760E+02 -0.93347211405E+02  0.27973934773E+03  0.17169594485E+03 0.  0.
         24    2    3    3    0    0  0.21751507077E+03  0.49051205678E+02 -0.74000482255E+02  0.24761406797E+03  0.78216548704E+02 0.  0.
         -6    2    1    2    0  503 -0.19276727549E+03 -0.53867251760E+02 -0.24795652919E+04  0.24935628965E+04  0.17190398117E+03 0.  0.
        -24    2    5    5    0    0 -0.56964068314E+02 -0.62858237859E+02 -0.15054473443E+04  0.15099719171E+04  0.80295833452E+02 0.  0.
          5    1    3    3  501    0 -0.24747795278E+02  0.48160460815E+01 -0.19346729149E+02  0.32125279762E+02  0.47000000000E+01 0. -1.
        -13    1    4    4    0    0  0.56075171783E+02  0.40578385000E+02  0.14031949083E+01  0.69231489769E+02  0.00000000000E+00 0.  1.
         14    1    4    4    0    0  0.16143989899E+03  0.84728206786E+01 -0.75403677164E+02  0.17838257820E+03  0.00000000000E+00 0. -1.
         -5    1    5    5    0  503 -0.13580320718E+03  0.89909860989E+01 -0.97411794769E+03  0.98359097948E+03  0.47000000000E+01 0.  1.
         13    1    6    6    0    0  0.44621678961E+01 -0.54405746414E+02 -0.65965753243E+03  0.66191234788E+03  0.00000000000E+00 0. -1.
        -14    1    6    6    0    0 -0.61426236210E+02 -0.84524914447E+01 -0.84578981182E+03  0.84805956918E+03  0.00000000000E+00 0.  1.
</event>
<event>
12    1  0.8798177E-003  0.1895796E+03  0.7818608E-02  0.1159082E+00
         21   -1    0    0  503  502  0.00000000000E+00  0.00000000000E+00  0.56577064187E+03  0.56577064187E+03  0.00000000000E+00 0.  1.
         21   -1    0    0  501  503 -0.00000000000E+00 -0.00000000000E+00 -0.64431490718E+02  0.64431490718E+02  0.00000000000E+00 0.  1.
          6    2    1    2  501    0 -0.17415043208E+02  0.74941902409E+02  0.29407219529E+03  0.34931069341E+03  0.17210442186E+03 0.  0.
         24    2    3    3    0    0  0.50910727906E+02  0.32400529603E+02  0.20873089744E+03  0.23190793996E+03  0.81061757560E+02 0.  0.
         -6    2    1    2    0  502  0.17415043208E+02 -0.74941902409E+02  0.20726695586E+03  0.28089143917E+03  0.17326522196E+03 0.  0.
        -24    2    5    5    0    0 -0.50402240022E+02 -0.39487575859E+02  0.71457873538E+02  0.12493506701E+03  0.80018053167E+02 0.  0.
          5    1    3    3  501    0 -0.68325771115E+02  0.42541372807E+02  0.85341297855E+02  0.11740275345E+03  0.47000000000E+01 0. -1.
        -11    1    4    4    0    0  0.60983861542E+02  0.50720970268E+02  0.17630300246E+03  0.19332458941E+03  0.00000000000E+00 0.  1.
         12    1    4    4    0    0 -0.10073133636E+02 -0.18320440665E+02  0.32427894973E+02  0.38583350552E+02  0.00000000000E+00 0. -1.
         -5    1    5    5    0  502  0.67817283231E+02 -0.35454326550E+02  0.13580908232E+03  0.15595637216E+03  0.47000000000E+01 0.  1.
         11    1    6    6    0    0 -0.66752461718E+02 -0.10778457286E+02  0.58621635375E+02  0.89490571687E+02  0.00000000000E+00 0. -1.
        -12    1    6    6    0    0  0.16350221696E+02 -0.28709118573E+02  0.12836238164E+02  0.35444495327E+02  0.00000000000E+00 0.  1.
</event>
<event>
12    1  0.8798177E-003  0.2364447E+03  0.7818608E-02  0.1122789E+00
         21   -1    0    0  501  502  0.00000000000E+00  0.00000000000E+00  0.16056201359E+03  0.16056201359E+03  0.00000000000E+00 0. -1.
         21   -1    0    0  502  503 -0.00000000000E+00 -0.00000000000E+00 -0.46186848674E+03  0.46186848674E+03  0.00000000000E+00 0. -1.
          6    2    1    2  501    0 -0.28876179495E+01 -0.15650421367E+03  0.80629020824E+01  0.23305214263E+03  0.17247139926E+03 0.  0.
         24    2    3    3    0    0  0.11844469076E+02 -0.15809717859E+03 -0.40467539641E+02  0.18209269111E+03  0.79906927531E+02 0.  0.
         -6    2    1    2    0  503  0.28876179495E+01  0.15650421367E+03 -0.30936937524E+03  0.38937835770E+03  0.17721226784E+03 0.  0.
        -24    2    5    5    0    0  0.31377322078E+01  0.18778777561E+03 -0.27911344196E+03  0.34560353270E+03  0.79141609155E+02 0.  0.
          5    1    3    3  501    0 -0.14732087025E+02  0.15929649156E+01  0.48530441724E+02  0.50959451520E+02  0.47000000000E+01 0. -1.
        -11    1    4    4    0    0 -0.94763963943E+00 -0.10978025157E+03 -0.63753166848E+02  0.12695301469E+03  0.00000000000E+00 0.  1.
         12    1    4    4    0    0  0.12792108715E+02 -0.48316927014E+02  0.23285627207E+02  0.55139676421E+02  0.00000000000E+00 0. -1.
         -5    1    5    5    0  503 -0.25011425827E+00 -0.31283561940E+02 -0.30255933281E+02  0.43774824997E+02  0.47000000000E+01 0.  1.
         13    1    6    6    0    0  0.32934084289E+02  0.15785506666E+03 -0.22876629696E+03  0.27988728911E+03  0.00000000000E+00 0. -1.
        -14    1    6    6    0    0 -0.29796352082E+02  0.29932708956E+02 -0.50347144996E+02  0.65716243594E+02  0.00000000000E+00 0.  1.
</event>
<event>
12    1  0.8798177E-003  0.2297111E+03  0.7818608E-02  0.1130051E+00
         21   -1    0    0  503  502  0.00000000000E+00  0.00000000000E+00  0.27479490614E+02  0.27479490614E+02  0.00000000000E+00 0. -1.
         21   -1    0    0  501  503 -0.00000000000E+00 -0.00000000000E+00 -0.18960114331E+04  0.18960114331E+04  0.00000000000E+00 0.  1.
          6    2    1    2  501    0  0.67436051071E+02  0.11080381025E+03 -0.11403332886E+04  0.11599200695E+04  0.16801622907E+03 0.  0.
         24    2    3    3    0    0  0.64850765151E+02  0.12921917867E+03 -0.11195494954E+04  0.11316381750E+04  0.79439716759E+02 0.  0.
         -6    2    1    2    0  502 -0.67436051071E+02 -0.11080381025E+03 -0.72819865387E+03  0.76357085418E+03  0.18958392470E+03 0.  0.
        -24    2    5    5    0    0 -0.10213934208E+03 -0.22675489075E+02 -0.33908558744E+03  0.36306868456E+03  0.76767252753E+02 0.  0.
          5    1    3    3  501    0  0.25852859194E+01 -0.18415368415E+02 -0.20783793172E+02  0.28281894487E+02  0.47000000000E+01 0. -1.
        -11    1    4    4    0    0  0.49569508909E+02  0.72311961642E+02 -0.39093019548E+03  0.40064020486E+03  0.00000000000E+00 0.  1.
         12    1    4    4    0    0  0.15281256242E+02  0.56907217025E+02 -0.72861929995E+03  0.73099797017E+03  0.00000000000E+00 0. -1.
         -5    1    5    5    0  502  0.34703291011E+02 -0.88128321177E+02 -0.38911306644E+03  0.40050216962E+03  0.47000000000E+01 0.  1.
         11    1    6    6    0    0 -0.40006604197E+02 -0.41626070904E+02 -0.10158633003E+03  0.11684622633E+03  0.00000000000E+00 0. -1.
        -12    1    6    6    0    0 -0.62132737885E+02  0.18950581829E+02 -0.23749925741E+03  0.24622245823E+03  0.00000000000E+00 0.  1.
</event>
<event>
12    1  0.8798177E-003  0.2031332E+03  0.7818608E-02  0.1148448E+00
         21   -1    0    0  501  502  0.00000000000E+00  0.00000000000E+00  0.10261584008E+04  0.10261584008E+04  0.00000000000E+00 0.  1.
         21   -1    0    0  502  503 -0.00000000000E+00 -0.00000000000E+00 -0.41160947643E+02  0.41160947643E+02  0.00000000000E+00 0. -1.
          6    2    1    2  501    0 -0.77057584265E+02  0.64970077068E+02  0.62288211834E+03  0.65516808911E+03  0.17636357170E+03 0.  0.
         24    2    3    3    0    0  0.61826156266E+01  0.68599117286E+02  0.45968335401E+03  0.47187044184E+03  0.81294921775E+02 0.  0.
         -6    2    1    2    0  503  0.77057584265E+02 -0.64970077068E+02  0.36211533482E+03  0.41215125935E+03  0.16906259983E+03 0.  0.
        -24    2    5    5    0    0 -0.11301148637E+02 -0.39000075531E+02  0.26342489327E+03  0.27708238835E+03  0.75718251993E+02 0.  0.
          5    1    3    3  501    0 -0.83240199891E+02 -0.36290402183E+01  0.16319876434E+03  0.18329764726E+03  0.47000000000E+01 0. -1.
        -13    1    4    4    0    0 -0.33169808164E+02  0.19370795120E+02  0.24956303782E+03  0.25250182915E+03  0.00000000000E+00 0.  1.
         14    1    4    4    0    0  0.39352423790E+02  0.49228322166E+02  0.21012031618E+03  0.21936861269E+03  0.00000000000E+00 0. -1.
         -5    1    5    5    0  503  0.88358732901E+02 -0.25970001537E+02  0.98690441551E+02  0.13506887100E+03  0.47000000000E+01 0.  1.
         13    1    6    6    0    0  0.18584863453E+02  0.60936821432E+01  0.21010347480E+02  0.28704787281E+02  0.00000000000E+00 0. -1.
        -14    1    6    6    0    0 -0.29886012089E+02 -0.45093757675E+02  0.24241454579E+03  0.24837760106E+03  0.00000000000E+00 0.  1.
</event>
<event>
12    1  0.8798177E-003  0.2061541E+03  0.7818608E-02  0.1144733E+00
         21   -1    0    0  503  502  0.00000000000E+00  0.00000000000E+00  0.36363542357E+02  0.36363542357E+02  0.00000000000E+00 0. -1.
         21   -1    0    0  501  503 -0.00000000000E+00 -0.00000000000E+00 -0.11843380706E+04  0.11843380706E+04  0.00000000000E+00 0. -1.
          6    2    1    2  501    0 -0.35597425266E+02  0.10763152379E+03 -0.64974347727E+03  0.68166419868E+03  0.17218528363E+03 0.  0.
         24    2    3    3    0    0 -0.18557887232E+02  0.14412879151E+02 -0.48014360701E+03  0.48732874757E+03  0.79995616058E+02 0.  0.
         -6    2    1    2    0  502  0.35597425266E+02 -0.10763152379E+03 -0.49823105094E+03  0.53903741425E+03  0.17168410596E+03 0.  0.
        -24    2    5    5    0    0 -0.34682654125E+02 -0.99226269361E+02 -0.28850845583E+03  0.31764275587E+03  0.81308377428E+02 0.  0.
          5    1    3    3  501    0 -0.17039538034E+02  0.93218644640E+02 -0.16959987026E+03  0.19433545111E+03  0.47000000000E+01 0. -1.
        -11    1    4    4    0    0  0.54140764006E+01  0.31788984086E+01  0.17532606247E+00  0.62807927519E+01  0.00000000000E+00 0.  1.
         12    1    4    4    0    0 -0.23971963632E+02  0.11233980743E+02 -0.48031893307E+03  0.48104795482E+03  0.00000000000E+00 0. -1.
         -5    1    5    5    0  502  0.70280079391E+02 -0.84052544299E+01 -0.20972259511E+03  0.22139465838E+03  0.47000000000E+01 0.  1.
         11    1    6    6    0    0 -0.93111707117E+01 -0.24528872861E+02 -0.18824534237E+03  0.19006491635E+03  0.00000000000E+00 0. -1.
        -12    1    6    6    0    0 -0.25371483413E+02 -0.74697396500E+02 -0.10026311346E+03  0.12757783952E+03  0.00000000000E+00 0.  1.
</event>
<event>
12    1  0.8798177E-003  0.2217837E+03  0.7818608E-02  0.1132688E+00
         21   -1    0    0  501  502  0.00000000000E+00  0.00000000000E+00  0.74403328794E+03  0.74403328794E+03  0.00000000000E+00 0.  1.
         21   -1    0    0  502  503 -0.00000000000E+00 -0.00000000000E+00 -0.66039051764E+02  0.66039051764E+02  0.00000000000E+00 0.  1.
          6    2    1    2  501    0  0.13289628825E+03 -0.43247269622E+02  0.35676372876E+03  0.41971733015E+03  0.17131996181E+03 0.  0.
         24    2    3    3    0    0  0.14821724258E+03 -0.19018336866E+02  0.21134273968E+03  0.27142327468E+03  0.81699401996E+02 0.  0.
         -6    2    1    2    0  503 -0.13289628825E+03  0.43247269622E+02  0.32123050742E+03  0.39035500955E+03  0.17220988597E+03 0.  0.
        -24    2    5    5    0    0 -0.75731135559E+02  0.38753560437E+02  0.31069291737E+03  0.33186416490E+03  0.79791551565E+02 0.  0.
          5    1    3    3  501    0 -0.15320954337E+02 -0.24228932756E+02  0.14542098908E+03  0.14829405548E+03  0.47000000000E+01 0. -1.
        -11    1    4    4    0    0  0.11787721546E+03 -0.21942027059E+02  0.20887521317E+03  0.24084298859E+03  0.00000000000E+00 0.  1.
         12    1    4    4    0    0  0.30340027122E+02  0.29236901926E+01  0.24675265065E+01  0.30580286087E+02  0.00000000000E+00 0. -1.
         -5    1    5    5    0  503 -0.57165152689E+02  0.44937091846E+01  0.10537590052E+02  0.58490844653E+02  0.47000000000E+01 0.  1.
         13    1    6    6    0    0 -0.68625346613E+02  0.39711193843E+02  0.13901208457E+03  0.16003367386E+03  0.00000000000E+00 0. -1.
        -14    1    6    6    0    0 -0.71057889455E+01 -0.95763340596E+00  0.17168083280E+03  0.17183049103E+03  0.00000000000E+00 0.  1.
</event>
<event>
12    1  0.8798177E-003  0.1749658E+03  0.7818608E-02  0.1173329E+00
         21   -1    0    0  501  502  0.00000000000E+00  0.00000000000E+00  0.21178953334E+03  0.21178953334E+03  0.00000000000E+00 0.  1.
         21   -1    0    0  502  503 -0.00000000000E+00 -0.00000000000E+00 -0.18566989752E+03  0.18566989752E+03  0.00000000000E+00 0.  1.
          6    2    1    2  501    0  0.11062764918E+02  0.14475271429E+02  0.10871341326E+03  0.20598937319E+03  0.17401464706E+03 0.  0.
         24    2    3    3    0    0  0.42216727356E-01 -0.58364404358E+02  0.76315444831E+02  0.12537430506E+03  0.80549759594E+02 0.  0.
         -6    2    1    2    0  503 -0.11062764918E+02 -0.14475271429E+02 -0.82593777438E+02  0.19147005767E+03  0.17177640310E+03 0.  0.
        -24    2    5    5    0    0  0.38034867016E+01 -0.73512444352E+02 -0.34560258834E+02  0.11378027627E+03  0.79580109274E+02 0.  0.
          5    1    3    3  501    0  0.11020548191E+02  0.72839675787E+02  0.32397968429E+02  0.80615068129E+02  0.47000000000E+01 0. -1.
        -13    1    4    4    0    0  0.22865366771E+02 -0.22596938514E+02  0.76462140191E+02  0.82945195825E+02  0.00000000000E+00 0.  1.
         14    1    4    4    0    0 -0.22823150043E+02 -0.35767465844E+02 -0.14669535996E+00  0.42429109233E+02  0.00000000000E+00 0. -1.
         -5    1    5    5    0  503 -0.14866251620E+02  0.59037172923E+02 -0.48033518604E+02  0.77689781396E+02  0.47000000000E+01 0.  1.
         13    1    6    6    0    0  0.24909326579E+02 -0.43393905282E+02  0.14843514169E+02  0.52190377265E+02  0.00000000000E+00 0. -1.
        -14    1    6    6    0    0 -0.21105839877E+02 -0.30118539070E+02 -0.49403773004E+02  0.61589899006E+02  0.00000000000E+00 0.  1.
</event>
<event>
12    1  0.8798177E-003  0.1872718E+03  0.7818608E-02  0.1162922E+00
         21   -1    0    0  501  502  0.00000000000E+00  0.00000000000E+00  0.17137285390E+03  0.17137285390E+03  0.00000000000E+00 0.  1.
         21   -1    0    0  502  503 -0.00000000000E+00 -0.00000000000E+00 -0.19745637216E+03  0.19745637216E+03  0.00000000000E+00 0.  1.
          6    2    1    2  501    0 -0.54597304502E+02 -0.21231656872E-01 -0.31338369993E+02  0.18987579395E+03  0.17913642172E+03 0.  0.
         24    2    3    3    0    0 -0.64827402500E+02  0.64651728538E+02 -0.26034994769E+02  0.12401637948E+03  0.79497190576E+02 0.  0.
         -6    2    1    2    0  503  0.54597304502E+02  0.21231656872E-01  0.52548517290E+01  0.17895343211E+03  0.17034039829E+03 0.  0.
        -24    2    5    5    0    0 -0.14352050301E+02 -0.39786988149E+02  0.30782600070E+02  0.95212976972E+02  0.79554740544E+02 0.  0.
          5    1    3    3  501    0  0.10230097998E+02 -0.64672960195E+02 -0.53033752240E+01  0.65859414469E+02  0.47000000000E+01 0. -1.
        -11    1    4    4    0    0 -0.25697893589E+01  0.56415975763E+02 -0.23489818826E+02  0.61164840612E+02  0.00000000000E+00 0.  1.
         12    1    4    4    0    0 -0.62257613141E+02  0.82357527752E+01 -0.25451759428E+01  0.62851538871E+02  0.00000000000E+00 0. -1.
         -5    1    5    5    0  503  0.68949354803E+02  0.39808219806E+02 -0.25527748341E+02  0.83740455141E+02  0.47000000000E+01 0.  1.
         13    1    6    6    0    0  0.20557103237E+01 -0.18529407976E+02 -0.26237244590E+02  0.32186300013E+02  0.00000000000E+00 0. -1.
        -14    1    6    6    0    0 -0.16407760625E+02 -0.21257580173E+02  0.57019844659E+02  0.63026676959E+02  0.00000000000E+00 0.  1.
</event>
<event>
12    1  0.8798177E-003  0.1981868E+03  0.7818608E-02  0.1154960E+00
         21   -1    0    0  503  502  0.00000000000E+00  0.00000000000E+00  0.19489435084E+02  0.19489435084E+02  0.00000000000E+00 0. -1.
         21   -1    0    0  501  503 -0.00000000000E+00 -0.00000000000E+00 -0.20442619906E+04  0.20442619906E+04  0.00000000000E+00 0. -1.
          6    2    1    2  501    0  0.56502577284E+02  0.32825799935E+01 -0.13688690511E+04  0.13831415226E+04  0.18993334602E+03 0.  0.
         24    2    3    3    0    0  0.85055145565E+02 -0.51304306575E+02 -0.72411253509E+03  0.73543168612E+03  0.81573842745E+02 0.  0.
         -6    2    1    2    0  502 -0.56502577284E+02 -0.32825799935E+01 -0.65590350437E+03  0.68060990303E+03  0.17267633448E+03 0.  0.
        -24    2    5    5    0    0  0.24107111947E+02  0.32468607500E+02 -0.38816326992E+03  0.39868262065E+03  0.81496899189E+02 0.  0.
          5    1    3    3  501    0 -0.28552568280E+02  0.54586886568E+02 -0.64475651602E+03  0.64770983649E+03  0.47000000000E+01 0. -1.
        -11    1    4    4    0    0 -0.13823009929E+02  0.13025357732E+01 -0.13933033107E+03  0.14002040336E+03  0.00000000000E+00 0.  1.
         12    1    4    4    0    0  0.98878155494E+02 -0.52606842348E+02 -0.58478220402E+03  0.59541128276E+03  0.00000000000E+00 0. -1.
         -5    1    5    5    0  502 -0.80609689231E+02 -0.35751187493E+02 -0.26774023445E+03  0.28192728238E+03  0.47000000000E+01 0.  1.
         13    1    6    6    0    0 -0.18160633985E+02 -0.16545144118E+02 -0.14432484148E+03  0.14640085481E+03  0.00000000000E+00 0. -1.
        -14    1    6    6    0    0  0.42267745932E+02  0.49013751618E+02 -0.24383842844E+03  0.25228176584E+03  0.00000000000E+00 0.  1.
</event>
<event>
12    1  0.8798177E-003  0.1779802E+03  0.7818608E-02  0.1169918E+00
         21   -1    0    0  503  502  0.00000000000E+00  0.00000000000E+00  0.23448304508E+03  0.23448304508E+03  0.00000000000E+00 0. -1.
         21   -1    0    0  501  503 -0.00000000000E+00 -0.00000000000E+00 -0.17069237179E+03  0.17069237179E+03  0.00000000000E+00 0. -1.
          6    2    1    2  501    0 -0.36770524941E+02 -0.19241792774E+02 -0.61245243282E+02  0.18766464076E+03  0.17246657495E+03 0.  0.
         24    2    3    3    0    0  0.17731290223E+02 -0.50660842469E+02  0.54257921623E+01  0.95878359070E+02  0.79260967094E+02 0.  0.
         -6    2    1    2    0  502  0.36770524941E+02  0.19241792774E+02  0.12503591658E+03  0.21751077611E+03  0.17307408586E+03 0.  0.
        -24    2    5    5    0    0 -0.13448758179E+02 -0.49130585840E+02  0.70205266361E+02  0.11639080401E+03  0.77610284572E+02 0.  0.
          5    1    3    3  501    0 -0.54501815163E+02  0.31419049695E+02 -0.66671035444E+02  0.91786281693E+02  0.47000000000E+01 0. -1.
        -13    1    4    4    0    0  0.57324039147E+01 -0.31997721318E+02  0.41993893248E+02  0.53105571217E+02  0.00000000000E+00 0.  1.
         14    1    4    4    0    0  0.11998886308E+02 -0.18663121151E+02 -0.36568101085E+02  0.42772787853E+02  0.00000000000E+00 0. -1.
         -5    1    5    5    0  502  0.50219283119E+02  0.68372378613E+02  0.54830650216E+02  0.10111997210E+03  0.47000000000E+01 0.  1.
         13    1    6    6    0    0  0.19451666687E+02  0.66853561435E+01  0.39842277146E+02  0.44838246752E+02  0.00000000000E+00 0. -1.
        -14    1    6    6    0    0 -0.32900424865E+02 -0.55815941983E+02  0.30362989215E+02  0.71552557256E+02  0.00000000000E+00 0.  1.
</event>
<event>
12    1  0.8798177E-003  0.1928660E+03  0.7818608E-02  0.1156317E+00
         21   -1    0    0  503  502  0.00000000000E+00  0.00000000000E+00  0.16929712422E+04  0.16929712422E+04  0.00000000000E+00 0. -1.
         21   -1    0    0  501  503 -0.00000000000E+00 -0.00000000000E+00 -0.21968763907E+02  0.21968763907E+02  0.00000000000E+00 0. -1.
          6    2    1    2  501    0  0.52918853144E+02 -0.63957365894E+02  0.74770127962E+03  0.77171024171E+03  0.17201320864E+03 0.  0.
         24    2    3    3    0    0  0.84913707439E+02 -0.16244906918E+02  0.62454827799E+03  0.63573634255E+03  0.81399698933E+02 0.  0.
         -6    2    1    2    0  502 -0.52918853144E+02  0.63957365894E+02  0.92330119865E+03  0.94322976437E+03  0.17408714858E+03 0.  0.
        -24    2    5    5    0    0  0.22553973509E+02 -0.73862828902E+01  0.52282241221E+03  0.52947692490E+03  0.80245251538E+02 0.  0.
          5    1    3    3  501    0 -0.31994854295E+02 -0.47712458976E+02  0.12315300163E+03  0.13597389916E+03  0.47000000000E+01 0. -1.
        -13    1    4    4    0    0 -0.13469614677E+02 -0.25322304539E+01  0.16533890789E+03  0.16590598896E+03  0.00000000000E+00 0.  1.
         14    1    4    4    0    0  0.98383322116E+02 -0.13712676464E+02  0.45920937009E+03  0.46983035358E+03  0.00000000000E+00 0. -1.
         -5    1    5    5    0  502 -0.75472826653E+02  0.71343648784E+02  0.40047878643E+03  0.41375283947E+03  0.47000000000E+01 0.  1.
         11    1    6    6    0    0  0.41132149472E+02  0.16395318677E+02  0.41970560990E+03  0.42203490279E+03  0.00000000000E+00 0. -1.
        -12    1    6    6    0    0 -0.18578175963E+02 -0.23781601567E+02  0.10311680232E+03  0.10744202211E+03  0.00000000000E+00 0.  1.
</event>
<event>
12    1  0.8798177E-003  0.2315642E+03  0.7818608E-02  0.1125722E+00
         21   -1    0    0  501  502  0.00000000000E+00  0.00000000000E+00  0.39228488302E+03  0.39228488302E+03  0.00000000000E+00 0. -1.
         21   -1    0    0  502  503 -0.00000000000E+00 -0.00000000000E+00 -0.13935421598E+03  0.13935421598E+03  0.00000000000E+00 0.  1.
          6    2    1    2  501    0  0.73885863416E+02  0.13529617811E+03  0.16741621249E+03  0.28574496172E+03  0.17279415014E+03 0.  0.
         24    2    3    3    0    0  0.97880067969E+02  0.70565383309E+02  0.16970315192E+03  0.21651261567E+03  0.59317551755E+02 0.  0.
         -6    2    1    2    0  503 -0.73885863416E+02 -0.13529617811E+03  0.85514454552E+02  0.24589413728E+03  0.17142645124E+03 0.  0.
        -24    2    5    5    0    0 -0.85791486706E+02 -0.15020444425E+03  0.10021052742E+03  0.22135712803E+03  0.95054058609E+02 0.  0.
          5    1    3    3  501    0 -0.23994204553E+02  0.64730794802E+02 -0.22869394311E+01  0.69232346051E+02  0.47000000000E+01 0. -1.
        -13    1    4    4    0    0  0.27480996165E+02  0.50055494788E+02  0.48814605312E+02  0.75124053409E+02  0.00000000000E+00 0.  1.
         14    1    4    4    0    0  0.70399071803E+02  0.20509888521E+02  0.12088854661E+03  0.14138856226E+03  0.00000000000E+00 0. -1.
         -5    1    5    5    0  503  0.11905623290E+02  0.14908266140E+02 -0.14696072870E+02  0.24537009251E+02  0.47000000000E+01 0.  1.
         11    1    6    6    0    0 -0.95570794021E+02 -0.11652152301E+03  0.10802957482E+03  0.18542230457E+03  0.00000000000E+00 0. -1.
        -12    1    6    6    0    0  0.97793073149E+01 -0.33682921242E+02 -0.78190473999E+01  0.35934823461E+02  0.00000000000E+00 0.  1.
</event>
<event>
12    1  0.8798177E-003  0.2081089E+03  0.7818608E-02  0.1143154E+00
         21   -1    0    0  501  502  0.00000000000E+00  0.00000000000E+00  0.15874333551E+02  0.15874333551E+02  0.00000000000E+00 0.  1.
         21   -1    0    0  502  503 -0.00000000000E+00 -0.00000000000E+00 -0.28132300698E+04  0.28132300698E+04  0.00000000000E+00 0. -1.
          6    2    1    2  501    0 -0.67526633834E+02 -0.93542678223E+02 -0.11465820258E+04  0.11653152579E+04  0.17320285632E+03 0.  0.
         24    2    3    3    0    0 -0.98722777465E+02 -0.10386348379E+03 -0.77210075723E+03  0.78936575473E+03  0.80155507487E+02 0.  0.
         -6    2    1    2    0  503  0.67526633834E+02  0.93542678223E+02 -0.16507737104E+04  0.16637891454E+04  0.17271478960E+03 0.  0.
        -24    2    5    5    0    0 -0.96963052813E+01  0.76617430739E+02 -0.60748964480E+03  0.61750353534E+03  0.79389537026E+02 0.  0.
          5    1    3    3  501    0  0.31196143631E+02  0.10320805563E+02 -0.37448126860E+03  0.37594950318E+03  0.47000000000E+01 0. -1.
        -11    1    4    4    0    0  0.80847359357E+01  0.39387576464E+01 -0.17705605169E+02  0.19858630904E+02  0.00000000000E+00 0.  1.
         12    1    4    4    0    0 -0.10680751340E+03 -0.10780224143E+03 -0.75439515206E+03  0.76950712383E+03  0.00000000000E+00 0. -1.
         -5    1    5    5    0  503  0.77222939115E+02  0.16925247484E+02 -0.10432840656E+04  0.10462856101E+04  0.47000000000E+01 0.  1.
         11    1    6    6    0    0 -0.12726771305E+02  0.65267536290E+01 -0.35941594569E+03  0.35970041873E+03  0.00000000000E+00 0. -1.
        -12    1    6    6    0    0  0.30304660237E+01  0.70090677110E+02 -0.24807369911E+03  0.25780311661E+03  0.00000000000E+00 0.  1.
</event>
<event>
12    1  0.8798177E-003  0.2402210E+03  0.7818608E-02  0.1119712E+00
         21   -1    0    0  503  502  0.00000000000E+00  0.00000000000E+00  0.25502344261E+03  0.25502344261E+03  0.00000000000E+00 0. -1.
         21   -1    0    0  501  503 -0.00000000000E+00 -0.00000000000E+00 -0.23488798281E+03  0.23488798281E+03  0.00000000000E+00 0. -1.
          6    2    1    2  501    0 -0.15899126212E+03 -0.44838413571E+02 -0.37828860879E+02  0.24318134537E+03  0.17440596108E+03 0.  0.
         24    2    3    3    0    0 -0.23023731247E+02  0.25244354302E+02 -0.10577286002E+02  0.87735206351E+02  0.80113780523E+02 0.  0.
         -6    2    1    2    0  502  0.15899126212E+03  0.44838413571E+02  0.57964320676E+02  0.24673008005E+03  0.17385961339E+03 0.  0.
        -24    2    5    5    0    0  0.15080059033E+03 -0.22100957754E+02  0.46957924410E+02  0.17823776445E+03  0.79588841132E+02 0.  0.
          5    1    3    3  501    0 -0.13596753087E+03 -0.70082767873E+02 -0.27251574877E+02  0.15544613902E+03  0.47000000000E+01 0. -1.
        -13    1    4    4    0    0 -0.20077202024E+02 -0.27401639845E+02 -0.68520919174E-01  0.33969818993E+02  0.00000000000E+00 0.  1.
         14    1    4    4    0    0 -0.29465292231E+01  0.52645994147E+02 -0.10508765083E+02  0.53765387358E+02  0.00000000000E+00 0. -1.
         -5    1    5    5    0  502  0.81906717844E+01  0.66939371325E+02  0.11006396265E+02  0.68492315602E+02  0.47000000000E+01 0.  1.
         11    1    6    6    0    0  0.23339698188E+02  0.97938046988E+01  0.39144330566E+02  0.46614790973E+02  0.00000000000E+00 0. -1.
        -12    1    6    6    0    0  0.12746089214E+03 -0.31894762453E+02  0.78135938447E+01  0.13162297348E+03  0.00000000000E+00 0.  1.
</event>
<event>
12    1  0.8798177E-003  0.3327399E+03  0.7818608E-02  0.1070422E+00
         21   -1    0    0  503  502  0.00000000000E+00  0.00000000000E+00  0.53576794842E+03  0.53576794842E+03  0.00000000000E+00 0.  1.
         21   -1    0    0  501  503 -0.00000000000E+00 -0.00000000000E+00 -0.26248601353E+03  0.26248601353E+03  0.00000000000E+00 0.  1.
          6    2    1    2  501    0  0.27783821667E+03 -0.36462442456E+02 -0.51214737677E+02  0.33665824829E+03  0.17942196755E+03 0.  0.
         24    2    3    3    0    0  0.48585687184E+02 -0.43904151024E+02 -0.65152291562E+01  0.10292284797E+03  0.79136091310E+02 0.  0.
         -6    2    1    2    0  502 -0.27783821667E+03  0.36462442456E+02  0.32449667257E+03  0.46159571366E+03  0.17102317976E+03 0.  0.
        -24    2    5    5    0    0 -0.17280860146E+03  0.85305260758E+02  0.22865998740E+03  0.31118427396E+03  0.86084041908E+02 0.  0.
          5    1    3    3  501    0  0.22925252948E+03  0.74417085680E+01 -0.44699508521E+02  0.23373540032E+03  0.47000000000E+01 0. -1.
        -11    1    4    4    0    0  0.40169883838E+02 -0.36537748071E+01 -0.34586824749E+02  0.53133963565E+02  0.00000000000E+00 0.  1.
         12    1    4    4    0    0  0.84158033458E+01 -0.40250376217E+02  0.28071595593E+02  0.49788884409E+02  0.00000000000E+00 0. -1.
         -5    1    5    5    0  502 -0.10502961521E+03 -0.48842818302E+02  0.95836685170E+02  0.15041143971E+03  0.47000000000E+01 0.  1.
         11    1    6    6    0    0  0.97410193638E+01  0.43961726211E+01  0.66409492932E+01  0.12582368596E+02  0.00000000000E+00 0. -1.
        -12    1    6    6    0    0 -0.18254962082E+03  0.80909088137E+02  0.22201903810E+03  0.29860190536E+03  0.00000000000E+00 0.  1.
</event>
<event>
12    1  0.8798177E-003  0.1823579E+03  0.7818608E-02  0.1166658E+00
         21   -1    0    0  503  502  0.00000000000E+00  0.00000000000E+00  0.41059465721E+03  0.41059465721E+03  0.00000000000E+00 0. -1.
         21   -1    0    0  501  503 -0.00000000000E+00 -0.00000000000E+00 -0.82315462969E+02  0.82315462969E+02  0.00000000000E+00 0. -1.
          6    2    1    2  501    0  0.43937123788E+02 -0.53552642722E+01  0.21197654068E+03  0.27662165605E+03  0.17212302895E+03 0.  0.
         24    2    3    3    0    0  0.81386393053E+02  0.17366106445E+02  0.19980201407E+03  0.23091588449E+03  0.80473438193E+02 0.  0.
         -6    2    1    2    0  502 -0.43937123788E+02  0.53552642722E+01  0.11630265356E+03  0.21628846413E+03  0.17690461495E+03 0.  0.
        -24    2    5    5    0    0 -0.93181431716E+02 -0.20394036734E+02  0.66120283301E+02  0.14126587653E+03  0.80532354100E+02 0.  0.
          5    1    3    3  501    0 -0.37449269265E+02 -0.22721370718E+02  0.12174526609E+02  0.45705771561E+02  0.47000000000E+01 0. -1.
        -13    1    4    4    0    0  0.79972825981E+02  0.13616084607E+02  0.20719294144E+03  0.22250834959E+03  0.00000000000E+00 0.  1.
         14    1    4    4    0    0  0.14135670714E+01  0.37500218382E+01 -0.73909273689E+01  0.84075348958E+01  0.00000000000E+00 0. -1.
         -5    1    5    5    0  502  0.49244307928E+02  0.25749301006E+02  0.50182370264E+02  0.75022587605E+02  0.47000000000E+01 0.  1.
         13    1    6    6    0    0 -0.67494122419E+02  0.41617125156E+01  0.78523059702E+02  0.10362744481E+03  0.00000000000E+00 0. -1.
        -14    1    6    6    0    0 -0.25687309297E+02 -0.24555749250E+02 -0.12402776401E+02  0.37638431723E+02  0.00000000000E+00 0.  1.
</event>
<event>
12    1  0.8798177E-003  0.2704230E+03  0.7818608E-02  0.1101117E+00
         21   -1    0    0  501  502  0.00000000000E+00  0.00000000000E+00  0.59434596258E+02  0.59434596258E+02  0.00000000000E+00 0.  1.
         21   -1    0    0  502  503 -0.00000000000E+00 -0.00000000000E+00 -0.12940248348E+04  0.12940248348E+04  0.00000000000E+00 0.  1.
          6    2    1    2  501    0  0.54245437208E+01 -0.20805008733E+03 -0.46490591184E+03  0.53783463735E+03  0.17266825346E+03 0.  0.
         24    2    3    3    0    0 -0.46735217659E+02 -0.17818798179E+03 -0.29718567203E+03  0.35960850319E+03  0.84046501905E+02 0.  0.
         -6    2    1    2    0  503 -0.54245437208E+01  0.20805008733E+03 -0.76968432667E+03  0.81562479368E+03  0.17180098030E+03 0.  0.
        -24    2    5    5    0    0  0.19809579607E+02  0.69295374732E+02 -0.49756588929E+03  0.50909556960E+03  0.80076316131E+02 0.  0.
          5    1    3    3  501    0  0.52159761380E+02 -0.29862105540E+02 -0.16772023981E+03  0.17822613415E+03  0.47000000000E+01 0. -1.
        -11    1    4    4    0    0  0.86920267625E+01 -0.80123958138E+02 -0.73116503174E+02  0.10881830284E+03  0.00000000000E+00 0.  1.
         12    1    4    4    0    0 -0.55427244421E+02 -0.98064023653E+02 -0.22406916886E+03  0.25079020035E+03  0.00000000000E+00 0. -1.
         -5    1    5    5    0  503 -0.25234123328E+02  0.13875471260E+03 -0.27211843738E+03  0.30652922407E+03  0.47000000000E+01 0.  1.
         13    1    6    6    0    0 -0.31068573599E+02  0.30942643824E+02 -0.21704651328E+03  0.22143146208E+03  0.00000000000E+00 0. -1.
        -14    1    6    6    0    0  0.50878153206E+02  0.38352730909E+02 -0.28051937601E+03  0.28766410752E+03  0.00000000000E+00 0.  1.
</event>
<event>
12    1  0.8798177E-003  0.1992727E+03  0.7818608E-02  0.1153081E+00
         21   -1    0    0  501  502  0.00000000000E+00  0.00000000000E+00  0.87945669365E+02  0.87945669365E+02  0.00000000000E+00 0. -1.
         21   -1    0    0  502  503 -0.00000000000E+00 -0.00000000000E+00 -0.50481195874E+03  0.50481195874E+03  0.00000000000E+00 0. -1.
          6    2    1    2  501    0  0.99704444542E+02  0.65381680695E+01 -0.95385588407E+02  0.22092537214E+03  0.17241196501E+03 0.  0.
         24    2    3    3    0    0  0.98042457788E+00  0.30553843884E+02 -0.90016824633E+02  0.11907205395E+03  0.71698163895E+02 0.  0.
         -6    2    1    2    0  503 -0.99704444542E+02 -0.65381680695E+01 -0.32148070097E+03  0.37183225597E+03  0.15787862926E+03 0.  0.
        -24    2    5    5    0    0 -0.16661599131E+02  0.19748041991E+02 -0.85152039691E+02  0.11991876852E+03  0.80386859202E+02 0.  0.
          5    1    3    3  501    0  0.98724019964E+02 -0.24015675815E+02 -0.53687637735E+01  0.10185331819E+03  0.47000000000E+01 0. -1.
        -13    1    4    4    0    0 -0.97999524710E+01 -0.18234837310E+02 -0.52967315037E+02  0.56869014607E+02  0.00000000000E+00 0.  1.
         14    1    4    4    0    0  0.10780377049E+02  0.48788681194E+02 -0.37049509596E+02  0.62203039341E+02  0.00000000000E+00 0. -1.
         -5    1    5    5    0  503 -0.83042845411E+02 -0.26286210060E+02 -0.23632866128E+03  0.25191348744E+03  0.47000000000E+01 0.  1.
         13    1    6    6    0    0 -0.30460744603E+02  0.16377586473E+01  0.12865000715E+01  0.30531857094E+02  0.00000000000E+00 0. -1.
        -14    1    6    6    0    0  0.13799145471E+02  0.18110283344E+02 -0.86438539763E+02  0.89386911429E+02  0.00000000000E+00 0.  1.
</event>
<event>
12    1  0.8798177E-003  0.2868298E+03  0.7818608E-02  0.1092039E+00
         21   -1    0    0  503  502  0.00000000000E+00  0.00000000000E+00  0.16571768378E+03  0.16571768378E+03  0.00000000000E+00 0. -1.
         21   -1    0    0  501  503 -0.00000000000E+00 -0.00000000000E+00 -0.61869890444E+03  0.61869890444E+03  0.00000000000E+00 0.  1.
          6    2    1    2  501    0 -0.24787479914E+02  0.22815920708E+03 -0.40098950209E+03  0.49291277793E+03  0.17175384398E+03 0.  0.
         24    2    3    3    0    0 -0.34908177725E+02  0.17903669698E+03 -0.19548494126E+03  0.28132434714E+03  0.87500321681E+02 0.  0.
         -6    2    1    2    0  502  0.24787479914E+02 -0.22815920708E+03 -0.51991718570E+02  0.29150381029E+03  0.17204734719E+03 0.  0.
        -24    2    5    5    0    0 -0.11027176940E+02 -0.15122370794E+03 -0.95169137492E+02  0.19617207277E+03  0.80225363371E+02 0.  0.
          5    1    3    3  501    0  0.10120697811E+02  0.49122510096E+02 -0.20550456083E+03  0.21158843079E+03  0.47000000000E+01 0. -1.
        -11    1    4    4    0    0 -0.58625793953E+02  0.15238718178E+03 -0.17817430583E+03  0.24167109911E+03  0.00000000000E+00 0.  1.
         12    1    4    4    0    0  0.23717616228E+02  0.26649515209E+02 -0.17310635430E+02  0.39653248031E+02  0.00000000000E+00 0. -1.
         -5    1    5    5    0  502  0.35814656855E+02 -0.76935499140E+02  0.43177418921E+02  0.95331737519E+02  0.47000000000E+01 0.  1.
         11    1    6    6    0    0 -0.63211233303E+01 -0.11383856319E+03 -0.25295676569E+02  0.11678632764E+03  0.00000000000E+00 0. -1.
        -12    1    6    6    0    0 -0.47060536102E+01 -0.37385144748E+02 -0.69873460923E+02  0.79385745129E+02  0.00000000000E+00 0.  1.
</event>
<event>
12    1  0.8798177E-003  0.2556034E+03  0.7818608E-02  0.1110026E+00
         21   -1    0    0  501  502  0.00000000000E+00  0.00000000000E+00  0.24741519261E+03  0.24741519261E+03  0.00000000000E+00 0.  1.
         21   -1    0    0  502  503 -0.00000000000E+00 -0.00000000000E+00 -0.26367068240E+03  0.26367068240E+03  0.00000000000E+00 0.  1.
          6    2    1    2  501    0  0.85352368645E+02 -0.16642790189E+03  0.78650583739E+01  0.25434695181E+03  0.17218373731E+03 0.  0.
         24    2    3    3    0    0  0.98401948281E+02 -0.12754190521E+03 -0.47066840700E+02  0.18563002666E+03  0.79330563438E+02 0.  0.
         -6    2    1    2    0  503 -0.85352368645E+02  0.16642790189E+03 -0.24120548165E+02  0.25673892319E+03  0.17421194126E+03 0.  0.
        -24    2    5    5    0    0 -0.49708674200E+02  0.19016341421E+03 -0.20540067389E+02  0.21350979712E+03  0.80817465332E+02 0.  0.
          5    1    3    3  501    0 -0.13049579636E+02 -0.38885996676E+02  0.54931899074E+02  0.68716925149E+02  0.47000000000E+01 0. -1.
        -11    1    4    4    0    0  0.34033861079E+01 -0.55165966127E+02  0.46899567845E+01  0.55469474041E+02  0.00000000000E+00 0.  1.
         12    1    4    4    0    0  0.94998562173E+02 -0.72375939082E+02 -0.51756797484E+02  0.13016055262E+03  0.00000000000E+00 0. -1.
         -5    1    5    5    0  503 -0.35643694445E+02 -0.23735512321E+02 -0.35804807751E+01  0.43229126077E+02  0.47000000000E+01 0.  1.
         13    1    6    6    0    0 -0.22904288322E+02  0.58949985643E+02  0.30470230200E+02  0.70200727626E+02  0.00000000000E+00 0. -1.
        -14    1    6    6    0    0 -0.26804385879E+02  0.13121342856E+03 -0.51010297590E+02  0.14330906949E+03  0.00000000000E+00 0.  1.
</event>
<event>
12    1  0.8798177E-003  0.2417578E+03  0.7818608E-02  0.1118707E+00
         21   -1    0    0  503  502  0.00000000000E+00  0.00000000000E+00  0.43521740903E+03  0.43521740903E+03  0.00000000000E+00 0.  1.
         21   -1    0    0  501  503 -0.00000000000E+00 -0.00000000000E+00 -0.16707885618E+03  0.16707885618E+03  0.00000000000E+00 0. -1.
          6    2    1    2  501    0  0.92040829257E+02 -0.14192743262E+03  0.17312207067E-01  0.24127570334E+03  0.17204375705E+03 0.  0.
         24    2    3    3    0    0  0.21114394766E+02  0.28220625868E+01  0.56114339209E+01  0.79917841212E+02  0.76821816236E+02 0.  0.
         -6    2    1    2    0  502 -0.92040829257E+02  0.14192743262E+03  0.26812124064E+03  0.36102056187E+03  0.17271924047E+03 0.  0.
        -24    2    5    5    0    0 -0.79495393836E+02  0.14081420321E+03  0.13013521308E+03  0.22238124194E+03  0.79812816115E+02 0.  0.
          5    1    3    3  501    0  0.70926434491E+02 -0.14474949521E+03 -0.55941217138E+01  0.16135786213E+03  0.47000000000E+01 0. -1.
        -13    1    4    4    0    0  0.40210776679E+02  0.15213838787E+02  0.25244644926E+02  0.49856389252E+02  0.00000000000E+00 0.  1.
         14    1    4    4    0    0 -0.19096381913E+02 -0.12391776201E+02 -0.19633211005E+02  0.30061451960E+02  0.00000000000E+00 0. -1.
         -5    1    5    5    0  502 -0.12545435421E+02  0.11132294111E+01  0.13798602756E+03  0.13863931993E+03  0.47000000000E+01 0.  1.
         13    1    6    6    0    0  0.26418348292E+01  0.71121268198E+02  0.38262819838E+02  0.80803820846E+02  0.00000000000E+00 0. -1.
        -14    1    6    6    0    0 -0.82137228665E+02  0.69692935013E+02  0.91872393245E+02  0.14157742110E+03  0.00000000000E+00 0.  1.
</event>
<event>
12    1  0.8798177E-003  0.2590875E+03  0.7818608E-02  0.1107893E+00
         21   -1    0    0  501  502  0.00000000000E+00  0.00000000000E+00  0.15497500041E+03  0.15497500041E+03  0.00000000000E+00 0. -1.
         21   -1    0    0  502  503 -0.00000000000E+00 -0.00000000000E+00 -0.43128101348E+03  0.43128101348E+03  0.00000000000E+00 0.  1.
          6    2    1    2  501    0  0.19392249548E+03  0.90675436787E+01 -0.14684717915E+03  0.29780937402E+03  0.17157556536E+03 0.  0.
         24    2    3    3    0    0  0.23485498406E+02  0.64918559438E+01 -0.73120317068E+02  0.11203223783E+03  0.81307617823E+02 0.  0.
         -6    2    1    2    0  503 -0.19392249548E+03 -0.90675436787E+01 -0.12945883392E+03  0.28844663986E+03  0.16956921822E+03 0.  0.
        -24    2    5    5    0    0 -0.13135175311E+03  0.79268461660E+01 -0.14644124600E+03  0.22125735942E+03  0.10096366985E+03 0.  0.
          5    1    3    3  501    0  0.17043699707E+03  0.25756877349E+01 -0.73726862082E+02  0.18577713619E+03  0.47000000000E+01 0. -1.
        -13    1    4    4    0    0  0.32640617428E+02  0.36212794424E+02 -0.62292706792E+02  0.79102197855E+02  0.00000000000E+00 0.  1.
         14    1    4    4    0    0 -0.91551190217E+01 -0.29720938480E+02 -0.10827610276E+02  0.32930039975E+02  0.00000000000E+00 0. -1.
         -5    1    5    5    0  503 -0.62570742365E+02 -0.16994389845E+02  0.16982412086E+02  0.67189280444E+02  0.47000000000E+01 0.  1.
         11    1    6    6    0    0 -0.21900836169E+02 -0.31304219881E+02 -0.55819074316E+01  0.38610341851E+02  0.00000000000E+00 0. -1.
        -12    1    6    6    0    0 -0.10945091695E+03  0.39231066047E+02 -0.14085933857E+03  0.18264701757E+03  0.00000000000E+00 0.  1.
</event>
<event>
12    1  0.8798177E-003  0.2011252E+03  0.7818608E-02  0.1149451E+00
         21   -1    0    0  501  502  0.00000000000E+00  0.00000000000E+00  0.17645751663E+03  0.17645751663E+03  0.00000000000E+00 0.  1.
         21   -1    0    0  502  503 -0.00000000000E+00 -0.00000000000E+00 -0.30108540775E+03  0.30108540775E+03  0.00000000000E+00 0. -1.
          6    2    1    2  501    0 -0.35414601806E+01 -0.10488310719E+03  0.57522065681E+02  0.20619452672E+03  0.16791184203E+03 0.  0.
         24    2    3    3    0    0 -0.15694367948E+02 -0.37189689888E+00 -0.95312853218E+01  0.81340499454E+02  0.79240014885E+02 0.  0.
         -6    2    1    2    0  503  0.35414601806E+01  0.10488310719E+03 -0.18214995680E+03  0.27134839766E+03  0.17157604155E+03 0.  0.
        -24    2    5    5    0    0  0.49294689084E+02  0.10105392864E+02 -0.66214639798E+02  0.11469827535E+03  0.78988799894E+02 0.  0.
          5    1    3    3  501    0  0.12152907767E+02 -0.10451121029E+03  0.67053351003E+02  0.12485402727E+03  0.47000000000E+01 0. -1.
        -13    1    4    4    0    0  0.13965515894E+02 -0.33487640645E+02 -0.29973113049E+01  0.36406614581E+02  0.00000000000E+00 0.  1.
         14    1    4    4    0    0 -0.29659883842E+02  0.33115743746E+02 -0.65339740169E+01  0.44933884874E+02  0.00000000000E+00 0. -1.
         -5    1    5    5    0  503 -0.45753228903E+02  0.94777714330E+02 -0.11593531700E+03  0.15665012230E+03  0.47000000000E+01 0.  1.
         11    1    6    6    0    0  0.15178693662E+02 -0.86790966376E+01 -0.73088408925E+02  0.75150748359E+02  0.00000000000E+00 0. -1.
        -12    1    6    6    0    0  0.34115995421E+02  0.18784489501E+02  0.68737691265E+01  0.39547526995E+02  0.00000000000E+00 0.  1.
</event>
<event>
12    1  0.8798177E-003  0.2644027E+03  0.7818608E-02  0.1106604E+00
         21   -1    0    0  503  502  0.00000000000E+00  0.00000000000E+00  0.73579322051E+02  0.73579322051E+02  0.00000000000E+00 0.  1.
         21   -1    0    0  501  503 -0.00000000000E+00 -0.00000000000E+00 -0.94480720055E+03  0.94480720055E+03  0.00000000000E+00 0.  1.
          6    2    1    2  501    0 -0.18269539301E+03 -0.81263809300E+01 -0.33759360557E+03  0.42881025526E+03  0.19095849759E+03 0.  0.
         24    2    3    3    0    0 -0.37654426067E+02  0.55454077962E+02 -0.14779169037E+03  0.18157309411E+03  0.81445651788E+02 0.  0.
         -6    2    1    2    0  502  0.18269539301E+03  0.81263809300E+01 -0.53363427293E+03  0.58957626734E+03  0.17143801525E+03 0.  0.
        -24    2    5    5    0    0  0.19110558529E+03  0.16225659901E+02 -0.53764611559E+03  0.57636587235E+03  0.79684731482E+02 0.  0.
          5    1    3    3  501    0 -0.14504096694E+03 -0.63580458892E+02 -0.18980191520E+03  0.24723716116E+03  0.47000000000E+01 0. -1.
        -11    1    4    4    0    0 -0.56413800988E+01 -0.97856817645E+01 -0.84359087389E+02  0.85111928436E+02  0.00000000000E+00 0.  1.
         12    1    4    4    0    0 -0.32013045968E+02  0.65239759726E+02 -0.63432602985E+02  0.96461165672E+02  0.00000000000E+00 0. -1.
         -5    1    5    5    0  502 -0.84101922870E+01 -0.80992789706E+01  0.40118426649E+01  0.13210394987E+02  0.47000000000E+01 0.  1.
         11    1    6    6    0    0 -0.70224159420E+01 -0.44559605813E+00 -0.37374151722E+02  0.38030778304E+02  0.00000000000E+00 0. -1.
        -12    1    6    6    0    0  0.19812800123E+03  0.16671255959E+02 -0.50027196387E+03  0.53833509405E+03  0.00000000000E+00 0.  1.
</event>
<event>
12    1  0.8798177E-003  0.1948735E+03  0.7818608E-02  0.1154207E+00
         21   -1    0    0  503  502  0.00000000000E+00  0.00000000000E+00  0.58684737093E+02  0.58684737093E+02  0.00000000000E+00 0. -1.
         21   -1    0    0  501  503 -0.00000000000E+00 -0.00000000000E+00 -0.72236932602E+03  0.72236932602E+03  0.00000000000E+00 0.  1.
          6    2    1    2  501    0  0.86081245883E+02  0.35454613437E+02 -0.45900689071E+03  0.49866120654E+03  0.17119772976E+03 0.  0.
         24    2    3    3    0    0  0.67017815117E+02 -0.89412649835E+01 -0.42929751835E+03  0.44174771763E+03  0.79204501176E+02 0.  0.
         -6    2    1    2    0  502 -0.86081245883E+02 -0.35454613437E+02 -0.20467769821E+03  0.28239285657E+03  0.17083838794E+03 0.  0.
        -24    2    5    5    0    0 -0.11393731182E+03  0.11207208613E+02 -0.14822301699E+03  0.20389121915E+03  0.80586934007E+02 0.  0.
          5    1    3    3  501    0  0.19063430766E+02  0.44395878421E+02 -0.29709372367E+02  0.56913488909E+02  0.47000000000E+01 0. -1.
        -13    1    4    4    0    0  0.72396003673E+02  0.15764185256E+02 -0.25233039193E+03  0.26298349297E+03  0.00000000000E+00 0.  1.
         14    1    4    4    0    0 -0.53781885558E+01 -0.24705450240E+02 -0.17696712642E+03  0.17876422465E+03  0.00000000000E+00 0. -1.
         -5    1    5    5    0  502  0.27856065934E+02 -0.46661822050E+02 -0.56454681222E+02  0.78501637423E+02  0.47000000000E+01 0.  1.
         13    1    6    6    0    0 -0.62577583679E+02  0.12202701049E+02 -0.21717146323E+02  0.67353502777E+02  0.00000000000E+00 0. -1.
        -14    1    6    6    0    0 -0.51359728138E+02 -0.99549243626E+00 -0.12650587067E+03  0.13653771637E+03  0.00000000000E+00 0.  1.
</event>
<event>
12    1  0.8798177E-003  0.2217220E+03  0.7818608E-02  0.1132808E+00
         21   -1    0    0  501  502  0.00000000000E+00  0.00000000000E+00  0.17650164935E+03  0.17650164935E+03  0.00000000000E+00 0. -1.
         21   -1    0    0  502  503 -0.00000000000E+00 -0.00000000000E+00 -0.40201175593E+03  0.40201175593E+03  0.00000000000E+00 0.  1.
          6    2    1    2  501    0  0.10411885576E+03  0.96730235636E+02  0.48639709143E+02  0.22592474623E+03  0.16875631853E+03 0.  0.
         24    2    3    3    0    0  0.96675074079E+02  0.32658851773E+01  0.24763513003E+02  0.12905804693E+03  0.81768037437E+02 0.  0.
         -6    2    1    2    0  503 -0.10411885576E+03 -0.96730235636E+02 -0.27414981572E+03  0.35258865905E+03  0.17018568218E+03 0.  0.
        -24    2    5    5    0    0 -0.78408956432E+02 -0.49385556485E+02 -0.67349592981E+02  0.13883426800E+03  0.78435251381E+02 0.  0.
          5    1    3    3  501    0  0.74437816803E+01  0.93464350458E+02  0.23876196140E+02  0.96866699306E+02  0.47000000000E+01 0. -1.
        -13    1    4    4    0    0  0.11113757228E+03  0.60006675308E+01  0.25972403358E+02  0.11428969209E+03  0.00000000000E+00 0.  1.
         14    1    4    4    0    0 -0.14462498198E+02 -0.27347823535E+01 -0.12088903559E+01  0.14768354835E+02  0.00000000000E+00 0. -1.
         -5    1    5    5    0  503 -0.25709899327E+02 -0.47344679151E+02 -0.20680022273E+03  0.21375439104E+03  0.47000000000E+01 0.  1.
         13    1    6    6    0    0 -0.29549407532E+02 -0.60207478796E+02 -0.20114908813E+02  0.70019408346E+02  0.00000000000E+00 0. -1.
        -14    1    6    6    0    0 -0.48859548900E+02  0.10821922312E+02 -0.47234684168E+02  0.68814859658E+02  0.00000000000E+00 0.  1.
</event>
<event>
12    1  0.8798177E-003  0.1918578E+03  0.7818608E-02  0.1156850E+00
         21   -1    0    0  503  502  0.00000000000E+00  0.00000000000E+00  0.39754755693E+02  0.39754755693E+02  0.00000000000E+00 0. -1.
         21   -1    0    0  501  503 -0.00000000000E+00 -0.00000000000E+00 -0.92644557251E+03  0.92644557251E+03  0.00000000000E+00 0.  1.
          6    2    1    2  501    0  0.82244712271E+02 -0.53440175601E+01 -0.42238931848E+03  0.46382070376E+03  0.17298600421E+03 0.  0.
         24    2    3    3    0    0  0.21699188835E+02 -0.62154325939E+02 -0.27965380402E+03  0.29862782064E+03  0.81475825416E+02 0.  0.
         -6    2    1    2    0  502 -0.82244712271E+02  0.53440175601E+01 -0.46430149834E+03  0.50237962444E+03  0.17325315142E+03 0.  0.
        -24    2    5    5    0    0 -0.69459491290E+02  0.33346242617E+02 -0.15226428497E+03  0.18879247705E+03  0.80756387280E+02 0.  0.
          5    1    3    3  501    0  0.60545523437E+02  0.56810308379E+02 -0.14273551446E+03  0.16519288312E+03  0.47000000000E+01 0. -1.
        -13    1    4    4    0    0 -0.21493002585E+02 -0.46003534456E+02 -0.88896926906E+02  0.10237645216E+03  0.00000000000E+00 0.  1.
         14    1    4    4    0    0  0.43192191419E+02 -0.16150791483E+02 -0.19075687712E+03  0.19625136849E+03  0.00000000000E+00 0. -1.
         -5    1    5    5    0  502 -0.12785220982E+02 -0.28002225056E+02 -0.31203721337E+03  0.31358714739E+03  0.47000000000E+01 0.  1.
         11    1    6    6    0    0 -0.29977147868E+02  0.56257492943E+02 -0.69737131019E+02  0.94481756701E+02  0.00000000000E+00 0. -1.
        -12    1    6    6    0    0 -0.39482343421E+02 -0.22911250326E+02 -0.82527153954E+02  0.94310720351E+02  0.00000000000E+00 0.  1.
</event>
<event>
12    1  0.8798177E-003  0.2708356E+03  0.7818608E-02  0.1100893E+00
         21   -1    0    0  501  502  0.00000000000E+00  0.00000000000E+00  0.14813498491E+03  0.14813498491E+03  0.00000000000E+00 0. -1.
         21   -1    0    0  502  503 -0.00000000000E+00 -0.00000000000E+00 -0.50952662716E+03  0.50952662716E+03  0.00000000000E+00 0. -1.
          6    2    1    2  501    0  0.10428540195E+03 -0.18206596788E+03 -0.23788523235E+03  0.35999439761E+03  0.17024429747E+03 0.  0.
         24    2    3    3    0    0  0.11131077251E+03 -0.14988589269E+03 -0.25243194853E+03  0.32368172733E+03  0.78689917198E+02 0.  0.
         -6    2    1    2    0  503 -0.10428540195E+03  0.18206596788E+03 -0.12350640990E+03  0.29766721445E+03  0.17125558547E+03 0.  0.
        -24    2    5    5    0    0 -0.14130896345E+03  0.14220792827E+03 -0.10633170377E+03  0.24042677457E+03  0.79418415299E+02 0.  0.
          5    1    3    3  501    0 -0.70253705688E+01 -0.32180075193E+02  0.14546716179E+02  0.36312670277E+02  0.47000000000E+01 0. -1.
        -13    1    4    4    0    0  0.31302495191E+02 -0.10201912691E+03 -0.16056373003E+03  0.19279123388E+03  0.00000000000E+00 0.  1.
         14    1    4    4    0    0  0.80008277324E+02 -0.47866765777E+02 -0.91868218497E+02  0.13089049345E+03  0.00000000000E+00 0. -1.
         -5    1    5    5    0  503  0.37023561500E+02  0.39858039611E+02 -0.17174706136E+02  0.57240439889E+02  0.47000000000E+01 0.  1.
         13    1    6    6    0    0 -0.48644098794E+02  0.12919253534E+02 -0.51920240915E+02  0.72310904268E+02  0.00000000000E+00 0. -1.
        -14    1    6    6    0    0 -0.92664864652E+02  0.12928867474E+03 -0.54411462853E+02  0.16811587030E+03  0.00000000000E+00 0.  1.
</event>
<event>
12    1  0.8798177E-003  0.1672808E+03  0.7818608E-02  0.1183408E+00
         21   -1    0    0  501  502  0.00000000000E+00  0.00000000000E+00  0.95840040082E+03  0.95840040082E+03  0.00000000000E+00 0.  1.
         21   -1    0    0  502  503 -0.00000000000E+00 -0.00000000000E+00 -0.27561893498E+02  0.27561893498E+02  0.00000000000E+00 0.  1.
          6    2    1    2  501    0 -0.34138154826E+02  0.18170212848E+02  0.45854832496E+03  0.48810800032E+03  0.16274914254E+03 0.  0.
         24    2    3    3    0    0 -0.80719908109E+02  0.58637554847E+01  0.37642985412E+03  0.39278307239E+03  0.77646762242E+02 0.  0.
         -6    2    1    2    0  503  0.34138154826E+02 -0.18170212848E+02  0.47229018236E+03  0.49785429400E+03  0.15266077247E+03 0.  0.
        -24    2    5    5    0    0  0.27779522446E+02 -0.63331272665E+02  0.30821918767E+03  0.32749780065E+03  0.86447613125E+02 0.  0.
          5    1    3    3  501    0  0.46581753283E+02  0.12306457363E+02  0.82118470840E+02  0.95324927930E+02  0.47000000000E+01 0. -1.
        -11    1    4    4    0    0 -0.48079692868E+02  0.29230299620E+01  0.34152180407E+03  0.34490193334E+03  0.00000000000E+00 0.  1.
         12    1    4    4    0    0 -0.32640215241E+02  0.29407255227E+01  0.34908050054E+02  0.47881139044E+02  0.00000000000E+00 0. -1.
         -5    1    5    5    0  503  0.63586323795E+01  0.45161059817E+02  0.16407099468E+03  0.17035649335E+03  0.47000000000E+01 0.  1.
         11    1    6    6    0    0  0.32825129103E+02 -0.61935362506E+02  0.31278999035E+03  0.32054805614E+03  0.00000000000E+00 0. -1.
        -12    1    6    6    0    0 -0.50456066564E+01 -0.13959101583E+01 -0.45708026758E+01  0.69497445135E+01  0.00000000000E+00 0.  1.
</event>
<event>
12    1  0.8798177E-003  0.2032276E+03  0.7818608E-02  0.1147096E+00
         21   -1    0    0  501  502  0.00000000000E+00  0.00000000000E+00  0.14980784954E+04  0.14980784954E+04  0.00000000000E+00 0.  1.
         21   -1    0    0  502  503 -0.00000000000E+00 -0.00000000000E+00 -0.59210543696E+02  0.59210543696E+02  0.00000000000E+00 0.  1.
          6    2    1    2  501    0  0.89867624310E+02  0.58633424679E+02  0.12891446885E+04  0.13050653146E+04  0.17259020604E+03 0.  0.
         24    2    3    3    0    0  0.79825036379E+02  0.10623716724E+03  0.10249361632E+04  0.10363736611E+04  0.76927592706E+02 0.  0.
         -6    2    1    2    0  503 -0.89867624310E+02 -0.58633424679E+02  0.14972326323E+03  0.25222372448E+03  0.17229533728E+03 0.  0.
        -24    2    5    5    0    0 -0.35344348182E+02 -0.10212486866E+02  0.20572104172E+01  0.87467152491E+02  0.79326873213E+02 0.  0.
          5    1    3    3  501    0  0.10042587931E+02 -0.47603742565E+02  0.26420852524E+03  0.26869165355E+03  0.47000000000E+01 0. -1.
        -13    1    4    4    0    0  0.46602897230E+01  0.93510544644E+01  0.36452195941E+03  0.36467165974E+03  0.00000000000E+00 0.  1.
         14    1    4    4    0    0  0.75164746656E+02  0.96886112779E+02  0.66041420381E+03  0.67170200132E+03  0.00000000000E+00 0. -1.
         -5    1    5    5    0  503 -0.54523276128E+02 -0.48420937812E+02  0.14766605282E+03  0.16475657199E+03  0.47000000000E+01 0.  1.
         11    1    6    6    0    0 -0.44953526691E+02  0.74523707933E+01  0.28876341359E+02  0.53946274039E+02  0.00000000000E+00 0. -1.
        -12    1    6    6    0    0  0.96091785093E+01 -0.17664857660E+02 -0.26819130941E+02  0.33520878452E+02  0.00000000000E+00 0.  1.
</event>
<event>
12    1  0.8798177E-003  0.1783509E+03  0.7818608E-02  0.1169962E+00
         21   -1    0    0  503  502  0.00000000000E+00  0.00000000000E+00  0.75539561306E+02  0.75539561306E+02  0.00000000000E+00 0. -1.
         21   -1    0    0  501  503 -0.00000000000E+00 -0.00000000000E+00 -0.41681147369E+03  0.41681147369E+03  0.00000000000E+00 0. -1.
          6    2    1    2  501    0  0.31427929371E+02 -0.27063007283E+02 -0.18380530390E+03  0.25611214540E+03  0.17346158126E+03 0.  0.
         24    2    3    3    0    0  0.23594388538E+02 -0.61450158232E+02 -0.45435710631E+02  0.11324131265E+03  0.80164667852E+02 0.  0.
         -6    2    1    2    0  502 -0.31427929371E+02  0.27063007283E+02 -0.15746660849E+03  0.23623888960E+03  0.17115185965E+03 0.  0.
        -24    2    5    5    0    0 -0.17595231031E+02  0.59318222977E+01 -0.22581926363E+01  0.78918792742E+02  0.76670057669E+02 0.  0.
          5    1    3    3  501    0  0.78335408329E+01  0.34387150949E+02 -0.13836959326E+03  0.14287083276E+03  0.47000000000E+01 0. -1.
        -11    1    4    4    0    0 -0.15882468235E+02 -0.24819476649E+02  0.14351650398E+02  0.32775434208E+02  0.00000000000E+00 0.  1.
         12    1    4    4    0    0  0.39476856773E+02 -0.36630681583E+02 -0.59787361029E+02  0.80465878438E+02  0.00000000000E+00 0. -1.
         -5    1    5    5    0  502 -0.13832698340E+02  0.21131184986E+02 -0.15520841586E+03  0.15732009686E+03  0.47000000000E+01 0.  1.
         13    1    6    6    0    0 -0.32625376286E+02  0.20861874209E+02 -0.26348133210E+02  0.46838628257E+02  0.00000000000E+00 0. -1.
        -14    1    6    6    0    0  0.15030145255E+02 -0.14930051911E+02  0.24089940574E+02  0.32080164484E+02  0.00000000000E+00 0.  1.
</event>
<event>
12    1  0.8798177E-003  0.1973733E+03  0.7818608E-02  0.1152041E+00
         21   -1    0    0  503  502  0.00000000000E+00  0.00000000000E+00  0.26753770456E+03  0.26753770456E+03  0.00000000000E+00 0.  1.
         21   -1    0    0  501  503 -0.00000000000E+00 -0.00000000000E+00 -0.15867208829E+03  0.15867208829E+03  0.00000000000E+00 0. -1.
          6    2    1    2  501    0 -0.38735092454E+02  0.88296077546E+02 -0.72011360062E+01  0.19750460143E+03  0.17221964618E+03 0.  0.
         24    2    3    3    0    0  0.31023173772E+02  0.18275645826E+02 -0.34349544428E+02  0.94897571237E+02  0.80803596968E+02 0.  0.
         -6    2    1    2    0  502  0.38735092454E+02 -0.88296077546E+02  0.11606675228E+03  0.22870519142E+03  0.17186613658E+03 0.  0.
        -24    2    5    5    0    0  0.74968817144E+02 -0.39457347647E+02  0.23555069626E+02  0.11789632097E+03  0.78533402871E+02 0.  0.
          5    1    3    3  501    0 -0.69758266226E+02  0.70020431720E+02  0.27148408422E+02  0.10260703019E+03  0.47000000000E+01 0. -1.
        -11    1    4    4    0    0 -0.82979130293E+01 -0.17419211989E+02  0.13391840856E+02  0.23486713445E+02  0.00000000000E+00 0.  1.
         12    1    4    4    0    0  0.39321086802E+02  0.35694857815E+02 -0.47741385284E+02  0.71410857792E+02  0.00000000000E+00 0. -1.
         -5    1    5    5    0  502 -0.36233724690E+02 -0.48838729899E+02  0.92511682652E+02  0.11080887045E+03  0.47000000000E+01 0.  1.
         11    1    6    6    0    0  0.46148146399E+02  0.11944234640E+02 -0.11888044510E+02  0.49128828191E+02  0.00000000000E+00 0. -1.
        -12    1    6    6    0    0  0.28820670746E+02 -0.51401582287E+02  0.35443114136E+02  0.68767492782E+02  0.00000000000E+00 0.  1.
</event>
<event>
12    1  0.8798177E-003  0.2191183E+03  0.7818608E-02  0.1134612E+00
         21   -1    0    0  503  502  0.00000000000E+00  0.00000000000E+00  0.12846845285E+03  0.12846845285E+03  0.00000000000E+00 0.  1.
         21   -1    0    0  501  503 -0.00000000000E+00 -0.00000000000E+00 -0.49983536890E+03  0.49983536890E+03  0.00000000000E+00 0. -1.
          6    2    1    2  501    0  0.12638944993E+03  0.47059357021E+02 -0.34398923579E+03  0.40784974574E+03  0.17269610484E+03 0.  0.
         24    2    3    3    0    0  0.12864548211E+03  0.19958665387E+02 -0.34780228291E+03  0.37998998091E+03  0.80485708083E+02 0.  0.
         -6    2    1    2    0  502 -0.12638944993E+03 -0.47059357021E+02 -0.27377680260E+02  0.22045407600E+03  0.17222539335E+03 0.  0.
        -24    2    5    5    0    0 -0.14611098175E+03 -0.76144534915E+02 -0.27681773202E+02  0.18499890906E+03  0.79447508472E+02 0.  0.
          5    1    3    3  501    0 -0.22560321750E+01  0.27100691634E+02  0.38130471184E+01  0.27859764833E+02  0.47000000000E+01 0. -1.
        -13    1    4    4    0    0  0.92754411263E+02 -0.91424145090E+01 -0.14790895530E+03  0.17482569494E+03  0.00000000000E+00 0.  1.
         14    1    4    4    0    0  0.35891070844E+02  0.29101079896E+02 -0.19989332761E+03  0.20516428597E+03  0.00000000000E+00 0. -1.
         -5    1    5    5    0  502  0.19721531815E+02  0.29085177895E+02  0.30409294203E+00  0.35455166941E+02  0.47000000000E+01 0.  1.
         13    1    6    6    0    0 -0.96610710302E+02 -0.14762440436E+02  0.87738967602E+01  0.98125125513E+02  0.00000000000E+00 0. -1.
        -14    1    6    6    0    0 -0.49500271445E+02 -0.61382094479E+02 -0.36455669963E+02  0.86873783550E+02  0.00000000000E+00 0.  1.
</event>
<event>
12    1  0.8798177E-003  0.2004034E+03  0.7818608E-02  0.1149700E+00
         21   -1    0    0  501  502  0.00000000000E+00  0.00000000000E+00  0.14374297280E+04  0.14374297280E+04  0.00000000000E+00 0.  1.
         21   -1    0    0  502  503 -0.00000000000E+00 -0.00000000000E+00 -0.27765454316E+02  0.27765454316E+02  0.00000000000E+00 0.  1.
          6    2    1    2  501    0  0.10240040682E+03 -0.67427101555E+01  0.68071803315E+03  0.70920302368E+03  0.17047164188E+03 0.  0.
         24    2    3    3    0    0  0.35544645613E+02 -0.66935635041E+02  0.35854357131E+03  0.37467147827E+03  0.77983479217E+02 0.  0.
         -6    2    1    2    0  503 -0.10240040682E+03  0.67427101555E+01  0.72894624054E+03  0.75599215864E+03  0.17213429313E+03 0.  0.
        -24    2    5    5    0    0 -0.35840082349E+02  0.46118996848E+02  0.57711503414E+03  0.58553520224E+03  0.79863865824E+02 0.  0.
          5    1    3    3  501    0  0.66855761207E+02  0.60192924886E+02  0.32217446184E+03  0.33453154541E+03  0.47000000000E+01 0. -1.
        -11    1    4    4    0    0  0.51911634948E+02 -0.15267225990E+02  0.16238710436E+03  0.17116505980E+03  0.00000000000E+00 0.  1.
         12    1    4    4    0    0 -0.16366989335E+02 -0.51668409051E+02  0.19615646695E+03  0.20350641847E+03  0.00000000000E+00 0. -1.
         -5    1    5    5    0  503 -0.66560324471E+02 -0.39376286692E+02  0.15183120641E+03  0.17045695640E+03  0.47000000000E+01 0.  1.
         13    1    6    6    0    0 -0.21315988936E+02  0.47556803357E+02  0.16226963706E+03  0.17043314244E+03  0.00000000000E+00 0. -1.
        -14    1    6    6    0    0 -0.14524093412E+02 -0.14378065093E+01  0.41484539708E+03  0.41510205980E+03  0.00000000000E+00 0.  1.
</event>
<event>
12    1  0.8798177E-003  0.2650957E+03  0.7818608E-02  0.1105004E+00
         21   -1    0    0  501  502  0.00000000000E+00  0.00000000000E+00  0.42246146021E+03  0.42246146021E+03  0.00000000000E+00 0. -1.
         21   -1    0    0  502  503 -0.00000000000E+00 -0.00000000000E+00 -0.22891800743E+03  0.22891800743E+03  0.00000000000E+00 0.  1.
          6    2    1    2  501    0 -0.19308826709E+03  0.10155619284E+02  0.27124533422E+03  0.37513084267E+03  0.17251928094E+03 0.  0.
         24    2    3    3    0    0 -0.13675844091E+03  0.25937111846E+02  0.88023774363E+02  0.18273974407E+03  0.79183484892E+02 0.  0.
         -6    2    1    2    0  503  0.19308826709E+03 -0.10155619284E+02 -0.77701881437E+02  0.27624862497E+03  0.18135463856E+03 0.  0.
        -24    2    5    5    0    0  0.12623456524E+02  0.66417470831E+01 -0.17124315922E+01  0.79662293152E+02  0.78356136131E+02 0.  0.
          5    1    3    3  501    0 -0.56329826186E+02 -0.15781492562E+02  0.18322155986E+03  0.19239109861E+03  0.47000000000E+01 0. -1.
        -13    1    4    4    0    0 -0.50322029173E+02  0.12217506483E+02 -0.84663637968E+01  0.52471453197E+02  0.00000000000E+00 0.  1.
         14    1    4    4    0    0 -0.86436411733E+02  0.13719605363E+02  0.96490138160E+02  0.13026829087E+03  0.00000000000E+00 0. -1.
         -5    1    5    5    0  503  0.18046481057E+03 -0.16797366367E+02 -0.75989449844E+02  0.19658633182E+03  0.47000000000E+01 0.  1.
         11    1    6    6    0    0 -0.18106628856E+02 -0.26860552434E+02  0.75620819956E+01  0.33264461061E+02  0.00000000000E+00 0. -1.
        -12    1    6    6    0    0  0.30730085380E+02  0.33502299517E+02 -0.92745135878E+01  0.46397832090E+02  0.00000000000E+00 0.  1.
</event>
<event>
12    1  0.8798177E-003  0.2193891E+03  0.7818608E-02  0.1137727E+00
         21   -1    0    0  501  502  0.00000000000E+00  0.00000000000E+00  0.36405947516E+03  0.36405947516E+03  0.00000000000E+00 0. -1.
         21   -1    0    0  502  503 -0.00000000000E+00 -0.00000000000E+00 -0.12219829419E+03  0.12219829419E+03  0.00000000000E+00 0. -1.
          6    2    1    2  501    0  0.84091638861E+02  0.68347479774E+02  0.11535882605E+03  0.24786936751E+03  0.19075844119E+03 0.  0.
         24    2    3    3    0    0  0.79781912164E+02  0.11041246523E+03  0.12793426278E+03  0.20350419699E+03  0.80564983782E+02 0.  0.
         -6    2    1    2    0  503 -0.84091638861E+02 -0.68347479774E+02  0.12650235492E+03  0.23838840184E+03  0.17053856635E+03 0.  0.
        -24    2    5    5    0    0 -0.99288961969E+02 -0.10518975116E+03  0.11639519253E+03  0.19700535794E+03  0.65879348008E+02 0.  0.
          5    1    3    3  501    0  0.43097266968E+01 -0.42064985460E+02 -0.12575436735E+02  0.44365170517E+02  0.47000000000E+01 0. -1.
        -13    1    4    4    0    0 -0.97011583823E+01  0.15753231055E+02  0.46094689079E+02  0.49668874800E+02  0.00000000000E+00 0.  1.
         14    1    4    4    0    0  0.89483070546E+02  0.94659234179E+02  0.81839573703E+02  0.15383532219E+03  0.00000000000E+00 0. -1.
         -5    1    5    5    0  503  0.15197323109E+02  0.36842271390E+02  0.10107162398E+02  0.41383043902E+02  0.47000000000E+01 0.  1.
         11    1    6    6    0    0  0.60828988240E+01 -0.55928156246E+01  0.23242992600E+02  0.24668156594E+02  0.00000000000E+00 0. -1.
        -12    1    6    6    0    0 -0.10537186079E+03 -0.99596935539E+02  0.93152199925E+02  0.17233720134E+03  0.00000000000E+00 0.  1.
</event>
<event>
12    1  0.8798177E-003  0.2279079E+03  0.7818608E-02  0.1128432E+00
         21   -1    0    0  503  502  0.00000000000E+00  0.00000000000E+00  0.39679438714E+02  0.39679438714E+02  0.00000000000E+00 0. -1.
         21   -1    0    0  501  503 -0.00000000000E+00 -0.00000000000E+00 -0.13166412081E+04  0.13166412081E+04  0.00000000000E+00 0. -1.
          6    2    1    2  501    0 -0.15077017405E+03  0.13386800143E+02 -0.71921449035E+03  0.75446104759E+03  0.17038526167E+03 0.  0.
         24    2    3    3    0    0 -0.10329397635E+03  0.29101567513E+02 -0.25849891248E+03  0.29101539063E+03  0.79697697881E+02 0.  0.
         -6    2    1    2    0  502  0.15077017405E+03 -0.13386800143E+02 -0.55774727906E+03  0.60185959925E+03  0.16805385478E+03 0.  0.
        -24    2    5    5    0    0  0.88849019532E+01 -0.13005443495E+02 -0.24569290034E+03  0.25903077731E+03  0.80522414735E+02 0.  0.
          5    1    3    3  501    0 -0.47476197705E+02 -0.15714767370E+02 -0.46071557787E+03  0.46344565696E+03  0.47000000000E+01 0. -1.
        -13    1    4    4    0    0 -0.77008026591E+00  0.29865574991E+02 -0.42872819943E+02  0.52255375638E+02  0.00000000000E+00 0.  1.
         14    1    4    4    0    0 -0.10252389608E+03 -0.76400747841E+00 -0.21562609254E+03  0.23876001499E+03  0.00000000000E+00 0. -1.
         -5    1    5    5    0  502  0.14188527210E+03 -0.38135664825E+00 -0.31205437872E+03  0.34282882194E+03  0.47000000000E+01 0.  1.
         11    1    6    6    0    0 -0.41066889243E+01 -0.37653086762E+02 -0.57940129623E+02  0.69221950690E+02  0.00000000000E+00 0. -1.
        -12    1    6    6    0    0  0.12991590878E+02  0.24647643267E+02 -0.18775277071E+03  0.18980882662E+03  0.00000000000E+00 0.  1.
</event>
<event>
12    1  0.8798177E-003  0.1758373E+03  0.7818608E-02  0.1172882E+00
         21   -1    0    0  501  502  0.00000000000E+00  0.00000000000E+00  0.36690893178E+03  0.36690893178E+03  0.00000000000E+00 0.  1.
         21   -1    0    0  502  503 -0.00000000000E+00 -0.00000000000E+00 -0.10661175456E+03  0.10661175456E+03  0.00000000000E+00 0.  1.
          6    2    1    2  501    0  0.25193481825E+02  0.27033832633E+02  0.24409615154E+03  0.30083499192E+03  0.17191050444E+03 0.  0.
         24    2    3    3    0    0 -0.11597535047E+01 -0.26860818551E+02  0.52011624291E+02  0.99544947346E+02  0.80505520800E+02 0.  0.
         -6    2    1    2    0  503 -0.25193481825E+02 -0.27033832633E+02  0.16201025683E+02  0.17268569441E+03  0.16790573602E+03 0.  0.
        -24    2    5    5    0    0 -0.34521281182E+00  0.35720791926E+02  0.44618745039E+02  0.99301526158E+02  0.81202626440E+02 0.  0.
          5    1    3    3  501    0  0.26353235329E+02  0.53894651184E+02  0.19208452725E+03  0.20129004458E+03  0.47000000000E+01 0. -1.
        -13    1    4    4    0    0 -0.16457526988E+02 -0.96826678569E+01  0.68585230388E+02  0.71193666001E+02  0.00000000000E+00 0.  1.
         14    1    4    4    0    0  0.15297773483E+02 -0.17178150694E+02 -0.16573606097E+02  0.28351281344E+02  0.00000000000E+00 0. -1.
         -5    1    5    5    0  503 -0.24848269013E+02 -0.62754624559E+02 -0.28417719355E+02  0.73384168251E+02  0.47000000000E+01 0.  1.
         11    1    6    6    0    0  0.34106904573E+02  0.10941126017E+02 -0.24790238627E+01  0.35904522520E+02  0.00000000000E+00 0. -1.
        -12    1    6    6    0    0 -0.34452117384E+02  0.24779665909E+02  0.47097768901E+02  0.63397003638E+02  0.00000000000E+00 0.  1.
</event>
<event>
12    1  0.8798177E-003  0.1724504E+03  0.7818608E-02  0.1176758E+00
         21   -1    0    0  503  502  0.00000000000E+00  0.00000000000E+00  0.35813054217E+02  0.35813054217E+02  0.00000000000E+00 0. -1.
         21   -1    0    0  501  503 -0.00000000000E+00 -0.00000000000E+00 -0.85789295026E+03  0.85789295026E+03  0.00000000000E+00 0. -1.
          6    2    1    2  501    0 -0.85136060052E+01  0.29377726426E+01 -0.51678355975E+03  0.54307085609E+03  0.16667211859E+03 0.  0.
         24    2    3    3    0    0  0.40688726068E+02  0.37368408321E+02 -0.38610211591E+03  0.39917482446E+03  0.84933657673E+02 0.  0.
         -6    2    1    2    0  502  0.85136060052E+01 -0.29377726426E+01 -0.30529633629E+03  0.35063514838E+03  0.17221510483E+03 0.  0.
        -24    2    5    5    0    0 -0.12834645559E+02  0.37007639938E+02 -0.76491674573E+02  0.11734338459E+03  0.79901189520E+02 0.  0.
          5    1    3    3  501    0 -0.49202332073E+02 -0.34430635679E+02 -0.13068144384E+03  0.14389603163E+03  0.47000000000E+01 0. -1.
        -11    1    4    4    0    0 -0.21977702761E+02  0.11502087999E+01 -0.40686163866E+02  0.46256959791E+02  0.00000000000E+00 0.  1.
         12    1    4    4    0    0  0.62666428829E+02  0.36218199521E+02 -0.34541595204E+03  0.35291786467E+03  0.00000000000E+00 0. -1.
         -5    1    5    5    0  502  0.21348251564E+02 -0.39945412581E+02 -0.22880466172E+03  0.23329176379E+03  0.47000000000E+01 0.  1.
         11    1    6    6    0    0  0.15593741213E+02 -0.13073971299E+02  0.14888683361E+01  0.20403681518E+02  0.00000000000E+00 0. -1.
        -12    1    6    6    0    0 -0.28428386772E+02  0.50081611237E+02 -0.77980542909E+02  0.96939703068E+02  0.00000000000E+00 0.  1.
</event>
<event>
12    1  0.8798177E-003  0.3228319E+03  0.7818608E-02  0.1074450E+00
         21   -1    0    0  501  502  0.00000000000E+00  0.00000000000E+00  0.12028014799E+04  0.12028014799E+04  0.00000000000E+00 0. -1.
         21   -1    0    0  502  503 -0.00000000000E+00 -0.00000000000E+00 -0.88046395460E+02  0.88046395460E+02  0.00000000000E+00 0.  1.
          6    2    1    2  501    0 -0.65879233300E+02 -0.26512444789E+03  0.64580908868E+03  0.72200403305E+03  0.17201569247E+03 0.  0.
         24    2    3    3    0    0 -0.11425449626E+02 -0.21815534818E+03  0.37180726170E+03  0.43868371595E+03  0.80501341327E+02 0.  0.
         -6    2    1    2    0  503  0.65879233300E+02  0.26512444789E+03  0.46894599575E+03  0.56884384230E+03  0.17041691158E+03 0.  0.
        -24    2    5    5    0    0  0.25743617668E+02  0.52018732364E+02  0.96840277323E+02  0.13813550791E+03  0.79590808932E+02 0.  0.
          5    1    3    3  501    0 -0.54453783674E+02 -0.46969099718E+02  0.27400182699E+03  0.28332031709E+03  0.47000000000E+01 0. -1.
        -11    1    4    4    0    0  0.53815592090E+01 -0.17845429336E+03  0.34344742749E+03  0.38708013569E+03  0.00000000000E+00 0.  1.
         12    1    4    4    0    0 -0.16807008835E+02 -0.39701054819E+02  0.28359834207E+02  0.51603580263E+02  0.00000000000E+00 0. -1.
         -5    1    5    5    0  503  0.40135615633E+02  0.21310571553E+03  0.37210571842E+03  0.43070833439E+03  0.47000000000E+01 0.  1.
         11    1    6    6    0    0  0.22135426094E+02 -0.17516911519E+01  0.77915739149E+02  0.81017948119E+02  0.00000000000E+00 0. -1.
        -12    1    6    6    0    0  0.36081915734E+01  0.53770423516E+02  0.18924538174E+02  0.57117559792E+02  0.00000000000E+00 0.  1.
</event>
<event>
12    1  0.8798177E-003  0.2150637E+03  0.7818608E-02  0.1137956E+00
         21   -1    0    0  501  502  0.00000000000E+00  0.00000000000E+00  0.18750369241E+04  0.18750369241E+04  0.00000000000E+00 0. -1.
         21   -1    0    0  502  503 -0.00000000000E+00 -0.00000000000E+00 -0.54047500526E+02  0.54047500526E+02  0.00000000000E+00 0. -1.
          6    2    1    2  501    0  0.24267906684E+02 -0.12555254073E+03  0.16223767697E+04  0.16363398289E+04  0.17073160552E+03 0.  0.
         24    2    3    3    0    0 -0.24146456593E+02 -0.75930165078E+02  0.48651067133E+03  0.49835027970E+03  0.72882965278E+02 0.  0.
         -6    2    1    2    0  503 -0.24267906684E+02  0.12555254073E+03  0.19861265386E+03  0.29274459568E+03  0.17291628103E+03 0.  0.
        -24    2    5    5    0    0 -0.68292106346E+00  0.58313725369E+00  0.11545716864E+03  0.14072312326E+03  0.80447704757E+02 0.  0.
          5    1    3    3  501    0  0.48414363277E+02 -0.49622375654E+02  0.11358660984E+04  0.11379895492E+04  0.47000000000E+01 0. -1.
        -13    1    4    4    0    0  0.13085967028E+02 -0.13422304520E+02  0.25583281489E+02  0.31716006738E+02  0.00000000000E+00 0.  1.
         14    1    4    4    0    0 -0.37232423621E+02 -0.62507860558E+02  0.46092738984E+03  0.46663427296E+03  0.00000000000E+00 0. -1.
         -5    1    5    5    0  503 -0.23584985620E+02  0.12496940348E+03  0.83155485225E+02  0.15202147242E+03  0.47000000000E+01 0.  1.
         11    1    6    6    0    0 -0.21257593388E+02 -0.26937546392E+02  0.21049517606E+02  0.40256662476E+02  0.00000000000E+00 0. -1.
        -12    1    6    6    0    0  0.20574672324E+02  0.27520683646E+02  0.94407651032E+02  0.10046646079E+03  0.00000000000E+00 0.  1.
</event>
<event>
12    1  0.8798177E-003  0.1782293E+03  0.7818608E-02  0.1169861E+00
         21   -1    0    0  501  502  0.00000000000E+00  0.00000000000E+00  0.48690297474E+03  0.48690297474E+03  0.00000000000E+00 0.  1.
         21   -1    0    0  502  503 -0.00000000000E+00 -0.00000000000E+00 -0.10572213751E+03  0.10572213751E+03  0.00000000000E+00 0.  1.
          6    2    1    2  501    0 -0.46071566646E+02 -0.22658139930E+01  0.37550638086E+03  0.41565699219E+03  0.17215681784E+03 0.  0.
         24    2    3    3    0    0 -0.85197407110E+02 -0.40048306201E+02  0.27218885233E+03  0.29880259642E+03  0.79584893607E+02 0.  0.
         -6    2    1    2    0  503  0.46071566646E+02  0.22658139930E+01  0.56744563732E+01  0.17696812005E+03  0.17075653104E+03 0.  0.
        -24    2    5    5    0    0  0.56720119984E+02 -0.35124750135E+02  0.52245734847E+02  0.11612060611E+03  0.79394321405E+02 0.  0.
          5    1    3    3  501    0  0.39125840464E+02  0.37782492208E+02  0.10331752853E+03  0.11685439577E+03  0.47000000000E+01 0. -1.
        -11    1    4    4    0    0 -0.21311858194E+02 -0.40904515640E+02  0.18528680335E+03  0.19094128468E+03  0.00000000000E+00 0.  1.
         12    1    4    4    0    0 -0.63885548916E+02  0.85620943865E+00  0.86902048982E+02  0.10786131175E+03  0.00000000000E+00 0. -1.
         -5    1    5    5    0  503 -0.10648553338E+02  0.37390564128E+02 -0.46571278474E+02  0.60847513940E+02  0.47000000000E+01 0.  1.
         13    1    6    6    0    0  0.29309220180E+02 -0.17260674445E+02  0.70771830628E+02  0.78521419245E+02  0.00000000000E+00 0. -1.
        -14    1    6    6    0    0  0.27410899804E+02 -0.17864075690E+02 -0.18526095780E+02  0.37599186869E+02  0.00000000000E+00 0.  1.
</event>
<event>
12    1  0.8798177E-003  0.1738126E+03  0.7818608E-02  0.1174095E+00
         21   -1    0    0  501  502  0.00000000000E+00  0.00000000000E+00  0.62813905916E+02  0.62813905916E+02  0.00000000000E+00 0.  1.
         21   -1    0    0  502  503 -0.00000000000E+00 -0.00000000000E+00 -0.47943020358E+03  0.47943020358E+03  0.00000000000E+00 0.  1.
          6    2    1    2  501    0 -0.13427864073E+02  0.18366897983E+02 -0.21520047619E+03  0.27662624810E+03  0.17231710801E+03 0.  0.
         24    2    3    3    0    0  0.39495321831E+02  0.51061335600E+02 -0.89388132748E+02  0.13619610312E+03  0.79949983048E+02 0.  0.
         -6    2    1    2    0  503  0.13427864073E+02 -0.18366897983E+02 -0.20141582147E+03  0.26561786139E+03  0.17165915261E+03 0.  0.
        -24    2    5    5    0    0  0.70699834464E+02 -0.34495665017E+02 -0.13419371269E+03  0.17572282467E+03  0.81744364241E+02 0.  0.
          5    1    3    3  501    0 -0.52923185904E+02 -0.32694437617E+02 -0.12581234344E+03  0.14043014498E+03  0.47000000000E+01 0. -1.
        -11    1    4    4    0    0 -0.47838848695E+01  0.41559570203E+02 -0.73310044046E+01  0.42471485204E+02  0.00000000000E+00 0.  1.
         12    1    4    4    0    0  0.44279206700E+02  0.95017653979E+01 -0.82057128344E+02  0.93724617917E+02  0.00000000000E+00 0. -1.
         -5    1    5    5    0  503 -0.57271970391E+02  0.16128767034E+02 -0.67222108785E+02  0.89895036726E+02  0.47000000000E+01 0.  1.
         11    1    6    6    0    0  0.43255817563E+02  0.15247870813E+02 -0.98430620608E+02  0.10859166815E+03  0.00000000000E+00 0. -1.
        -12    1    6    6    0    0  0.27444016901E+02 -0.49743535830E+02 -0.35763092081E+02  0.67131156520E+02  0.00000000000E+00 0.  1.
</event>
<event>
12    1  0.8798177E-003  0.1789962E+03  0.7818608E-02  0.1168933E+00
         21   -1    0    0  503  502  0.00000000000E+00  0.00000000000E+00  0.30257900810E+03  0.30257900810E+03  0.00000000000E+00 0.  1.
         21   -1    0    0  501  503 -0.00000000000E+00 -0.00000000000E+00 -0.10794680948E+03  0.10794680948E+03  0.00000000000E+00 0.  1.
          6    2    1    2  501    0  0.12845185075E+02  0.46565883204E+02  0.66664935655E+02  0.19100748617E+03  0.17235505757E+03 0.  0.
         24    2    3    3    0    0  0.66100437698E+01 -0.25314925801E+02 -0.71383491655E+01  0.87688840516E+02  0.83389679070E+02 0.  0.
         -6    2    1    2    0  502 -0.12845185075E+02 -0.46565883204E+02  0.12796726297E+03  0.21951833141E+03  0.17169536154E+03 0.  0.
        -24    2    5    5    0    0 -0.62263136569E+02  0.51396316779E+01  0.48096682812E+02  0.11220107383E+03  0.79829042853E+02 0.  0.
          5    1    3    3  501    0  0.62351413056E+01  0.71880809004E+02  0.73803284821E+02  0.10331864566E+03  0.47000000000E+01 0. -1.
        -13    1    4    4    0    0  0.39934693069E+01  0.20652232408E+02 -0.29717579563E+02  0.36408749438E+02  0.00000000000E+00 0.  1.
         14    1    4    4    0    0  0.26165744629E+01 -0.45967158209E+02  0.22579230397E+02  0.51280091079E+02  0.00000000000E+00 0. -1.
         -5    1    5    5    0  502  0.49417951493E+02 -0.51705514882E+02  0.79870580157E+02  0.10731725758E+03  0.47000000000E+01 0.  1.
         11    1    6    6    0    0 -0.44915861551E+02 -0.35377204322E+02  0.29861881428E+02  0.64503590342E+02  0.00000000000E+00 0. -1.
        -12    1    6    6    0    0 -0.17347275018E+02  0.40516836000E+02  0.18234801384E+02  0.47697483493E+02  0.00000000000E+00 0.  1.
</event>
<event>
12    1  0.8798177E-003  0.1766925E+03  0.7818608E-02  0.1171568E+00
         21   -1    0    0  501  502  0.00000000000E+00  0.00000000000E+00  0.39570656121E+03  0.39570656121E+03  0.00000000000E+00 0.  1.
         21   -1    0    0  502  503 -0.00000000000E+00 -0.00000000000E+00 -0.91889898037E+02  0.91889898037E+02  0.00000000000E+00 0.  1.
          6    2    1    2  501    0 -0.49013577662E+01  0.20472042418E+02  0.24760293375E+03  0.30418323297E+03  0.17543402918E+03 0.  0.
         24    2    3    3    0    0 -0.56250519596E+02 -0.23917239468E+02  0.19008635235E+03  0.21509119123E+03  0.79970268818E+02 0.  0.
         -6    2    1    2    0  503  0.49013577662E+01 -0.20472042418E+02  0.56213729427E+02  0.18341322628E+03  0.17331272420E+03 0.  0.
        -24    2    5    5    0    0  0.47942461358E+00  0.28938839808E+02 -0.64236023251E+01  0.10337252348E+03  0.99029943180E+02 0.  0.
          5    1    3    3  501    0  0.51349161829E+02  0.44389281886E+02  0.57516581398E+02  0.89092041747E+02  0.47000000000E+01 0. -1.
        -11    1    4    4    0    0  0.88669003685E+01 -0.28758070219E+02  0.31385680237E+02  0.43482288910E+02  0.00000000000E+00 0.  1.
         12    1    4    4    0    0 -0.65117419964E+02  0.48408307515E+01  0.15870067211E+03  0.17160890232E+03  0.00000000000E+00 0. -1.
         -5    1    5    5    0  503  0.44219331526E+01 -0.49410882226E+02  0.62637331752E+02  0.80040702797E+02  0.47000000000E+01 0.  1.
         11    1    6    6    0    0  0.43437441339E+02 -0.57920479316E+01  0.11482711740E+02  0.45301344332E+02  0.00000000000E+00 0. -1.
        -12    1    6    6    0    0 -0.42958016726E+02  0.34730887740E+02 -0.17906314065E+02  0.58071179148E+02  0.00000000000E+00 0.  1.
</event>
<event>
12    1  0.8798177E-003  0.1742580E+03  0.7818608E-02  0.1173737E+00
         21   -1    0    0  503  502  0.00000000000E+00  0.00000000000E+00  0.33843594484E+03  0.33843594484E+03  0.00000000000E+00 0. -1.
         21   -1    0    0  501  503 -0.00000000000E+00 -0.00000000000E+00 -0.10199077189E+03  0.10199077189E+03  0.00000000000E+00 0. -1.
          6    2    1    2  501    0 -0.20121240782E+02 -0.15355961176E+02  0.40538591385E+02  0.17891126983E+03  0.17240996261E+03 0.  0.
         24    2    3    3    0    0 -0.24308067642E+02  0.46042566199E+02 -0.14791570173E+02  0.96020827311E+02  0.79312096647E+02 0.  0.
         -6    2    1    2    0  502  0.20121240782E+02  0.15355961176E+02  0.19590658156E+03  0.26151544690E+03  0.17137756678E+03 0.  0.
        -24    2    5    5    0    0 -0.37216039804E+02  0.53697376618E+02  0.11299390834E+03  0.15356069127E+03  0.80900066173E+02 0.  0.
          5    1    3    3  501    0  0.41868268601E+01 -0.61398527375E+02  0.55330161559E+02  0.82890442519E+02  0.47000000000E+01 0. -1.
        -11    1    4    4    0    0  0.21843858824E+02 -0.31381080779E+01  0.99155519706E+01  0.24193388797E+02  0.00000000000E+00 0.  1.
         12    1    4    4    0    0 -0.46151926465E+02  0.49180674277E+02 -0.24707122144E+02  0.71827438514E+02  0.00000000000E+00 0. -1.
         -5    1    5    5    0  502  0.57337280586E+02 -0.38341415443E+02  0.82912673225E+02  0.10795475564E+03  0.47000000000E+01 0.  1.
         11    1    6    6    0    0 -0.25476166189E+02 -0.78849954574E+01  0.76513023272E+02  0.81027470202E+02  0.00000000000E+00 0. -1.
        -12    1    6    6    0    0 -0.11739873615E+02  0.61582372076E+02  0.36480885065E+02  0.72533221065E+02  0.00000000000E+00 0.  1.
</event>
<event>
12    1  0.8798177E-003  0.2621602E+03  0.7818608E-02  0.1105970E+00
         21   -1    0    0  503  502  0.00000000000E+00  0.00000000000E+00  0.79963389711E+03  0.79963389711E+03  0.00000000000E+00 0. -1.
         21   -1    0    0  501  503 -0.00000000000E+00 -0.00000000000E+00 -0.87167660381E+02  0.87167660381E+02  0.00000000000E+00 0. -1.
          6    2    1    2  501    0  0.10501845406E+03  0.16697000491E+03  0.29797170202E+03  0.39635923619E+03  0.17148075891E+03 0.  0.
         24    2    3    3    0    0  0.41561209037E+02  0.94654749493E+01  0.11841109558E+03  0.14917792563E+03  0.80099541992E+02 0.  0.
         -6    2    1    2    0  502 -0.10501845406E+03 -0.16697000491E+03  0.41449453471E+03  0.49044232130E+03  0.17268495299E+03 0.  0.
        -24    2    5    5    0    0 -0.13279201151E+03 -0.87766289739E+02  0.28437199662E+03  0.33552762248E+03  0.79841800181E+02 0.  0.
          5    1    3    3  501    0  0.63457245023E+02  0.15750452996E+03  0.17956060645E+03  0.24718131056E+03  0.47000000000E+01 0. -1.
        -11    1    4    4    0    0  0.45583955079E+01  0.11448321165E+02  0.11062966817E+03  0.11131381993E+03  0.00000000000E+00 0.  1.
         12    1    4    4    0    0  0.37002813529E+02 -0.19828462154E+01  0.77814274037E+01  0.37864105702E+02  0.00000000000E+00 0. -1.
         -5    1    5    5    0  502  0.27773557448E+02 -0.79203715169E+02  0.13012253809E+03  0.15491469882E+03  0.47000000000E+01 0.  1.
         13    1    6    6    0    0 -0.78341427186E+02 -0.14682712088E+02  0.18066073954E+03  0.19746205727E+03  0.00000000000E+00 0. -1.
        -14    1    6    6    0    0 -0.54450584321E+02 -0.73083577652E+02  0.10371125707E+03  0.13806556522E+03  0.00000000000E+00 0.  1.
</event>
<event>
12    1  0.8798177E-003  0.3771009E+03  0.7818608E-02  0.1052401E+00
         21   -1    0    0  501  502  0.00000000000E+00  0.00000000000E+00  0.29178636426E+03  0.29178636426E+03  0.00000000000E+00 0. -1.
         21   -1    0    0  502  503 -0.00000000000E+00 -0.00000000000E+00 -0.48551267492E+03  0.48551267492E+03  0.00000000000E+00 0.  1.
          6    2    1    2  501    0 -0.31816524657E+03 -0.93427704318E+02 -0.13044607593E+03  0.39902538744E+03  0.17957511252E+03 0.  0.
         24    2    3    3    0    0 -0.19972410219E+03 -0.11553255749E+02 -0.22281624070E+02  0.21887720217E+03  0.85950940330E+02 0.  0.
         -6    2    1    2    0  503  0.31816524657E+03  0.93427704318E+02 -0.63280234735E+02  0.37827365174E+03  0.17067134333E+03 0.  0.
        -24    2    5    5    0    0  0.14233980841E+03  0.10186939957E+03 -0.64676938158E+02  0.20217740617E+03  0.77811320578E+02 0.  0.
          5    1    3    3  501    0 -0.11844114438E+03 -0.81874448569E+02 -0.10816445186E+03  0.18014818527E+03  0.47000000000E+01 0. -1.
        -13    1    4    4    0    0 -0.96528667263E+02  0.18961040405E+02  0.24745651031E+02  0.10143792142E+03  0.00000000000E+00 0.  1.
         14    1    4    4    0    0 -0.10319543493E+03 -0.30514296154E+02 -0.47027275100E+02  0.11743928075E+03  0.00000000000E+00 0. -1.
         -5    1    5    5    0  503  0.17582543816E+03 -0.84416952544E+01  0.13967034233E+01  0.17609624557E+03  0.47000000000E+01 0.  1.
         13    1    6    6    0    0  0.76721195992E+02  0.38125524525E+02  0.70024122508E+01  0.85957729798E+02  0.00000000000E+00 0. -1.
        -14    1    6    6    0    0  0.65618612418E+02  0.63743875048E+02 -0.71679350409E+02  0.11621967638E+03  0.00000000000E+00 0.  1.
</event>
<event>
12    1  0.8798177E-003  0.1758760E+03  0.7818608E-02  0.1173148E+00
         21   -1    0    0  503  502  0.00000000000E+00  0.00000000000E+00  0.48185954919E+02  0.48185954919E+02  0.00000000000E+00 0.  1.
         21   -1    0    0  501  503 -0.00000000000E+00 -0.00000000000E+00 -0.62690002928E+03  0.62690002928E+03  0.00000000000E+00 0.  1.
          6    2    1    2  501    0  0.15049358424E+02 -0.21520113213E+02 -0.31015365172E+03  0.35406093582E+03  0.16874317806E+03 0.  0.
         24    2    3    3    0    0  0.16451003559E+02  0.15806590685E+02 -0.64463420195E+02  0.10550304056E+03  0.80342237939E+02 0.  0.
         -6    2    1    2    0  502 -0.15049358424E+02  0.21520113213E+02 -0.26856042265E+03  0.32102504838E+03  0.17390452154E+03 0.  0.
        -24    2    5    5    0    0 -0.61271725993E+02 -0.31391677957E+02 -0.17580060413E+03  0.20456630529E+03  0.78751882512E+02 0.  0.
          5    1    3    3  501    0 -0.14016451351E+01 -0.37326703898E+02 -0.24569023152E+03  0.24855789526E+03  0.47000000000E+01 0. -1.
        -13    1    4    4    0    0  0.13969789083E+02 -0.20757522093E+02  0.63098399115E+01  0.25803949507E+02  0.00000000000E+00 0.  1.
         14    1    4    4    0    0  0.24812144757E+01  0.36564112778E+02 -0.70773260107E+02  0.79699091053E+02  0.00000000000E+00 0. -1.
         -5    1    5    5    0  502  0.46222367569E+02  0.52911791170E+02 -0.92759818519E+02  0.11645874308E+03  0.47000000000E+01 0.  1.
         13    1    6    6    0    0 -0.48538176654E+02 -0.47974970376E+02 -0.74101365541E+02  0.10074008512E+03  0.00000000000E+00 0. -1.
        -14    1    6    6    0    0 -0.12733549339E+02  0.16583292418E+02 -0.10169923859E+03  0.10382622017E+03  0.00000000000E+00 0.  1.
</event>
<event>
12    1  0.8798177E-003  0.1897918E+03  0.7818608E-02  0.1158947E+00
         21   -1    0    0  501  502  0.00000000000E+00  0.00000000000E+00  0.17210424381E+03  0.17210424381E+03  0.00000000000E+00 0.  1.
         21   -1    0    0  502  503 -0.00000000000E+00 -0.00000000000E+00 -0.21653674429E+03  0.21653674429E+03  0.00000000000E+00 0.  1.
          6    2    1    2  501    0  0.66232095700E+02  0.42576815308E+02  0.16626940541E+02  0.19051872462E+03  0.17268889245E+03 0.  0.
         24    2    3    3    0    0 -0.25532884460E+01  0.17859164486E+02  0.63947157335E+02  0.10331961767E+03  0.79121649546E+02 0.  0.
         -6    2    1    2    0  503 -0.66232095700E+02 -0.42576815308E+02 -0.61059441027E+02  0.19812226348E+03  0.17124456268E+03 0.  0.
        -24    2    5    5    0    0 -0.51780121823E+01  0.10089684081E+02 -0.82365799672E+02  0.11459135788E+03  0.78857091059E+02 0.  0.
          5    1    3    3  501    0  0.68785384146E+02  0.24717650822E+02 -0.47320216794E+02  0.87199106943E+02  0.47000000000E+01 0. -1.
        -13    1    4    4    0    0  0.85163687824E+01  0.44514134306E+02  0.17392693013E+02  0.48544232001E+02  0.00000000000E+00 0.  1.
         14    1    4    4    0    0 -0.11069657228E+02 -0.26654969820E+02  0.46554464322E+02  0.54775385673E+02  0.00000000000E+00 0. -1.
         -5    1    5    5    0  503 -0.61054083517E+02 -0.52666499389E+02  0.21306358645E+02  0.83530905602E+02  0.47000000000E+01 0.  1.
         13    1    6    6    0    0  0.33215408552E+02  0.16421234303E+02 -0.57527860470E+02  0.68427881975E+02  0.00000000000E+00 0. -1.
        -14    1    6    6    0    0 -0.38393420734E+02 -0.63315502216E+01 -0.24837939202E+02  0.46163475905E+02  0.00000000000E+00 0.  1.
</event>
<event>
12    1  0.8798177E-003  0.2015861E+03  0.7818608E-02  0.1148625E+00
         21   -1    0    0  503  502  0.00000000000E+00  0.00000000000E+00  0.39721084714E+03  0.39721084714E+03  0.00000000000E+00 0.  1.
         21   -1    0    0  501  503 -0.00000000000E+00 -0.00000000000E+00 -0.10568556015E+03  0.10568556015E+03  0.00000000000E+00 0. -1.
          6    2    1    2  501    0 -0.33393779717E+02 -0.99535895280E+02  0.97791578623E+02  0.22405385842E+03  0.17208834839E+03 0.  0.
         24    2    3    3    0    0 -0.58785895093E+01 -0.12924773384E+03  0.45975411691E+02  0.15812295369E+03  0.78419356592E+02 0.  0.
         -6    2    1    2    0  502  0.33393779717E+02  0.99535895280E+02  0.19373370836E+03  0.27884254887E+03  0.17087386673E+03 0.  0.
        -24    2    5    5    0    0  0.80995867495E+02  0.72153344585E+02  0.17415552695E+03  0.22035188269E+03  0.80363977933E+02 0.  0.
          5    1    3    3  501    0 -0.27515190208E+02  0.29711838557E+02  0.51816166933E+02  0.65930904727E+02  0.47000000000E+01 0. -1.
        -11    1    4    4    0    0  0.75437389174E+01  0.65299960614E+00 -0.12832799020E+02  0.14900172349E+02  0.00000000000E+00 0.  1.
         12    1    4    4    0    0 -0.13422328427E+02 -0.12990073344E+03  0.58808210710E+02  0.14322278135E+03  0.00000000000E+00 0. -1.
         -5    1    5    5    0  502 -0.47602087778E+02  0.27382550695E+02  0.19578181408E+02  0.58490666185E+02  0.47000000000E+01 0.  1.
         13    1    6    6    0    0  0.61500180959E+02  0.58104633512E+01  0.55632545226E+02  0.83132507666E+02  0.00000000000E+00 0. -1.
        -14    1    6    6    0    0  0.19495686536E+02  0.66342881233E+02  0.11852298172E+03  0.13721937502E+03  0.00000000000E+00 0.  1.
</event>
<event>
12    1  0.8798177E-003  0.2139900E+03  0.7818608E-02  0.1138561E+00
         21   -1    0    0  501  502  0.00000000000E+00  0.00000000000E+00  0.88686393886E+02  0.88686393886E+02  0.00000000000E+00 0. -1.
         21   -1    0    0  502  503 -0.00000000000E+00 -0.00000000000E+00 -0.97061905631E+03  0.97061905631E+03  0.00000000000E+00 0.  1.
          6    2    1    2  501    0 -0.21837664637E+02 -0.12401254435E+03 -0.77705981565E+02  0.22709616614E+03  0.17227435779E+03 0.  0.
         24    2    3    3    0    0  0.53257310463E+02 -0.57281544872E+02 -0.34091731122E+02  0.11747602922E+03  0.80751809945E+02 0.  0.
         -6    2    1    2    0  503  0.21837664637E+02  0.12401254435E+03 -0.80422668086E+03  0.83220928406E+03  0.17301948884E+03 0.  0.
        -24    2    5    5    0    0  0.57091516308E+02  0.13219731937E+03 -0.74196752997E+03  0.76004200291E+03  0.80077825691E+02 0.  0.
          5    1    3    3  501    0 -0.75094975101E+02 -0.66730999476E+02 -0.43614250444E+02  0.10962013692E+03  0.47000000000E+01 0. -1.
        -11    1    4    4    0    0  0.51244958013E+02 -0.76621131250E+02 -0.33323590530E+02  0.98016861619E+02  0.00000000000E+00 0.  1.
         12    1    4    4    0    0  0.20123524502E+01  0.19339586379E+02 -0.76814059198E+00  0.19459167599E+02  0.00000000000E+00 0. -1.
         -5    1    5    5    0  503 -0.35253851670E+02 -0.81847750233E+01 -0.62259150890E+02  0.72167281155E+02  0.47000000000E+01 0.  1.
         13    1    6    6    0    0  0.73244421734E+01  0.10376473272E+03 -0.40001575686E+03  0.41331994018E+03  0.00000000000E+00 0. -1.
        -14    1    6    6    0    0  0.49767074134E+02  0.28432586653E+02 -0.34195177311E+03  0.34672206273E+03  0.00000000000E+00 0.  1.
</event>
<event>
12    1  0.8798177E-003  0.3934871E+03  0.7818608E-02  0.1046171E+00
         21   -1    0    0  501  502  0.00000000000E+00  0.00000000000E+00  0.46895522092E+03  0.46895522092E+03  0.00000000000E+00 0. -1.
         21   -1    0    0  502  503 -0.00000000000E+00 -0.00000000000E+00 -0.16718021666E+04  0.16718021666E+04  0.00000000000E+00 0.  1.
          6    2    1    2  501    0  0.34508134636E+03 -0.78315173995E+02  0.35802725133E+03  0.53104921991E+03  0.16916074954E+03 0.  0.
         24    2    3    3    0    0  0.18492150207E+03 -0.77149042925E+02  0.26207301084E+03  0.34428240848E+03  0.98489476698E+02 0.  0.
         -6    2    1    2    0  503 -0.34508134636E+03  0.78315173995E+02 -0.15608741970E+04  0.16097081676E+04  0.17209800665E+03 0.  0.
        -24    2    5    5    0    0 -0.20130128429E+03  0.50297495168E+02 -0.11954916483E+04  0.12160278488E+04  0.80445028656E+02 0.  0.
          5    1    3    3  501    0  0.16015984429E+03 -0.11661310701E+01  0.95954240481E+02  0.18676681143E+03  0.47000000000E+01 0. -1.
        -11    1    4    4    0    0  0.76343259376E+02  0.37813654974E+01  0.45794077696E+02  0.89104935493E+02  0.00000000000E+00 0.  1.
         12    1    4    4    0    0  0.10857824270E+03 -0.80930408423E+02  0.21627893315E+03  0.25517747298E+03  0.00000000000E+00 0. -1.
         -5    1    5    5    0  503 -0.14378006207E+03  0.28017678827E+02 -0.36538254868E+03  0.39368031886E+03  0.47000000000E+01 0.  1.
         13    1    6    6    0    0 -0.13678968429E+03  0.71091624305E+02 -0.78808759537E+03  0.80302396898E+03  0.00000000000E+00 0. -1.
        -14    1    6    6    0    0 -0.64511600002E+02 -0.20794129137E+02 -0.40740405296E+03  0.41300387978E+03  0.00000000000E+00 0.  1.
</event>
<event>
12    1  0.8798177E-003  0.1766472E+03  0.7818608E-02  0.1171310E+00
         21   -1    0    0  503  502  0.00000000000E+00  0.00000000000E+00  0.44940404407E+03  0.44940404407E+03  0.00000000000E+00 0. -1.
         21   -1    0    0  501  503 -0.00000000000E+00 -0.00000000000E+00 -0.73994517349E+02  0.73994517349E+02  0.00000000000E+00 0. -1.
          6    2    1    2  501    0 -0.39693884000E+02 -0.14636194488E+02  0.12073375479E+03  0.21396462560E+03  0.17150626474E+03 0.  0.
         24    2    3    3    0    0 -0.17452492960E+02  0.33179715672E+02  0.82067279160E+01  0.89604412839E+02  0.80969854728E+02 0.  0.
         -6    2    1    2    0  502  0.39693884000E+02  0.14636194488E+02  0.25467577193E+03  0.30943393582E+03  0.17058660327E+03 0.  0.
        -24    2    5    5    0    0  0.87234905006E+02 -0.31722486029E+01  0.13722157035E+03  0.18139148664E+03  0.80331315463E+02 0.  0.
          5    1    3    3  501    0 -0.22241391040E+02 -0.47815910159E+02  0.11252702688E+03  0.12436021276E+03  0.47000000000E+01 0. -1.
        -11    1    4    4    0    0  0.83811362929E+00  0.48080749410E+02  0.30663911563E+02  0.57032765763E+02  0.00000000000E+00 0.  1.
         12    1    4    4    0    0 -0.18290606590E+02 -0.14901033738E+02 -0.22457183647E+02  0.32571647076E+02  0.00000000000E+00 0. -1.
         -5    1    5    5    0  502 -0.47541021006E+02  0.17808443090E+02  0.11745420157E+03  0.12804244918E+03  0.47000000000E+01 0.  1.
         11    1    6    6    0    0  0.82336891797E+02 -0.24636936524E+02  0.70591691734E+02  0.11121838577E+03  0.00000000000E+00 0. -1.
        -12    1    6    6    0    0  0.48980132094E+01  0.21464687922E+02  0.66629878621E+02  0.70173100872E+02  0.00000000000E+00 0.  1.
</event>
<event>
12    1  0.8798177E-003  0.2565179E+03  0.7818608E-02  0.1109349E+00
         21   -1    0    0  501  502  0.00000000000E+00  0.00000000000E+00  0.10577620080E+03  0.10577620080E+03  0.00000000000E+00 0. -1.
         21   -1    0    0  502  503 -0.00000000000E+00 -0.00000000000E+00 -0.62466454418E+03  0.62466454418E+03  0.00000000000E+00 0.  1.
          6    2    1    2  501    0 -0.18502406608E+03 -0.43203425694E+02 -0.22954654166E+03  0.34376241192E+03  0.17140752621E+03 0.  0.
         24    2    3    3    0    0 -0.16477019435E+03 -0.67001366658E+02 -0.24076882810E+03  0.31022748942E+03  0.81443640217E+02 0.  0.
         -6    2    1    2    0  503  0.18502406608E+03  0.43203425694E+02 -0.28934180172E+03  0.38667833306E+03  0.17233982135E+03 0.  0.
        -24    2    5    5    0    0  0.17858612363E+03  0.64383502255E+02 -0.17904196412E+03  0.27408087786E+03  0.83821618781E+02 0.  0.
          5    1    3    3  501    0 -0.20253871725E+02  0.23797940963E+02  0.11222286433E+02  0.33534922495E+02  0.47000000000E+01 0. -1.
        -13    1    4    4    0    0 -0.44653451921E+01 -0.30229651612E+02 -0.47121901996E+02  0.56162663683E+02  0.00000000000E+00 0.  1.
         14    1    4    4    0    0 -0.16030484916E+03 -0.36771715045E+02 -0.19364692610E+03  0.25406482574E+03  0.00000000000E+00 0. -1.
         -5    1    5    5    0  503  0.64379424486E+01 -0.21180076561E+02 -0.11029983759E+03  0.11259745521E+03  0.47000000000E+01 0.  1.
         13    1    6    6    0    0  0.42409314816E+02  0.58986748740E+01 -0.15448253888E+01  0.42845429557E+02  0.00000000000E+00 0. -1.
        -14    1    6    6    0    0  0.13617680881E+03  0.58484827381E+02 -0.17749713873E+03  0.23123544830E+03  0.00000000000E+00 0.  1.
</event>
<event>
12    1  0.8798177E-003  0.2698954E+03  0.7818608E-02  0.1101600E+00
         21   -1    0    0  501  502  0.00000000000E+00  0.00000000000E+00  0.22230056485E+03  0.22230056485E+03  0.00000000000E+00 0.  1.
         21   -1    0    0  502  503 -0.00000000000E+00 -0.00000000000E+00 -0.33704126065E+03  0.33704126065E+03  0.00000000000E+00 0. -1.
          6    2    1    2  501    0 -0.18866735451E+03  0.82034267531E+02 -0.10897320489E+03  0.28938477721E+03  0.17188193096E+03 0.  0.
         24    2    3    3    0    0 -0.18780531223E+03  0.10494036809E+03 -0.12430032632E+03  0.26141259083E+03  0.81256725058E+02 0.  0.
         -6    2    1    2    0  503  0.18866735451E+03 -0.82034267531E+02 -0.57674909118E+01  0.26995704829E+03  0.17469559886E+03 0.  0.
        -24    2    5    5    0    0  0.13387029197E+03 -0.12431373507E+03 -0.15393042786E+02  0.19992125253E+03  0.79727044655E+02 0.  0.
          5    1    3    3  501    0 -0.86204228142E+00 -0.22906100556E+02  0.15327121425E+02  0.27972186378E+02  0.47000000000E+01 0. -1.
        -11    1    4    4    0    0  0.45620635224E+01 -0.27085055187E+01 -0.13889686420E+02  0.14868483936E+02  0.00000000000E+00 0.  1.
         12    1    4    4    0    0 -0.19236737576E+03  0.10764887361E+03 -0.11041063990E+03  0.24654410690E+03  0.00000000000E+00 0. -1.
         -5    1    5    5    0  503  0.54797062549E+02  0.42279467537E+02  0.96255518738E+01  0.70035795763E+02  0.47000000000E+01 0.  1.
         13    1    6    6    0    0  0.35030033854E+02 -0.47675273891E+02 -0.41356967360E+02  0.72183334375E+02  0.00000000000E+00 0. -1.
        -14    1    6    6    0    0  0.98840258111E+02 -0.76638461177E+02  0.25963924574E+02  0.12773791815E+03  0.00000000000E+00 0.  1.
</event>
<event>
12    1  0.8798177E-003  0.2820720E+03  0.7818608E-02  0.1094577E+00
         21   -1    0    0  501  502  0.00000000000E+00  0.00000000000E+00  0.17580079778E+04  0.17580079778E+04  0.00000000000E+00 0.  1.
         21   -1    0    0  502  503 -0.00000000000E+00 -0.00000000000E+00 -0.57887930522E+02  0.57887930522E+02  0.00000000000E+00 0. -1.
          6    2    1    2  501    0 -0.11546726539E+03  0.19081980676E+03  0.12745699892E+04  0.13054092266E+04  0.17268382550E+03 0.  0.
         24    2    3    3    0    0 -0.13899274616E+03  0.17076402344E+03  0.91001967479E+03  0.93952030302E+03  0.77995231234E+02 0.  0.
         -6    2    1    2    0  503  0.11546726539E+03 -0.19081980676E+03  0.42555005809E+03  0.51048668170E+03  0.17250771641E+03 0.  0.
        -24    2    5    5    0    0  0.77050892436E+02 -0.18291662908E+03  0.24380478235E+03  0.32449820576E+03  0.80392664004E+02 0.  0.
          5    1    3    3  501    0  0.23525480762E+02  0.20055783317E+02  0.36455031439E+03  0.36588892359E+03  0.47000000000E+01 0. -1.
        -13    1    4    4    0    0 -0.11557393174E+03  0.11696702505E+03  0.77582816535E+03  0.79306239401E+03  0.00000000000E+00 0.  1.
         14    1    4    4    0    0 -0.23418814418E+02  0.53796998394E+02  0.13419150943E+03  0.14645790900E+03  0.00000000000E+00 0. -1.
         -5    1    5    5    0  503  0.38416372958E+02 -0.79031776804E+01  0.18174527574E+03  0.18598847594E+03  0.47000000000E+01 0.  1.
         11    1    6    6    0    0  0.33770347650E+02 -0.76454662695E+02  0.45149435352E+02  0.94995912232E+02  0.00000000000E+00 0. -1.
        -12    1    6    6    0    0  0.43280544786E+02 -0.10646196638E+03  0.19865534700E+03  0.22950229353E+03  0.00000000000E+00 0.  1.
</event>
<event>
12    1  0.8798177E-003  0.1859358E+03  0.7818608E-02  0.1162442E+00
         21   -1    0    0  503  502  0.00000000000E+00  0.00000000000E+00  0.19373749265E+02  0.19373749265E+02  0.00000000000E+00 0. -1.
         21   -1    0    0  501  503 -0.00000000000E+00 -0.00000000000E+00 -0.20715343534E+04  0.20715343534E+04  0.00000000000E+00 0. -1.
          6    2    1    2  501    0  0.55241982997E+01  0.69099145314E+02 -0.62694332744E+03  0.65361327972E+03  0.17131017178E+03 0.  0.
         24    2    3    3    0    0 -0.21833051866E+02  0.28984337396E+02 -0.14324563992E+03  0.16746190426E+03  0.78787067809E+02 0.  0.
         -6    2    1    2    0  502 -0.55241982997E+01 -0.69099145314E+02 -0.14252172767E+04  0.14372948230E+04  0.17253090628E+03 0.  0.
        -24    2    5    5    0    0 -0.49348812672E+02 -0.92686801220E+02 -0.85560980700E+03  0.86549788882E+03  0.77409981872E+02 0.  0.
          5    1    3    3  501    0  0.27357250166E+02  0.40114807919E+02 -0.48369768752E+03  0.48615137546E+03  0.47000000000E+01 0. -1.
        -11    1    4    4    0    0  0.25589934347E+02  0.38131211065E+01 -0.18961039512E+02  0.32076559227E+02  0.00000000000E+00 0.  1.
         12    1    4    4    0    0 -0.47422986214E+02  0.25171216289E+02 -0.12428460040E+03  0.13538534503E+03  0.00000000000E+00 0. -1.
         -5    1    5    5    0  502  0.43824614372E+02  0.23587655906E+02 -0.56960746972E+03  0.57179693414E+03  0.47000000000E+01 0.  1.
         13    1    6    6    0    0 -0.14496402991E+02 -0.71639385415E+02 -0.72535111400E+03  0.72902440688E+03  0.00000000000E+00 0. -1.
        -14    1    6    6    0    0 -0.34852409681E+02 -0.21047415805E+02 -0.13025869299E+03  0.13647348194E+03  0.00000000000E+00 0.  1.
</event>
<event>
12    1  0.8798177E-003  0.1821316E+03  0.7818608E-02  0.1166050E+00
         21   -1    0    0  503  502  0.00000000000E+00  0.00000000000E+00  0.30949207480E+03  0.30949207480E+03  0.00000000000E+00 0.  1.
         21   -1    0    0  501  503 -0.00000000000E+00 -0.00000000000E+00 -0.11550492241E+03  0.11550492241E+03  0.00000000000E+00 0.  1.
          6    2    1    2  501    0 -0.44880813081E+02  0.30301915586E+02  0.15616026481E+03  0.23897878126E+03  0.17260456575E+03 0.  0.
         24    2    3    3    0    0  0.16888743462E+01 -0.26024077643E+02  0.13517071624E+03  0.16279476424E+03  0.86895959762E+02 0.  0.
         -6    2    1    2    0  502  0.44880813081E+02 -0.30301915586E+02  0.37826887578E+02  0.18601821595E+03  0.17389482387E+03 0.  0.
        -24    2    5    5    0    0  0.90258385419E+02 -0.26300425931E+02  0.57634105493E+02  0.13612280662E+03  0.79808770334E+02 0.  0.
          5    1    3    3  501    0 -0.46569687427E+02  0.56325993229E+02  0.20989548569E+02  0.76184017021E+02  0.47000000000E+01 0. -1.
        -13    1    4    4    0    0  0.17247824914E+02 -0.65431714907E+01  0.13658302086E+03  0.13782315533E+03  0.00000000000E+00 0.  1.
         14    1    4    4    0    0 -0.15558950568E+02 -0.19480906152E+02 -0.14123046247E+01  0.24971608912E+02  0.00000000000E+00 0. -1.
         -5    1    5    5    0  502 -0.45377572338E+02 -0.40014896557E+01 -0.19807217915E+02  0.49895409331E+02  0.47000000000E+01 0.  1.
         11    1    6    6    0    0  0.24002002654E+01  0.21549787396E+02  0.19162620774E+02  0.28937179079E+02  0.00000000000E+00 0. -1.
        -12    1    6    6    0    0  0.87858185153E+02 -0.47850213326E+02  0.38471484719E+02  0.10718562754E+03  0.00000000000E+00 0.  1.
</event>
<event>
12    1  0.8798177E-003  0.1773893E+03  0.7818608E-02  0.1170925E+00
         21   -1    0    0  501  502  0.00000000000E+00  0.00000000000E+00  0.45779062431E+02  0.45779062431E+02  0.00000000000E+00 0. -1.
         21   -1    0    0  502  503 -0.00000000000E+00 -0.00000000000E+00 -0.68690672609E+03  0.68690672609E+03  0.00000000000E+00 0. -1.
          6    2    1    2  501    0 -0.30284067561E+02  0.23321960319E+02 -0.28207644197E+03  0.33321777689E+03  0.17322219586E+03 0.  0.
         24    2    3    3    0    0  0.35879752074E+02  0.55536145745E+02 -0.16414404867E+03  0.19412951656E+03  0.79820927041E+02 0.  0.
         -6    2    1    2    0  503  0.30284067561E+02 -0.23321960319E+02 -0.35905122169E+03  0.39946801163E+03  0.17086800151E+03 0.  0.
        -24    2    5    5    0    0  0.46785529489E+02  0.46115043844E+02 -0.20311070007E+03  0.22790655886E+03  0.79824557954E+02 0.  0.
          5    1    3    3  501    0 -0.66163819635E+02 -0.32214185426E+02 -0.11793239330E+03  0.13908826033E+03  0.47000000000E+01 0. -1.
        -11    1    4    4    0    0  0.33126976149E+02  0.34063264221E+02 -0.25733618962E+02  0.54036299494E+02  0.00000000000E+00 0.  1.
         12    1    4    4    0    0  0.27527759247E+01  0.21472881524E+02 -0.13841042971E+03  0.14009321707E+03  0.00000000000E+00 0. -1.
         -5    1    5    5    0  503 -0.16501461928E+02 -0.69437004164E+02 -0.15594052162E+03  0.17156145277E+03  0.47000000000E+01 0.  1.
         13    1    6    6    0    0 -0.11031047642E+02  0.11617663634E+02 -0.23929326689E+01  0.16198155671E+02  0.00000000000E+00 0. -1.
        -14    1    6    6    0    0  0.57816577132E+02  0.34497380210E+02 -0.20071776740E+03  0.21170840319E+03  0.00000000000E+00 0.  1.
</event>
<event>
12    1  0.8798177E-003  0.2190551E+03  0.7818608E-02  0.1134708E+00
         21   -1    0    0  503  502  0.00000000000E+00  0.00000000000E+00  0.66399287059E+03  0.66399287059E+03  0.00000000000E+00 0.  1.
         21   -1    0    0  501  503 -0.00000000000E+00 -0.00000000000E+00 -0.92992658693E+02  0.92992658693E+02  0.00000000000E+00 0.  1.
          6    2    1    2  501    0  0.12464035907E+03 -0.55226353463E+02  0.10560208757E+03  0.24261159237E+03  0.17065583678E+03 0.  0.
         24    2    3    3    0    0  0.69823904662E+02  0.10803170858E+02 -0.11785829866E+01  0.10553882571E+03  0.78389849541E+02 0.  0.
         -6    2    1    2    0  502 -0.12464035907E+03  0.55226353463E+02  0.46539812432E+03  0.51437393691E+03  0.17146417591E+03 0.  0.
        -24    2    5    5    0    0 -0.15070464206E+03  0.72348463079E+02  0.42084701457E+03  0.45979001194E+03  0.79677199732E+02 0.  0.
          5    1    3    3  501    0  0.54816454409E+02 -0.66029524322E+02  0.10678067056E+03  0.13707276666E+03  0.47000000000E+01 0. -1.
        -11    1    4    4    0    0  0.46149509943E+02  0.42036091031E+02  0.13178571562E+02  0.63800352394E+02  0.00000000000E+00 0.  1.
         12    1    4    4    0    0  0.23674394719E+02 -0.31232920173E+02 -0.14357154548E+02  0.41738473314E+02  0.00000000000E+00 0. -1.
         -5    1    5    5    0  502  0.26064282984E+02 -0.17122109616E+02  0.44551109751E+02  0.54583924971E+02  0.47000000000E+01 0.  1.
         13    1    6    6    0    0 -0.66910893632E+02  0.12010873125E+02  0.87423706068E+02  0.11074399822E+03  0.00000000000E+00 0. -1.
        -14    1    6    6    0    0 -0.83793748423E+02  0.60337589954E+02  0.33342330851E+03  0.34904601372E+03  0.00000000000E+00 0.  1.
</event>
<event>
12    1  0.8798177E-003  0.1979802E+03  0.7818608E-02  0.1152983E+00
         21   -1    0    0  503  502  0.00000000000E+00  0.00000000000E+00  0.11173319731E+04  0.11173319731E+04  0.00000000000E+00 0.  1.
         21   -1    0    0  501  503 -0.00000000000E+00 -0.00000000000E+00 -0.34360223781E+02  0.34360223781E+02  0.00000000000E+00 0.  1.
          6    2    1    2  501    0  0.38812874006E+02  0.78232819014E+02  0.62141512158E+03  0.65219086090E+03  0.17767766476E+03 0.  0.
         24    2    3    3    0    0 -0.29878749819E+02  0.70932913187E+02  0.25490714120E+03  0.27920022095E+03  0.83969606884E+02 0.  0.
         -6    2    1    2    0  502 -0.38812874006E+02 -0.78232819014E+02  0.46155662779E+03  0.49950133603E+03  0.16982417637E+03 0.  0.
        -24    2    5    5    0    0 -0.20496659039E+02 -0.78831739142E+00  0.36173691699E+03  0.37175471484E+03  0.83230021101E+02 0.  0.
          5    1    3    3  501    0  0.68691623825E+02  0.72999058268E+01  0.36650798038E+03  0.37299063995E+03  0.47000000000E+01 0. -1.
        -11    1    4    4    0    0  0.83684404011E+01  0.68395998539E+02  0.20500566034E+03  0.21627612948E+03  0.00000000000E+00 0.  1.
         12    1    4    4    0    0 -0.38247190220E+02  0.25369146482E+01  0.49901480865E+02  0.62924091477E+02  0.00000000000E+00 0. -1.
         -5    1    5    5    0  502 -0.18316214968E+02 -0.77444501623E+02  0.99819710795E+02  0.12774662119E+03  0.47000000000E+01 0.  1.
         13    1    6    6    0    0  0.32529101420E+02 -0.18367434638E+01  0.12890267357E+03  0.13295644143E+03  0.00000000000E+00 0. -1.
        -14    1    6    6    0    0 -0.53025760459E+02  0.10484260724E+01  0.23283424342E+03  0.23879827340E+03  0.00000000000E+00 0.  1.
</event>
<event>
12    1  0.8798177E-003  0.1794611E+03  0.7818608E-02  0.1172368E+00
         21   -1    0    0  501  502  0.00000000000E+00  0.00000000000E+00  0.73634600195E+02  0.73634600195E+02  0.00000000000E+00 0. -1.
         21   -1    0    0  502  503 -0.00000000000E+00 -0.00000000000E+00 -0.40034856613E+03  0.40034856613E+03  0.00000000000E+00 0. -1.
          6    2    1    2  501    0  0.50656943195E+02  0.86991755883E+01 -0.18095485358E+03  0.25485475304E+03  0.17194325972E+03 0.  0.
         24    2    3    3    0    0  0.11881771857E+02  0.63443209907E+02 -0.14392724211E+03  0.17808524596E+03  0.82662484970E+02 0.  0.
         -6    2    1    2    0  503 -0.50656943195E+02 -0.86991755883E+01 -0.14575911235E+03  0.21912841328E+03  0.15533750714E+03 0.  0.
        -24    2    5    5    0    0 -0.61282983731E+02 -0.11096475102E+02 -0.16042616644E+03  0.20026383648E+03  0.10242223133E+03 0.  0.
          5    1    3    3  501    0  0.38775171339E+02 -0.54744034318E+02 -0.37027611463E+02  0.76769507075E+02  0.47000000000E+01 0. -1.
        -11    1    4    4    0    0  0.17791626912E+02 -0.16756519107E+02 -0.35039011140E+02  0.42720665052E+02  0.00000000000E+00 0.  1.
         12    1    4    4    0    0 -0.59098550551E+01  0.80199729014E+02 -0.10888823097E+03  0.13536458091E+03  0.00000000000E+00 0. -1.
         -5    1    5    5    0  503  0.10626040535E+02  0.23972995139E+01  0.14667054083E+02  0.18864576801E+02  0.47000000000E+01 0.  1.
         11    1    6    6    0    0 -0.54911291082E+02 -0.51994353740E+02 -0.81743341905E+02  0.11135814588E+03  0.00000000000E+00 0. -1.
        -12    1    6    6    0    0 -0.63716926489E+01  0.40897878638E+02 -0.78682824533E+02  0.88905690598E+02  0.00000000000E+00 0.  1.
</event>
<event>
12    1  0.8798177E-003  0.2031064E+03  0.7818608E-02  0.1147389E+00
         21   -1    0    0  503  502  0.00000000000E+00  0.00000000000E+00  0.20364603234E+03  0.20364603234E+03  0.00000000000E+00 0. -1.
         21   -1    0    0  501  503 -0.00000000000E+00 -0.00000000000E+00 -0.20139608428E+03  0.20139608428E+03  0.00000000000E+00 0.  1.
          6    2    1    2  501    0  0.27391505915E+02 -0.10377822451E+03  0.18794482647E+01  0.20193538129E+03  0.17103845010E+03 0.  0.
         24    2    3    3    0    0 -0.29400975228E+02 -0.11025796810E+03 -0.19450462572E+02  0.14074364911E+03  0.80057588006E+02 0.  0.
         -6    2    1    2    0  502 -0.27391505915E+02  0.10377822451E+03  0.37049979851E+00  0.20310673532E+03  0.17242967895E+03 0.  0.
        -24    2    5    5    0    0  0.19014015800E+02  0.12114079503E+03 -0.24474351567E+02  0.14748041116E+03  0.78197524093E+02 0.  0.
          5    1    3    3  501    0  0.56792481144E+02  0.64797435831E+01  0.21329910837E+02  0.61191732184E+02  0.47000000000E+01 0. -1.
        -11    1    4    4    0    0  0.27752500193E+02 -0.39499968965E+02 -0.99719595289E+01  0.49293902179E+02  0.00000000000E+00 0.  1.
         12    1    4    4    0    0 -0.57153475421E+02 -0.70757999130E+02 -0.94785030434E+01  0.91449746930E+02  0.00000000000E+00 0. -1.
         -5    1    5    5    0  502 -0.46405521715E+02 -0.17362570515E+02  0.24844851365E+02  0.55626324163E+02  0.47000000000E+01 0.  1.
         11    1    6    6    0    0  0.41047695842E+02  0.11333601646E+03 -0.28239365791E+02  0.12380398920E+03  0.00000000000E+00 0. -1.
        -12    1    6    6    0    0 -0.22033680043E+02  0.78047785658E+01  0.37650142246E+01  0.23676421959E+02  0.00000000000E+00 0.  1.
</event>
<event>
12    1  0.8798177E-003  0.3642733E+03  0.7818608E-02  0.1056927E+00
         21   -1    0    0  503  502  0.00000000000E+00  0.00000000000E+00  0.12623644541E+03  0.12623644541E+03  0.00000000000E+00 0.  1.
         21   -1    0    0  501  503 -0.00000000000E+00 -0.00000000000E+00 -0.10538015618E+04  0.10538015618E+04  0.00000000000E+00 0.  1.
          6    2    1    2  501    0 -0.18274980196E+03  0.26324185896E+03 -0.43091264594E+03  0.56425235994E+03  0.17320869156E+03 0.  0.
         24    2    3    3    0    0 -0.20437225014E+03  0.20143326319E+03 -0.33625309229E+03  0.44905533795E+03  0.79001128612E+02 0.  0.
         -6    2    1    2    0  502  0.18274980196E+03 -0.26324185896E+03 -0.49665247045E+03  0.61578564727E+03  0.17272672217E+03 0.  0.
        -24    2    5    5    0    0  0.14516419540E+02 -0.11634934815E+03 -0.23229529466E+03  0.26968351337E+03  0.70853343007E+02 0.  0.
          5    1    3    3  501    0  0.21622448175E+02  0.61808595774E+02 -0.94659553655E+02  0.11519702199E+03  0.47000000000E+01 0. -1.
        -11    1    4    4    0    0 -0.91137696618E+02  0.14055575457E+03 -0.16730999555E+03  0.23675859963E+03  0.00000000000E+00 0.  1.
         12    1    4    4    0    0 -0.11323455352E+03  0.60877508625E+02 -0.16894309674E+03  0.21229673832E+03  0.00000000000E+00 0. -1.
         -5    1    5    5    0  502  0.16823338242E+03 -0.14689251081E+03 -0.26435717580E+03  0.34610213390E+03  0.47000000000E+01 0.  1.
         13    1    6    6    0    0 -0.10583789998E+02 -0.93898375951E+02 -0.12171523126E+03  0.15408932195E+03  0.00000000000E+00 0. -1.
        -14    1    6    6    0    0  0.25100209538E+02 -0.22450972201E+02 -0.11058006339E+03  0.11559419143E+03  0.00000000000E+00 0.  1.
</event>
<event>
12    1  0.8798177E-003  0.2118892E+03  0.7818608E-02  0.1140573E+00
         21   -1    0    0  503  502  0.00000000000E+00  0.00000000000E+00  0.63677980478E+02  0.63677980478E+02  0.00000000000E+00 0. -1.
         21   -1    0    0  501  503 -0.00000000000E+00 -0.00000000000E+00 -0.70992646844E+03  0.70992646844E+03  0.00000000000E+00 0. -1.
          6    2    1    2  501    0 -0.11800330175E+03  0.15039975360E+02 -0.37395243114E+03  0.42857957154E+03  0.17230510238E+03 0.  0.
         24    2    3    3    0    0 -0.32604222816E+02  0.40116032486E+02 -0.90382442706E+02  0.13133246951E+03  0.80043114578E+02 0.  0.
         -6    2    1    2    0  502  0.11800330175E+03 -0.15039975360E+02 -0.27229605683E+03  0.34502487738E+03  0.17534549713E+03 0.  0.
        -24    2    5    5    0    0  0.63494328664E+02 -0.19371452766E+02 -0.47585389927E+02  0.11370915448E+03  0.79111437369E+02 0.  0.
          5    1    3    3  501    0 -0.85399078935E+02 -0.25076057126E+02 -0.28356998843E+03  0.29724710203E+03  0.47000000000E+01 0. -1.
        -11    1    4    4    0    0 -0.45303472635E+02 -0.51353298877E+01 -0.29046710831E+02  0.54060037513E+02  0.00000000000E+00 0.  1.
         12    1    4    4    0    0  0.12699249819E+02  0.45251362374E+02 -0.61335731875E+02  0.77272432001E+02  0.00000000000E+00 0. -1.
         -5    1    5    5    0  502  0.54508973087E+02  0.43314774060E+01 -0.22471066690E+03  0.23131572290E+03  0.47000000000E+01 0.  1.
         13    1    6    6    0    0  0.62162030917E+02 -0.41332962633E+02 -0.17911196177E+02  0.76768110803E+02  0.00000000000E+00 0. -1.
        -14    1    6    6    0    0  0.13322977463E+01  0.21961509867E+02 -0.29674193750E+02  0.36941043673E+02  0.00000000000E+00 0.  1.
</event>
<event>
12    1  0.8798177E-003  0.2919045E+03  0.7818608E-02  0.1089629E+00
         21   -1    0    0  501  502  0.00000000000E+00  0.00000000000E+00  0.50486370650E+03  0.50486370650E+03  0.00000000000E+00 0.  1.
         21   -1    0    0  502  503 -0.00000000000E+00 -0.00000000000E+00 -0.17406714942E+03  0.17406714942E+03  0.00000000000E+00 0. -1.
          6    2    1    2  501    0  0.22293321459E+03  0.67597600667E+02  0.23039614390E+03  0.37024255322E+03  0.17241957924E+03 0.  0.
         24    2    3    3    0    0  0.26721187833E+02  0.67416976858E+01  0.61967843623E+02  0.10454952978E+03  0.79568323886E+02 0.  0.
         -6    2    1    2    0  503 -0.22293321459E+03 -0.67597600667E+02  0.10040041318E+03  0.30868830270E+03  0.17589647942E+03 0.  0.
        -24    2    5    5    0    0 -0.21523541290E+03 -0.54613892472E+02  0.13428324918E+03  0.27129887365E+03  0.79133606092E+02 0.  0.
          5    1    3    3  501    0  0.19621202676E+03  0.60855902981E+02  0.16842830027E+03  0.26569302344E+03  0.47000000000E+01 0. -1.
        -13    1    4    4    0    0  0.28498971904E+02  0.25125013878E+01  0.80513188699E+02  0.85445173165E+02  0.00000000000E+00 0.  1.
         14    1    4    4    0    0 -0.17777840707E+01  0.42291962981E+01 -0.18545345075E+02  0.19104356610E+02  0.00000000000E+00 0. -1.
         -5    1    5    5    0  503 -0.76978016895E+01 -0.12983708195E+02 -0.33882836002E+02  0.37389429053E+02  0.47000000000E+01 0.  1.
         13    1    6    6    0    0 -0.11880002239E+03  0.18950972735E+01  0.40923039660E+02  0.12566515781E+03  0.00000000000E+00 0. -1.
        -14    1    6    6    0    0 -0.96435390514E+02 -0.56508989746E+02  0.93360209523E+02  0.14563371583E+03  0.00000000000E+00 0.  1.
</event>
<event>
12    1  0.8798177E-003  0.1888328E+03  0.7818608E-02  0.1160252E+00
         21   -1    0    0  503  502  0.00000000000E+00  0.00000000000E+00  0.14389496533E+03  0.14389496533E+03  0.00000000000E+00 0.  1.
         21   -1    0    0  501  503 -0.00000000000E+00 -0.00000000000E+00 -0.38347963873E+03  0.38347963873E+03  0.00000000000E+00 0.  1.
          6    2    1    2  501    0 -0.43808783433E+02 -0.57974780038E+02 -0.27968184466E+03  0.33746074123E+03  0.17429151733E+03 0.  0.
         24    2    3    3    0    0 -0.52359556458E+02 -0.10149722089E+03 -0.17565802493E+03  0.22427786423E+03  0.80010059734E+02 0.  0.
         -6    2    1    2    0  502  0.43808783433E+02  0.57974780038E+02  0.40097171253E+02  0.18991386283E+03  0.17081922470E+03 0.  0.
        -24    2    5    5    0    0  0.53439972287E+02  0.35252260109E+02 -0.37381605869E+02  0.10846373321E+03  0.79173508728E+02 0.  0.
          5    1    3    3  501    0  0.85507730253E+01  0.43522440848E+02 -0.10402381972E+03  0.11318287700E+03  0.47000000000E+01 0. -1.
        -11    1    4    4    0    0  0.17616042104E+02 -0.29433170247E+02 -0.72969248455E+02  0.80629694718E+02  0.00000000000E+00 0.  1.
         12    1    4    4    0    0 -0.69975598563E+02 -0.72064050639E+02 -0.10268877648E+03  0.14364816951E+03  0.00000000000E+00 0. -1.
         -5    1    5    5    0  502 -0.96311888539E+01  0.22722519929E+02  0.77478777122E+02  0.81450129619E+02  0.47000000000E+01 0.  1.
         11    1    6    6    0    0  0.63024245557E+02  0.52269622564E+02 -0.33928045880E+02  0.88630024643E+02  0.00000000000E+00 0. -1.
        -12    1    6    6    0    0 -0.95842732707E+01 -0.17017362454E+02 -0.34535599888E+01  0.19833708570E+02  0.00000000000E+00 0.  1.
</event>
<event>
12    1  0.8798177E-003  0.2353373E+03  0.7818608E-02  0.1123141E+00
         21   -1    0    0  501  502  0.00000000000E+00  0.00000000000E+00  0.28335924036E+03  0.28335924036E+03  0.00000000000E+00 0.  1.
         21   -1    0    0  502  503 -0.00000000000E+00 -0.00000000000E+00 -0.19998668184E+03  0.19998668184E+03  0.00000000000E+00 0. -1.
          6    2    1    2  501    0  0.15753176166E+03  0.28059671374E+02  0.14525090701E+01  0.23415820051E+03  0.17095131469E+03 0.  0.
         24    2    3    3    0    0  0.73120524540E+02  0.12535211822E+02  0.63934356573E+02  0.12789279191E+03  0.82250967339E+02 0.  0.
         -6    2    1    2    0  503 -0.15753176166E+03 -0.28059671374E+02  0.81920049446E+02  0.24918772169E+03  0.17256889942E+03 0.  0.
        -24    2    5    5    0    0 -0.10349259167E+03 -0.73727285178E+02  0.14165022208E+02  0.15111327772E+03  0.80549026924E+02 0.  0.
          5    1    3    3  501    0  0.84411237123E+02  0.15524459552E+02 -0.62481847503E+02  0.10626540860E+03  0.47000000000E+01 0. -1.
        -13    1    4    4    0    0  0.40317652444E+01 -0.24798848871E+02  0.37291609325E+02  0.44965566408E+02  0.00000000000E+00 0.  1.
         14    1    4    4    0    0  0.69088759295E+02  0.37334060694E+02  0.26642747247E+02  0.82927225504E+02  0.00000000000E+00 0. -1.
         -5    1    5    5    0  503 -0.54039169995E+02  0.45667613804E+02  0.67755027237E+02  0.98074443971E+02  0.47000000000E+01 0.  1.
         13    1    6    6    0    0 -0.42081822247E+02 -0.58029110985E+00 -0.23784882825E+02  0.48341877833E+02  0.00000000000E+00 0. -1.
        -14    1    6    6    0    0 -0.61410769420E+02 -0.73146994068E+02  0.37949905034E+02  0.10277139988E+03  0.00000000000E+00 0.  1.
</event>
<event>
12    1  0.8798177E-003  0.1937476E+03  0.7818608E-02  0.1155882E+00
         21   -1    0    0  501  502  0.00000000000E+00  0.00000000000E+00  0.21340171293E+04  0.21340171293E+04  0.00000000000E+00 0.  1.
         21   -1    0    0  502  503 -0.00000000000E+00 -0.00000000000E+00 -0.17311794625E+02  0.17311794625E+02  0.00000000000E+00 0.  1.
          6    2    1    2  501    0  0.12650508554E+02  0.90670241331E+02  0.10227221865E+04  0.10409124926E+04  0.17075426392E+03 0.  0.
         24    2    3    3    0    0 -0.58329224328E+02  0.48192434121E+02  0.51466682526E+03  0.52614572349E+03  0.78883282187E+02 0.  0.
         -6    2    1    2    0  503 -0.12650508554E+02 -0.90670241331E+02  0.10939831482E+04  0.11104164313E+04  0.16686639637E+03 0.  0.
        -24    2    5    5    0    0  0.33468362004E+02 -0.10939380208E+03  0.76034430054E+03  0.77305239551E+03  0.79996347742E+02 0.  0.
          5    1    3    3  501    0  0.70979732883E+02  0.42477807210E+02  0.50805536120E+03  0.51476676916E+03  0.47000000000E+01 0. -1.
        -11    1    4    4    0    0 -0.40395932186E+02  0.29131846889E+02  0.48066537483E+03  0.48323875921E+03  0.00000000000E+00 0.  1.
         12    1    4    4    0    0 -0.17933292143E+02  0.19060587232E+02  0.34001450427E+02  0.42906964282E+02  0.00000000000E+00 0. -1.
         -5    1    5    5    0  503 -0.46118870558E+02  0.18723560754E+02  0.33363884765E+03  0.33736403574E+03  0.47000000000E+01 0.  1.
         13    1    6    6    0    0  0.37970230479E+01 -0.47884883154E+02  0.54560726407E+03  0.54771768825E+03  0.00000000000E+00 0. -1.
        -14    1    6    6    0    0  0.29671338956E+02 -0.61508918931E+02  0.21473703647E+03  0.22533470726E+03  0.00000000000E+00 0.  1.
</event>
<event>
12    1  0.8798177E-003  0.2112971E+03  0.7818608E-02  0.1141580E+00
         21   -1    0    0  501  502  0.00000000000E+00  0.00000000000E+00  0.35843982555E+03  0.35843982555E+03  0.00000000000E+00 0.  1.
         21   -1    0    0  502  503 -0.00000000000E+00 -0.00000000000E+00 -0.12928171394E+03  0.12928171394E+03  0.00000000000E+00 0. -1.
          6    2    1    2  501    0  0.40941263559E+02  0.11296068455E+03  0.17303954934E+03  0.26909912774E+03  0.16743760510E+03 0.  0.
         24    2    3    3    0    0 -0.27675989162E+02  0.69870716923E+02  0.46760452555E+02  0.11898725958E+03  0.79520755522E+02 0.  0.
         -6    2    1    2    0  503 -0.40941263559E+02 -0.11296068455E+03  0.56118562274E+02  0.21862241175E+03  0.17381070903E+03 0.  0.
        -24    2    5    5    0    0 -0.55647393251E+02 -0.90521873152E+02  0.10345256957E+03  0.16401134370E+03  0.70046019265E+02 0.  0.
          5    1    3    3  501    0  0.68617252721E+02  0.43089967627E+02  0.12627909678E+03  0.15011186817E+03  0.47000000000E+01 0. -1.
        -11    1    4    4    0    0 -0.15945291992E+02 -0.13882877996E+02  0.22786124014E+02  0.31083662682E+02  0.00000000000E+00 0.  1.
         12    1    4    4    0    0 -0.11730697170E+02  0.83753594919E+02  0.23974328541E+02  0.87903596894E+02  0.00000000000E+00 0. -1.
         -5    1    5    5    0  503  0.14706129691E+02 -0.22438811398E+02 -0.47334007299E+02  0.54611068058E+02  0.47000000000E+01 0.  1.
         11    1    6    6    0    0 -0.15241419576E+02 -0.84666720117E+02  0.63867087644E+02  0.10714363840E+03  0.00000000000E+00 0. -1.
        -12    1    6    6    0    0 -0.40405973675E+02 -0.58551530352E+01  0.39585481929E+02  0.56867705293E+02  0.00000000000E+00 0.  1.
</event>
<event>
12    1  0.8798177E-003  0.1859098E+03  0.7818608E-02  0.1163758E+00
         21   -1    0    0  503  502  0.00000000000E+00  0.00000000000E+00  0.64988240559E+03  0.64988240559E+03  0.00000000000E+00 0. -1.
         21   -1    0    0  501  503 -0.00000000000E+00 -0.00000000000E+00 -0.77985681600E+02  0.77985681600E+02  0.00000000000E+00 0.  1.
          6    2    1    2  501    0 -0.55026657256E+02 -0.13413902201E+02  0.69766782809E+02  0.19242720603E+03  0.17015569299E+03 0.  0.
         24    2    3    3    0    0 -0.48384616130E+02  0.51965906588E+02  0.17401453818E+02  0.10826751385E+03  0.79859360344E+02 0.  0.
         -6    2    1    2    0  502  0.55026657256E+02  0.13413902201E+02  0.50212994118E+03  0.53544088116E+03  0.17707228357E+03 0.  0.
        -24    2    5    5    0    0  0.37512323207E+02  0.25570758980E+02  0.11272503470E+03  0.14542445554E+03  0.79876784573E+02 0.  0.
          5    1    3    3  501    0 -0.66420411264E+01 -0.65379808789E+02  0.52365328991E+02  0.84159692181E+02  0.47000000000E+01 0. -1.
        -11    1    4    4    0    0 -0.16592205292E+02 -0.33878929942E+01 -0.26033985820E+02  0.31057165245E+02  0.00000000000E+00 0.  1.
         12    1    4    4    0    0 -0.31792410837E+02  0.55353799582E+02  0.43435439638E+02  0.77210348604E+02  0.00000000000E+00 0. -1.
         -5    1    5    5    0  502  0.17514334049E+02 -0.12156856779E+02  0.38940490648E+03  0.39001642562E+03  0.47000000000E+01 0.  1.
         13    1    6    6    0    0  0.30349602121E+02 -0.24744343294E+01  0.11242680391E+03  0.11647749745E+03  0.00000000000E+00 0. -1.
        -14    1    6    6    0    0  0.71627210856E+01  0.28045193309E+02  0.29823078940E+00  0.28946958091E+02  0.00000000000E+00 0.  1.
</event>
<event>
12    1  0.8798177E-003  0.2917100E+03  0.7818608E-02  0.1089476E+00
         21   -1    0    0  503  502  0.00000000000E+00  0.00000000000E+00  0.33082130367E+03  0.33082130367E+03  0.00000000000E+00 0.  1.
         21   -1    0    0  501  503 -0.00000000000E+00 -0.00000000000E+00 -0.25808746653E+03  0.25808746653E+03  0.00000000000E+00 0. -1.
          6    2    1    2  501    0  0.23430553898E+03 -0.24172915589E+02  0.54477845895E+02  0.29675336189E+03  0.17207936150E+03 0.  0.
         24    2    3    3    0    0  0.14358922133E+03 -0.16693245224E+02 -0.35278853483E+02  0.16883248462E+03  0.79770178905E+02 0.  0.
         -6    2    1    2    0  502 -0.23430553898E+03  0.24172915589E+02  0.18255991242E+02  0.29215540832E+03  0.17186647709E+03 0.  0.
        -24    2    5    5    0    0 -0.18353172760E+03 -0.38770622522E+02  0.42104511290E+02  0.20771187203E+03  0.78640801775E+02 0.  0.
          5    1    3    3  501    0  0.90716317649E+02 -0.74796703659E+01  0.89756699378E+02  0.12792087726E+03  0.47000000000E+01 0. -1.
        -11    1    4    4    0    0  0.66566889307E+02 -0.47838713881E+02 -0.15432385635E+02  0.83413738821E+02  0.00000000000E+00 0.  1.
         12    1    4    4    0    0  0.77022332025E+02  0.31145468658E+02 -0.19846467848E+02  0.85418745803E+02  0.00000000000E+00 0. -1.
         -5    1    5    5    0  502 -0.50773811376E+02  0.62943538111E+02 -0.23848520048E+02  0.84443536283E+02  0.47000000000E+01 0.  1.
         11    1    6    6    0    0 -0.10865008368E+03  0.91615351719E+00 -0.85316873479E+01  0.10898839255E+03  0.00000000000E+00 0. -1.
        -12    1    6    6    0    0 -0.74881643925E+02 -0.39686776039E+02  0.50636198637E+02  0.98723479485E+02  0.00000000000E+00 0.  1.
</event>
<event>
12    1  0.8798177E-003  0.3509064E+03  0.7818608E-02  0.1062293E+00
         21   -1    0    0  503  502  0.00000000000E+00  0.00000000000E+00  0.36733222205E+03  0.36733222205E+03  0.00000000000E+00 0. -1.
         21   -1    0    0  501  503 -0.00000000000E+00 -0.00000000000E+00 -0.37956134027E+03  0.37956134027E+03  0.00000000000E+00 0.  1.
          6    2    1    2  501    0  0.24006905768E+03  0.18906034799E+03 -0.13441666269E+03  0.37532246851E+03  0.17152885624E+03 0.  0.
         24    2    3    3    0    0  0.21146939021E+03  0.97370770075E+02 -0.13168074950E+03  0.27912218317E+03  0.79806036690E+02 0.  0.
         -6    2    1    2    0  502 -0.24006905768E+03 -0.18906034799E+03  0.12218754447E+03  0.37157109381E+03  0.17250598278E+03 0.  0.
        -24    2    5    5    0    0 -0.49389404931E+02 -0.18775018716E+02  0.99551889244E+01  0.92332817480E+02  0.75062832014E+02 0.  0.
          5    1    3    3  501    0  0.28599667472E+02  0.91689577912E+02 -0.27359131901E+01  0.96200285333E+02  0.47000000000E+01 0. -1.
        -13    1    4    4    0    0  0.19670188669E+03  0.10991044853E+03 -0.11245913656E+03  0.25183128543E+03  0.00000000000E+00 0.  1.
         14    1    4    4    0    0  0.14767503515E+02 -0.12539678458E+02 -0.19221612933E+02  0.27290897743E+02  0.00000000000E+00 0. -1.
         -5    1    5    5    0  502 -0.19067965275E+03 -0.17028532927E+03  0.11223235554E+03  0.27923827633E+03  0.47000000000E+01 0.  1.
         13    1    6    6    0    0 -0.37526544682E+02 -0.22759628820E+02  0.40252637399E+02  0.59552641229E+02  0.00000000000E+00 0. -1.
        -14    1    6    6    0    0 -0.11862860249E+02  0.39846101040E+01 -0.30297448474E+02  0.32780176251E+02  0.00000000000E+00 0.  1.
</event>
<event>
12    1  0.8798177E-003  0.1777276E+03  0.7818608E-02  0.1170243E+00
         21   -1    0    0  503  502  0.00000000000E+00  0.00000000000E+00  0.46243821583E+03  0.46243821583E+03  0.00000000000E+00 0. -1.
         21   -1    0    0  501  503 -0.00000000000E+00 -0.00000000000E+00 -0.68136719233E+02  0.68136719233E+02  0.00000000000E+00 0. -1.
          6    2    1    2  501    0 -0.42245634467E+02 -0.14840185099E+02  0.21016582081E+03  0.27465880943E+03  0.17106391972E+03 0.  0.
         24    2    3    3    0    0  0.20520627168E+02  0.18157603838E+02  0.17916825137E+03  0.19712561018E+03  0.77501284970E+02 0.  0.
         -6    2    1    2    0  502  0.42245634467E+02  0.14840185099E+02  0.18413567579E+03  0.25591612564E+03  0.17199474277E+03 0.  0.
        -24    2    5    5    0    0  0.11234064850E+02 -0.40678339405E+02  0.16723140171E+03  0.18994743235E+03  0.79578601559E+02 0.  0.
          5    1    3    3  501    0 -0.62766261636E+02 -0.32997788937E+02  0.30997569446E+02  0.77533199251E+02  0.47000000000E+01 0. -1.
        -11    1    4    4    0    0 -0.91438415433E+00 -0.28110308412E+01  0.16306061527E+03  0.16308740677E+03  0.00000000000E+00 0.  1.
         12    1    4    4    0    0  0.21435011323E+02  0.20968634679E+02  0.16107636097E+02  0.34038203410E+02  0.00000000000E+00 0. -1.
         -5    1    5    5    0  502  0.31011569618E+02  0.55518524504E+02  0.16904274075E+02  0.65968693296E+02  0.47000000000E+01 0.  1.
         11    1    6    6    0    0 -0.13596559690E+02  0.11694822923E+02  0.98132492552E+02  0.99757813795E+02  0.00000000000E+00 0. -1.
        -12    1    6    6    0    0  0.24830624539E+02 -0.52373162328E+02  0.69098909160E+02  0.90189618551E+02  0.00000000000E+00 0.  1.
</event>
<event>
12    1  0.8798177E-003  0.2251476E+03  0.7818608E-02  0.1131073E+00
         21   -1    0    0  501  502  0.00000000000E+00  0.00000000000E+00  0.61461996858E+03  0.61461996858E+03  0.00000000000E+00 0.  1.
         21   -1    0    0  502  503 -0.00000000000E+00 -0.00000000000E+00 -0.10586406484E+03  0.10586406484E+03  0.00000000000E+00 0.  1.
          6    2    1    2  501    0  0.65333761998E+02 -0.12036431398E+03  0.42823130834E+03  0.48136971202E+03  0.17198452740E+03 0.  0.
         24    2    3    3    0    0  0.58118758915E+02 -0.29913141408E+01  0.16280804361E+03  0.19102495690E+03  0.81223992748E+02 0.  0.
         -6    2    1    2    0  503 -0.65333761998E+02  0.12036431398E+03  0.80524595393E+02  0.23911432141E+03  0.17870472771E+03 0.  0.
        -24    2    5    5    0    0 -0.10521411052E+03  0.48611219498E+02  0.33762471599E+02  0.14452185349E+03  0.79458177258E+02 0.  0.
          5    1    3    3  501    0  0.72150030829E+01 -0.11737299983E+03  0.26542326473E+03  0.29034475511E+03  0.47000000000E+01 0. -1.
        -13    1    4    4    0    0  0.41676650246E+02 -0.26024951296E+02  0.15359549952E+03  0.16126319710E+03  0.00000000000E+00 0.  1.
         14    1    4    4    0    0  0.16442108669E+02  0.23033637156E+02  0.92125440901E+01  0.29761759805E+02  0.00000000000E+00 0. -1.
         -5    1    5    5    0  503  0.39880348525E+02  0.71753094477E+02  0.46762123794E+02  0.94592467920E+02  0.47000000000E+01 0.  1.
         11    1    6    6    0    0 -0.83489399412E+02 -0.19820130225E+01  0.85052261302E+01  0.83944904916E+02  0.00000000000E+00 0. -1.
        -12    1    6    6    0    0 -0.21724711111E+02  0.50593232521E+02  0.25257245469E+02  0.60576948573E+02  0.00000000000E+00 0.  1.
</event>
<event>
12    1  0.8798177E-003  0.2333860E+03  0.7818608E-02  0.1124536E+00
         21   -1    0    0  503  502  0.00000000000E+00  0.00000000000E+00  0.13154732981E+03  0.13154732981E+03  0.00000000000E+00 0. -1.
         21   -1    0    0  501  503 -0.00000000000E+00 -0.00000000000E+00 -0.41152622199E+03  0.41152622199E+03  0.00000000000E+00 0. -1.
          6    2    1    2  501    0 -0.14401542819E+03 -0.59452659715E+02 -0.14360962819E+03  0.27276706587E+03  0.17176461979E+03 0.  0.
         24    2    3    3    0    0 -0.22800629230E+02  0.33292455593E+01 -0.10040850536E+03  0.12950848103E+03  0.78483285743E+02 0.  0.
         -6    2    1    2    0  502  0.14401542819E+03  0.59452659715E+02 -0.13636926399E+03  0.27030648593E+03  0.17376408683E+03 0.  0.
        -24    2    5    5    0    0  0.34286123369E+02  0.83687348115E+02 -0.78690715433E+02  0.14390733474E+03  0.79611442689E+02 0.  0.
          5    1    3    3  501    0 -0.12121479896E+03 -0.62781905274E+02 -0.43201122823E+02  0.14325858484E+03  0.47000000000E+01 0. -1.
        -11    1    4    4    0    0  0.14497473758E+02  0.29153494592E+02 -0.62158208686E+02  0.70169408572E+02  0.00000000000E+00 0.  1.
         12    1    4    4    0    0 -0.37298102989E+02 -0.25824249033E+02 -0.38250296678E+02  0.59339072462E+02  0.00000000000E+00 0. -1.
         -5    1    5    5    0  502  0.10972930482E+03 -0.24234688401E+02 -0.57678548553E+02  0.12639915119E+03  0.47000000000E+01 0.  1.
         11    1    6    6    0    0  0.58856794734E+02  0.65474034763E+02 -0.68894207305E+02  0.11179169609E+03  0.00000000000E+00 0. -1.
        -12    1    6    6    0    0 -0.24570671364E+02  0.18213313353E+02 -0.97965081284E+01  0.32115638653E+02  0.00000000000E+00 0.  1.
</event>
<event>
12    1  0.8798177E-003  0.2067308E+03  0.7818608E-02  0.1144229E+00
         21   -1    0    0  501  502  0.00000000000E+00  0.00000000000E+00  0.90753460570E+02  0.90753460570E+02  0.00000000000E+00 0. -1.
         21   -1    0    0  502  503 -0.00000000000E+00 -0.00000000000E+00 -0.48183259028E+03  0.48183259028E+03  0.00000000000E+00 0. -1.
          6    2    1    2  501    0  0.86086069007E+02 -0.77729694884E+02 -0.15150813000E+03  0.25630515471E+03  0.17112832065E+03 0.  0.
         24    2    3    3    0    0  0.46996472196E+02  0.16453695108E+02 -0.32950179833E+02  0.99855210384E+02  0.80037217644E+02 0.  0.
         -6    2    1    2    0  503 -0.86086069007E+02  0.77729694884E+02 -0.23957099971E+03  0.31628089615E+03  0.17084093369E+03 0.  0.
        -24    2    5    5    0    0 -0.10702430123E+03  0.85606788098E+02 -0.12610150699E+03  0.20053171064E+03  0.74354917039E+02 0.  0.
          5    1    3    3  501    0  0.39089596811E+02 -0.94183389992E+02 -0.11855795017E+03  0.15644994432E+03  0.47000000000E+01 0. -1.
        -11    1    4    4    0    0  0.28094521323E+01 -0.59053093791E+01  0.23714864857E+02  0.24600010474E+02  0.00000000000E+00 0.  1.
         12    1    4    4    0    0  0.44187020063E+02  0.22359004488E+02 -0.56665044690E+02  0.75255199910E+02  0.00000000000E+00 0. -1.
         -5    1    5    5    0  503  0.20938232220E+02 -0.78770932147E+01 -0.11346949272E+03  0.11574918550E+03  0.47000000000E+01 0.  1.
         11    1    6    6    0    0 -0.82627990920E+02  0.30863736751E+02 -0.43146516117E+02  0.98191532134E+02  0.00000000000E+00 0. -1.
        -12    1    6    6    0    0 -0.24396310307E+02  0.54743051347E+02 -0.82954990868E+02  0.10234017851E+03  0.00000000000E+00 0.  1.
</event>
<event>
12    1  0.8798177E-003  0.2176087E+03  0.7818608E-02  0.1136183E+00
         21   -1    0    0  501  502  0.00000000000E+00  0.00000000000E+00  0.90805955122E+02  0.90805955122E+02  0.00000000000E+00 0.  1.
         21   -1    0    0  502  503 -0.00000000000E+00 -0.00000000000E+00 -0.57873609976E+03  0.57873609976E+03  0.00000000000E+00 0. -1.
          6    2    1    2  501    0  0.11469009722E+03  0.62142741887E+02 -0.35625991260E+03  0.41746220076E+03  0.17417814147E+03 0.  0.
         24    2    3    3    0    0  0.12964286607E+03  0.86545541400E+02 -0.34355580655E+03  0.38579887448E+03  0.80701771230E+02 0.  0.
         -6    2    1    2    0  503 -0.11469009722E+03 -0.62142741887E+02 -0.13167023204E+03  0.25207985413E+03  0.17085568203E+03 0.  0.
        -24    2    5    5    0    0 -0.69689768091E+02  0.26450898390E+02 -0.81507875381E+02  0.14066973455E+03  0.87109854010E+02 0.  0.
          5    1    3    3  501    0 -0.14952768850E+02 -0.24402799513E+02 -0.12704106054E+02  0.31663326278E+02  0.47000000000E+01 0. -1.
        -13    1    4    4    0    0  0.90758110057E+02  0.59278991772E+02 -0.14157727686E+03  0.17831197024E+03  0.00000000000E+00 0.  1.
         14    1    4    4    0    0  0.38884756015E+02  0.27266549628E+02 -0.20197852968E+03  0.20748690424E+03  0.00000000000E+00 0. -1.
         -5    1    5    5    0  503 -0.45000329130E+02 -0.88593640277E+02 -0.50162356661E+02  0.11141011958E+03  0.47000000000E+01 0.  1.
         11    1    6    6    0    0 -0.45579235253E+02 -0.27396217156E+02 -0.53236636280E+02  0.75247317847E+02  0.00000000000E+00 0. -1.
        -12    1    6    6    0    0 -0.24110532838E+02  0.53847115546E+02 -0.28271239101E+02  0.65422416699E+02  0.00000000000E+00 0.  1.
</event>
<event>
12    1  0.8798177E-003  0.2158717E+03  0.7818608E-02  0.1140559E+00
         21   -1    0    0  501  502  0.00000000000E+00  0.00000000000E+00  0.89328254468E+02  0.89328254468E+02  0.00000000000E+00 0. -1.
         21   -1    0    0  502  503 -0.00000000000E+00 -0.00000000000E+00 -0.48244376337E+03  0.48244376337E+03  0.00000000000E+00 0.  1.
          6    2    1    2  501    0 -0.73293276032E+02 -0.67453789156E+02 -0.18283102746E+03  0.28289184667E+03  0.19151682518E+03 0.  0.
         24    2    3    3    0    0 -0.90568767701E+02 -0.21547196950E+02 -0.36386874947E+02  0.12838023667E+03  0.80563621561E+02 0.  0.
         -6    2    1    2    0  503  0.73293276032E+02  0.67453789156E+02 -0.21028448144E+03  0.28888017116E+03  0.17120243040E+03 0.  0.
        -24    2    5    5    0    0  0.11370160335E+03  0.57916896642E+02 -0.13301458461E+03  0.20103649073E+03  0.80251911914E+02 0.  0.
          5    1    3    3  501    0  0.17275491669E+02 -0.45906592206E+02 -0.14644415251E+03  0.15451161000E+03  0.47000000000E+01 0. -1.
        -13    1    4    4    0    0 -0.55593030541E+02  0.27687048992E+02 -0.24861551416E+02  0.66897342738E+02  0.00000000000E+00 0.  1.
         14    1    4    4    0    0 -0.34975737160E+02 -0.49234245942E+02 -0.11525323531E+02  0.61482893929E+02  0.00000000000E+00 0. -1.
         -5    1    5    5    0  503 -0.40408327321E+02  0.95368925139E+01 -0.77269896829E+02  0.87843680431E+02  0.47000000000E+01 0.  1.
         13    1    6    6    0    0  0.16803024238E+02 -0.19943107534E+02 -0.18016950649E+02  0.31696682356E+02  0.00000000000E+00 0. -1.
        -14    1    6    6    0    0  0.96898579115E+02  0.77860004176E+02 -0.11499763396E+03  0.16933980838E+03  0.00000000000E+00 0.  1.
</event>
<event>
12    1  0.8798177E-003  0.2334444E+03  0.7818608E-02  0.1124309E+00
         21   -1    0    0  501  502  0.00000000000E+00  0.00000000000E+00  0.19773676822E+04  0.19773676822E+04  0.00000000000E+00 0.  1.
         21   -1    0    0  502  503 -0.00000000000E+00 -0.00000000000E+00 -0.32951629765E+02  0.32951629765E+02  0.00000000000E+00 0. -1.
          6    2    1    2  501    0  0.12327504177E+03  0.98341453940E+02  0.13812973752E+04  0.14008849781E+04  0.17212932754E+03 0.  0.
         24    2    3    3    0    0  0.77879375022E+02  0.11655584965E+03  0.71901938710E+03  0.73678652576E+03  0.78835539979E+02 0.  0.
         -6    2    1    2    0  503 -0.12327504177E+03 -0.98341453940E+02  0.56311867715E+03  0.60943433387E+03  0.17158025893E+03 0.  0.
        -24    2    5    5    0    0 -0.15229723088E+03 -0.10018656739E+03  0.43890574342E+03  0.48177606030E+03  0.78981807092E+02 0.  0.
          5    1    3    3  501    0  0.45395666749E+02 -0.18214395711E+02  0.66227798814E+03  0.66409845230E+03  0.47000000000E+01 0. -1.
        -11    1    4    4    0    0  0.29941599227E+02  0.86054399723E+01  0.29444506659E+03  0.29608858505E+03  0.00000000000E+00 0.  1.
         12    1    4    4    0    0  0.47937775795E+02  0.10795040968E+03  0.42457432052E+03  0.44069794070E+03  0.00000000000E+00 0. -1.
         -5    1    5    5    0  503  0.29022189111E+02  0.18451134496E+01  0.12421293373E+03  0.12765827357E+03  0.47000000000E+01 0.  1.
         11    1    6    6    0    0 -0.11682310572E+03 -0.11144017696E+03  0.35765021066E+03  0.39240313997E+03  0.00000000000E+00 0. -1.
        -12    1    6    6    0    0 -0.35474125166E+02  0.11253609574E+02  0.81255532762E+02  0.89372920334E+02  0.00000000000E+00 0.  1.
</event>
<event>
12    1  0.8798177E-003  0.1768404E+03  0.7818608E-02  0.1172359E+00
         21   -1    0    0  501  502  0.00000000000E+00  0.00000000000E+00  0.41803032456E+02  0.41803032456E+02  0.00000000000E+00 0.  1.
         21   -1    0    0  502  503 -0.00000000000E+00 -0.00000000000E+00 -0.82982877535E+03  0.82982877535E+03  0.00000000000E+00 0. -1.
          6    2    1    2  501    0  0.21807654903E+02 -0.13526473816E+02 -0.24394522211E+03  0.30130015350E+03  0.17496848802E+03 0.  0.
         24    2    3    3    0    0  0.18771664623E+02  0.42933660290E+02 -0.22283439049E+03  0.24076321277E+03  0.78205399194E+02 0.  0.
         -6    2    1    2    0  503 -0.21807654903E+02  0.13526473816E+02 -0.54408052078E+03  0.57033165431E+03  0.16910364723E+03 0.  0.
        -24    2    5    5    0    0  0.34557537112E+01  0.35924520924E+02 -0.52325933842E+03  0.53038764395E+03  0.78792158025E+02 0.  0.
          5    1    3    3  501    0  0.30359902799E+01 -0.56460134106E+02 -0.21110831626E+02  0.60536940723E+02  0.47000000000E+01 0. -1.
        -11    1    4    4    0    0 -0.20749725016E+01 -0.19871145886E+02 -0.24119669042E+02  0.31319744322E+02  0.00000000000E+00 0.  1.
         12    1    4    4    0    0  0.20846637125E+02  0.62804806176E+02 -0.19871472144E+03  0.20944346845E+03  0.00000000000E+00 0. -1.
         -5    1    5    5    0  503 -0.25263408614E+02 -0.22398047108E+02 -0.20821182358E+02  0.39944010362E+02  0.47000000000E+01 0.  1.
         11    1    6    6    0    0  0.32766448203E+01 -0.99493684939E+01 -0.82354896631E+01  0.13324774846E+02  0.00000000000E+00 0. -1.
        -12    1    6    6    0    0  0.17910889093E+00  0.45873889417E+02 -0.51502384876E+03  0.51706286910E+03  0.00000000000E+00 0.  1.
</event>
<event>
12    1  0.8798177E-003  0.1937215E+03  0.7818608E-02  0.1155229E+00
         21   -1    0    0  503  502  0.00000000000E+00  0.00000000000E+00  0.22175022504E+02  0.22175022504E+02  0.00000000000E+00 0. -1.
         21   -1    0    0  501  503 -0.00000000000E+00 -0.00000000000E+00 -0.20492837870E+04  0.20492837870E+04  0.00000000000E+00 0. -1.
          6    2    1    2  501    0 -0.66422587557E+02  0.62146784889E+02 -0.14485709677E+04  0.14614670222E+04  0.17103749715E+03 0.  0.
         24    2    3    3    0    0 -0.60982308996E+02 -0.89285285853E+01 -0.11451010123E+04  0.11497020455E+04  0.82218638705E+02 0.  0.
         -6    2    1    2    0  502  0.66422587557E+02 -0.62146784889E+02 -0.57853779678E+03  0.60999178732E+03  0.17061598775E+03 0.  0.
        -24    2    5    5    0    0  0.28309786276E+02 -0.27065530848E+00 -0.14607811886E+03  0.17144338171E+03  0.85161605600E+02 0.  0.
          5    1    3    3  501    0 -0.54402785607E+01  0.71075313474E+02 -0.30346995544E+03  0.31176497665E+03  0.47000000000E+01 0. -1.
        -13    1    4    4    0    0 -0.77047998217E+02  0.10196260696E+02 -0.88275470791E+03  0.88616941501E+03  0.00000000000E+00 0.  1.
         14    1    4    4    0    0  0.16065689221E+02 -0.19124789281E+02 -0.26234630435E+03  0.26353263051E+03  0.00000000000E+00 0. -1.
         -5    1    5    5    0  502  0.38112801280E+02 -0.61876129580E+02 -0.43245967792E+03  0.43854840561E+03  0.47000000000E+01 0.  1.
         13    1    6    6    0    0  0.38343696725E+02  0.33306348815E+02 -0.60654004430E+02  0.79110430434E+02  0.00000000000E+00 0. -1.
        -14    1    6    6    0    0 -0.10033910449E+02 -0.33577004124E+02 -0.85424114434E+02  0.92332951278E+02  0.00000000000E+00 0.  1.
</event>
<event>
12    1  0.8798177E-003  0.2017360E+03  0.7818608E-02  0.1150024E+00
         21   -1    0    0  503  502  0.00000000000E+00  0.00000000000E+00  0.72034712525E+02  0.72034712525E+02  0.00000000000E+00 0.  1.
         21   -1    0    0  501  503 -0.00000000000E+00 -0.00000000000E+00 -0.99663380931E+03  0.99663380931E+03  0.00000000000E+00 0.  1.
          6    2    1    2  501    0  0.92721352514E+02  0.11766244260E+02 -0.81782050965E+03  0.84041633034E+03  0.16950967107E+03 0.  0.
         24    2    3    3    0    0  0.54357337623E+02  0.14236275329E+02 -0.78133101120E+03  0.78720475087E+03  0.77818886224E+02 0.  0.
         -6    2    1    2    0  502 -0.92721352514E+02 -0.11766244260E+02 -0.10677858714E+03  0.22825219150E+03  0.17877836149E+03 0.  0.
        -24    2    5    5    0    0  0.12073363268E+02 -0.12733321960E+02 -0.88050734630E+02  0.12168911086E+03  0.82142584841E+02 0.  0.
          5    1    3    3  501    0  0.38364014891E+02 -0.24700310682E+01 -0.36489498453E+02  0.53211579467E+02  0.47000000000E+01 0. -1.
        -13    1    4    4    0    0  0.11526553084E+02 -0.11761945100E+02 -0.56128715866E+03  0.56152869851E+03  0.00000000000E+00 0.  1.
         14    1    4    4    0    0  0.42830784540E+02  0.25998220429E+02 -0.22004385254E+03  0.22567605236E+03  0.00000000000E+00 0. -1.
         -5    1    5    5    0  502 -0.10479471578E+03  0.96707769909E+00 -0.18727852509E+02  0.10656308064E+03  0.47000000000E+01 0.  1.
         11    1    6    6    0    0 -0.19630307090E+02 -0.35230243074E+01 -0.86358279678E+02  0.88631332641E+02  0.00000000000E+00 0. -1.
        -12    1    6    6    0    0  0.31703670358E+02 -0.92102976522E+01 -0.16924549516E+01  0.33057778219E+02  0.00000000000E+00 0.  1.
</event>
<event>
12    1  0.8798177E-003  0.3854901E+03  0.7818608E-02  0.1049307E+00
         21   -1    0    0  501  502  0.00000000000E+00  0.00000000000E+00  0.59136042331E+03  0.59136042331E+03  0.00000000000E+00 0.  1.
         21   -1    0    0  502  503 -0.00000000000E+00 -0.00000000000E+00 -0.26527896104E+03  0.26527896104E+03  0.00000000000E+00 0.  1.
          6    2    1    2  501    0  0.15953344314E+03  0.30041320981E+03  0.56337721406E+02  0.38958515003E+03  0.18139358908E+03 0.  0.
         24    2    3    3    0    0  0.17324784289E+03  0.19996327803E+03  0.55245135633E+01  0.27608472868E+03  0.78690085362E+02 0.  0.
         -6    2    1    2    0  503 -0.15953344314E+03 -0.30041320981E+03  0.26974374086E+03  0.46705423432E+03  0.17227581361E+03 0.  0.
        -24    2    5    5    0    0 -0.93447700233E+02 -0.18297431942E+03  0.82200852269E+02  0.23607015813E+03  0.82219615669E+02 0.  0.
          5    1    3    3  501    0 -0.13714399747E+02  0.10044993177E+03  0.50813207843E+02  0.11350042134E+03  0.47000000000E+01 0. -1.
        -13    1    4    4    0    0  0.76247270509E+02  0.13122381282E+03 -0.23830241109E+02  0.15362687168E+03  0.00000000000E+00 0.  1.
         14    1    4    4    0    0  0.97000572379E+02  0.68739465215E+02  0.29354754673E+02  0.12245785700E+03  0.00000000000E+00 0. -1.
         -5    1    5    5    0  503 -0.66085742909E+02 -0.11743889039E+03  0.18754288859E+03  0.23098407619E+03  0.47000000000E+01 0.  1.
         11    1    6    6    0    0 -0.85446269515E+01 -0.10488811207E+03  0.29794371042E+02  0.10937198567E+03  0.00000000000E+00 0. -1.
        -12    1    6    6    0    0 -0.84903073281E+02 -0.78086207350E+02  0.52406481227E+02  0.12669817246E+03  0.00000000000E+00 0.  1.
</event>
<event>
12    1  0.8798177E-003  0.2424555E+03  0.7818608E-02  0.1118598E+00
         21   -1    0    0  503  502  0.00000000000E+00  0.00000000000E+00  0.36951847109E+03  0.36951847109E+03  0.00000000000E+00 0.  1.
         21   -1    0    0  501  503 -0.00000000000E+00 -0.00000000000E+00 -0.16967402859E+03  0.16967402859E+03  0.00000000000E+00 0.  1.
          6    2    1    2  501    0  0.20459292131E+02  0.16629387356E+03  0.17299172904E+03  0.29784362690E+03  0.17524968688E+03 0.  0.
         24    2    3    3    0    0  0.78204508458E+01  0.18207548033E+03  0.18754811545E+03  0.27249056384E+03  0.76577880520E+02 0.  0.
         -6    2    1    2    0  502 -0.20459292131E+02 -0.16629387356E+03  0.26852713451E+02  0.24134887278E+03  0.17162743125E+03 0.  0.
        -24    2    5    5    0    0  0.36454661612E+02 -0.98547045277E+02 -0.28753514941E+02  0.13674020436E+03  0.82647785096E+02 0.  0.
          5    1    3    3  501    0  0.12638841285E+02 -0.15781606772E+02 -0.14556386407E+02  0.25353063060E+02  0.47000000000E+01 0. -1.
        -11    1    4    4    0    0 -0.25381715542E+02  0.10451698516E+03  0.13687057258E+03  0.17407350548E+03  0.00000000000E+00 0.  1.
         12    1    4    4    0    0  0.33202166387E+02  0.77558495165E+02  0.50677542869E+02  0.98417058360E+02  0.00000000000E+00 0. -1.
         -5    1    5    5    0  502 -0.56913953743E+02 -0.67746828279E+02  0.55606228393E+02  0.10460866842E+03  0.47000000000E+01 0.  1.
         11    1    6    6    0    0  0.44583375267E+02 -0.14355311718E+02  0.16287325031E+01  0.46865820107E+02  0.00000000000E+00 0. -1.
        -12    1    6    6    0    0 -0.81287136555E+01 -0.84191733559E+02 -0.30382247444E+02  0.89874384254E+02  0.00000000000E+00 0.  1.
</event>
<event>
12    1  0.8798177E-003  0.2077977E+03  0.7818608E-02  0.1143508E+00
         21   -1    0    0  501  502  0.00000000000E+00  0.00000000000E+00  0.41812886567E+03  0.41812886567E+03  0.00000000000E+00 0. -1.
         21   -1    0    0  502  503 -0.00000000000E+00 -0.00000000000E+00 -0.10634430734E+03  0.10634430734E+03  0.00000000000E+00 0. -1.
          6    2    1    2  501    0 -0.12912900603E+02  0.11804418559E+03  0.20403123871E+03  0.29121921795E+03  0.17052481867E+03 0.  0.
         24    2    3    3    0    0 -0.44436166956E+02  0.84276923843E+01  0.98374000094E+02  0.13567168831E+03  0.81754291527E+02 0.  0.
         -6    2    1    2    0  503  0.12912900603E+02 -0.11804418559E+03  0.10775331962E+03  0.23325395506E+03  0.16939733442E+03 0.  0.
        -24    2    5    5    0    0 -0.10919574200E+02 -0.14802080429E+03  0.88008401853E+02  0.18991187042E+03  0.79319884804E+02 0.  0.
          5    1    3    3  501    0  0.31523266353E+02  0.10961649320E+03  0.10565723861E+03  0.15554752964E+03  0.47000000000E+01 0. -1.
        -13    1    4    4    0    0  0.34152330771E+01 -0.13782050528E+02  0.77739107865E+02  0.79025170835E+02  0.00000000000E+00 0.  1.
         14    1    4    4    0    0 -0.47851400033E+02  0.22209742913E+02  0.20634892229E+02  0.56646517480E+02  0.00000000000E+00 0. -1.
         -5    1    5    5    0  503  0.23832474803E+02  0.29976618699E+02  0.19744917770E+02  0.43342084648E+02  0.47000000000E+01 0.  1.
         13    1    6    6    0    0 -0.11539264477E+02 -0.45181350457E+02 -0.10173847686E+02  0.47728568285E+02  0.00000000000E+00 0. -1.
        -14    1    6    6    0    0  0.61969027716E+00 -0.10283945383E+03  0.98182249539E+02  0.14218330213E+03  0.00000000000E+00 0.  1.
</event>
<event>
12    1  0.8798177E-003  0.3152657E+03  0.7818608E-02  0.1077914E+00
         21   -1    0    0  503  502  0.00000000000E+00  0.00000000000E+00  0.32484972663E+03  0.32484972663E+03  0.00000000000E+00 0.  1.
         21   -1    0    0  501  503 -0.00000000000E+00 -0.00000000000E+00 -0.32474403415E+03  0.32474403415E+03  0.00000000000E+00 0.  1.
          6    2    1    2  501    0  0.33400836488E+02 -0.26199179730E+03 -0.79164393477E+02  0.32451499908E+03  0.17113639503E+03 0.  0.
         24    2    3    3    0    0  0.74856265193E+02 -0.15675287427E+03 -0.76646369111E+01  0.19061918631E+03  0.78115321788E+02 0.  0.
         -6    2    1    2    0  502 -0.33400836488E+02  0.26199179730E+03  0.79270085951E+02  0.32507876170E+03  0.17215439886E+03 0.  0.
        -24    2    5    5    0    0 -0.86460155111E+02  0.16377314811E+03  0.40201392982E+02  0.20671218233E+03  0.82563744225E+02 0.  0.
          5    1    3    3  501    0 -0.41455428705E+02 -0.10523892303E+03 -0.71499756566E+02  0.13389581278E+03  0.47000000000E+01 0. -1.
        -11    1    4    4    0    0  0.64048782531E+02 -0.13483137420E+03 -0.35644780307E+02  0.15346757434E+03  0.00000000000E+00 0.  1.
         12    1    4    4    0    0  0.10807482662E+02 -0.21921500072E+02  0.27980143396E+02  0.37151611962E+02  0.00000000000E+00 0. -1.
         -5    1    5    5    0  502  0.53059318622E+02  0.98218649188E+02  0.39068692969E+02  0.11836657937E+03  0.47000000000E+01 0.  1.
         11    1    6    6    0    0 -0.20144150229E+02 -0.54685517382E+01  0.63366284003E+01  0.21813864996E+02  0.00000000000E+00 0. -1.
        -12    1    6    6    0    0 -0.66316004882E+02  0.16924169985E+03  0.33864764582E+02  0.18489831733E+03  0.00000000000E+00 0.  1.
</event>
<event>
12    1  0.8798177E-003  0.2275501E+03  0.7818608E-02  0.1128524E+00
         21   -1    0    0  501  502  0.00000000000E+00  0.00000000000E+00  0.86514103240E+02  0.86514103240E+02  0.00000000000E+00 0. -1.
         21   -1    0    0  502  503 -0.00000000000E+00 -0.00000000000E+00 -0.60951553921E+03  0.60951553921E+03  0.00000000000E+00 0. -1.
          6    2    1    2  501    0 -0.14200825858E+03 -0.46540947862E+02 -0.31222356703E+03  0.38585811226E+03  0.17050079665E+03 0.  0.
         24    2    3    3    0    0 -0.59232294625E+02  0.25867556359E+02 -0.82474274835E+02  0.13110003299E+03  0.78788434697E+02 0.  0.
         -6    2    1    2    0  503  0.14200825858E+03  0.46540947862E+02 -0.21077786894E+03  0.31017153018E+03  0.17160029945E+03 0.  0.
        -24    2    5    5    0    0  0.99410403247E+02  0.72180532438E+02 -0.73865182874E+02  0.16443498987E+03  0.80562665779E+02 0.  0.
          5    1    3    3  501    0 -0.82775963950E+02 -0.72408504221E+02 -0.22974929219E+03  0.25475807927E+03  0.47000000000E+01 0. -1.
        -13    1    4    4    0    0  0.36582579841E+01  0.29491629058E+02 -0.54705760276E+02  0.62256399216E+02  0.00000000000E+00 0.  1.
         14    1    4    4    0    0 -0.62890552609E+02 -0.36240726991E+01 -0.27768514559E+02  0.68843633774E+02  0.00000000000E+00 0. -1.
         -5    1    5    5    0  503  0.42597855328E+02 -0.25639584576E+02 -0.13691268606E+03  0.14573654031E+03  0.47000000000E+01 0.  1.
         13    1    6    6    0    0  0.76598171586E+01 -0.14654891117E+02  0.26430699331E+01  0.16745878634E+02  0.00000000000E+00 0. -1.
        -14    1    6    6    0    0  0.91750586088E+02  0.86835423555E+02 -0.76508252807E+02  0.14768911124E+03  0.00000000000E+00 0.  1.
</event>
<event>
12    1  0.8798177E-003  0.2799981E+03  0.7818608E-02  0.1096858E+00
         21   -1    0    0  501  502  0.00000000000E+00  0.00000000000E+00  0.27784836744E+03  0.27784836744E+03  0.00000000000E+00 0. -1.
         21   -1    0    0  502  503 -0.00000000000E+00 -0.00000000000E+00 -0.27923776844E+03  0.27923776844E+03  0.00000000000E+00 0. -1.
          6    2    1    2  501    0  0.10009745166E+03 -0.18605587699E+03  0.38355338072E+02  0.28261297398E+03  0.18374621605E+03 0.  0.
         24    2    3    3    0    0  0.11549217105E+03 -0.11279956466E+03  0.79714534632E+02  0.19696160025E+03  0.79857883643E+02 0.  0.
         -6    2    1    2    0  503 -0.10009745166E+03  0.18605587699E+03 -0.39744739064E+02  0.27447316190E+03  0.17064461060E+03 0.  0.
        -24    2    5    5    0    0 -0.76410839879E+02  0.18323363705E+03  0.15270338704E+02  0.21432526586E+03  0.79302926466E+02 0.  0.
          5    1    3    3  501    0 -0.15394719391E+02 -0.73256312335E+02 -0.41359196560E+02  0.85651373732E+02  0.47000000000E+01 0. -1.
        -13    1    4    4    0    0  0.59969645864E+02 -0.15913541110E+02  0.54272341772E+02  0.82432313428E+02  0.00000000000E+00 0.  1.
         14    1    4    4    0    0  0.55522525186E+02 -0.96886023548E+02  0.25442192860E+02  0.11452928682E+03  0.00000000000E+00 0. -1.
         -5    1    5    5    0  503 -0.23686611781E+02  0.28222399471E+01 -0.55015077768E+02  0.60147896038E+02  0.47000000000E+01 0.  1.
         13    1    6    6    0    0 -0.34281355561E+02  0.45087281873E+02  0.37879139527E+02  0.68138854826E+02  0.00000000000E+00 0. -1.
        -14    1    6    6    0    0 -0.42129484318E+02  0.13814635517E+03 -0.22608800823E+02  0.14618641103E+03  0.00000000000E+00 0.  1.
</event>
<event>
12    1  0.8798177E-003  0.4071948E+03  0.7818608E-02  0.1041337E+00
         21   -1    0    0  503  502  0.00000000000E+00  0.00000000000E+00  0.31937454129E+03  0.31937454129E+03  0.00000000000E+00 0. -1.
         21   -1    0    0  501  503 -0.00000000000E+00 -0.00000000000E+00 -0.52871629526E+03  0.52871629526E+03  0.00000000000E+00 0.  1.
          6    2    1    2  501    0 -0.36804153488E+03  0.27183654525E+02 -0.16263111337E+03  0.43847062243E+03  0.17208743482E+03 0.  0.
         24    2    3    3    0    0 -0.70677866352E+02  0.11874740610E+02 -0.62129254741E+02  0.12417422125E+03  0.80142514750E+02 0.  0.
         -6    2    1    2    0  502  0.36804153488E+03 -0.27183654525E+02 -0.46710640597E+02  0.40962021412E+03  0.17150310025E+03 0.  0.
        -24    2    5    5    0    0  0.20528637512E+03  0.47632210931E+02 -0.51577646392E+01  0.22567623554E+03  0.80571939440E+02 0.  0.
          5    1    3    3  501    0 -0.29736366853E+03  0.15308913915E+02 -0.10050185863E+03  0.31429640118E+03  0.47000000000E+01 0. -1.
        -11    1    4    4    0    0 -0.68791272543E+02 -0.17706664985E+02 -0.62373702736E+02  0.94531708733E+02  0.00000000000E+00 0.  1.
         12    1    4    4    0    0 -0.18865938094E+01  0.29581405595E+02  0.24444799497E+00  0.29642512512E+02  0.00000000000E+00 0. -1.
         -5    1    5    5    0  502  0.16275515977E+03 -0.74815865456E+02 -0.41552875958E+02  0.18394397858E+03  0.47000000000E+01 0.  1.
         13    1    6    6    0    0  0.17976423486E+03  0.99036160403E+01 -0.55980023324E+01  0.18012384455E+03  0.00000000000E+00 0. -1.
        -14    1    6    6    0    0  0.25522140256E+02  0.37728594890E+02  0.44023769317E+00  0.45552390990E+02  0.00000000000E+00 0.  1.
</event>
<event>
12    1  0.8798177E-003  0.3093841E+03  0.7818608E-02  0.1080716E+00
         21   -1    0    0  503  502  0.00000000000E+00  0.00000000000E+00  0.89140408760E+03  0.89140408760E+03  0.00000000000E+00 0.  1.
         21   -1    0    0  501  503 -0.00000000000E+00 -0.00000000000E+00 -0.13076190218E+03  0.13076190218E+03  0.00000000000E+00 0. -1.
          6    2    1    2  501    0 -0.25557176381E+03  0.19170110212E+02  0.16289868381E+03  0.34910147422E+03  0.17219593066E+03 0.  0.
         24    2    3    3    0    0 -0.11653230124E+03  0.37241706076E+02  0.23434800903E+02  0.15128636013E+03  0.85858319128E+02 0.  0.
         -6    2    1    2    0  502  0.25557176381E+03 -0.19170110212E+02  0.59774350160E+03  0.67306451556E+03  0.17330357416E+03 0.  0.
        -24    2    5    5    0    0  0.15133078601E+03 -0.80600440276E+02  0.35009393272E+03  0.39739756819E+03  0.77211577559E+02 0.  0.
          5    1    3    3  501    0 -0.13903946257E+03 -0.18071595864E+02  0.13946388291E+03  0.19781511410E+03  0.47000000000E+01 0. -1.
        -13    1    4    4    0    0 -0.82905134699E+01  0.63133727338E+01 -0.26244819636E+02  0.28237950467E+02  0.00000000000E+00 0.  1.
         14    1    4    4    0    0 -0.10824178777E+03  0.30928333342E+02  0.49679620539E+02  0.12304840966E+03  0.00000000000E+00 0. -1.
         -5    1    5    5    0  502  0.10424097779E+03  0.61430330063E+02  0.24764956888E+03  0.27566694737E+03  0.47000000000E+01 0.  1.
         11    1    6    6    0    0  0.16920811545E+02 -0.42828186192E+02  0.61744713389E+02  0.77025820524E+02  0.00000000000E+00 0. -1.
        -12    1    6    6    0    0  0.13440997447E+03 -0.37772254084E+02  0.28834921933E+03  0.32037174767E+03  0.00000000000E+00 0.  1.
</event>
<event>
12    1  0.8798177E-003  0.1886485E+03  0.7818608E-02  0.1160076E+00
         21   -1    0    0  503  502  0.00000000000E+00  0.00000000000E+00  0.44299539619E+02  0.44299539619E+02  0.00000000000E+00 0.  1.
         21   -1    0    0  501  503 -0.00000000000E+00 -0.00000000000E+00 -0.81269260004E+03  0.81269260004E+03  0.00000000000E+00 0. -1.
          6    2    1    2  501    0 -0.55203922265E+02  0.51624375441E+02 -0.44710242618E+03  0.48527192033E+03  0.17284590822E+03 0.  0.
         24    2    3    3    0    0  0.24067558790E+02  0.31273970642E+02 -0.13664904783E+03  0.16417770235E+03  0.82000286907E+02 0.  0.
         -6    2    1    2    0  502  0.55203922265E+02 -0.51624375441E+02 -0.32129063424E+03  0.37172021933E+03  0.17098450408E+03 0.  0.
        -24    2    5    5    0    0  0.97603054694E+02 -0.12767003313E+02 -0.19074567663E+03  0.22899090294E+03  0.79771973889E+02 0.  0.
          5    1    3    3  501    0 -0.79271481055E+02  0.20350404799E+02 -0.31045337836E+03  0.32109421797E+03  0.47000000000E+01 0. -1.
        -11    1    4    4    0    0  0.13355600636E+01 -0.17787658227E+02 -0.67912863501E+00  0.17850650453E+02  0.00000000000E+00 0.  1.
         12    1    4    4    0    0  0.22731998726E+02  0.49061628869E+02 -0.13596991919E+03  0.14632705190E+03  0.00000000000E+00 0. -1.
         -5    1    5    5    0  502 -0.42399132428E+02 -0.38857372129E+02 -0.13054495761E+03  0.14272931639E+03  0.47000000000E+01 0.  1.
         11    1    6    6    0    0 -0.88100532928E+01  0.64569838966E+01 -0.14946178883E+01  0.11024679709E+02  0.00000000000E+00 0. -1.
        -12    1    6    6    0    0  0.10641310799E+03 -0.19223987209E+02 -0.18925105874E+03  0.21796622324E+03  0.00000000000E+00 0.  1.
</event>
<event>
12    1  0.8798177E-003  0.1949518E+03  0.7818608E-02  0.1154472E+00
         21   -1    0    0  501  502  0.00000000000E+00  0.00000000000E+00  0.11016163938E+03  0.11016163938E+03  0.00000000000E+00 0. -1.
         21   -1    0    0  502  503 -0.00000000000E+00 -0.00000000000E+00 -0.40230767878E+03  0.40230767878E+03  0.00000000000E+00 0. -1.
          6    2    1    2  501    0  0.89451124383E+02  0.17539021441E+02 -0.47259530359E+02  0.20059826073E+03  0.17232840181E+03 0.  0.
         24    2    3    3    0    0 -0.33959978824E+01 -0.43993555220E+02 -0.36478477006E+02  0.88593050068E+02  0.67609788737E+02 0.  0.
         -6    2    1    2    0  503 -0.89451124383E+02 -0.17539021441E+02 -0.24488650904E+03  0.31187105743E+03  0.17024991403E+03 0.  0.
        -24    2    5    5    0    0 -0.10478296522E+03 -0.44708532785E+02 -0.24354512961E+03  0.28029358146E+03  0.79195574030E+02 0.  0.
          5    1    3    3  501    0  0.92847122265E+02  0.61532576661E+02 -0.10781053353E+02  0.11200521066E+03  0.47000000000E+01 0. -1.
        -13    1    4    4    0    0  0.21072367125E+02  0.69266990117E+01 -0.19682603079E+02  0.29655162778E+02  0.00000000000E+00 0.  1.
         14    1    4    4    0    0 -0.24468365007E+02 -0.50920254232E+02 -0.16795873927E+02  0.58937887289E+02  0.00000000000E+00 0. -1.
         -5    1    5    5    0  503  0.15331840835E+02  0.27169511344E+02 -0.13413794261E+01  0.31577475973E+02  0.47000000000E+01 0.  1.
         13    1    6    6    0    0 -0.70218183238E+02 -0.23654303976E+02 -0.22283366848E+03  0.23482964711E+03  0.00000000000E+00 0. -1.
        -14    1    6    6    0    0 -0.34564781980E+02 -0.21054228808E+02 -0.20711461127E+02  0.45463934345E+02  0.00000000000E+00 0.  1.
</event>
<event>
12    1  0.8798177E-003  0.2261678E+03  0.7818608E-02  0.1129749E+00
         21   -1    0    0  503  502  0.00000000000E+00  0.00000000000E+00  0.12370845581E+03  0.12370845581E+03  0.00000000000E+00 0.  1.
         21   -1    0    0  501  503 -0.00000000000E+00 -0.00000000000E+00 -0.70992261188E+03  0.70992261188E+03  0.00000000000E+00 0.  1.
          6    2    1    2  501    0 -0.11931757466E+03  0.84924543023E+02 -0.56498852522E+03  0.60857530760E+03  0.17234561137E+03 0.  0.
         24    2    3    3    0    0 -0.67640914027E+02  0.14089238999E+02 -0.17672713570E+03  0.21050858688E+03  0.91145953019E+02 0.  0.
         -6    2    1    2    0  502  0.11931757466E+03 -0.84924543023E+02 -0.21225630848E+02  0.22505576009E+03  0.16956033178E+03 0.  0.
        -24    2    5    5    0    0  0.15198908732E+03 -0.58878628021E+02 -0.19808594195E+02  0.18298539736E+03  0.80770661381E+02 0.  0.
          5    1    3    3  501    0 -0.51676660637E+02  0.70835304024E+02 -0.38826138952E+03  0.39806672072E+03  0.47000000000E+01 0. -1.
        -11    1    4    4    0    0 -0.65409016858E+02 -0.16802443054E+02 -0.16337197019E+03  0.17677969969E+03  0.00000000000E+00 0.  1.
         12    1    4    4    0    0 -0.22318971688E+01  0.30891682053E+02 -0.13355165503E+02  0.33728887184E+02  0.00000000000E+00 0. -1.
         -5    1    5    5    0  502 -0.32671512657E+02 -0.26045915001E+02 -0.14170366534E+01  0.42070362733E+02  0.47000000000E+01 0.  1.
         11    1    6    6    0    0  0.41820650766E+02 -0.58278082185E+02 -0.69100607215E+01  0.72062824208E+02  0.00000000000E+00 0. -1.
        -12    1    6    6    0    0  0.11016843656E+03 -0.60054583569E+00 -0.12898533473E+02  0.11092257315E+03  0.00000000000E+00 0.  1.
</event>
<event>
12    1  0.8798177E-003  0.2742254E+03  0.7818608E-02  0.1099155E+00
         21   -1    0    0  501  502  0.00000000000E+00  0.00000000000E+00  0.21296883733E+03  0.21296883733E+03  0.00000000000E+00 0.  1.
         21   -1    0    0  502  503 -0.00000000000E+00 -0.00000000000E+00 -0.36198041490E+03  0.36198041490E+03  0.00000000000E+00 0.  1.
          6    2    1    2  501    0 -0.20991515582E+03 -0.19036763764E+02 -0.23874056598E+02  0.27526267497E+03  0.17542177356E+03 0.  0.
         24    2    3    3    0    0 -0.70400974592E+02 -0.52095384854E+02 -0.52343644103E+02  0.12901054130E+03  0.78953380813E+02 0.  0.
         -6    2    1    2    0  503  0.20991515582E+03  0.19036763764E+02 -0.12513752097E+03  0.29968657726E+03  0.17241193235E+03 0.  0.
        -24    2    5    5    0    0  0.15203891844E+03 -0.15180686347E+02 -0.14972402928E+03  0.22794343030E+03  0.78706013206E+02 0.  0.
          5    1    3    3  501    0 -0.13951418123E+03  0.33058621090E+02  0.28469587505E+02  0.14625213367E+03  0.47000000000E+01 0. -1.
        -11    1    4    4    0    0 -0.18025957067E+02  0.18387419295E+02 -0.27670444289E+02  0.37797960311E+02  0.00000000000E+00 0.  1.
         12    1    4    4    0    0 -0.52375017525E+02 -0.70482804149E+02 -0.24673199814E+02  0.91212580988E+02  0.00000000000E+00 0. -1.
         -5    1    5    5    0  503  0.57876237378E+02  0.34217450111E+02  0.24586508305E+02  0.71743146960E+02  0.47000000000E+01 0.  1.
         11    1    6    6    0    0  0.84946451813E+02  0.11178166734E+02 -0.12538131150E+03  0.15185955472E+03  0.00000000000E+00 0. -1.
        -12    1    6    6    0    0  0.67092466626E+02 -0.26358853082E+02 -0.24342717778E+02  0.76083875576E+02  0.00000000000E+00 0.  1.
</event>
<event>
12    1  0.8798177E-003  0.1843001E+03  0.7818608E-02  0.1164204E+00
         21   -1    0    0  503  502  0.00000000000E+00  0.00000000000E+00  0.58492487963E+03  0.58492487963E+03  0.00000000000E+00 0.  1.
         21   -1    0    0  501  503 -0.00000000000E+00 -0.00000000000E+00 -0.58293273800E+02  0.58293273800E+02  0.00000000000E+00 0.  1.
          6    2    1    2  501    0 -0.55624363147E+02  0.22543550941E+02  0.30450238967E+03  0.35593292822E+03  0.17425344361E+03 0.  0.
         24    2    3    3    0    0  0.19139468423E+02  0.30673512445E+02  0.72993016304E+02  0.11246957011E+03  0.77551532248E+02 0.  0.
         -6    2    1    2    0  502  0.55624363147E+02 -0.22543550941E+02  0.22212921616E+03  0.28728522521E+03  0.17201491357E+03 0.  0.
        -24    2    5    5    0    0  0.49439691530E+02 -0.77264353058E+02  0.11860574666E+03  0.16993184825E+03  0.79971535915E+02 0.  0.
          5    1    3    3  501    0 -0.74763831571E+02 -0.81299615037E+01  0.23150937337E+03  0.24346335811E+03  0.47000000000E+01 0. -1.
        -13    1    4    4    0    0 -0.17150042779E+02  0.41830213074E+02  0.26348647934E+02  0.52327258108E+02  0.00000000000E+00 0.  1.
         14    1    4    4    0    0  0.36289511202E+02 -0.11156700629E+02  0.46644368370E+02  0.60142312001E+02  0.00000000000E+00 0. -1.
         -5    1    5    5    0  502  0.61846716175E+01  0.54720802117E+02  0.10352346950E+03  0.11735337696E+03  0.47000000000E+01 0.  1.
         11    1    6    6    0    0 -0.21588764809E+02 -0.23065853083E+02  0.39660982552E+02  0.50706033974E+02  0.00000000000E+00 0. -1.
        -12    1    6    6    0    0  0.71028456339E+02 -0.54198499976E+02  0.78944764108E+02  0.11922581428E+03  0.00000000000E+00 0.  1.
</event>
<event>
12    1  0.8798177E-003  0.2275487E+03  0.7818608E-02  0.1128383E+00
         21   -1    0    0  501  502  0.00000000000E+00  0.00000000000E+00  0.10083427961E+03  0.10083427961E+03  0.00000000000E+00 0. -1.
         21   -1    0    0  502  503 -0.00000000000E+00 -0.00000000000E+00 -0.54594539165E+03  0.54594539165E+03  0.00000000000E+00 0.  1.
          6    2    1    2  501    0  0.88187354681E+02 -0.11977583337E+03 -0.14364585979E+03  0.26909575062E+03  0.17220664965E+03 0.  0.
         24    2    3    3    0    0  0.11223258153E+03 -0.68697456033E+02 -0.14568350292E+03  0.21240875427E+03  0.81106738603E+02 0.  0.
         -6    2    1    2    0  503 -0.88187354681E+02  0.11977583337E+03 -0.30146525226E+03  0.37768392064E+03  0.17216441504E+03 0.  0.
        -24    2    5    5    0    0 -0.60360935649E+02  0.10940667615E+03 -0.11412090059E+03  0.18794245148E+03  0.81765040062E+02 0.  0.
          5    1    3    3  501    0 -0.24045226853E+02 -0.51078377335E+02  0.20376431294E+01  0.56686996349E+02  0.47000000000E+01 0. -1.
        -11    1    4    4    0    0  0.31379621420E+02 -0.41059263022E+02 -0.10886669869E+02  0.52811583021E+02  0.00000000000E+00 0.  1.
         12    1    4    4    0    0  0.80852960114E+02 -0.27638193011E+02 -0.13479683305E+03  0.15959717125E+03  0.00000000000E+00 0. -1.
         -5    1    5    5    0  503 -0.27826419033E+02  0.10369157213E+02 -0.18734435167E+03  0.18974146916E+03  0.47000000000E+01 0.  1.
         13    1    6    6    0    0 -0.74227183835E+02  0.53569812213E+02 -0.64678203020E+02  0.11208331520E+03  0.00000000000E+00 0. -1.
        -14    1    6    6    0    0  0.13866248186E+02  0.55836863942E+02 -0.49442697574E+02  0.75859136279E+02  0.00000000000E+00 0.  1.
</event>
<event>
12    1  0.8798177E-003  0.2633872E+03  0.7818608E-02  0.1105553E+00
         21   -1    0    0  503  502  0.00000000000E+00  0.00000000000E+00  0.84469891876E+03  0.84469891876E+03  0.00000000000E+00 0.  1.
         21   -1    0    0  501  503 -0.00000000000E+00 -0.00000000000E+00 -0.82349786130E+02  0.82349786130E+02  0.00000000000E+00 0. -1.
          6    2    1    2  501    0 -0.19637851635E+03 -0.33118421526E+02  0.43726305463E+03  0.51046231516E+03  0.17237008073E+03 0.  0.
         24    2    3    3    0    0 -0.94889212407E+02  0.48330289994E+02  0.21949812513E+03  0.25673485126E+03  0.79959848362E+02 0.  0.
         -6    2    1    2    0  502  0.19637851635E+03  0.33118421526E+02  0.32508607800E+03  0.41658638972E+03  0.16793424447E+03 0.  0.
        -24    2    5    5    0    0  0.54491106590E+02  0.44407919328E+02  0.75143790487E+02  0.12891865275E+03  0.77666503603E+02 0.  0.
          5    1    3    3  501    0 -0.10148930394E+03 -0.81448711520E+02  0.21776492949E+03  0.25372746391E+03  0.47000000000E+01 0. -1.
        -11    1    4    4    0    0 -0.25881033164E+02  0.46645057961E+02  0.14814422392E+03  0.15745570930E+03  0.00000000000E+00 0.  1.
         12    1    4    4    0    0 -0.69008179242E+02  0.16852320331E+01  0.71353901214E+02  0.99279141957E+02  0.00000000000E+00 0. -1.
         -5    1    5    5    0  502  0.14188740976E+03 -0.11289497802E+02  0.24994228751E+03  0.28766773697E+03  0.47000000000E+01 0.  1.
         13    1    6    6    0    0  0.17286139343E+02  0.61228201752E+02  0.40948371684E+02  0.75660243502E+02  0.00000000000E+00 0. -1.
        -14    1    6    6    0    0  0.37204967246E+02 -0.16820282424E+02  0.34195418803E+02  0.53258409249E+02  0.00000000000E+00 0.  1.
</event>
<event>
12    1  0.8798177E-003  0.1871631E+03  0.7818608E-02  0.1161911E+00
         21   -1    0    0  503  502  0.00000000000E+00  0.00000000000E+00  0.10356632994E+03  0.10356632994E+03  0.00000000000E+00 0.  1.
         21   -1    0    0  501  503 -0.00000000000E+00 -0.00000000000E+00 -0.39438622753E+03  0.39438622753E+03  0.00000000000E+00 0. -1.
          6    2    1    2  501    0  0.61632535658E+02 -0.53997437098E+02 -0.24602381124E+03  0.30912415296E+03  0.16827279513E+03 0.  0.
         24    2    3    3    0    0  0.29010458962E+02  0.37295256606E+00 -0.43392678920E+02  0.96752297609E+02  0.81463713921E+02 0.  0.
         -6    2    1    2    0  502 -0.61632535658E+02  0.53997437098E+02 -0.44796086347E+02  0.18882840451E+03  0.16411942095E+03 0.  0.
        -24    2    5    5    0    0 -0.35847690084E+02  0.20288929984E+02 -0.89812786912E+02  0.12678233257E+03  0.79440075498E+02 0.  0.
          5    1    3    3  501    0  0.32622076696E+02 -0.54370389664E+02 -0.20263113232E+03  0.21237185535E+03  0.47000000000E+01 0. -1.
        -13    1    4    4    0    0  0.10510814498E+01 -0.38440589167E+02 -0.22497256447E+02  0.44552331200E+02  0.00000000000E+00 0.  1.
         14    1    4    4    0    0  0.27959377512E+02  0.38813541733E+02 -0.20895422473E+02  0.52199966408E+02  0.00000000000E+00 0. -1.
         -5    1    5    5    0  502 -0.25784845574E+02  0.33708507114E+02  0.45016700565E+02  0.62046071938E+02  0.47000000000E+01 0.  1.
         11    1    6    6    0    0  0.59571883049E+00  0.37312060635E+01 -0.86537625090E+02  0.86620074670E+02  0.00000000000E+00 0. -1.
        -12    1    6    6    0    0 -0.36443408915E+02  0.16557723920E+02 -0.32751618214E+01  0.40162257901E+02  0.00000000000E+00 0.  1.
</event>
<event>
12    1  0.8798177E-003  0.2267625E+03  0.7818608E-02  0.1129006E+00
         21   -1    0    0  503  502  0.00000000000E+00  0.00000000000E+00  0.33416398275E+03  0.33416398275E+03  0.00000000000E+00 0.  1.
         21   -1    0    0  501  503 -0.00000000000E+00 -0.00000000000E+00 -0.20903713686E+03  0.20903713686E+03  0.00000000000E+00 0. -1.
          6    2    1    2  501    0  0.10519053964E+03  0.10261786289E+03 -0.77304989041E+02  0.23922761969E+03  0.17221590309E+03 0.  0.
         24    2    3    3    0    0  0.97177395691E+02  0.60074349956E+02 -0.11636453408E+03  0.18073061954E+03  0.77913274163E+02 0.  0.
         -6    2    1    2    0  502 -0.10519053964E+03 -0.10261786289E+03  0.20243183494E+03  0.30397349992E+03  0.17270137650E+03 0.  0.
        -24    2    5    5    0    0 -0.41268269775E+02 -0.54381414636E+02  0.23855492551E+02  0.10820728326E+03  0.80494243756E+02 0.  0.
          5    1    3    3  501    0  0.80131439451E+01  0.42543512934E+02  0.39059545035E+02  0.58497000154E+02  0.47000000000E+01 0. -1.
        -13    1    4    4    0    0  0.61226414506E+01 -0.33990284853E+01 -0.51906797534E+02  0.52377053785E+02  0.00000000000E+00 0.  1.
         14    1    4    4    0    0  0.91054754241E+02  0.63473378441E+02 -0.64457736542E+02  0.12835356575E+03  0.00000000000E+00 0. -1.
         -5    1    5    5    0  502 -0.63922269861E+02 -0.48236448254E+02  0.17857634239E+03  0.19576621666E+03  0.47000000000E+01 0.  1.
         11    1    6    6    0    0 -0.16479206937E+02 -0.63270713478E+01 -0.28123111293E+02  0.33203997981E+02  0.00000000000E+00 0. -1.
        -12    1    6    6    0    0 -0.24789062838E+02 -0.48054343289E+02  0.51978603844E+02  0.75003285280E+02  0.00000000000E+00 0.  1.
</event>
<event>
12    1  0.8798177E-003  0.2771332E+03  0.7818608E-02  0.1097353E+00
         21   -1    0    0  503  502  0.00000000000E+00  0.00000000000E+00  0.27268024886E+03  0.27268024886E+03  0.00000000000E+00 0. -1.
         21   -1    0    0  501  503 -0.00000000000E+00 -0.00000000000E+00 -0.36673651861E+03  0.36673651861E+03  0.00000000000E+00 0.  1.
          6    2    1    2  501    0 -0.21670130053E+03 -0.13770130083E+02 -0.20155647627E+03  0.34216416894E+03  0.17117895677E+03 0.  0.
         24    2    3    3    0    0 -0.19446791142E+03  0.18893409093E+02 -0.21260963163E+03  0.30086655852E+03  0.84516868710E+02 0.  0.
         -6    2    1    2    0  502  0.21670130053E+03  0.13770130083E+02  0.10750020652E+03  0.29725259853E+03  0.17220262133E+03 0.  0.
        -24    2    5    5    0    0  0.21416007572E+03 -0.25339936454E+01  0.13420072625E+03  0.26551476577E+03  0.81346768584E+02 0.  0.
          5    1    3    3  501    0 -0.22233389115E+02 -0.32663539177E+02  0.11053155353E+02  0.41297610419E+02  0.47000000000E+01 0. -1.
        -11    1    4    4    0    0 -0.31468630109E+02  0.34396349054E+02 -0.67807778019E+02  0.82287777155E+02  0.00000000000E+00 0.  1.
         12    1    4    4    0    0 -0.16299928131E+03 -0.15502939961E+02 -0.14480185361E+03  0.21857878137E+03  0.00000000000E+00 0. -1.
         -5    1    5    5    0  502  0.25412248113E+01  0.16304123729E+02 -0.26700519731E+02  0.31737832756E+02  0.47000000000E+01 0.  1.
         13    1    6    6    0    0  0.12778712447E+03 -0.28919224205E+02  0.11235655458E+03  0.17259741037E+03  0.00000000000E+00 0. -1.
        -14    1    6    6    0    0  0.86372951249E+02  0.26385230559E+02  0.21844171680E+02  0.92917355405E+02  0.00000000000E+00 0.  1.
</event>
<event>
12    1  0.8798177E-003  0.2052041E+03  0.7818608E-02  0.1146149E+00
         21   -1    0    0  503  502  0.00000000000E+00  0.00000000000E+00  0.31386064698E+02  0.31386064698E+02  0.00000000000E+00 0.  1.
         21   -1    0    0  501  503 -0.00000000000E+00 -0.00000000000E+00 -0.15892984129E+04  0.15892984129E+04  0.00000000000E+00 0. -1.
          6    2    1    2  501    0  0.78465532105E+02 -0.81065006801E+02 -0.11189657656E+04  0.11376260789E+04  0.17140693005E+03 0.  0.
         24    2    3    3    0    0 -0.23762595933E+02 -0.46773648102E+02 -0.59810469514E+03  0.60570048993E+03  0.79946369701E+02 0.  0.
         -6    2    1    2    0  502 -0.78465532105E+02  0.81065006801E+02 -0.43894658255E+03  0.48305839868E+03  0.16716141645E+03 0.  0.
        -24    2    5    5    0    0 -0.37426493924E+02  0.92458218395E+01 -0.10189286564E+03  0.13597123950E+03  0.81362117936E+02 0.  0.
          5    1    3    3  501    0  0.10222812804E+03 -0.34291358699E+02 -0.52086107046E+03  0.53192558894E+03  0.47000000000E+01 0. -1.
        -11    1    4    4    0    0  0.17524810388E+02 -0.49911931162E+02 -0.28475568924E+03  0.28962755809E+03  0.00000000000E+00 0.  1.
         12    1    4    4    0    0 -0.41287406322E+02  0.31382830600E+01 -0.31334900590E+03  0.31607293184E+03  0.00000000000E+00 0. -1.
         -5    1    5    5    0  502 -0.41039038181E+02  0.71819184961E+02 -0.33705371691E+03  0.34708715918E+03  0.47000000000E+01 0.  1.
         13    1    6    6    0    0 -0.23493967372E+01  0.14366760970E+02  0.10611223171E+02  0.18014481480E+02  0.00000000000E+00 0. -1.
        -14    1    6    6    0    0 -0.35077097187E+02 -0.51209391306E+01 -0.11250408881E+03  0.11795675802E+03  0.00000000000E+00 0.  1.
</event>
<event>
12    1  0.8798177E-003  0.2010641E+03  0.7818608E-02  0.1149066E+00
         21   -1    0    0  503  502  0.00000000000E+00  0.00000000000E+00  0.85147673547E+02  0.85147673547E+02  0.00000000000E+00 0.  1.
         21   -1    0    0  501  503 -0.00000000000E+00 -0.00000000000E+00 -0.47274419776E+03  0.47274419776E+03  0.00000000000E+00 0.  1.
          6    2    1    2  501    0 -0.37720522089E+02 -0.95439565306E+02 -0.18472863130E+03  0.27226600174E+03  0.17167574106E+03 0.  0.
         24    2    3    3    0    0 -0.21825477198E+02  0.32567790841E+00 -0.27202017091E+02  0.87170463044E+02  0.79889188082E+02 0.  0.
         -6    2    1    2    0  502  0.37720522089E+02  0.95439565306E+02 -0.20286789291E+03  0.28562586956E+03  0.17290230472E+03 0.  0.
        -24    2    5    5    0    0  0.17475044019E+02  0.13407253855E+03 -0.15233958527E+03  0.21871110380E+03  0.79664138287E+02 0.  0.
          5    1    3    3  501    0 -0.15895044890E+02 -0.95765243214E+02 -0.15752661421E+03  0.18509553870E+03  0.47000000000E+01 0. -1.
        -13    1    4    4    0    0 -0.50447006301E+01  0.35025146862E-01  0.28526706652E+02  0.28969349728E+02  0.00000000000E+00 0.  1.
         14    1    4    4    0    0 -0.16780776568E+02  0.29065276155E+00 -0.55728723743E+02  0.58201113316E+02  0.00000000000E+00 0. -1.
         -5    1    5    5    0  502  0.20245478070E+02 -0.38632973247E+02 -0.50528307639E+02  0.66914765762E+02  0.47000000000E+01 0.  1.
         11    1    6    6    0    0  0.35842954108E+01  0.46179531699E+02 -0.50021583545E+01  0.46587744201E+02  0.00000000000E+00 0. -1.
        -12    1    6    6    0    0  0.13890748608E+02  0.87893006853E+02 -0.14733742691E+03  0.17212335960E+03  0.00000000000E+00 0.  1.
</event>
<event>
12    1  0.8798177E-003  0.3097058E+03  0.7818608E-02  0.1080547E+00
         21   -1    0    0  503  502  0.00000000000E+00  0.00000000000E+00  0.10911420570E+04  0.10911420570E+04  0.00000000000E+00 0. -1.
         21   -1    0    0  501  503 -0.00000000000E+00 -0.00000000000E+00 -0.96159250558E+02  0.96159250558E+02  0.00000000000E+00 0.  1.
          6    2    1    2  501    0  0.25157978193E+03 -0.53127579219E+02  0.67326093162E+03  0.74107892988E+03  0.17263479347E+03 0.  0.
         24    2    3    3    0    0  0.92714911918E+02 -0.57168734290E+02  0.42917065864E+03  0.44977748941E+03  0.79044396817E+02 0.  0.
         -6    2    1    2    0  502 -0.25157978193E+03  0.53127579219E+02  0.32172187482E+03  0.44622237768E+03  0.17173968456E+03 0.  0.
        -24    2    5    5    0    0 -0.12700818082E+03  0.96452208847E+02  0.17951217966E+03  0.25221002051E+03  0.77143795695E+02 0.  0.
          5    1    3    3  501    0  0.15886487001E+03  0.40411550713E+01  0.24409027298E+03  0.29130144047E+03  0.47000000000E+01 0. -1.
        -11    1    4    4    0    0  0.21139209178E+02 -0.52016032581E+02  0.26039177856E+03  0.26637644819E+03  0.00000000000E+00 0.  1.
         12    1    4    4    0    0  0.71575702740E+02 -0.51527017090E+01  0.16877888008E+03  0.18340104121E+03  0.00000000000E+00 0. -1.
         -5    1    5    5    0  502 -0.12457160111E+03 -0.43324629628E+02  0.14220969516E+03  0.19401235717E+03  0.47000000000E+01 0.  1.
         13    1    6    6    0    0 -0.12090362960E+02 -0.13234184441E+02  0.13557370223E+02  0.22474937190E+02  0.00000000000E+00 0. -1.
        -14    1    6    6    0    0 -0.11491781786E+03  0.10968639329E+03  0.16595480944E+03  0.22973508332E+03  0.00000000000E+00 0.  1.
</event>
<event>
12    1  0.8798177E-003  0.2751225E+03  0.7818608E-02  0.1098607E+00
         21   -1    0    0  501  502  0.00000000000E+00  0.00000000000E+00  0.14900326005E+03  0.14900326005E+03  0.00000000000E+00 0.  1.
         21   -1    0    0  502  503 -0.00000000000E+00 -0.00000000000E+00 -0.54177103736E+03  0.54177103736E+03  0.00000000000E+00 0. -1.
          6    2    1    2  501    0  0.16600477545E+02 -0.21386391917E+03 -0.10699882667E+03  0.29519674611E+03  0.17227599435E+03 0.  0.
         24    2    3    3    0    0 -0.27709692768E+02 -0.98562490306E+02  0.25586124415E+01  0.13002188981E+03  0.80104642578E+02 0.  0.
         -6    2    1    2    0  503 -0.16600477545E+02  0.21386391917E+03 -0.28576895064E+03  0.39557755131E+03  0.16971845559E+03 0.  0.
        -24    2    5    5    0    0  0.45889655222E+02  0.15908378243E+03 -0.15231360864E+03  0.23829341866E+03  0.78554488788E+02 0.  0.
          5    1    3    3  501    0  0.44310170314E+02 -0.11530142887E+03 -0.10955743911E+03  0.16517485631E+03  0.47000000000E+01 0. -1.
        -11    1    4    4    0    0 -0.23920783587E+01 -0.49338812214E+02 -0.37227274146E+02  0.61853943851E+02  0.00000000000E+00 0.  1.
         12    1    4    4    0    0 -0.25317614409E+02 -0.49223678091E+02  0.39785886587E+02  0.68167945955E+02  0.00000000000E+00 0. -1.
         -5    1    5    5    0  503 -0.62490132768E+02  0.54780136738E+02 -0.13345534200E+03  0.15728413265E+03  0.47000000000E+01 0.  1.
         13    1    6    6    0    0 -0.97132052672E+01  0.10140065999E+03 -0.99070694308E+02  0.14209659628E+03  0.00000000000E+00 0. -1.
        -14    1    6    6    0    0  0.55602860490E+02  0.57683122442E+02 -0.53242914336E+02  0.96196822381E+02  0.00000000000E+00 0.  1.
</event>
<event>
12    1  0.8798177E-003  0.2078030E+03  0.7818608E-02  0.1144287E+00
         21   -1    0    0  501  502  0.00000000000E+00  0.00000000000E+00  0.80915042232E+02  0.80915042232E+02  0.00000000000E+00 0. -1.
         21   -1    0    0  502  503 -0.00000000000E+00 -0.00000000000E+00 -0.52153979430E+03  0.52153979430E+03  0.00000000000E+00 0. -1.
          6    2    1    2  501    0  0.11260701716E+03  0.30902079007E+02 -0.21476106088E+03  0.29554038632E+03  0.16609192598E+03 0.  0.
         24    2    3    3    0    0  0.11945801916E+02  0.13246170170E+01 -0.58931129429E+02  0.10762401118E+03  0.89250170712E+02 0.  0.
         -6    2    1    2    0  503 -0.11260701716E+03 -0.30902079007E+02 -0.22586369119E+03  0.30691445021E+03  0.17189180885E+03 0.  0.
        -24    2    5    5    0    0  0.34014137543E+00 -0.34589384818E+02 -0.13869961930E+03  0.16411976448E+03  0.80629842233E+02 0.  0.
          5    1    3    3  501    0  0.10066121525E+03  0.29577461990E+02 -0.15582993145E+03  0.18791637515E+03  0.47000000000E+01 0. -1.
        -13    1    4    4    0    0 -0.16796497357E+02 -0.37112558063E+02 -0.17961515631E+02  0.44520560792E+02  0.00000000000E+00 0.  1.
         14    1    4    4    0    0  0.28742299273E+02  0.38437175080E+02 -0.40969613798E+02  0.63103450384E+02  0.00000000000E+00 0. -1.
         -5    1    5    5    0  503 -0.11294715854E+03  0.36873058111E+01 -0.87164071888E+02  0.14279468574E+03  0.47000000000E+01 0.  1.
         11    1    6    6    0    0 -0.34544885490E+02 -0.75971704298E+01 -0.28510562617E+02  0.45430367517E+02  0.00000000000E+00 0. -1.
        -12    1    6    6    0    0  0.34885026865E+02 -0.26992214388E+02 -0.11018905669E+03  0.11868939696E+03  0.00000000000E+00 0.  1.
</event>
<event>
12    1  0.8798177E-003  0.3302334E+03  0.7818608E-02  0.1071058E+00
         21   -1    0    0  503  502  0.00000000000E+00  0.00000000000E+00  0.15593034597E+03  0.15593034597E+03  0.00000000000E+00 0. -1.
         21   -1    0    0  501  503 -0.00000000000E+00 -0.00000000000E+00 -0.71511671368E+03  0.71511671368E+03  0.00000000000E+00 0.  1.
          6    2    1    2  501    0  0.20006813689E+03 -0.19821823183E+03 -0.34523331132E+03  0.47774482693E+03  0.17244231958E+03 0.  0.
         24    2    3    3    0    0  0.19825091656E+03 -0.21908538857E+03 -0.30234954799E+03  0.42978809979E+03  0.77464366982E+02 0.  0.
         -6    2    1    2    0  502 -0.20006813689E+03  0.19821823183E+03 -0.21395305639E+03  0.39330223272E+03  0.17202618723E+03 0.  0.
        -24    2    5    5    0    0 -0.21815551289E+03  0.19340491760E+03 -0.21765490538E+03  0.37365242737E+03  0.85118674136E+02 0.  0.
          5    1    3    3  501    0  0.18172203301E+01  0.20867156739E+02 -0.42883763337E+02  0.47956727141E+02  0.47000000000E+01 0. -1.
        -13    1    4    4    0    0  0.11724849049E+03 -0.16051480152E+03 -0.15659321737E+03  0.25304870234E+03  0.00000000000E+00 0.  1.
         14    1    4    4    0    0  0.81002426079E+02 -0.58570587046E+02 -0.14575633061E+03  0.17673939745E+03  0.00000000000E+00 0. -1.
         -5    1    5    5    0  502  0.18087375995E+02  0.48133142265E+01  0.37018489945E+01  0.19649805348E+02  0.47000000000E+01 0.  1.
         13    1    6    6    0    0 -0.11746871090E+03  0.11548094284E+03 -0.70816254251E+02  0.17930334092E+03  0.00000000000E+00 0. -1.
        -14    1    6    6    0    0 -0.10068680199E+03  0.77923974761E+02 -0.14683865113E+03  0.19434908645E+03  0.00000000000E+00 0.  1.
</event>
<event>
12    1  0.8798177E-003  0.2585779E+03  0.7818608E-02  0.1108084E+00
         21   -1    0    0  503  502  0.00000000000E+00  0.00000000000E+00  0.22255092700E+03  0.22255092700E+03  0.00000000000E+00 0.  1.
         21   -1    0    0  501  503 -0.00000000000E+00 -0.00000000000E+00 -0.31826950008E+03  0.31826950008E+03  0.00000000000E+00 0. -1.
          6    2    1    2  501    0  0.18822312556E+03 -0.43381550962E+02  0.17331661231E+02  0.25860974108E+03  0.17108099760E+03 0.  0.
         24    2    3    3    0    0  0.10185434860E+03 -0.70422713560E+02  0.36936310397E+02  0.16588853327E+03  0.10402426415E+03 0.  0.
         -6    2    1    2    0  502 -0.18822312556E+03  0.43381550962E+02 -0.11305023431E+03  0.28221068600E+03  0.17190873118E+03 0.  0.
        -24    2    5    5    0    0 -0.14144342848E+03  0.25496369520E+02 -0.98356803515E+01  0.16739102774E+03  0.85244983670E+02 0.  0.
          5    1    3    3  501    0  0.86368776960E+02  0.27041162598E+02 -0.19604649167E+02  0.92721207807E+02  0.47000000000E+01 0. -1.
        -11    1    4    4    0    0  0.12857226939E+02 -0.14136955431E+02  0.55736367905E+02  0.58921171922E+02  0.00000000000E+00 0.  1.
         12    1    4    4    0    0  0.88997121659E+02 -0.56285758129E+02 -0.18800057508E+02  0.10696736135E+03  0.00000000000E+00 0. -1.
         -5    1    5    5    0  502 -0.46779697073E+02  0.17885181441E+02 -0.10321455396E+03  0.11481965826E+03  0.47000000000E+01 0.  1.
         13    1    6    6    0    0 -0.37476926539E+02  0.47045321086E+02 -0.11322352789E+02  0.61204394708E+02  0.00000000000E+00 0. -1.
        -14    1    6    6    0    0 -0.10396650195E+03 -0.21548951566E+02  0.14866724374E+01  0.10618663304E+03  0.00000000000E+00 0.  1.
</event>
<event>
12    1  0.8798177E-003  0.2196638E+03  0.7818608E-02  0.1134444E+00
         21   -1    0    0  501  502  0.00000000000E+00  0.00000000000E+00  0.12382120564E+04  0.12382120564E+04  0.00000000000E+00 0.  1.
         21   -1    0    0  502  503 -0.00000000000E+00 -0.00000000000E+00 -0.39094105758E+02  0.39094105758E+02  0.00000000000E+00 0. -1.
          6    2    1    2  501    0  0.53090301208E+02  0.12350478721E+03  0.66778701400E+03  0.70298767501E+03  0.17372438689E+03 0.  0.
         24    2    3    3    0    0  0.24958183121E+02  0.18335992959E+02  0.46382806728E+03  0.47174487339E+03  0.80297135889E+02 0.  0.
         -6    2    1    2    0  503 -0.53090301208E+02 -0.12350478721E+03  0.53133093662E+03  0.57431848712E+03  0.17163084775E+03 0.  0.
        -24    2    5    5    0    0 -0.64200157662E+02 -0.11277078153E+02  0.29775035670E+03  0.31489515567E+03  0.79087618562E+02 0.  0.
          5    1    3    3  501    0  0.28132118087E+02  0.10516879426E+03  0.20395894673E+03  0.23124280163E+03  0.47000000000E+01 0. -1.
        -13    1    4    4    0    0 -0.28303539330E+02  0.64694416417E+01  0.21856002969E+03  0.22048000043E+03  0.00000000000E+00 0.  1.
         14    1    4    4    0    0  0.53261722451E+02  0.11866551317E+02  0.24526803759E+03  0.25126487296E+03  0.00000000000E+00 0. -1.
         -5    1    5    5    0  503  0.11109856454E+02 -0.11222770906E+03  0.23358057991E+03  0.25942333146E+03  0.47000000000E+01 0.  1.
         11    1    6    6    0    0  0.14962954897E+02  0.12411634264E+02  0.68604548951E+02  0.71305840021E+02  0.00000000000E+00 0. -1.
        -12    1    6    6    0    0 -0.79163112560E+02 -0.23688712417E+02  0.22914580775E+03  0.24358931565E+03  0.00000000000E+00 0.  1.
</event>
<event>
12    1  0.8798177E-003  0.1827032E+03  0.7818608E-02  0.1166863E+00
         21   -1    0    0  501  502  0.00000000000E+00  0.00000000000E+00  0.55844161789E+02  0.55844161789E+02  0.00000000000E+00 0. -1.
         21   -1    0    0  502  503 -0.00000000000E+00 -0.00000000000E+00 -0.90600957126E+03  0.90600957126E+03  0.00000000000E+00 0. -1.
          6    2    1    2  501    0  0.27716198958E+02  0.66005535021E+01 -0.13984415194E+03  0.23008010990E+03  0.18046804467E+03 0.  0.
         24    2    3    3    0    0  0.31673886102E+02  0.42479949247E+02 -0.16056754200E+03  0.18819284188E+03  0.82624627334E+02 0.  0.
         -6    2    1    2    0  503 -0.27716198958E+02 -0.66005535021E+01 -0.71032125753E+03  0.73177362315E+03  0.17356437322E+03 0.  0.
        -24    2    5    5    0    0  0.19280320766E+02  0.30558026835E+02 -0.59798190228E+03  0.60437011575E+03  0.79845836407E+02 0.  0.
          5    1    3    3  501    0 -0.39576871435E+01 -0.35879395745E+02  0.20723390059E+02  0.41887268019E+02  0.47000000000E+01 0. -1.
        -11    1    4    4    0    0 -0.88693188781E+01  0.38997708913E+02 -0.26230953116E+02  0.47828328627E+02  0.00000000000E+00 0.  1.
         12    1    4    4    0    0  0.40543204980E+02  0.34822403337E+01 -0.13433658888E+03  0.14036451325E+03  0.00000000000E+00 0. -1.
         -5    1    5    5    0  503 -0.46996519724E+02 -0.37158580337E+02 -0.11233935526E+03  0.12740350740E+03  0.47000000000E+01 0.  1.
         11    1    6    6    0    0 -0.16124250384E+02  0.11049014034E+01 -0.42666459337E+03  0.42697059325E+03  0.00000000000E+00 0. -1.
        -12    1    6    6    0    0  0.35404571150E+02  0.29453125431E+02 -0.17131730890E+03  0.17739952250E+03  0.00000000000E+00 0.  1.
</event>
<event>
12    1  0.8798177E-003  0.1948547E+03  0.7818608E-02  0.1154193E+00
         21   -1    0    0  503  502  0.00000000000E+00  0.00000000000E+00  0.99208248732E+02  0.99208248732E+02  0.00000000000E+00 0. -1.
         21   -1    0    0  501  503 -0.00000000000E+00 -0.00000000000E+00 -0.41898838118E+03  0.41898838118E+03  0.00000000000E+00 0. -1.
          6    2    1    2  501    0  0.74490968176E+02  0.51023765594E+02 -0.23656357931E+03  0.30648110685E+03  0.17267313863E+03 0.  0.
         24    2    3    3    0    0  0.95874867958E+01  0.34404556003E+02 -0.33735853094E+02  0.92822883172E+02  0.78755231443E+02 0.  0.
         -6    2    1    2    0  502 -0.74490968176E+02 -0.51023765594E+02 -0.83216553134E+02  0.21171552306E+03  0.17247069024E+03 0.  0.
        -24    2    5    5    0    0 -0.54796596713E+02 -0.63586360729E+02  0.96791323418E+01  0.11581252288E+03  0.79202036402E+02 0.  0.
          5    1    3    3  501    0  0.64903481380E+02  0.16619209591E+02 -0.20282772622E+03  0.21365822368E+03  0.47000000000E+01 0. -1.
        -13    1    4    4    0    0  0.35008503208E+02  0.48581768481E+01  0.74467356992E+01  0.36119953651E+02  0.00000000000E+00 0.  1.
         14    1    4    4    0    0 -0.25421016412E+02  0.29546379155E+02 -0.41182588793E+02  0.56702929521E+02  0.00000000000E+00 0. -1.
         -5    1    5    5    0  502 -0.19694371463E+02  0.12562595135E+02 -0.92895685476E+02  0.95903000182E+02  0.47000000000E+01 0.  1.
         11    1    6    6    0    0 -0.60859952318E+02 -0.71078803170E+02 -0.97932251889E+01  0.94085266199E+02  0.00000000000E+00 0. -1.
        -12    1    6    6    0    0  0.60633556050E+01  0.74924424416E+01  0.19472357531E+02  0.21727256678E+02  0.00000000000E+00 0.  1.
</event>
<event>
12    1  0.8798177E-003  0.2053131E+03  0.7818608E-02  0.1149034E+00
         21   -1    0    0  503  502  0.00000000000E+00  0.00000000000E+00  0.12210385830E+03  0.12210385830E+03  0.00000000000E+00 0. -1.
         21   -1    0    0  501  503 -0.00000000000E+00 -0.00000000000E+00 -0.32250927730E+03  0.32250927730E+03  0.00000000000E+00 0.  1.
          6    2    1    2  501    0  0.20688911200E+02 -0.73257410073E+02 -0.74765007131E+02  0.21850231096E+03  0.19067976932E+03 0.  0.
         24    2    3    3    0    0  0.73335832202E+02 -0.91823691964E+02 -0.79051759183E+02  0.16231626859E+03  0.79294739601E+02 0.  0.
         -6    2    1    2    0  502 -0.20688911200E+02  0.73257410073E+02 -0.12564041187E+03  0.22611082464E+03  0.17188924559E+03 0.  0.
        -24    2    5    5    0    0 -0.36160297008E+02 -0.10325434034E+02 -0.10808331575E+03  0.13918673574E+03  0.79226022201E+02 0.  0.
          5    1    3    3  501    0 -0.52646921002E+02  0.18566281891E+02  0.42867520519E+01  0.56186042372E+02  0.47000000000E+01 0. -1.
        -13    1    4    4    0    0  0.71840109189E+02 -0.26994249804E+02 -0.46847488307E+02  0.89913169066E+02  0.00000000000E+00 0.  1.
         14    1    4    4    0    0  0.14957230134E+01 -0.64829442160E+02 -0.32204270876E+02  0.72403099524E+02  0.00000000000E+00 0. -1.
         -5    1    5    5    0  502  0.15471385808E+02  0.83582844107E+02 -0.17557096117E+02  0.86924088905E+02  0.47000000000E+01 0.  1.
         11    1    6    6    0    0  0.15136158428E+01 -0.17475050849E+02  0.62293777520E+01  0.18613800855E+02  0.00000000000E+00 0. -1.
        -12    1    6    6    0    0 -0.37673912851E+02  0.71496168147E+01 -0.11431269351E+03  0.12057293488E+03  0.00000000000E+00 0.  1.
</event>
<event>
12    1  0.8798177E-003  0.2050110E+03  0.7818608E-02  0.1146508E+00
         21   -1    0    0  501  502  0.00000000000E+00  0.00000000000E+00  0.28607409267E+03  0.28607409267E+03  0.00000000000E+00 0.  1.
         21   -1    0    0  502  503 -0.00000000000E+00 -0.00000000000E+00 -0.15079369770E+03  0.15079369770E+03  0.00000000000E+00 0.  1.
          6    2    1    2  501    0 -0.55463556434E+02 -0.86937253422E+02  0.19602635702E+02  0.20147272400E+03  0.17196715694E+03 0.  0.
         24    2    3    3    0    0 -0.51608954300E+01 -0.11614877448E+03  0.21638568404E+02  0.14307832625E+03  0.80535750714E+02 0.  0.
         -6    2    1    2    0  503  0.55463556434E+02  0.86937253422E+02  0.11567775926E+03  0.23539506637E+03  0.17718691023E+03 0.  0.
        -24    2    5    5    0    0  0.69541329225E+02  0.11499478440E+03  0.55065360192E+02  0.16697458952E+03  0.82392492031E+02 0.  0.
          5    1    3    3  501    0 -0.50302661004E+02  0.29211521063E+02 -0.20359327023E+01  0.58394397752E+02  0.47000000000E+01 0. -1.
        -13    1    4    4    0    0  0.26428954626E+02 -0.78110494363E+02 -0.11923982564E+02  0.83318187285E+02  0.00000000000E+00 0.  1.
         14    1    4    4    0    0 -0.31589850056E+02 -0.38038280122E+02  0.33562550968E+02  0.59760138962E+02  0.00000000000E+00 0. -1.
         -5    1    5    5    0  503 -0.14077772791E+02 -0.28057530976E+02  0.60612399071E+02  0.68420476850E+02  0.47000000000E+01 0.  1.
         13    1    6    6    0    0 -0.15405137276E+02  0.98546557228E+01  0.20471244730E+02  0.27450033783E+02  0.00000000000E+00 0. -1.
        -14    1    6    6    0    0  0.84946466501E+02  0.10514012867E+03  0.34594115461E+02  0.13952455574E+03  0.00000000000E+00 0.  1.
</event>
<event>
12    1  0.8798177E-003  0.2366257E+03  0.7818608E-02  0.1122174E+00
         21   -1    0    0  501  502  0.00000000000E+00  0.00000000000E+00  0.53962307821E+02  0.53962307821E+02  0.00000000000E+00 0.  1.
         21   -1    0    0  502  503 -0.00000000000E+00 -0.00000000000E+00 -0.11698094424E+04  0.11698094424E+04  0.00000000000E+00 0. -1.
          6    2    1    2  501    0  0.14739309167E+03 -0.66609850522E+02 -0.34928806313E+03  0.42152208539E+03  0.17180547654E+03 0.  0.
         24    2    3    3    0    0  0.40744054881E+02 -0.62137895277E+02 -0.92696155557E+02  0.14357332669E+03  0.80619643043E+02 0.  0.
         -6    2    1    2    0  503 -0.14739309167E+03  0.66609850522E+02 -0.76655907142E+03  0.80224966480E+03  0.17271398043E+03 0.  0.
        -24    2    5    5    0    0 -0.50111847426E+02 -0.29778995925E+02 -0.26808538810E+03  0.28528491439E+03  0.78228647028E+02 0.  0.
          5    1    3    3  501    0  0.10664903679E+03 -0.44719552444E+01 -0.25659190757E+03  0.27794875870E+03  0.47000000000E+01 0. -1.
        -13    1    4    4    0    0  0.64022284006E+02 -0.37505771381E+02 -0.51966487899E+02  0.90587259595E+02  0.00000000000E+00 0.  1.
         14    1    4    4    0    0 -0.23278229125E+02 -0.24632123896E+02 -0.40729667658E+02  0.52986067097E+02  0.00000000000E+00 0. -1.
         -5    1    5    5    0  503 -0.97281244246E+02  0.96388846447E+02 -0.49847368332E+03  0.51696475040E+03  0.47000000000E+01 0.  1.
         13    1    6    6    0    0 -0.70206767558E+02 -0.13185357894E+02 -0.19177237774E+03  0.20464478673E+03  0.00000000000E+00 0. -1.
        -14    1    6    6    0    0  0.20094920132E+02 -0.16593638031E+02 -0.76313010364E+02  0.80640127660E+02  0.00000000000E+00 0.  1.
</event>
<event>
12    1  0.8798177E-003  0.1798025E+03  0.7818608E-02  0.1168187E+00
         21   -1    0    0  501  502  0.00000000000E+00  0.00000000000E+00  0.37536778100E+02  0.37536778100E+02  0.00000000000E+00 0.  1.
         21   -1    0    0  502  503 -0.00000000000E+00 -0.00000000000E+00 -0.88522246020E+03  0.88522246020E+03  0.00000000000E+00 0.  1.
          6    2    1    2  501    0  0.90984284465E+01 -0.52677482116E+02 -0.34124675154E+03  0.38534938796E+03  0.17084234499E+03 0.  0.
         24    2    3    3    0    0 -0.48390629906E+02  0.90821872152E+01 -0.18449350049E+03  0.20726816969E+03  0.80610813519E+02 0.  0.
         -6    2    1    2    0  503 -0.90984284465E+01  0.52677482116E+02 -0.50643893056E+03  0.53740985034E+03  0.17167194976E+03 0.  0.
        -24    2    5    5    0    0 -0.21449113425E+02 -0.34521814787E+02 -0.24181545175E+03  0.25847628775E+03  0.81752421753E+02 0.  0.
          5    1    3    3  501    0  0.57489058352E+02 -0.61759669332E+02 -0.15675325105E+03  0.17808121827E+03  0.47000000000E+01 0. -1.
        -13    1    4    4    0    0 -0.14554787921E+02 -0.35562900118E+02 -0.76776308738E+02  0.85855479147E+02  0.00000000000E+00 0.  1.
         14    1    4    4    0    0 -0.33835841985E+02  0.44645087333E+02 -0.10771719175E+03  0.12141269054E+03  0.00000000000E+00 0. -1.
         -5    1    5    5    0  503  0.12350684978E+02  0.87199296903E+02 -0.26462347882E+03  0.27893356259E+03  0.47000000000E+01 0.  1.
         11    1    6    6    0    0  0.87170213342E+01 -0.24826191109E+01  0.31455619606E+01  0.95939782488E+01  0.00000000000E+00 0. -1.
        -12    1    6    6    0    0 -0.30166134759E+02 -0.32039195676E+02 -0.24496101371E+03  0.24888230950E+03  0.00000000000E+00 0.  1.
</event>
<event>
12    1  0.8798177E-003  0.1824724E+03  0.7818608E-02  0.1165634E+00
         21   -1    0    0  503  502  0.00000000000E+00  0.00000000000E+00  0.10946643206E+04  0.10946643206E+04  0.00000000000E+00 0.  1.
         21   -1    0    0  501  503 -0.00000000000E+00 -0.00000000000E+00 -0.44498078935E+02  0.44498078935E+02  0.00000000000E+00 0.  1.
          6    2    1    2  501    0 -0.43316960685E+02 -0.39861763899E+02  0.20390084627E+03  0.27362702327E+03  0.17271616441E+03 0.  0.
         24    2    3    3    0    0 -0.31540583011E+02  0.15726863313E+02  0.17841744990E+03  0.21117486529E+03  0.10733077235E+03 0.  0.
         -6    2    1    2    0  502  0.43316960685E+02  0.39861763899E+02  0.84626539542E+03  0.86553537629E+03  0.17181690494E+03 0.  0.
        -24    2    5    5    0    0 -0.26243997873E+02  0.25086779729E+02  0.24095849985E+03  0.25604743143E+03  0.78620573311E+02 0.  0.
          5    1    3    3  501    0 -0.11776377673E+02 -0.55588627212E+02  0.25483396376E+02  0.62452157987E+02  0.47000000000E+01 0. -1.
        -11    1    4    4    0    0  0.34025791927E+01 -0.34784659588E+01 -0.13920988034E+02  0.14746904029E+02  0.00000000000E+00 0.  1.
         12    1    4    4    0    0 -0.34943162204E+02  0.19205329272E+02  0.19233843793E+03  0.19642796126E+03  0.00000000000E+00 0. -1.
         -5    1    5    5    0  502  0.69560958558E+02  0.14774984170E+02  0.60530689557E+03  0.60948794487E+03  0.47000000000E+01 0.  1.
         11    1    6    6    0    0 -0.33747273598E+02 -0.12171147865E+02  0.18471653551E+03  0.18816804672E+03  0.00000000000E+00 0. -1.
        -12    1    6    6    0    0  0.75032757246E+01  0.37257927593E+02  0.56241964345E+02  0.67879384710E+02  0.00000000000E+00 0.  1.
</event>
<event>
12    1  0.8798177E-003  0.4297700E+03  0.7818608E-02  0.1034266E+00
         21   -1    0    0  501  502  0.00000000000E+00  0.00000000000E+00  0.27165974838E+03  0.27165974838E+03  0.00000000000E+00 0. -1.
         21   -1    0    0  502  503 -0.00000000000E+00 -0.00000000000E+00 -0.67430116048E+03  0.67430116048E+03  0.00000000000E+00 0. -1.
          6    2    1    2  501    0 -0.30550900982E+03  0.24155342853E+03 -0.18200099386E+03  0.46286215673E+03  0.17156106913E+03 0.  0.
         24    2    3    3    0    0 -0.13679153310E+03  0.19506330452E+03 -0.10280749645E+03  0.27071476898E+03  0.77171811711E+02 0.  0.
         -6    2    1    2    0  503  0.30550900982E+03 -0.24155342853E+03 -0.22064041824E+03  0.48309875214E+03  0.18170964817E+03 0.  0.
        -24    2    5    5    0    0  0.28929077076E+03 -0.22245039704E+03 -0.14044250988E+03  0.39894560843E+03  0.79121240609E+02 0.  0.
          5    1    3    3  501    0 -0.16871747672E+03  0.46490124017E+02 -0.79193497418E+02  0.19214738774E+03  0.47000000000E+01 0. -1.
        -11    1    4    4    0    0 -0.12742304056E+02  0.68856067284E+02 -0.49984227772E+02  0.86034570613E+02  0.00000000000E+00 0.  1.
         12    1    4    4    0    0 -0.12404922905E+03  0.12620723723E+03 -0.52823268674E+02  0.18468019837E+03  0.00000000000E+00 0. -1.
         -5    1    5    5    0  503  0.16218239062E+02 -0.19103031499E+02 -0.80197908358E+02  0.84153143707E+02  0.47000000000E+01 0.  1.
         13    1    6    6    0    0  0.33120796437E+02 -0.26849900594E+02 -0.46799334787E+02  0.63309415216E+02  0.00000000000E+00 0. -1.
        -14    1    6    6    0    0  0.25616997433E+03 -0.19560049644E+03 -0.93643175092E+02  0.33563619321E+03  0.00000000000E+00 0.  1.
</event>
<event>
12    1  0.8798177E-003  0.1970890E+03  0.7818608E-02  0.1152464E+00
         21   -1    0    0  503  502  0.00000000000E+00  0.00000000000E+00  0.26312138618E+03  0.26312138618E+03  0.00000000000E+00 0. -1.
         21   -1    0    0  501  503 -0.00000000000E+00 -0.00000000000E+00 -0.24231262993E+03  0.24231262993E+03  0.00000000000E+00 0.  1.
          6    2    1    2  501    0 -0.72353988160E+02  0.65898884878E+02 -0.14826015438E+03  0.24662754315E+03  0.17107398702E+03 0.  0.
         24    2    3    3    0    0 -0.62753852208E+02  0.72415049503E+01 -0.15599603310E+03  0.18650446397E+03  0.80365834646E+02 0.  0.
         -6    2    1    2    0  502  0.72353988160E+02 -0.65898884878E+02  0.16906891063E+03  0.25880647296E+03  0.16976080607E+03 0.  0.
        -24    2    5    5    0    0  0.78782837390E+02  0.14447458234E+02  0.75970414318E+02  0.13557382725E+03  0.78697485777E+02 0.  0.
          5    1    3    3  501    0 -0.96001359519E+01  0.58657379928E+02  0.77358787217E+01  0.60123079178E+02  0.47000000000E+01 0. -1.
        -13    1    4    4    0    0 -0.13528131331E+02 -0.30864048160E+02 -0.26668109195E+02  0.42974269676E+02  0.00000000000E+00 0.  1.
         14    1    4    4    0    0 -0.49225720877E+02  0.38105553110E+02 -0.12932792390E+03  0.14353019430E+03  0.00000000000E+00 0. -1.
         -5    1    5    5    0  502 -0.64288492296E+01 -0.80346343112E+02  0.93098496311E+02  0.12323264571E+03  0.47000000000E+01 0.  1.
         11    1    6    6    0    0  0.13669191501E+02 -0.24400677301E+02 -0.37993350939E+00  0.27971131520E+02  0.00000000000E+00 0. -1.
        -12    1    6    6    0    0  0.65113645889E+02  0.38848135535E+02  0.76350347827E+02  0.10760269573E+03  0.00000000000E+00 0.  1.
</event>
<event>
12    1  0.8798177E-003  0.2035495E+03  0.7818608E-02  0.1146803E+00
         21   -1    0    0  501  502  0.00000000000E+00  0.00000000000E+00  0.14827104182E+04  0.14827104182E+04  0.00000000000E+00 0.  1.
         21   -1    0    0  502  503 -0.00000000000E+00 -0.00000000000E+00 -0.27951711302E+02  0.27951711302E+02  0.00000000000E+00 0.  1.
          6    2    1    2  501    0 -0.97441663253E+02  0.47176458887E+02  0.74992026502E+03  0.77705391796E+03  0.17237137677E+03 0.  0.
         24    2    3    3    0    0 -0.94786765323E+02  0.45834603774E+02  0.75678705484E+03  0.76821695804E+03  0.79657431985E+02 0.  0.
         -6    2    1    2    0  503  0.97441663253E+02 -0.47176458887E+02  0.70483844190E+03  0.73360821155E+03  0.17223031926E+03 0.  0.
        -24    2    5    5    0    0  0.30104976035E+02  0.21465090949E+02  0.23161188970E+03  0.25068859970E+03  0.88507891496E+02 0.  0.
          5    1    3    3  501    0 -0.26548979298E+01  0.13418551130E+01 -0.68667898225E+01  0.88369599201E+01  0.47000000000E+01 0. -1.
        -13    1    4    4    0    0 -0.78078520984E+02  0.67182303503E+02  0.64606944896E+03  0.65422889742E+03  0.00000000000E+00 0.  1.
         14    1    4    4    0    0 -0.16708244340E+02 -0.21347699729E+02  0.11071760588E+03  0.11398806062E+03  0.00000000000E+00 0. -1.
         -5    1    5    5    0  503  0.67336687218E+02 -0.68641549836E+02  0.47322655220E+03  0.48291961185E+03  0.47000000000E+01 0.  1.
         13    1    6    6    0    0  0.31780999655E+01  0.53221422988E+02  0.14740065862E+03  0.15674684796E+03  0.00000000000E+00 0. -1.
        -14    1    6    6    0    0  0.26926876070E+02 -0.31756332039E+02  0.84211231078E+02  0.93941751735E+02  0.00000000000E+00 0.  1.
</event>
<event>
12    1  0.8798177E-003  0.1776531E+03  0.7818608E-02  0.1170133E+00
         21   -1    0    0  503  502  0.00000000000E+00  0.00000000000E+00  0.22647290165E+02  0.22647290165E+02  0.00000000000E+00 0.  1.
         21   -1    0    0  501  503 -0.00000000000E+00 -0.00000000000E+00 -0.14083420052E+04  0.14083420052E+04  0.00000000000E+00 0.  1.
          6    2    1    2  501    0 -0.25444158200E+02 -0.34051425055E+02 -0.76941517271E+03  0.78965836459E+03  0.17249266659E+03 0.  0.
         24    2    3    3    0    0  0.17450366502E+02 -0.19174575599E+01 -0.68292855502E+03  0.68780279451E+03  0.79831578565E+02 0.  0.
         -6    2    1    2    0  502  0.25444158200E+02  0.34051425055E+02 -0.61627954234E+03  0.64133093080E+03  0.17233102957E+03 0.  0.
        -24    2    5    5    0    0  0.37182886795E+02  0.40605584520E+02 -0.16050956021E+03  0.18533847322E+03  0.74536233953E+02 0.  0.
          5    1    3    3  501    0 -0.42894524702E+02 -0.32133967495E+02 -0.86486617694E+02  0.10185557008E+03  0.47000000000E+01 0. -1.
        -11    1    4    4    0    0  0.59295507093E+01  0.38288524116E+02 -0.38672468242E+03  0.38866071405E+03  0.00000000000E+00 0.  1.
         12    1    4    4    0    0  0.11520815792E+02 -0.40205981676E+02 -0.29620387260E+03  0.29914208046E+03  0.00000000000E+00 0. -1.
         -5    1    5    5    0  502 -0.11738728595E+02 -0.65541594649E+01 -0.45576998213E+03  0.45599245758E+03  0.47000000000E+01 0.  1.
         13    1    6    6    0    0  0.48284217500E+02  0.30686969570E+02 -0.16056358495E+03  0.17045151972E+03  0.00000000000E+00 0. -1.
        -14    1    6    6    0    0 -0.11101330705E+02  0.99186149496E+01  0.54024741662E-01  0.14886953503E+02  0.00000000000E+00 0.  1.
</event>
<event>
12    1  0.8798177E-003  0.2125741E+03  0.7818608E-02  0.1139628E+00
         21   -1    0    0  501  502  0.00000000000E+00  0.00000000000E+00  0.24953545291E+03  0.24953545291E+03  0.00000000000E+00 0.  1.
         21   -1    0    0  502  503 -0.00000000000E+00 -0.00000000000E+00 -0.18195288709E+03  0.18195288709E+03  0.00000000000E+00 0.  1.
          6    2    1    2  501    0  0.57061131044E+02 -0.11135994076E+03  0.15994976923E+02  0.21274415515E+03  0.17131032421E+03 0.  0.
         24    2    3    3    0    0  0.10160943691E+03 -0.54790367327E+02  0.17666196596E+02  0.14056693458E+03  0.78233666504E+02 0.  0.
         -6    2    1    2    0  503 -0.57061131044E+02  0.11135994076E+03  0.51587588901E+02  0.21874418485E+03  0.17184507556E+03 0.  0.
        -24    2    5    5    0    0 -0.75420019672E+02  0.79214463904E+02 -0.20811592710E+02  0.13729412671E+03  0.80333331674E+02 0.  0.
          5    1    3    3  501    0 -0.44548305862E+02 -0.56569573433E+02 -0.16712196727E+01  0.72177220567E+02  0.47000000000E+01 0. -1.
        -13    1    4    4    0    0  0.49312440067E+01 -0.40889127349E+02  0.11197496274E+02  0.42680461872E+02  0.00000000000E+00 0.  1.
         14    1    4    4    0    0  0.96678192900E+02 -0.13901239978E+02  0.64687003219E+01  0.97886472707E+02  0.00000000000E+00 0. -1.
         -5    1    5    5    0  503  0.18358888628E+02  0.32145476856E+02  0.72399181611E+02  0.81450058146E+02  0.47000000000E+01 0.  1.
         11    1    6    6    0    0 -0.47034143047E+02  0.41393263086E+01  0.14807257740E+02  0.49483325638E+02  0.00000000000E+00 0. -1.
        -12    1    6    6    0    0 -0.28385876625E+02  0.75075137595E+02 -0.35618850450E+02  0.87810801067E+02  0.00000000000E+00 0.  1.
</event>
<event>
12    1  0.8798177E-003  0.2013720E+03  0.7818608E-02  0.1149962E+00
         21   -1    0    0  503  502  0.00000000000E+00  0.00000000000E+00  0.46802560876E+02  0.46802560876E+02  0.00000000000E+00 0. -1.
         21   -1    0    0  501  503 -0.00000000000E+00 -0.00000000000E+00 -0.84631054990E+03  0.84631054990E+03  0.00000000000E+00 0.  1.
          6    2    1    2  501    0 -0.55692721734E+02 -0.95177411617E+02 -0.35132744623E+03  0.40177160468E+03  0.16071412170E+03 0.  0.
         24    2    3    3    0    0 -0.45432133289E+01 -0.19246634206E+00 -0.20420653313E+03  0.21927485098E+03  0.79752581576E+02 0.  0.
         -6    2    1    2    0  502  0.55692721734E+02  0.95177411617E+02 -0.44818054279E+03  0.49134150610E+03  0.16849408815E+03 0.  0.
        -24    2    5    5    0    0 -0.53624050002E+00  0.25387211798E+02 -0.34391369097E+03  0.35376958101E+03  0.78939796876E+02 0.  0.
          5    1    3    3  501    0 -0.51149508405E+02 -0.94984945275E+02 -0.14712091310E+03  0.18249675370E+03  0.47000000000E+01 0. -1.
        -13    1    4    4    0    0 -0.37878774515E+02  0.17795713934E+02 -0.11392440132E+03  0.12136827513E+03  0.00000000000E+00 0.  1.
         14    1    4    4    0    0  0.33335561186E+02 -0.17988180276E+02 -0.90282131814E+02  0.97906575847E+02  0.00000000000E+00 0. -1.
         -5    1    5    5    0  502  0.56228962234E+02  0.69790199818E+02 -0.10426685182E+03  0.13757192509E+03  0.47000000000E+01 0.  1.
         13    1    6    6    0    0 -0.34293167202E+02 -0.53966312418E+01 -0.10698290616E+03  0.11247438444E+03  0.00000000000E+00 0. -1.
        -14    1    6    6    0    0  0.33756926702E+02  0.30783843040E+02 -0.23693078482E+03  0.24129519657E+03  0.00000000000E+00 0.  1.
</event>
<event>
12    1  0.8798177E-003  0.1957701E+03  0.7818608E-02  0.1153457E+00
         21   -1    0    0  501  502  0.00000000000E+00  0.00000000000E+00  0.10277163127E+04  0.10277163127E+04  0.00000000000E+00 0.  1.
         21   -1    0    0  502  503 -0.00000000000E+00 -0.00000000000E+00 -0.62134924139E+02  0.62134924139E+02  0.00000000000E+00 0.  1.
          6    2    1    2  501    0  0.64216440994E+02 -0.67059332704E+02  0.82761733255E+03  0.85035169501E+03  0.17183378792E+03 0.  0.
         24    2    3    3    0    0  0.12679338158E+02 -0.10314211288E+03  0.52337576913E+03  0.53963790564E+03  0.80546957868E+02 0.  0.
         -6    2    1    2    0  503 -0.64216440994E+02  0.67059332704E+02  0.13796405598E+03  0.23949954180E+03  0.17235209422E+03 0.  0.
        -24    2    5    5    0    0 -0.87725936570E+02  0.14362642493E+02  0.13720535185E+03  0.18160046432E+03  0.79065128971E+02 0.  0.
          5    1    3    3  501    0  0.51537102836E+02  0.36082780178E+02  0.30424156341E+03  0.31071378937E+03  0.47000000000E+01 0. -1.
        -11    1    4    4    0    0 -0.68121776272E+01 -0.26988232572E+02  0.32597293529E+03  0.32715917381E+03  0.00000000000E+00 0.  1.
         12    1    4    4    0    0  0.19491515785E+02 -0.76153880310E+02  0.19740283384E+03  0.21247873183E+03  0.00000000000E+00 0. -1.
         -5    1    5    5    0  503  0.23509495576E+02  0.52696690211E+02  0.75870413821E+00  0.57899077483E+02  0.47000000000E+01 0.  1.
         13    1    6    6    0    0 -0.18670576355E+02  0.37601854661E+02  0.74305200702E+02  0.85344904633E+02  0.00000000000E+00 0. -1.
        -14    1    6    6    0    0 -0.69055360215E+02 -0.23239212168E+02  0.62900151144E+02  0.96255559686E+02  0.00000000000E+00 0.  1.
</event>
<event>
12    1  0.8798177E-003  0.2129025E+03  0.7818608E-02  0.1139364E+00
         21   -1    0    0  503  502  0.00000000000E+00  0.00000000000E+00  0.20761656257E+04  0.20761656257E+04  0.00000000000E+00 0. -1.
         21   -1    0    0  501  503 -0.00000000000E+00 -0.00000000000E+00 -0.28203404635E+02  0.28203404635E+02  0.00000000000E+00 0.  1.
          6    2    1    2  501    0  0.67855649411E+01  0.12583936356E+03  0.52160260602E+03  0.56323271210E+03  0.17111464011E+03 0.  0.
         24    2    3    3    0    0  0.45004346026E+02  0.19891959931E+02  0.31260551006E+03  0.32577239187E+03  0.77358678594E+02 0.  0.
         -6    2    1    2    0  502 -0.67855649411E+01 -0.12583936356E+03  0.15263596151E+04  0.15411363183E+04  0.17159804087E+03 0.  0.
        -24    2    5    5    0    0  0.36636035779E+02 -0.14154540322E+03  0.12211074295E+04  0.12323757283E+04  0.79178792236E+02 0.  0.
          5    1    3    3  501    0 -0.38218781085E+02  0.10594740363E+03  0.20899709596E+03  0.23746032023E+03  0.47000000000E+01 0. -1.
        -11    1    4    4    0    0 -0.10183400805E+02  0.32633199598E+02  0.96841783716E+02  0.10269838578E+03  0.00000000000E+00 0.  1.
         12    1    4    4    0    0  0.55187746830E+02 -0.12741239667E+02  0.21576372635E+03  0.22307400610E+03  0.00000000000E+00 0. -1.
         -5    1    5    5    0  502 -0.43421600720E+02  0.15706039657E+02  0.30525218561E+03  0.30876058995E+03  0.47000000000E+01 0.  1.
         11    1    6    6    0    0  0.56845358523E+02 -0.93688661182E+02  0.95316297851E+03  0.95944182920E+03  0.00000000000E+00 0. -1.
        -12    1    6    6    0    0 -0.20209322745E+02 -0.47856742038E+02  0.26794445095E+03  0.27293389910E+03  0.00000000000E+00 0.  1.
</event>
<event>
12    1  0.8798177E-003  0.4447347E+03  0.7818608E-02  0.1029356E+00
         21   -1    0    0  503  502  0.00000000000E+00  0.00000000000E+00  0.54178927029E+03  0.54178927029E+03  0.00000000000E+00 0. -1.
         21   -1    0    0  501  503 -0.00000000000E+00 -0.00000000000E+00 -0.49615374826E+03  0.49615374826E+03  0.00000000000E+00 0.  1.
          6    2    1    2  501    0  0.25214888993E+03  0.32389995368E+03 -0.24449779859E+03  0.50751172924E+03  0.17116874455E+03 0.  0.
         24    2    3    3    0    0  0.17020488855E+03  0.29085370675E+03 -0.23479507271E+03  0.41849989469E+03  0.80298523494E+02 0.  0.
         -6    2    1    2    0  502 -0.25214888993E+03 -0.32389995368E+03  0.29013332063E+03  0.53043128931E+03  0.16938053682E+03 0.  0.
        -24    2    5    5    0    0 -0.24545824541E+03 -0.33556516952E+03  0.25913354905E+03  0.49631504945E+03  0.79527975147E+02 0.  0.
          5    1    3    3  501    0  0.81944001387E+02  0.33046246932E+02 -0.97027258824E+01  0.89011834545E+02  0.47000000000E+01 0. -1.
        -13    1    4    4    0    0  0.14628819633E+03  0.18222007957E+03 -0.17701568186E+03  0.29315345028E+03  0.00000000000E+00 0.  1.
         14    1    4    4    0    0  0.23916692211E+02  0.10863362718E+03 -0.57779390847E+02  0.12534644442E+03  0.00000000000E+00 0. -1.
         -5    1    5    5    0  502 -0.66906445267E+01  0.11665215839E+02  0.30999771578E+02  0.34116239867E+02  0.47000000000E+01 0.  1.
         13    1    6    6    0    0 -0.14481232476E+03 -0.19771249735E+03  0.10603371847E+03  0.26702807055E+03  0.00000000000E+00 0. -1.
        -14    1    6    6    0    0 -0.10064592065E+03 -0.13785267218E+03  0.15309983058E+03  0.22928697890E+03  0.00000000000E+00 0.  1.
</event>
<event>
12    1  0.8798177E-003  0.2135293E+03  0.7818608E-02  0.1139071E+00
         21   -1    0    0  503  502  0.00000000000E+00  0.00000000000E+00  0.72559969050E+03  0.72559969050E+03  0.00000000000E+00 0. -1.
         21   -1    0    0  501  503 -0.00000000000E+00 -0.00000000000E+00 -0.15303443478E+03  0.15303443478E+03  0.00000000000E+00 0. -1.
          6    2    1    2  501    0 -0.78946619555E+02 -0.94716457032E+02 -0.52129919210E+02  0.21845322048E+03  0.17262822797E+03 0.  0.
         24    2    3    3    0    0 -0.45110847771E+02 -0.49546988996E+02  0.38873807433E+02  0.11126689413E+03  0.79870245518E+02 0.  0.
         -6    2    1    2    0  502  0.78946619555E+02  0.94716457032E+02  0.62469517493E+03  0.66018090479E+03  0.17433011643E+03 0.  0.
        -24    2    5    5    0    0 -0.98253434507E+01 -0.32664739260E+00  0.19483877288E+03  0.21105701376E+03  0.80537392338E+02 0.  0.
          5    1    3    3  501    0 -0.33835771784E+02 -0.45169468037E+02 -0.91003726643E+02  0.10718632636E+03  0.47000000000E+01 0. -1.
        -11    1    4    4    0    0 -0.94787272988E+00  0.15351326538E+02  0.28096853132E+02  0.32031154289E+02  0.00000000000E+00 0.  1.
         12    1    4    4    0    0 -0.44162975041E+02 -0.64898315534E+02  0.10776954301E+02  0.79235739837E+02  0.00000000000E+00 0. -1.
         -5    1    5    5    0  502  0.88771963006E+02  0.95043104425E+02  0.42985640205E+03  0.44912389104E+03  0.47000000000E+01 0.  1.
         11    1    6    6    0    0 -0.74315120822E+01 -0.17340667777E+02  0.19283873772E+03  0.19375939950E+03  0.00000000000E+00 0. -1.
        -12    1    6    6    0    0 -0.23938313685E+01  0.17014020385E+02  0.20000351667E+01  0.17297614256E+02  0.00000000000E+00 0.  1.
</event>
<event>
12    1  0.8798177E-003  0.2372467E+03  0.7818608E-02  0.1122294E+00
         21   -1    0    0  503  502  0.00000000000E+00  0.00000000000E+00  0.34786474257E+02  0.34786474257E+02  0.00000000000E+00 0.  1.
         21   -1    0    0  501  503 -0.00000000000E+00 -0.00000000000E+00 -0.16214112951E+04  0.16214112951E+04  0.00000000000E+00 0. -1.
          6    2    1    2  501    0  0.37957019764E+02 -0.15959994203E+03 -0.89846137894E+03  0.92828641514E+03  0.16604198936E+03 0.  0.
         24    2    3    3    0    0 -0.18240696928E+02 -0.81252977560E+02 -0.28181769492E+03  0.30413262539E+03  0.78362435346E+02 0.  0.
         -6    2    1    2    0  502 -0.37957019764E+02  0.15959994203E+03 -0.68816344186E+03  0.72791135418E+03  0.17138593871E+03 0.  0.
        -24    2    5    5    0    0 -0.36621554006E+02  0.15814192105E+03 -0.69562449663E+03  0.71887439495E+03  0.80851406892E+02 0.  0.
          5    1    3    3  501    0  0.56197716692E+02 -0.78346964465E+02 -0.61664368403E+03  0.62415378974E+03  0.47000000000E+01 0. -1.
        -11    1    4    4    0    0  0.18753429316E+02  0.17602751443E+01 -0.88977515042E+02  0.90949369776E+02  0.00000000000E+00 0.  1.
         12    1    4    4    0    0 -0.36994126243E+02 -0.83013252704E+02 -0.19284017987E+03  0.21318325562E+03  0.00000000000E+00 0. -1.
         -5    1    5    5    0  502 -0.13354657572E+01  0.14580209778E+01  0.74610547650E+01  0.90369592324E+01  0.47000000000E+01 0.  1.
         13    1    6    6    0    0 -0.35730587750E+02  0.63885595229E+02 -0.17349161592E+03  0.18830131432E+03  0.00000000000E+00 0. -1.
        -14    1    6    6    0    0 -0.89096625622E+00  0.94256325818E+02 -0.52213288070E+03  0.53057308063E+03  0.00000000000E+00 0.  1.
</event>
<event>
12    1  0.8798177E-003  0.2343784E+03  0.7818608E-02  0.1123678E+00
         21   -1    0    0  501  502  0.00000000000E+00  0.00000000000E+00  0.75818207151E+03  0.75818207151E+03  0.00000000000E+00 0.  1.
         21   -1    0    0  502  503 -0.00000000000E+00 -0.00000000000E+00 -0.80017313762E+02  0.80017313762E+02  0.00000000000E+00 0.  1.
          6    2    1    2  501    0 -0.11852909697E+03  0.10222256905E+03  0.46950939676E+03  0.52475928492E+03  0.17445524647E+03 0.  0.
         24    2    3    3    0    0 -0.52192542841E+02 -0.18024597571E+02  0.20488207003E+03  0.22658210346E+03  0.79459671183E+02 0.  0.
         -6    2    1    2    0  503  0.11852909697E+03 -0.10222256905E+03  0.20865536099E+03  0.31344010034E+03  0.17380746930E+03 0.  0.
        -24    2    5    5    0    0  0.33936634711E+02 -0.17469326855E+02  0.23601321409E+02  0.92972224458E+02  0.81424441000E+02 0.  0.
          5    1    3    3  501    0 -0.66336554127E+02  0.12024716662E+03  0.26462732673E+03  0.29817718146E+03  0.47000000000E+01 0. -1.
        -13    1    4    4    0    0 -0.73245060659E+02 -0.10824639100E+02  0.14757208441E+03  0.16510460871E+03  0.00000000000E+00 0.  1.
         14    1    4    4    0    0  0.21052517819E+02 -0.71999584717E+01  0.57309985622E+02  0.61477494748E+02  0.00000000000E+00 0. -1.
         -5    1    5    5    0  503  0.84592462257E+02 -0.84753242193E+02  0.18505403958E+03  0.22046787589E+03  0.47000000000E+01 0.  1.
         13    1    6    6    0    0  0.13692332395E+01  0.31007821347E+02  0.36237253334E+01  0.31248858693E+02  0.00000000000E+00 0. -1.
        -14    1    6    6    0    0  0.32567401472E+02 -0.48477148202E+02  0.19977596076E+02  0.61723365765E+02  0.00000000000E+00 0.  1.
</event>
<event>
12    1  0.8798177E-003  0.2031219E+03  0.7818608E-02  0.1147527E+00
         21   -1    0    0  501  502  0.00000000000E+00  0.00000000000E+00  0.11583559606E+03  0.11583559606E+03  0.00000000000E+00 0.  1.
         21   -1    0    0  502  503 -0.00000000000E+00 -0.00000000000E+00 -0.35462622346E+03  0.35462622346E+03  0.00000000000E+00 0.  1.
          6    2    1    2  501    0  0.91596508642E+02 -0.56291961569E+02 -0.10332883131E+03  0.22789326264E+03  0.17233625981E+03 0.  0.
         24    2    3    3    0    0  0.50991832222E+02  0.65581837378E+01 -0.11754005540E+03  0.15158514117E+03  0.80741647694E+02 0.  0.
         -6    2    1    2    0  503 -0.91596508642E+02  0.56291961569E+02 -0.13546179610E+03  0.24256855687E+03  0.17009086174E+03 0.  0.
        -24    2    5    5    0    0  0.14182173639E+02  0.44762567006E+02 -0.79683857407E+02  0.12233825700E+03  0.80076903906E+02 0.  0.
          5    1    3    3  501    0  0.40604676420E+02 -0.62850145306E+02  0.14211224098E+02  0.76308121472E+02  0.47000000000E+01 0. -1.
        -13    1    4    4    0    0  0.68196602572E+02 -0.71034591804E+01 -0.10732473114E+03  0.12735711071E+03  0.00000000000E+00 0.  1.
         14    1    4    4    0    0 -0.17204770351E+02  0.13661642918E+02 -0.10215324261E+02  0.24228030457E+02  0.00000000000E+00 0. -1.
         -5    1    5    5    0  503 -0.10577868228E+03  0.11529394562E+02 -0.55777938692E+02  0.12023029988E+03  0.47000000000E+01 0.  1.
         13    1    6    6    0    0 -0.49913397868E+01  0.63930332382E+02 -0.45110314441E+02  0.78402431979E+02  0.00000000000E+00 0. -1.
        -14    1    6    6    0    0  0.19173513426E+02 -0.19167765376E+02 -0.34573542966E+02  0.43935825016E+02  0.00000000000E+00 0.  1.
</event>
<event>
12    1  0.8798177E-003  0.2993243E+03  0.7818608E-02  0.1086037E+00
         21   -1    0    0  501  502  0.00000000000E+00  0.00000000000E+00  0.54994917454E+03  0.54994917454E+03  0.00000000000E+00 0.  1.
         21   -1    0    0  502  503 -0.00000000000E+00 -0.00000000000E+00 -0.18444450991E+03  0.18444450991E+03  0.00000000000E+00 0. -1.
          6    2    1    2  501    0 -0.23745714540E+03  0.55233144809E+02  0.31478604708E+03  0.43437921216E+03  0.17366187934E+03 0.  0.
         24    2    3    3    0    0 -0.11156100739E+03 -0.34831759394E+02  0.17844896283E+03  0.22805079657E+03  0.80647527258E+02 0.  0.
         -6    2    1    2    0  503  0.23745714540E+03 -0.55233144809E+02  0.50718617550E+02  0.30001447229E+03  0.16733113646E+03 0.  0.
        -24    2    5    5    0    0  0.15115974181E+03 -0.60539354053E+02  0.92848835032E+02  0.20372094733E+03  0.79793717069E+02 0.  0.
          5    1    3    3  501    0 -0.12589613801E+03  0.90064904203E+02  0.13633708425E+03  0.20632841558E+03  0.47000000000E+01 0. -1.
        -13    1    4    4    0    0 -0.45825019143E+02  0.14163425231E+02  0.11428340690E+03  0.12394043766E+03  0.00000000000E+00 0.  1.
         14    1    4    4    0    0 -0.65735988243E+02 -0.48995184625E+02  0.64165555928E+02  0.10411035892E+03  0.00000000000E+00 0. -1.
         -5    1    5    5    0  503  0.86297403591E+02  0.53062092436E+01 -0.42130217482E+02  0.96293524954E+02  0.47000000000E+01 0.  1.
         11    1    6    6    0    0  0.14736842351E+03 -0.32404951211E+02  0.66159023190E+02  0.16475603011E+03  0.00000000000E+00 0. -1.
        -12    1    6    6    0    0  0.37913183002E+01 -0.28134402842E+02  0.26689811842E+02  0.38964917219E+02  0.00000000000E+00 0.  1.
</event>
<event>
12    1  0.8798177E-003  0.1733832E+03  0.7818608E-02  0.1174705E+00
         21   -1    0    0  503  502  0.00000000000E+00  0.00000000000E+00  0.77989748976E+02  0.77989748976E+02  0.00000000000E+00 0.  1.
         21   -1    0    0  501  503 -0.00000000000E+00 -0.00000000000E+00 -0.60886464775E+03  0.60886464775E+03  0.00000000000E+00 0.  1.
          6    2    1    2  501    0  0.40495334988E+01 -0.10531682613E+02 -0.47419336224E+03  0.50444130917E+03  0.17168102558E+03 0.  0.
         24    2    3    3    0    0 -0.72231681929E+01 -0.45138831880E+02 -0.12805978478E+03  0.15636765026E+03  0.77212986385E+02 0.  0.
         -6    2    1    2    0  502 -0.40495334988E+01  0.10531682613E+02 -0.56681536528E+02  0.18241308755E+03  0.17301567232E+03 0.  0.
        -24    2    5    5    0    0 -0.39039279994E+02  0.26112643876E+02 -0.91234082143E+02  0.13061523893E+03  0.80813039434E+02 0.  0.
          5    1    3    3  501    0  0.11272701692E+02  0.34607149266E+02 -0.34613357746E+03  0.34807365892E+03  0.47000000000E+01 0. -1.
        -11    1    4    4    0    0 -0.21346515060E+01 -0.65283011311E+02 -0.11364940606E+03  0.13108247709E+03  0.00000000000E+00 0.  1.
         12    1    4    4    0    0 -0.50885166869E+01  0.20144179431E+02 -0.14410378719E+02  0.25285173163E+02  0.00000000000E+00 0. -1.
         -5    1    5    5    0  502  0.34989746495E+02 -0.15580961263E+02  0.34552545615E+02  0.51797848625E+02  0.47000000000E+01 0.  1.
         13    1    6    6    0    0 -0.43475923284E+02 -0.39124627962E+00 -0.94004883162E+01  0.44482335366E+02  0.00000000000E+00 0. -1.
        -14    1    6    6    0    0  0.44366432896E+01  0.26503890156E+02 -0.81833593827E+02  0.86132903560E+02  0.00000000000E+00 0.  1.
</event>
<event>
12    1  0.8798177E-003  0.1842880E+03  0.7818608E-02  0.1165618E+00
         21   -1    0    0  501  502  0.00000000000E+00  0.00000000000E+00  0.11823078340E+04  0.11823078340E+04  0.00000000000E+00 0.  1.
         21   -1    0    0  502  503 -0.00000000000E+00 -0.00000000000E+00 -0.37288377589E+02  0.37288377589E+02  0.00000000000E+00 0.  1.
          6    2    1    2  501    0 -0.12251948033E+02  0.66231160833E+02  0.87554419662E+03  0.89313185702E+03  0.16300367139E+03 0.  0.
         24    2    3    3    0    0 -0.25699071985E+01  0.32892712923E+02  0.83747746798E+03  0.84139831033E+03  0.74122009280E+02 0.  0.
         -6    2    1    2    0  503  0.12251948033E+02 -0.66231160833E+02  0.26947525978E+03  0.32646435456E+03  0.17153828223E+03 0.  0.
        -24    2    5    5    0    0  0.65039538765E+02 -0.53848182886E+02  0.23383612014E+03  0.26140971481E+03  0.80783287344E+02 0.  0.
          5    1    3    3  501    0 -0.96820408346E+01  0.33338447909E+02  0.38066728636E+02  0.51733546686E+02  0.47000000000E+01 0. -1.
        -13    1    4    4    0    0 -0.36995921456E+02  0.20814835553E+02  0.35164159831E+03  0.35419453588E+03  0.00000000000E+00 0.  1.
         14    1    4    4    0    0  0.34426014257E+02  0.12077877370E+02  0.48583586968E+03  0.48720377445E+03  0.00000000000E+00 0. -1.
         -5    1    5    5    0  503 -0.52787590732E+02 -0.12382977946E+02  0.35639139635E+02  0.65054639743E+02  0.47000000000E+01 0.  1.
         13    1    6    6    0    0  0.30488146338E+02 -0.28739287787E+02  0.20648161730E+03  0.21068965806E+03  0.00000000000E+00 0. -1.
        -14    1    6    6    0    0  0.34551392426E+02 -0.25108895099E+02  0.27354502839E+02  0.50720056756E+02  0.00000000000E+00 0.  1.
</event>
<event>
12    1  0.8798177E-003  0.2077013E+03  0.7818608E-02  0.1143478E+00
         21   -1    0    0  501  502  0.00000000000E+00  0.00000000000E+00  0.69145318436E+02  0.69145318436E+02  0.00000000000E+00 0. -1.
         21   -1    0    0  502  503 -0.00000000000E+00 -0.00000000000E+00 -0.70060411500E+03  0.70060411500E+03  0.00000000000E+00 0. -1.
          6    2    1    2  501    0  0.10887642575E+03 -0.40013080047E+02 -0.18714122618E+03  0.27928235808E+03  0.17181872524E+03 0.  0.
         24    2    3    3    0    0  0.39087417045E+02 -0.14676812395E+02 -0.12911282940E+02  0.89834224508E+02  0.78487270766E+02 0.  0.
         -6    2    1    2    0  503 -0.10887642575E+03  0.40013080047E+02 -0.44431757039E+03  0.49046707535E+03  0.17229255931E+03 0.  0.
        -24    2    5    5    0    0 -0.12568501099E+03 -0.11574107232E+02 -0.36158416050E+03  0.39141823114E+03  0.80835911542E+02 0.  0.
          5    1    3    3  501    0  0.69789008701E+02 -0.25336267652E+02 -0.17422994324E+03  0.18944813357E+03  0.47000000000E+01 0. -1.
        -13    1    4    4    0    0  0.27838705733E+02 -0.13545904652E+02 -0.45672808444E+02  0.55176901878E+02  0.00000000000E+00 0.  1.
         14    1    4    4    0    0  0.11248711313E+02 -0.11309077428E+01  0.32761525504E+02  0.34657322630E+02  0.00000000000E+00 0. -1.
         -5    1    5    5    0  503  0.16808585248E+02  0.51587187279E+02 -0.82733409883E+02  0.99048844214E+02  0.47000000000E+01 0.  1.
         11    1    6    6    0    0 -0.11110554712E+03  0.19222224876E+02 -0.24030922518E+03  0.26544766007E+03  0.00000000000E+00 0. -1.
        -12    1    6    6    0    0 -0.14579463877E+02 -0.30796332108E+02 -0.12127493532E+03  0.12597057107E+03  0.00000000000E+00 0.  1.
</event>
<event>
12    1  0.8798177E-003  0.2777650E+03  0.7818608E-02  0.1097225E+00
         21   -1    0    0  501  502  0.00000000000E+00  0.00000000000E+00  0.34172807367E+03  0.34172807367E+03  0.00000000000E+00 0.  1.
         21   -1    0    0  502  503 -0.00000000000E+00 -0.00000000000E+00 -0.22418360790E+03  0.22418360790E+03  0.00000000000E+00 0. -1.
          6    2    1    2  501    0 -0.76033491111E+02  0.20233403605E+03  0.49714653338E+02  0.27998463434E+03  0.17087918187E+03 0.  0.
         24    2    3    3    0    0 -0.26963020638E+02  0.58951496476E+02  0.73188888162E+02  0.12655845200E+03  0.80362584599E+02 0.  0.
         -6    2    1    2    0  503  0.76033491111E+02 -0.20233403605E+03  0.67829812433E+02  0.28592704724E+03  0.17445125099E+03 0.  0.
        -24    2    5    5    0    0  0.11213900348E+02 -0.49625927438E+02 -0.12491338711E+02  0.10154992528E+03  0.86993502892E+02 0.  0.
          5    1    3    3  501    0 -0.49070470473E+02  0.14338253957E+03 -0.23474234824E+02  0.15342618234E+03  0.47000000000E+01 0. -1.
        -13    1    4    4    0    0 -0.30659009123E+02  0.52650466165E+02  0.89739376046E+02  0.10846751606E+03  0.00000000000E+00 0.  1.
         14    1    4    4    0    0  0.36959884856E+01  0.63010303107E+01 -0.16550487884E+02  0.18090935936E+02  0.00000000000E+00 0. -1.
         -5    1    5    5    0  503  0.64819590763E+02 -0.15270810861E+03  0.80321151144E+02  0.18437712196E+03  0.47000000000E+01 0.  1.
         13    1    6    6    0    0  0.38695123154E+02 -0.50827221951E+02 -0.28249973706E+02  0.69848264556E+02  0.00000000000E+00 0. -1.
        -14    1    6    6    0    0 -0.27481222806E+02  0.12012945131E+01  0.15758634994E+02  0.31701660719E+02  0.00000000000E+00 0.  1.
</event>
<event>
12    1  0.8798177E-003  0.5169688E+03  0.7818608E-02  0.1009499E+00
         21   -1    0    0  501  502  0.00000000000E+00  0.00000000000E+00  0.13011069176E+03  0.13011069176E+03  0.00000000000E+00 0. -1.
         21   -1    0    0  502  503 -0.00000000000E+00 -0.00000000000E+00 -0.20610898859E+04  0.20610898859E+04  0.00000000000E+00 0.  1.
          6    2    1    2  501    0 -0.45048266594E+03  0.18473689292E+03 -0.10450419408E+04  0.11659199948E+04  0.17376542885E+03 0.  0.
         24    2    3    3    0    0 -0.28353147482E+03  0.14933992678E+03 -0.81591682717E+03  0.88018225991E+03  0.79423112901E+02 0.  0.
         -6    2    1    2    0  503  0.45048266594E+03 -0.18473689292E+03 -0.88593725333E+03  0.10252805829E+04  0.17103539068E+03 0.  0.
        -24    2    5    5    0    0  0.40915970059E+03 -0.18357985289E+03 -0.70368482620E+03  0.83833951355E+03  0.80793455030E+02 0.  0.
          5    1    3    3  501    0 -0.16695119113E+03  0.35396966139E+02 -0.22912511367E+03  0.28573773489E+03  0.47000000000E+01 0. -1.
        -13    1    4    4    0    0 -0.11380376699E+03  0.23578267243E+02 -0.23781688741E+03  0.26469624857E+03  0.00000000000E+00 0.  1.
         14    1    4    4    0    0 -0.16972770783E+03  0.12576165954E+03 -0.57809993975E+03  0.61548601134E+03  0.00000000000E+00 0. -1.
         -5    1    5    5    0  503  0.41322965353E+02 -0.11570400300E+01 -0.18225242713E+03  0.18694106933E+03  0.47000000000E+01 0.  1.
         11    1    6    6    0    0  0.37691609267E+03 -0.16230252459E+03 -0.67600100848E+03  0.79081300815E+03  0.00000000000E+00 0. -1.
        -12    1    6    6    0    0  0.32243607924E+02 -0.21277328294E+02 -0.27683817723E+02  0.47526505395E+02  0.00000000000E+00 0.  1.
</event>
<event>
12    1  0.8798177E-003  0.1751831E+03  0.7818608E-02  0.1172770E+00
         21   -1    0    0  501  502  0.00000000000E+00  0.00000000000E+00  0.48195494676E+03  0.48195494676E+03  0.00000000000E+00 0. -1.
         21   -1    0    0  502  503 -0.00000000000E+00 -0.00000000000E+00 -0.99308507934E+02  0.99308507934E+02  0.00000000000E+00 0. -1.
          6    2    1    2  501    0  0.27902532049E+02  0.20117323730E+02  0.36650012453E+03  0.40621602039E+03  0.17177268680E+03 0.  0.
         24    2    3    3    0    0  0.24916469722E+02 -0.10796278901E+02  0.71431914334E+02  0.10948060615E+03  0.78397032059E+02 0.  0.
         -6    2    1    2    0  503 -0.27902532049E+02 -0.20117323730E+02  0.16146314289E+02  0.17504743430E+03  0.17087317748E+03 0.  0.
        -24    2    5    5    0    0 -0.29800073423E+02 -0.56261539652E+02 -0.38775368712E+02  0.10910438105E+03  0.79667003998E+02 0.  0.
          5    1    3    3  501    0  0.29860623262E+01  0.30913602631E+02  0.29506821020E+03  0.29673541424E+03  0.47000000000E+01 0. -1.
        -11    1    4    4    0    0  0.60841844188E+01  0.22108771135E+01 -0.16970598213E+02  0.18163327926E+02  0.00000000000E+00 0.  1.
         12    1    4    4    0    0  0.18832285304E+02 -0.13007156015E+02  0.88402512547E+02  0.91317278222E+02  0.00000000000E+00 0. -1.
         -5    1    5    5    0  503  0.18975413742E+01  0.36144215922E+02  0.54921683001E+02  0.65943053247E+02  0.47000000000E+01 0.  1.
         13    1    6    6    0    0  0.19895789931E+02  0.97058637233E+00 -0.25165781084E+02  0.32095187061E+02  0.00000000000E+00 0. -1.
        -14    1    6    6    0    0 -0.49695863354E+02 -0.57232126024E+02 -0.13609587628E+02  0.77009193991E+02  0.00000000000E+00 0.  1.
</event>
<event>
12    1  0.8798177E-003  0.3438887E+03  0.7818608E-02  0.1065840E+00
         21   -1    0    0  501  502  0.00000000000E+00  0.00000000000E+00  0.68838090201E+03  0.68838090201E+03  0.00000000000E+00 0. -1.
         21   -1    0    0  502  503 -0.00000000000E+00 -0.00000000000E+00 -0.19871234196E+03  0.19871234196E+03  0.00000000000E+00 0. -1.
          6    2    1    2  501    0  0.14238094357E+03 -0.26218371305E+03  0.41560562469E+03  0.53531950066E+03  0.15756363806E+03 0.  0.
         24    2    3    3    0    0  0.69366664213E+02 -0.14978474811E+03  0.14439906948E+03  0.23276421994E+03  0.77980035554E+02 0.  0.
         -6    2    1    2    0  503 -0.14238094357E+03  0.26218371305E+03  0.74062935358E+02  0.35177374331E+03  0.17101700385E+03 0.  0.
        -24    2    5    5    0    0 -0.14769901245E+03  0.17373468589E+03  0.87408150485E+01  0.24158943561E+03  0.79311500978E+02 0.  0.
          5    1    3    3  501    0  0.73014279354E+02 -0.11239896494E+03  0.27120655520E+03  0.30255528072E+03  0.47000000000E+01 0. -1.
        -13    1    4    4    0    0  0.27082864556E+02 -0.78924309778E+01  0.35852628393E+01  0.28436352244E+02  0.00000000000E+00 0.  1.
         14    1    4    4    0    0  0.42283799657E+02 -0.14189231713E+03  0.14081380664E+03  0.20432786770E+03  0.00000000000E+00 0. -1.
         -5    1    5    5    0  503  0.53180688850E+01  0.88449027162E+02  0.65322120309E+02  0.11018430770E+03  0.47000000000E+01 0.  1.
         13    1    6    6    0    0 -0.12575268317E+03  0.17644088888E+03 -0.27157673098E+01  0.21668525558E+03  0.00000000000E+00 0. -1.
        -14    1    6    6    0    0 -0.21946329278E+02 -0.27062029875E+01  0.11456582358E+02  0.24904180025E+02  0.00000000000E+00 0.  1.
</event>
<event>
12    1  0.8798177E-003  0.3881309E+03  0.7818608E-02  0.1048032E+00
         21   -1    0    0  501  502  0.00000000000E+00  0.00000000000E+00  0.63733447730E+02  0.63733447730E+02  0.00000000000E+00 0. -1.
         21   -1    0    0  502  503 -0.00000000000E+00 -0.00000000000E+00 -0.25506344685E+04  0.25506344685E+04  0.00000000000E+00 0.  1.
          6    2    1    2  501    0 -0.31379644572E+03  0.14899974918E+03 -0.16003338289E+04  0.16465626704E+04  0.17155503174E+03 0.  0.
         24    2    3    3    0    0 -0.32604732908E+03  0.14629063749E+03 -0.15827254906E+04  0.16244365092E+04  0.77885701394E+02 0.  0.
         -6    2    1    2    0  503  0.31379644572E+03 -0.14899974918E+03 -0.88656719189E+03  0.96780524589E+03  0.17313715263E+03 0.  0.
        -24    2    5    5    0    0  0.23783480511E+03 -0.70207859883E+02 -0.46886167145E+03  0.53597388474E+03  0.77085666991E+02 0.  0.
          5    1    3    3  501    0  0.12250883360E+02  0.27091116857E+01 -0.17608338299E+02  0.22126161141E+02  0.47000000000E+01 0. -1.
        -11    1    4    4    0    0 -0.22600843112E+03  0.71861320537E+02 -0.11447262946E+04  0.11690347086E+04  0.00000000000E+00 0.  1.
         12    1    4    4    0    0 -0.10003889796E+03  0.74429316957E+02 -0.43799919600E+03  0.45540180064E+03  0.00000000000E+00 0. -1.
         -5    1    5    5    0  503  0.75961640616E+02 -0.78791889296E+02 -0.41770552045E+03  0.43183136115E+03  0.47000000000E+01 0.  1.
         13    1    6    6    0    0  0.11725284488E+03 -0.44361442763E+02 -0.31336825976E+03  0.33751419742E+03  0.00000000000E+00 0. -1.
        -14    1    6    6    0    0  0.12058196023E+03 -0.25846417120E+02 -0.15549341169E+03  0.19845968732E+03  0.00000000000E+00 0.  1.
</event>
<event>
12    1  0.8798177E-003  0.1985989E+03  0.7818608E-02  0.1151340E+00
         21   -1    0    0  501  502  0.00000000000E+00  0.00000000000E+00  0.34907085970E+03  0.34907085970E+03  0.00000000000E+00 0.  1.
         21   -1    0    0  502  503 -0.00000000000E+00 -0.00000000000E+00 -0.13144749722E+03  0.13144749722E+03  0.00000000000E+00 0.  1.
          6    2    1    2  501    0 -0.56154809051E+02 -0.81431528018E+02  0.20102302541E+03  0.28122691768E+03  0.16998195829E+03 0.  0.
         24    2    3    3    0    0  0.51097933271E+00  0.18960695223E+02  0.75823551632E+02  0.11097237796E+03  0.78777462666E+02 0.  0.
         -6    2    1    2    0  503  0.56154809051E+02  0.81431528018E+02  0.16600337069E+02  0.19929143924E+03  0.17221222439E+03 0.  0.
        -24    2    5    5    0    0  0.64321998962E+01  0.77394653241E+02  0.65775713900E+02  0.12908501570E+03  0.79405234049E+02 0.  0.
          5    1    3    3  501    0 -0.56665788384E+02 -0.10039222324E+03  0.12519947378E+03  0.17025453972E+03  0.47000000000E+01 0. -1.
        -11    1    4    4    0    0 -0.12032307155E+02 -0.17148673614E+02  0.69041203089E+02  0.72149436215E+02  0.00000000000E+00 0.  1.
         12    1    4    4    0    0  0.12543286488E+02  0.36109368837E+02  0.67823485431E+01  0.38822941742E+02  0.00000000000E+00 0. -1.
         -5    1    5    5    0  503  0.49722609155E+02  0.40368747774E+01 -0.49175376831E+02  0.70206423535E+02  0.47000000000E+01 0.  1.
         11    1    6    6    0    0  0.42148380316E+02  0.30166402323E+02  0.32084463435E+02  0.60958269220E+02  0.00000000000E+00 0. -1.
        -12    1    6    6    0    0 -0.35716180420E+02  0.47228250918E+02  0.33691250464E+02  0.68126746483E+02  0.00000000000E+00 0.  1.
</event>
<event>
12    1  0.8798177E-003  0.2357431E+03  0.7818608E-02  0.1122844E+00
         21   -1    0    0  501  502  0.00000000000E+00  0.00000000000E+00  0.10806040779E+04  0.10806040779E+04  0.00000000000E+00 0. -1.
         21   -1    0    0  502  503 -0.00000000000E+00 -0.00000000000E+00 -0.77362565873E+02  0.77362565873E+02  0.00000000000E+00 0.  1.
          6    2    1    2  501    0  0.55523733041E+02 -0.15125156365E+03  0.83758658640E+03  0.86984105337E+03  0.17062311679E+03 0.  0.
         24    2    3    3    0    0 -0.13877141822E+02 -0.14935014701E+02  0.27841755671E+03  0.29010768646E+03  0.78933542490E+02 0.  0.
         -6    2    1    2    0  503 -0.55523733041E+02  0.15125156365E+03  0.16565492563E+03  0.28812559040E+03  0.17208974699E+03 0.  0.
        -24    2    5    5    0    0 -0.13401342926E+02  0.71124482160E+01  0.36044170715E+02  0.89703267719E+02  0.80729864890E+02 0.  0.
          5    1    3    3  501    0  0.69400874863E+02 -0.13631654895E+03  0.55916902969E+03  0.57973336691E+03  0.47000000000E+01 0. -1.
        -11    1    4    4    0    0 -0.38861385008E+02 -0.24246794792E+02  0.10367897878E+03  0.11334657006E+03  0.00000000000E+00 0.  1.
         12    1    4    4    0    0  0.24984243186E+02  0.93117800911E+01  0.17473857793E+03  0.17676111640E+03  0.00000000000E+00 0. -1.
         -5    1    5    5    0  503 -0.42122390115E+02  0.14413911544E+03  0.12961075491E+03  0.19842232268E+03  0.47000000000E+01 0.  1.
         11    1    6    6    0    0  0.21016224700E+02  0.31526118197E+02  0.71398484289E+01  0.38555871989E+02  0.00000000000E+00 0. -1.
        -12    1    6    6    0    0 -0.34417567626E+02 -0.24413669981E+02  0.28904322286E+02  0.51147395731E+02  0.00000000000E+00 0.  1.
</event>
<event>
12    1  0.8798177E-003  0.1881910E+03  0.7818608E-02  0.1162304E+00
         21   -1    0    0  503  502  0.00000000000E+00  0.00000000000E+00  0.51772305824E+03  0.51772305824E+03  0.00000000000E+00 0. -1.
         21   -1    0    0  501  503 -0.00000000000E+00 -0.00000000000E+00 -0.11087328499E+03  0.11087328499E+03  0.00000000000E+00 0. -1.
          6    2    1    2  501    0 -0.35264813005E+02  0.31040609926E+02 -0.16659552354E+01  0.17881757276E+03  0.17252774391E+03 0.  0.
         24    2    3    3    0    0 -0.13804698979E+02 -0.26050948835E+02  0.55030963396E+02  0.95411259098E+02  0.72150396958E+02 0.  0.
         -6    2    1    2    0  502  0.35264813005E+02 -0.31040609926E+02  0.40851572849E+03  0.44977877047E+03  0.18223258611E+03 0.  0.
        -24    2    5    5    0    0 -0.30370484361E+02 -0.62263111192E+02  0.16583962372E+03  0.19640825389E+03  0.79210858251E+02 0.  0.
          5    1    3    3  501    0 -0.21460114026E+02  0.57091558761E+02 -0.56696918631E+02  0.83406313658E+02  0.47000000000E+01 0. -1.
        -11    1    4    4    0    0 -0.25552007057E+02 -0.29241543285E+02  0.67570990431E+02  0.77934662802E+02  0.00000000000E+00 0.  1.
         12    1    4    4    0    0  0.11747308078E+02  0.31905944498E+01 -0.12540027035E+02  0.17476596295E+02  0.00000000000E+00 0. -1.
         -5    1    5    5    0  502  0.65635297366E+02  0.31222501266E+02  0.24267610477E+03  0.25337051658E+03  0.47000000000E+01 0.  1.
         13    1    6    6    0    0 -0.22282946617E+02  0.14301999013E+02  0.59479015767E+02  0.65106299252E+02  0.00000000000E+00 0. -1.
        -14    1    6    6    0    0 -0.80875377441E+01 -0.76565110205E+02  0.10636060795E+03  0.13130195464E+03  0.00000000000E+00 0.  1.
</event>
<event>
12    1  0.8798177E-003  0.1807593E+03  0.7818608E-02  0.1167089E+00
         21   -1    0    0  503  502  0.00000000000E+00  0.00000000000E+00  0.21548684406E+03  0.21548684406E+03  0.00000000000E+00 0.  1.
         21   -1    0    0  501  503 -0.00000000000E+00 -0.00000000000E+00 -0.16860591280E+03  0.16860591280E+03  0.00000000000E+00 0.  1.
          6    2    1    2  501    0 -0.35388072289E+02 -0.32910192887E+02 -0.37622573934E+02  0.18455640158E+03  0.17409827925E+03 0.  0.
         24    2    3    3    0    0 -0.35109604536E+02  0.21075579889E+00 -0.88533427329E+02  0.12363776913E+03  0.78837817392E+02 0.  0.
         -6    2    1    2    0  502  0.35388072289E+02  0.32910192887E+02  0.84503505193E+02  0.19953635528E+03  0.17417955745E+03 0.  0.
        -24    2    5    5    0    0  0.69415206468E+02 -0.70994475507E+01  0.10082765533E+03  0.14433504129E+03  0.76141414624E+02 0.  0.
          5    1    3    3  501    0 -0.27846775370E+00 -0.33120948686E+02  0.50910853395E+02  0.60918632450E+02  0.47000000000E+01 0. -1.
        -13    1    4    4    0    0 -0.38992980632E+02  0.32317809698E+02 -0.69881485404E+02  0.86303623126E+02  0.00000000000E+00 0.  1.
         14    1    4    4    0    0  0.38833760964E+01 -0.32107053900E+02 -0.18651941924E+02  0.37334146000E+02  0.00000000000E+00 0. -1.
         -5    1    5    5    0  502 -0.34027134179E+02  0.40009640437E+02 -0.16324150138E+02  0.55201313989E+02  0.47000000000E+01 0.  1.
         11    1    6    6    0    0  0.25570096300E+02 -0.40009281795E+02  0.56727169722E+02  0.73976646580E+02  0.00000000000E+00 0. -1.
        -12    1    6    6    0    0  0.43845110168E+02  0.32909834244E+02  0.44100485610E+02  0.70358394713E+02  0.00000000000E+00 0.  1.
</event>
<event>
12    1  0.8798177E-003  0.2766970E+03  0.7818608E-02  0.1098026E+00
         21   -1    0    0  503  502  0.00000000000E+00  0.00000000000E+00  0.70025916680E+03  0.70025916680E+03  0.00000000000E+00 0. -1.
         21   -1    0    0  501  503 -0.00000000000E+00 -0.00000000000E+00 -0.25137260037E+03  0.25137260037E+03  0.00000000000E+00 0.  1.
          6    2    1    2  501    0  0.92759793442E+01 -0.21642188507E+03 -0.13441255634E+03  0.30761654506E+03  0.17215320898E+03 0.  0.
         24    2    3    3    0    0  0.53747859170E+02 -0.76443463045E+02 -0.28518143974E+02  0.12648834930E+03  0.80334193004E+02 0.  0.
         -6    2    1    2    0  502 -0.92759793442E+01  0.21642188507E+03  0.58329912277E+03  0.64401522211E+03  0.16611220169E+03 0.  0.
        -24    2    5    5    0    0 -0.32684596052E+02  0.55960785047E+02  0.30935571160E+03  0.32563995535E+03  0.78361546309E+02 0.  0.
          5    1    3    3  501    0 -0.44471879825E+02 -0.13997842202E+03 -0.10589441237E+03  0.18112819576E+03  0.47000000000E+01 0. -1.
        -11    1    4    4    0    0  0.60108303350E+02 -0.89247149152E+02 -0.18876819391E+02  0.10924466153E+03  0.00000000000E+00 0.  1.
         12    1    4    4    0    0 -0.63604441801E+01  0.12803686107E+02 -0.96413245834E+01  0.17243687767E+02  0.00000000000E+00 0. -1.
         -5    1    5    5    0  502  0.23408616708E+02  0.16046110002E+03  0.27394341117E+03  0.31837526675E+03  0.47000000000E+01 0.  1.
         13    1    6    6    0    0 -0.43009283571E+02  0.69735699194E+02  0.22275958411E+03  0.23734931752E+03  0.00000000000E+00 0. -1.
        -14    1    6    6    0    0  0.10324687518E+02 -0.13774914147E+02  0.86596127498E+02  0.88290637837E+02  0.00000000000E+00 0.  1.
</event>
<event>
12    1  0.8798177E-003  0.1945514E+03  0.7818608E-02  0.1156763E+00
         21   -1    0    0  501  502  0.00000000000E+00  0.00000000000E+00  0.21721375768E+03  0.21721375768E+03  0.00000000000E+00 0. -1.
         21   -1    0    0  502  503 -0.00000000000E+00 -0.00000000000E+00 -0.16521861760E+03  0.16521861760E+03  0.00000000000E+00 0. -1.
          6    2    1    2  501    0  0.51752815490E+02 -0.69100414333E+02  0.31302690874E+02  0.18678359905E+03  0.16265003304E+03 0.  0.
         24    2    3    3    0    0  0.83027632667E+02 -0.38181909203E+02  0.58868437201E+02  0.13466806855E+03  0.79489306275E+02 0.  0.
         -6    2    1    2    0  503 -0.51752815490E+02  0.69100414333E+02  0.20692449199E+02  0.19564877623E+03  0.17434748353E+03 0.  0.
        -24    2    5    5    0    0 -0.63238322580E+02  0.36076269957E+02 -0.48001789358E+02  0.11842507912E+03  0.80123310500E+02 0.  0.
          5    1    3    3  501    0 -0.31274817176E+02 -0.30918505130E+02 -0.27565746327E+02  0.52115530502E+02  0.47000000000E+01 0. -1.
        -13    1    4    4    0    0  0.21715002864E+02 -0.30225726655E+02 -0.13404756347E+02  0.39557848702E+02  0.00000000000E+00 0.  1.
         14    1    4    4    0    0  0.61312629803E+02 -0.79561825482E+01  0.72273193549E+02  0.95110219850E+02  0.00000000000E+00 0. -1.
         -5    1    5    5    0  503  0.11485507089E+02  0.33024144377E+02  0.68694238557E+02  0.77223697114E+02  0.47000000000E+01 0.  1.
         11    1    6    6    0    0 -0.67279726314E+02  0.87668333786E+01 -0.59337109083E+01  0.68107472905E+02  0.00000000000E+00 0. -1.
        -12    1    6    6    0    0  0.40414037348E+01  0.27309436578E+02 -0.42068078450E+02  0.50317606211E+02  0.00000000000E+00 0.  1.
</event>
<event>
12    1  0.8798177E-003  0.1864511E+03  0.7818608E-02  0.1162457E+00
         21   -1    0    0  503  502  0.00000000000E+00  0.00000000000E+00  0.34918580430E+03  0.34918580430E+03  0.00000000000E+00 0. -1.
         21   -1    0    0  501  503 -0.00000000000E+00 -0.00000000000E+00 -0.18257017261E+03  0.18257017261E+03  0.00000000000E+00 0. -1.
          6    2    1    2  501    0 -0.68343078935E+02  0.22777726208E+02 -0.97430862385E+02  0.21037299212E+03  0.17197215361E+03 0.  0.
         24    2    3    3    0    0 -0.10543238124E+03  0.46168757570E+02 -0.53425935404E+02  0.14807307003E+03  0.76313578779E+02 0.  0.
         -6    2    1    2    0  502  0.68343078935E+02 -0.22777726208E+02  0.26404649407E+03  0.32138298479E+03  0.16845435772E+03 0.  0.
        -24    2    5    5    0    0  0.65068732054E+02  0.88497840561E+01  0.26921139943E+03  0.28882861488E+03  0.81455095726E+02 0.  0.
          5    1    3    3  501    0  0.37089302301E+02 -0.23391031363E+02 -0.44004926982E+02  0.62299922087E+02  0.47000000000E+01 0. -1.
        -11    1    4    4    0    0 -0.70109618549E+02  0.58110598578E+02 -0.11211139040E+02  0.91749059498E+02  0.00000000000E+00 0.  1.
         12    1    4    4    0    0 -0.35322762688E+02 -0.11941841008E+02 -0.42214796364E+02  0.56324010534E+02  0.00000000000E+00 0. -1.
         -5    1    5    5    0  502  0.32743468819E+01 -0.31627510264E+02 -0.51649053627E+01  0.32554369912E+02  0.47000000000E+01 0.  1.
         11    1    6    6    0    0  0.69791453091E+02 -0.11869519282E+02  0.13019549630E+03  0.14819783962E+03  0.00000000000E+00 0. -1.
        -12    1    6    6    0    0 -0.47227210378E+01  0.20719303338E+02  0.13901590314E+03  0.14063077526E+03  0.00000000000E+00 0.  1.
</event>
<event>
12    1  0.8798177E-003  0.2426269E+03  0.7818608E-02  0.1118372E+00
         21   -1    0    0  501  502  0.00000000000E+00  0.00000000000E+00  0.36187700161E+03  0.36187700161E+03  0.00000000000E+00 0.  1.
         21   -1    0    0  502  503 -0.00000000000E+00 -0.00000000000E+00 -0.16393603968E+03  0.16393603968E+03  0.00000000000E+00 0. -1.
          6    2    1    2  501    0 -0.68875097800E+02 -0.15348059052E+03  0.13212791522E+03  0.27627083619E+03  0.17483626108E+03 0.  0.
         24    2    3    3    0    0 -0.28871447010E+02 -0.16203844422E+03  0.14366007887E+03  0.23350858959E+03  0.82450138211E+02 0.  0.
         -6    2    1    2    0  503  0.68875097800E+02  0.15348059052E+03  0.65813046707E+02  0.24954220509E+03  0.17216237755E+03 0.  0.
        -24    2    5    5    0    0  0.32138884857E+02  0.12455555974E+03 -0.18280864356E+02  0.15320901961E+03  0.81190013590E+02 0.  0.
          5    1    3    3  501    0 -0.40003650791E+02  0.85578537032E+01 -0.11532163651E+02  0.42762246609E+02  0.47000000000E+01 0. -1.
        -11    1    4    4    0    0  0.27686877382E+02 -0.64185055344E+02  0.42375352620E+02  0.81743226131E+02  0.00000000000E+00 0.  1.
         12    1    4    4    0    0 -0.56558324392E+02 -0.97853388878E+02  0.10128472625E+03  0.15176536345E+03  0.00000000000E+00 0. -1.
         -5    1    5    5    0  503  0.36736212943E+02  0.28925030775E+02  0.84093911063E+02  0.96333185480E+02  0.47000000000E+01 0.  1.
         13    1    6    6    0    0 -0.19063076857E+02  0.78336040569E+02 -0.23659893537E+02  0.84022179890E+02  0.00000000000E+00 0. -1.
        -14    1    6    6    0    0  0.51201961714E+02  0.46219519174E+02  0.53790291813E+01  0.69186839724E+02  0.00000000000E+00 0.  1.
</event>
<event>
12    1  0.8798177E-003  0.2325522E+03  0.7818608E-02  0.1125122E+00
         21   -1    0    0  501  502  0.00000000000E+00  0.00000000000E+00  0.14187352899E+03  0.14187352899E+03  0.00000000000E+00 0.  1.
         21   -1    0    0  502  503 -0.00000000000E+00 -0.00000000000E+00 -0.38303058599E+03  0.38303058599E+03  0.00000000000E+00 0.  1.
          6    2    1    2  501    0  0.15558725121E+03 -0.25728972871E+00 -0.14812618714E+03  0.27443399798E+03  0.17077819823E+03 0.  0.
         24    2    3    3    0    0  0.73803939388E+01 -0.44640852057E+01 -0.63116662326E+02  0.10346125459E+03  0.81523738060E+02 0.  0.
         -6    2    1    2    0  503 -0.15558725121E+03  0.25728972871E+00 -0.93030869863E+02  0.25047011700E+03  0.17283829965E+03 0.  0.
        -24    2    5    5    0    0 -0.10660238208E+03  0.34618559294E+02 -0.12145137680E+03  0.18406206430E+03  0.81030204698E+02 0.  0.
          5    1    3    3  501    0  0.14820685727E+03  0.42067954770E+01 -0.85009524814E+02  0.17097274338E+03  0.47000000000E+01 0. -1.
        -11    1    4    4    0    0  0.15323369482E+01  0.36526428063E+02 -0.13821663910E+02  0.39084093910E+02  0.00000000000E+00 0.  1.
         12    1    4    4    0    0  0.58480569906E+01 -0.40990513269E+02 -0.49294998416E+02  0.64377160682E+02  0.00000000000E+00 0. -1.
         -5    1    5    5    0  503 -0.48984869128E+02 -0.34361269565E+02  0.28420506933E+02  0.66408052704E+02  0.47000000000E+01 0.  1.
         13    1    6    6    0    0 -0.94338097343E+01  0.57323861685E+01 -0.69089867080E+02  0.69966182906E+02  0.00000000000E+00 0. -1.
        -14    1    6    6    0    0 -0.97168572349E+02  0.28886173125E+02 -0.52361509716E+02  0.11409588139E+03  0.00000000000E+00 0.  1.
</event>
<event>
12    1  0.8798177E-003  0.1985459E+03  0.7818608E-02  0.1151659E+00
         21   -1    0    0  501  502  0.00000000000E+00  0.00000000000E+00  0.10348514114E+03  0.10348514114E+03  0.00000000000E+00 0. -1.
         21   -1    0    0  502  503 -0.00000000000E+00 -0.00000000000E+00 -0.37483435299E+03  0.37483435299E+03  0.00000000000E+00 0.  1.
          6    2    1    2  501    0  0.94641096774E+02 -0.28828187051E+02 -0.13841092175E+03  0.24202900943E+03  0.17214080451E+03 0.  0.
         24    2    3    3    0    0  0.97204133232E+02  0.16650633451E+02 -0.37492929033E+02  0.13120742523E+03  0.77998599964E+02 0.  0.
         -6    2    1    2    0  503 -0.94641096774E+02  0.28828187051E+02 -0.13293829011E+03  0.23629048470E+03  0.16844168907E+03 0.  0.
        -24    2    5    5    0    0  0.49971908623E+01 -0.21020145705E+02 -0.44658092942E+02  0.94064861646E+02  0.79918924476E+02 0.  0.
          5    1    3    3  501    0 -0.25630364580E+01 -0.45478820502E+02 -0.10091799272E+03  0.11082158420E+03  0.47000000000E+01 0. -1.
        -11    1    4    4    0    0  0.58481742111E+02 -0.22555706485E+02 -0.42721198680E+02  0.75854959442E+02  0.00000000000E+00 0.  1.
         12    1    4    4    0    0  0.38722391121E+02  0.39206339936E+02  0.52282696470E+01  0.55352465788E+02  0.00000000000E+00 0. -1.
         -5    1    5    5    0  503 -0.99638287637E+02  0.49848332756E+02 -0.88280197163E+02  0.14222562305E+03  0.47000000000E+01 0.  1.
         11    1    6    6    0    0  0.11156311603E+02  0.28110354803E+02 -0.50606032290E+01  0.30663741467E+02  0.00000000000E+00 0. -1.
        -12    1    6    6    0    0 -0.61591207409E+01 -0.49130500507E+02 -0.39597489713E+02  0.63401120179E+02  0.00000000000E+00 0.  1.
</event>
<event>
12    1  0.8798177E-003  0.1775931E+03  0.7818608E-02  0.1171094E+00
         21   -1    0    0  501  502  0.00000000000E+00  0.00000000000E+00  0.50389529894E+03  0.50389529894E+03  0.00000000000E+00 0.  1.
         21   -1    0    0  502  503 -0.00000000000E+00 -0.00000000000E+00 -0.79551342093E+02  0.79551342093E+02  0.00000000000E+00 0.  1.
          6    2    1    2  501    0  0.69627679263E+00 -0.43763703105E+02  0.35378058447E+03  0.39585352476E+03  0.17211497495E+03 0.  0.
         24    2    3    3    0    0 -0.14605906771E+02 -0.52957724632E+02  0.98283135465E+02  0.13969005487E+03  0.82679402533E+02 0.  0.
         -6    2    1    2    0  503 -0.69627679263E+00  0.43763703105E+02  0.70563372370E+02  0.18759311627E+03  0.16821486629E+03 0.  0.
        -24    2    5    5    0    0  0.37401390502E+00  0.49746714688E+02  0.11054695507E+03  0.14687802281E+03  0.82931591082E+02 0.  0.
          5    1    3    3  501    0  0.15302183563E+02  0.91940215266E+01  0.25549744901E+03  0.25616346989E+03  0.47000000000E+01 0. -1.
        -11    1    4    4    0    0  0.33000889658E+02 -0.35432650680E+02  0.51368441483E+02  0.70592125856E+02  0.00000000000E+00 0.  1.
         12    1    4    4    0    0 -0.47606796429E+02 -0.17525073952E+02  0.46914693982E+02  0.69097929018E+02  0.00000000000E+00 0. -1.
         -5    1    5    5    0  503 -0.10702906977E+01 -0.59830115831E+01 -0.39983582704E+02  0.40715093462E+02  0.47000000000E+01 0.  1.
         13    1    6    6    0    0 -0.24395135358E+02 -0.13836231065E+02  0.38663108222E+02  0.47764001681E+02  0.00000000000E+00 0. -1.
        -14    1    6    6    0    0  0.24769149263E+02  0.63582945753E+02  0.71883846853E+02  0.99114021128E+02  0.00000000000E+00 0.  1.
</event>
<event>
12    1  0.8798177E-003  0.1747530E+03  0.7818608E-02  0.1173966E+00
         21   -1    0    0  501  502  0.00000000000E+00  0.00000000000E+00  0.50566744536E+02  0.50566744536E+02  0.00000000000E+00 0. -1.
         21   -1    0    0  502  503 -0.00000000000E+00 -0.00000000000E+00 -0.64368889174E+03  0.64368889174E+03  0.00000000000E+00 0. -1.
          6    2    1    2  501    0 -0.33993831512E+02 -0.29316475593E+02 -0.19383056388E+03  0.25839741727E+03  0.16487541186E+03 0.  0.
         24    2    3    3    0    0 -0.78327840954E+02 -0.48962800895E+02 -0.13175417193E+03  0.17948575192E+03  0.79519599973E+02 0.  0.
         -6    2    1    2    0  503  0.33993831512E+02  0.29316475593E+02 -0.39929158332E+03  0.43585821901E+03  0.16888926029E+03 0.  0.
        -24    2    5    5    0    0  0.81174890551E+02  0.36902591467E+02 -0.23013920669E+03  0.26002244902E+03  0.81831872924E+02 0.  0.
          5    1    3    3  501    0  0.44334009442E+02  0.19646325302E+02 -0.62076391945E+02  0.78911665348E+02  0.47000000000E+01 0. -1.
        -13    1    4    4    0    0 -0.27935074433E+02 -0.62558656469E+02 -0.62276409800E+02  0.92586743653E+02  0.00000000000E+00 0.  1.
         14    1    4    4    0    0 -0.50392766521E+02  0.13595855574E+02 -0.69477762131E+02  0.86899008264E+02  0.00000000000E+00 0. -1.
         -5    1    5    5    0  503 -0.47181059039E+02 -0.75861158736E+01 -0.16915237663E+03  0.17583576998E+03  0.47000000000E+01 0.  1.
         11    1    6    6    0    0  0.31577257721E+02  0.30423125531E+02 -0.28558139930E+02  0.52328358741E+02  0.00000000000E+00 0. -1.
        -12    1    6    6    0    0  0.49597632830E+02  0.64794659354E+01 -0.20158106676E+03  0.20769409028E+03  0.00000000000E+00 0.  1.
</event>
<event>
12    1  0.8798177E-003  0.2009494E+03  0.7818608E-02  0.1149063E+00
         21   -1    0    0  503  502  0.00000000000E+00  0.00000000000E+00  0.47311817838E+03  0.47311817838E+03  0.00000000000E+00 0. -1.
         21   -1    0    0  501  503 -0.00000000000E+00 -0.00000000000E+00 -0.85123826136E+02  0.85123826136E+02  0.00000000000E+00 0. -1.
          6    2    1    2  501    0 -0.53277614379E+02  0.88991781676E+02  0.19813141180E+03  0.28178475116E+03  0.17143088475E+03 0.  0.
         24    2    3    3    0    0 -0.94484983669E+02  0.87293803941E+02  0.11965613109E+03  0.19300755761E+03  0.79916877077E+02 0.  0.
         -6    2    1    2    0  502  0.53277614379E+02 -0.88991781676E+02  0.18986294045E+03  0.27645725336E+03  0.17211227550E+03 0.  0.
        -24    2    5    5    0    0  0.57856108780E+02 -0.22587852994E+02  0.18345929001E+03  0.20942337316E+03  0.79644822232E+02 0.  0.
          5    1    3    3  501    0  0.41207369290E+02  0.16979777355E+01  0.78475280709E+02  0.88777193550E+02  0.47000000000E+01 0. -1.
        -13    1    4    4    0    0 -0.21341608321E+02 -0.14413205640E+02  0.15259732258E+02  0.29934330978E+02  0.00000000000E+00 0.  1.
         14    1    4    4    0    0 -0.73143375349E+02  0.10170700958E+03  0.10439639883E+03  0.16307322663E+03  0.00000000000E+00 0. -1.
         -5    1    5    5    0  502 -0.45784944012E+01 -0.66403928682E+02  0.64036504362E+01  0.67033880198E+02  0.47000000000E+01 0.  1.
         11    1    6    6    0    0  0.61724274863E+02 -0.12476359154E+02  0.65112601923E+02  0.90582540118E+02  0.00000000000E+00 0. -1.
        -12    1    6    6    0    0 -0.38681660830E+01 -0.10111493840E+02  0.11834668809E+03  0.11884083304E+03  0.00000000000E+00 0.  1.
</event>
<event>
12    1  0.8798177E-003  0.1833793E+03  0.7818608E-02  0.1164800E+00
         21   -1    0    0  503  502  0.00000000000E+00  0.00000000000E+00  0.64761876524E+02  0.64761876524E+02  0.00000000000E+00 0. -1.
         21   -1    0    0  501  503 -0.00000000000E+00 -0.00000000000E+00 -0.53697954518E+03  0.53697954518E+03  0.00000000000E+00 0.  1.
          6    2    1    2  501    0 -0.17091634226E+02 -0.57907700814E+02 -0.29542319232E+03  0.34771085417E+03  0.17315469896E+03 0.  0.
         24    2    3    3    0    0 -0.54252903857E+02 -0.90259188998E+02 -0.20197271917E+03  0.24196275877E+03  0.81626580032E+02 0.  0.
         -6    2    1    2    0  502  0.17091634226E+02  0.57907700814E+02 -0.17679447634E+03  0.25403056754E+03  0.17213313628E+03 0.  0.
        -24    2    5    5    0    0  0.42201601789E+02  0.97194385346E+02 -0.99116713342E+02  0.16331188745E+03  0.74959495615E+02 0.  0.
          5    1    3    3  501    0  0.37161269631E+02  0.32351488184E+02 -0.93450473150E+02  0.10574809540E+03  0.47000000000E+01 0. -1.
        -11    1    4    4    0    0 -0.75156952358E+02 -0.79778600697E+02 -0.17187562654E+03  0.20384902162E+03  0.00000000000E+00 0.  1.
         12    1    4    4    0    0  0.20904048501E+02 -0.10480588301E+02 -0.30097092631E+02  0.38113737152E+02  0.00000000000E+00 0. -1.
         -5    1    5    5    0  502 -0.25109967563E+02 -0.39286684531E+02 -0.77677762999E+02  0.90718680089E+02  0.47000000000E+01 0.  1.
         11    1    6    6    0    0  0.61668016264E+02  0.65866408311E+02 -0.54451598753E+02  0.10538645350E+03  0.00000000000E+00 0. -1.
        -12    1    6    6    0    0 -0.19466414475E+02  0.31327977034E+02 -0.44665114589E+02  0.57925433955E+02  0.00000000000E+00 0.  1.
</event>
<event>
12    1  0.8798177E-003  0.1772949E+03  0.7818608E-02  0.1170478E+00
         21   -1    0    0  503  502  0.00000000000E+00  0.00000000000E+00  0.12176983201E+03  0.12176983201E+03  0.00000000000E+00 0. -1.
         21   -1    0    0  501  503 -0.00000000000E+00 -0.00000000000E+00 -0.26192894525E+03  0.26192894525E+03  0.00000000000E+00 0. -1.
          6    2    1    2  501    0 -0.40248326377E+02  0.13537706774E+00 -0.93733506414E+02  0.20054785187E+03  0.17266593342E+03 0.  0.
         24    2    3    3    0    0 -0.32213358125E+02  0.50814234578E+02 -0.10793337857E+03  0.14710036660E+03  0.79806746374E+02 0.  0.
         -6    2    1    2    0  502  0.40248326377E+02 -0.13537706774E+00 -0.46425606834E+02  0.18315092538E+03  0.17253688996E+03 0.  0.
        -24    2    5    5    0    0  0.48424498176E+02  0.24454849715E+02 -0.90245839093E+02  0.13202527826E+03  0.79645407451E+02 0.  0.
          5    1    3    3  501    0 -0.80349682518E+01 -0.50678857510E+02  0.14199872151E+02  0.53447485277E+02  0.47000000000E+01 0. -1.
        -13    1    4    4    0    0  0.24752819616E+02  0.22163001410E+02 -0.54863987606E+02  0.64140142239E+02  0.00000000000E+00 0.  1.
         14    1    4    4    0    0 -0.56966177742E+02  0.28651233168E+02 -0.53069390960E+02  0.82960224357E+02  0.00000000000E+00 0. -1.
         -5    1    5    5    0  502 -0.81761717991E+01 -0.24590226783E+02  0.43820232259E+02  0.51125647123E+02  0.47000000000E+01 0.  1.
         13    1    6    6    0    0  0.20143355645E+02 -0.25337311995E+02 -0.57700838435E+02  0.66159813421E+02  0.00000000000E+00 0. -1.
        -14    1    6    6    0    0  0.28281142532E+02  0.49792161711E+02 -0.32545000658E+02  0.65865464840E+02  0.00000000000E+00 0.  1.
</event>
<event>
12    1  0.8798177E-003  0.2488973E+03  0.7818608E-02  0.1114184E+00
         21   -1    0    0  501  502  0.00000000000E+00  0.00000000000E+00  0.15123661705E+03  0.15123661705E+03  0.00000000000E+00 0.  1.
         21   -1    0    0  502  503 -0.00000000000E+00 -0.00000000000E+00 -0.40835370342E+03  0.40835370342E+03  0.00000000000E+00 0.  1.
          6    2    1    2  501    0  0.15817749909E+03  0.85651905485E+02 -0.11823441565E+03  0.27555258254E+03  0.17202755178E+03 0.  0.
         24    2    3    3    0    0  0.18186155447E+03  0.47288139095E+02 -0.92443588405E+02  0.22339925263E+03  0.77792132913E+02 0.  0.
         -6    2    1    2    0  503 -0.15817749909E+03 -0.85651905485E+02 -0.13888267072E+03  0.28403773793E+03  0.17038975971E+03 0.  0.
        -24    2    5    5    0    0 -0.54737694923E+02 -0.11609494058E+02  0.52189751869E+00  0.95257984195E+02  0.77089659346E+02 0.  0.
          5    1    3    3  501    0 -0.23684055389E+02  0.38363766390E+02 -0.25790827245E+02  0.52153329915E+02  0.47000000000E+01 0. -1.
        -11    1    4    4    0    0  0.38172867539E+02  0.33898208269E+02  0.17262581230E+01  0.51080684286E+02  0.00000000000E+00 0.  1.
         12    1    4    4    0    0  0.14368868694E+03  0.13389930826E+02 -0.94169846528E+02  0.17231856834E+03  0.00000000000E+00 0. -1.
         -5    1    5    5    0  503 -0.10343980416E+03 -0.74042411426E+02 -0.13940456824E+03  0.18877975374E+03  0.47000000000E+01 0.  1.
         13    1    6    6    0    0 -0.29147411437E+02 -0.31636992503E+02 -0.28571922241E+02  0.51641317070E+02  0.00000000000E+00 0. -1.
        -14    1    6    6    0    0 -0.25590283486E+02  0.20027498445E+02  0.29093819760E+02  0.43616667125E+02  0.00000000000E+00 0.  1.
</event>
<event>
12    1  0.8798177E-003  0.1892137E+03  0.7818608E-02  0.1159328E+00
         21   -1    0    0  503  502  0.00000000000E+00  0.00000000000E+00  0.52672809092E+03  0.52672809092E+03  0.00000000000E+00 0.  1.
         21   -1    0    0  501  503 -0.00000000000E+00 -0.00000000000E+00 -0.69506805297E+02  0.69506805297E+02  0.00000000000E+00 0.  1.
          6    2    1    2  501    0 -0.73997118835E+02  0.19659913650E+02  0.18047657390E+03  0.26098950950E+03  0.17228361658E+03 0.  0.
         24    2    3    3    0    0  0.12080592645E+02 -0.21540540527E+02  0.12082795861E+03  0.14835338233E+03  0.82458443247E+02 0.  0.
         -6    2    1    2    0  502  0.73997118835E+02 -0.19659913650E+02  0.27674471173E+03  0.33524538672E+03  0.17303106093E+03 0.  0.
        -24    2    5    5    0    0  0.66808058360E+02 -0.79799860336E+02  0.19803550393E+03  0.23581840260E+03  0.74571601959E+02 0.  0.
          5    1    3    3  501    0 -0.86077711479E+02  0.41200454177E+02  0.59648615287E+02  0.11263612717E+03  0.47000000000E+01 0. -1.
        -13    1    4    4    0    0 -0.23426853779E+02  0.20184682259E+02  0.37170710419E+02  0.48351841629E+02  0.00000000000E+00 0.  1.
         14    1    4    4    0    0  0.35507446424E+02 -0.41725222785E+02  0.83657248191E+02  0.10000154070E+03  0.00000000000E+00 0. -1.
         -5    1    5    5    0  502  0.71890604742E+01  0.60139946686E+02  0.78709207801E+02  0.99426984117E+02  0.47000000000E+01 0.  1.
         13    1    6    6    0    0  0.29715982164E+02 -0.20854726487E+02  0.13764309225E+02  0.38825448114E+02  0.00000000000E+00 0. -1.
        -14    1    6    6    0    0  0.37092076196E+02 -0.58945133849E+02  0.18427119470E+03  0.19699295449E+03  0.00000000000E+00 0.  1.
</event>
<event>
12    1  0.8798177E-003  0.2843737E+03  0.7818608E-02  0.1093466E+00
         21   -1    0    0  501  502  0.00000000000E+00  0.00000000000E+00  0.16983716337E+03  0.16983716337E+03  0.00000000000E+00 0. -1.
         21   -1    0    0  502  503 -0.00000000000E+00 -0.00000000000E+00 -0.47553048271E+03  0.47553048271E+03  0.00000000000E+00 0.  1.
          6    2    1    2  501    0  0.11566843402E+03  0.19361952243E+03 -0.13669396812E+03  0.31456685311E+03  0.17146241005E+03 0.  0.
         24    2    3    3    0    0  0.14077020770E+02  0.70691327422E+02 -0.10749830541E+03  0.15237365629E+03  0.80414048386E+02 0.  0.
         -6    2    1    2    0  503 -0.11566843402E+03 -0.19361952243E+03 -0.16899935122E+03  0.33080079296E+03  0.17320703743E+03 0.  0.
        -24    2    5    5    0    0 -0.13329780620E+03 -0.15413771535E+03 -0.18274821786E+03  0.28518578240E+03  0.80045480337E+02 0.  0.
          5    1    3    3  501    0  0.10159141325E+03  0.12292819501E+03 -0.29195662708E+02  0.16219319682E+03  0.47000000000E+01 0. -1.
        -13    1    4    4    0    0  0.42622709851E+02  0.15324692804E+02 -0.51821106435E+02  0.68825639676E+02  0.00000000000E+00 0.  1.
         14    1    4    4    0    0 -0.28545689081E+02  0.55366634619E+02 -0.55677198978E+02  0.83548016614E+02  0.00000000000E+00 0. -1.
         -5    1    5    5    0  503  0.17629372185E+02 -0.39481807085E+02  0.13748866642E+02  0.45615010559E+02  0.47000000000E+01 0.  1.
         13    1    6    6    0    0 -0.11608344829E+02  0.35723760668E+01 -0.35358686915E+02  0.37386525391E+02  0.00000000000E+00 0. -1.
        -14    1    6    6    0    0 -0.12168946137E+03 -0.15771009142E+03 -0.14738953095E+03  0.24779925701E+03  0.00000000000E+00 0.  1.
</event>
<event>
12    1  0.8798177E-003  0.2077999E+03  0.7818608E-02  0.1143579E+00
         21   -1    0    0  503  502  0.00000000000E+00  0.00000000000E+00  0.10095202154E+03  0.10095202154E+03  0.00000000000E+00 0. -1.
         21   -1    0    0  501  503 -0.00000000000E+00 -0.00000000000E+00 -0.43574772955E+03  0.43574772955E+03  0.00000000000E+00 0. -1.
          6    2    1    2  501    0 -0.85900131960E+02  0.77984045843E+02 -0.12493565147E+03  0.24136593848E+03  0.17084570576E+03 0.  0.
         24    2    3    3    0    0 -0.99829111277E+02  0.94366955307E+02 -0.14256009656E+03  0.21316793763E+03  0.79032998114E+02 0.  0.
         -6    2    1    2    0  502  0.85900131960E+02 -0.77984045843E+02 -0.20986005654E+03  0.29533381261E+03  0.17239626870E+03 0.  0.
        -24    2    5    5    0    0  0.95065140535E+02 -0.84172970937E+02 -0.22827451463E+03  0.27334557842E+03  0.80536210679E+02 0.  0.
          5    1    3    3  501    0  0.13928979316E+02 -0.16382909464E+02  0.17624445093E+02  0.28198000853E+02  0.47000000000E+01 0. -1.
        -11    1    4    4    0    0 -0.50941354007E+02  0.74648649471E+00 -0.31461085774E+02  0.59878031934E+02  0.00000000000E+00 0.  1.
         12    1    4    4    0    0 -0.48887757270E+02  0.93620468812E+02 -0.11109901079E+03  0.15328990570E+03  0.00000000000E+00 0. -1.
         -5    1    5    5    0  502 -0.91650085749E+01  0.61889250940E+01  0.18414458088E+02  0.21988234187E+02  0.47000000000E+01 0.  1.
         13    1    6    6    0    0  0.37192760746E+02 -0.44891252040E+02 -0.35454897378E+02  0.68231779324E+02  0.00000000000E+00 0. -1.
        -14    1    6    6    0    0  0.57872379789E+02 -0.39281718897E+02 -0.19281961725E+03  0.20511379910E+03  0.00000000000E+00 0.  1.
</event>
<event>
12    1  0.8798177E-003  0.2082035E+03  0.7818608E-02  0.1143110E+00
         21   -1    0    0  503  502  0.00000000000E+00  0.00000000000E+00  0.56343513677E+03  0.56343513677E+03  0.00000000000E+00 0.  1.
         21   -1    0    0  501  503 -0.00000000000E+00 -0.00000000000E+00 -0.76741948330E+02  0.76741948330E+02  0.00000000000E+00 0.  1.
          6    2    1    2  501    0  0.17181920500E+02 -0.11658092420E+03  0.23921731881E+03  0.31713341455E+03  0.17164599245E+03 0.  0.
         24    2    3    3    0    0  0.65859420722E+02 -0.10382106317E+03  0.12671245115E+03  0.19379749793E+03  0.79907124034E+02 0.  0.
         -6    2    1    2    0  502 -0.17181920500E+02  0.11658092420E+03  0.24747586963E+03  0.32304367055E+03  0.17095782156E+03 0.  0.
        -24    2    5    5    0    0 -0.89630894870E+01  0.12759376019E+03  0.11324148725E+03  0.18802592670E+03  0.78546865422E+02 0.  0.
          5    1    3    3  501    0 -0.48677500222E+02 -0.12759861037E+02  0.11250486766E+03  0.12333591662E+03  0.47000000000E+01 0. -1.
        -13    1    4    4    0    0  0.30723025117E+02 -0.69976568513E+02  0.12308020946E+03  0.14487705952E+03  0.00000000000E+00 0.  1.
         14    1    4    4    0    0  0.35136395605E+02 -0.33844494654E+02  0.36322416883E+01  0.48920438410E+02  0.00000000000E+00 0. -1.
         -5    1    5    5    0  502 -0.82188310133E+01 -0.11012835983E+02  0.13423438238E+03  0.13501774385E+03  0.47000000000E+01 0.  1.
         13    1    6    6    0    0  0.24811464430E+02  0.85371380726E+01  0.17168659131E+02  0.31356886803E+02  0.00000000000E+00 0. -1.
        -14    1    6    6    0    0 -0.33774553917E+02  0.11905662211E+03  0.96072828114E+02  0.15666903990E+03  0.00000000000E+00 0.  1.
</event>
<event>
12    1  0.8798177E-003  0.1923679E+03  0.7818608E-02  0.1156861E+00
         21   -1    0    0  501  502  0.00000000000E+00  0.00000000000E+00  0.29305424635E+03  0.29305424635E+03  0.00000000000E+00 0.  1.
         21   -1    0    0  502  503 -0.00000000000E+00 -0.00000000000E+00 -0.12919658025E+03  0.12919658025E+03  0.00000000000E+00 0.  1.
          6    2    1    2  501    0  0.43344725860E+02  0.70913695167E+02  0.43267200197E+02  0.19717363560E+03  0.17348739015E+03 0.  0.
         24    2    3    3    0    0 -0.91365086397E+01  0.88089961216E+02 -0.10923048530E+02  0.11966249352E+03  0.79727550498E+02 0.  0.
         -6    2    1    2    0  503 -0.43344725860E+02 -0.70913695167E+02  0.12059046590E+03  0.22507719100E+03  0.17090981253E+03 0.  0.
        -24    2    5    5    0    0 -0.45195689391E+02 -0.55189027861E+02  0.15286896756E+03  0.18881863480E+03  0.84823796610E+02 0.  0.
          5    1    3    3  501    0  0.52481234500E+02 -0.17176266049E+02  0.54190248727E+02  0.77511142084E+02  0.47000000000E+01 0. -1.
        -11    1    4    4    0    0 -0.33042643810E+02  0.87451258740E+02 -0.27871071194E+00  0.93485916826E+02  0.00000000000E+00 0.  1.
         12    1    4    4    0    0  0.23906135171E+02  0.63870247560E+00 -0.10644337818E+02  0.26176576691E+02  0.00000000000E+00 0. -1.
         -5    1    5    5    0  503  0.18509635306E+01 -0.15724667307E+02 -0.32278501658E+02  0.36258556193E+02  0.47000000000E+01 0.  1.
         11    1    6    6    0    0 -0.85403993403E+01 -0.63100921302E+02  0.13036445348E+03  0.14508464916E+03  0.00000000000E+00 0. -1.
        -12    1    6    6    0    0 -0.36655290051E+02  0.79118934409E+01  0.22504514074E+02  0.43733985643E+02  0.00000000000E+00 0.  1.
</event>
<event>
12    1  0.8798177E-003  0.2313654E+03  0.7818608E-02  0.1125693E+00
         21   -1    0    0  501  502  0.00000000000E+00  0.00000000000E+00  0.98579401930E+02  0.98579401930E+02  0.00000000000E+00 0.  1.
         21   -1    0    0  502  503 -0.00000000000E+00 -0.00000000000E+00 -0.68318011469E+03  0.68318011469E+03  0.00000000000E+00 0.  1.
          6    2    1    2  501    0  0.13128142172E+03  0.81582780137E+02 -0.46946863495E+03  0.52338394538E+03  0.17216095196E+03 0.  0.
         24    2    3    3    0    0  0.25175005735E+02 -0.13776268773E+02 -0.14843572800E+03  0.17204915196E+03  0.82122949592E+02 0.  0.
         -6    2    1    2    0  503 -0.13128142172E+03 -0.81582780137E+02 -0.11513207781E+03  0.25837557124E+03  0.17208131440E+03 0.  0.
        -24    2    5    5    0    0 -0.18656714793E+02  0.95825832101E+01 -0.61972060900E+02  0.10396208257E+03  0.80794055301E+02 0.  0.
          5    1    3    3  501    0  0.10610641599E+03  0.95359048909E+02 -0.32103290694E+03  0.35133479342E+03  0.47000000000E+01 0. -1.
        -11    1    4    4    0    0  0.49576134116E+02 -0.18545584959E+02 -0.13207330903E+03  0.14228524433E+03  0.00000000000E+00 0.  1.
         12    1    4    4    0    0 -0.24401128382E+02  0.47693161866E+01 -0.16362418969E+02  0.29763907635E+02  0.00000000000E+00 0. -1.
         -5    1    5    5    0  503 -0.11262470693E+03 -0.91165363347E+02 -0.53160016913E+02  0.15441348867E+03  0.47000000000E+01 0.  1.
         11    1    6    6    0    0 -0.48222319214E+02  0.47490608758E+01 -0.54813555997E+02  0.73160587550E+02  0.00000000000E+00 0. -1.
        -12    1    6    6    0    0  0.29565604421E+02  0.48335223343E+01 -0.71585049029E+01  0.30801495019E+02  0.00000000000E+00 0.  1.
</event>
<event>
12    1  0.8798177E-003  0.1839253E+03  0.7818608E-02  0.1165130E+00
         21   -1    0    0  503  502  0.00000000000E+00  0.00000000000E+00  0.29756447242E+03  0.29756447242E+03  0.00000000000E+00 0.  1.
         21   -1    0    0  501  503 -0.00000000000E+00 -0.00000000000E+00 -0.12157749562E+03  0.12157749562E+03  0.00000000000E+00 0.  1.
          6    2    1    2  501    0  0.16379896630E+02 -0.62482778097E+02  0.15103439176E+03  0.23799142931E+03  0.17220956523E+03 0.  0.
         24    2    3    3    0    0  0.46458887401E+02  0.20554907553E+02  0.75572382028E+02  0.12173048214E+03  0.80784855713E+02 0.  0.
         -6    2    1    2    0  502 -0.16379896630E+02  0.62482778097E+02  0.24952585034E+02  0.18115053874E+03  0.16739321256E+03 0.  0.
        -24    2    5    5    0    0  0.43888532939E+02  0.48793317342E+01  0.34761704764E+02  0.97074683313E+02  0.79152427762E+02 0.  0.
          5    1    3    3  501    0 -0.30078990770E+02 -0.83037685650E+02  0.75462009737E+02  0.11626094717E+03  0.47000000000E+01 0. -1.
        -11    1    4    4    0    0 -0.15297208928E+02 -0.15834924660E+02  0.28342494446E+02  0.35889363764E+02  0.00000000000E+00 0.  1.
         12    1    4    4    0    0  0.61756096329E+02  0.36389832213E+02  0.47229887581E+02  0.85841118371E+02  0.00000000000E+00 0. -1.
         -5    1    5    5    0  502 -0.60268429569E+02  0.57603446363E+02 -0.98091197299E+01  0.84075855425E+02  0.47000000000E+01 0.  1.
         11    1    6    6    0    0  0.56552660845E+02  0.17804438653E+00 -0.33376881712E+01  0.56651348711E+02  0.00000000000E+00 0. -1.
        -12    1    6    6    0    0 -0.12664127906E+02  0.47012873477E+01  0.38099392935E+02  0.40423334602E+02  0.00000000000E+00 0.  1.
</event>
<event>
12    1  0.8798177E-003  0.1826733E+03  0.7818608E-02  0.1165585E+00
         21   -1    0    0  503  502  0.00000000000E+00  0.00000000000E+00  0.18081419498E+02  0.18081419498E+02  0.00000000000E+00 0.  1.
         21   -1    0    0  501  503 -0.00000000000E+00 -0.00000000000E+00 -0.18445392477E+04  0.18445392477E+04  0.00000000000E+00 0.  1.
          6    2    1    2  501    0  0.17388864401E+02 -0.56708226205E+02 -0.82966471088E+03  0.84922732956E+03  0.17124639931E+03 0.  0.
         24    2    3    3    0    0 -0.52055456966E+02 -0.42500844189E+02 -0.38124753360E+03  0.39521805835E+03  0.79570970902E+02 0.  0.
         -6    2    1    2    0  502 -0.17388864401E+02  0.56708226205E+02 -0.99679311730E+03  0.10133933376E+04  0.17277541055E+03 0.  0.
        -24    2    5    5    0    0 -0.36134939947E+02  0.92121870619E+02 -0.54763395893E+03  0.56242595397E+03  0.81411472131E+02 0.  0.
          5    1    3    3  501    0  0.69444321367E+02 -0.14207382016E+02 -0.44841717727E+03  0.45400927121E+03  0.47000000000E+01 0. -1.
        -11    1    4    4    0    0 -0.23648307023E+02  0.17396625375E+02 -0.55427014848E+02  0.62721917815E+02  0.00000000000E+00 0.  1.
         12    1    4    4    0    0 -0.28407149943E+02 -0.59897469564E+02 -0.32582051876E+03  0.33249614053E+03  0.00000000000E+00 0. -1.
         -5    1    5    5    0  502  0.18746075546E+02 -0.35413644414E+02 -0.44915915838E+03  0.45096738365E+03  0.47000000000E+01 0.  1.
         11    1    6    6    0    0  0.23191128455E+02  0.72458927767E+01 -0.89995073761E+02  0.93217191024E+02  0.00000000000E+00 0. -1.
        -12    1    6    6    0    0 -0.59326068402E+02  0.84875977842E+02 -0.45763888517E+03  0.46920876294E+03  0.00000000000E+00 0.  1.
</event>
<event>
12    1  0.8798177E-003  0.1870375E+03  0.7818608E-02  0.1162045E+00
         21   -1    0    0  501  502  0.00000000000E+00  0.00000000000E+00  0.65591923928E+03  0.65591923928E+03  0.00000000000E+00 0.  1.
         21   -1    0    0  502  503 -0.00000000000E+00 -0.00000000000E+00 -0.53421933571E+02  0.53421933571E+02  0.00000000000E+00 0.  1.
          6    2    1    2  501    0  0.69511242258E+02  0.39954783270E+01  0.35664573850E+03  0.40271480943E+03  0.17359509871E+03 0.  0.
         24    2    3    3    0    0 -0.29179758174E+02 -0.13558457975E+02  0.15368861221E+03  0.17630425456E+03  0.80173004069E+02 0.  0.
         -6    2    1    2    0  503 -0.69511242258E+02 -0.39954783270E+01  0.24585156721E+03  0.30662636342E+03  0.16949618580E+03 0.  0.
        -24    2    5    5    0    0  0.59441625339E+01  0.28430619703E+02  0.18767092327E+03  0.20586899508E+03  0.79486064756E+02 0.  0.
          5    1    3    3  501    0  0.98691000432E+02  0.17553936302E+02  0.20295712629E+03  0.22641055487E+03  0.47000000000E+01 0. -1.
        -11    1    4    4    0    0  0.25325469099E+02  0.76066892447E+01  0.63906896412E+02  0.69161640490E+02  0.00000000000E+00 0.  1.
         12    1    4    4    0    0 -0.54505227273E+02 -0.21165147220E+02  0.89781715803E+02  0.10714261407E+03  0.00000000000E+00 0. -1.
         -5    1    5    5    0  503 -0.75455404792E+02 -0.32426098030E+02  0.58180643941E+02  0.10075736834E+03  0.47000000000E+01 0.  1.
         11    1    6    6    0    0 -0.18066085521E+02 -0.22063111413E+02  0.70204975778E+02  0.75775345300E+02  0.00000000000E+00 0. -1.
        -12    1    6    6    0    0  0.24010248055E+02  0.50493731116E+02  0.11746594749E+03  0.13009364978E+03  0.00000000000E+00 0.  1.
</event>
<event>
12    1  0.8798177E-003  0.2197037E+03  0.7818608E-02  0.1134130E+00
         21   -1    0    0  503  502  0.00000000000E+00  0.00000000000E+00  0.41469264973E+03  0.41469264973E+03  0.00000000000E+00 0.  1.
         21   -1    0    0  501  503 -0.00000000000E+00 -0.00000000000E+00 -0.12187384212E+03  0.12187384212E+03  0.00000000000E+00 0. -1.
          6    2    1    2  501    0  0.22601499445E+02 -0.13429147624E+03  0.20361263796E+03  0.29944317018E+03  0.17222972294E+03 0.  0.
         24    2    3    3    0    0  0.81585772506E+02 -0.66977971146E+02  0.11904491881E+03  0.17621962714E+03  0.75758678725E+02 0.  0.
         -6    2    1    2    0  502 -0.22601499445E+02  0.13429147624E+03  0.89206169647E+02  0.23712332167E+03  0.17240852824E+03 0.  0.
        -24    2    5    5    0    0 -0.12329770879E+02 -0.54351915644E+01  0.41254787250E+02  0.88966394138E+02  0.77662714719E+02 0.  0.
          5    1    3    3  501    0 -0.58984273060E+02 -0.67313505094E+02  0.84567719148E+02  0.12322354304E+03  0.47000000000E+01 0. -1.
        -11    1    4    4    0    0  0.51212642472E+02 -0.81227248108E+02  0.93779489839E+02  0.13422068879E+03  0.00000000000E+00 0.  1.
         12    1    4    4    0    0  0.30373130034E+02  0.14249276962E+02  0.25265428972E+02  0.41998938357E+02  0.00000000000E+00 0. -1.
         -5    1    5    5    0  502 -0.10271728566E+02  0.13972666780E+03  0.47951382397E+02  0.14815692754E+03  0.47000000000E+01 0.  1.
         13    1    6    6    0    0 -0.28911732925E+01 -0.13692184011E+02 -0.21124364354E+02  0.25339170377E+02  0.00000000000E+00 0. -1.
        -14    1    6    6    0    0 -0.94385975868E+01  0.82569924468E+01  0.62379151604E+02  0.63627223761E+02  0.00000000000E+00 0.  1.
</event>
<event>
12    1  0.8798177E-003  0.2028548E+03  0.7818608E-02  0.1147644E+00
         21   -1    0    0  503  502  0.00000000000E+00  0.00000000000E+00  0.13925952610E+03  0.13925952610E+03  0.00000000000E+00 0.  1.
         21   -1    0    0  501  503 -0.00000000000E+00 -0.00000000000E+00 -0.41590677237E+03  0.41590677237E+03  0.00000000000E+00 0.  1.
          6    2    1    2  501    0 -0.93948681781E+02  0.43717836391E+02 -0.28860501806E+03  0.35195939798E+03  0.17275693139E+03 0.  0.
         24    2    3    3    0    0 -0.49431895937E+02 -0.41611789099E+02 -0.15095858432E+03  0.18393701872E+03  0.82881115749E+02 0.  0.
         -6    2    1    2    0  502  0.93948681781E+02 -0.43717836391E+02  0.11957771789E+02  0.20320690050E+03  0.17439166286E+03 0.  0.
        -24    2    5    5    0    0  0.96321746295E+02 -0.48688480267E+02  0.65334619582E+02  0.14934117284E+03  0.79910740635E+02 0.  0.
          5    1    3    3  501    0 -0.44516785844E+02  0.85329625491E+02 -0.13764643375E+03  0.16802237926E+03  0.47000000000E+01 0. -1.
        -11    1    4    4    0    0 -0.60574428102E+02 -0.16240447974E+02 -0.14129934939E+03  0.15459146040E+03  0.00000000000E+00 0.  1.
         12    1    4    4    0    0  0.11142532165E+02 -0.25371341125E+02 -0.96592349236E+01  0.29345558315E+02  0.00000000000E+00 0. -1.
         -5    1    5    5    0  502 -0.23730645136E+01  0.49706438757E+01 -0.53376847793E+02  0.53865727658E+02  0.47000000000E+01 0.  1.
         13    1    6    6    0    0  0.28880043523E+02 -0.27488498943E+02 -0.14755064566E+02  0.42513367526E+02  0.00000000000E+00 0. -1.
        -14    1    6    6    0    0  0.67441702772E+02 -0.21199981324E+02  0.80089684148E+02  0.10682780531E+03  0.00000000000E+00 0.  1.
</event>
<event>
12    1  0.8798177E-003  0.2698651E+03  0.7818608E-02  0.1101457E+00
         21   -1    0    0  501  502  0.00000000000E+00  0.00000000000E+00  0.43491791527E+03  0.43491791527E+03  0.00000000000E+00 0.  1.
         21   -1    0    0  502  503 -0.00000000000E+00 -0.00000000000E+00 -0.16901687360E+03  0.16901687360E+03  0.00000000000E+00 0. -1.
          6    2    1    2  501    0  0.11220650311E+03  0.17572418040E+03  0.99945124005E+02  0.28712480757E+03  0.17024200537E+03 0.  0.
         24    2    3    3    0    0 -0.27831964596E+01  0.57825248958E+02  0.56023421718E+02  0.11661382559E+03  0.84312839701E+02 0.  0.
         -6    2    1    2    0  503 -0.11220650311E+03 -0.17572418040E+03  0.16595591767E+03  0.31680998130E+03  0.17134150321E+03 0.  0.
        -24    2    5    5    0    0 -0.63737384526E+02 -0.72120575196E+02  0.15876809511E+03  0.20210724697E+03  0.79851109569E+02 0.  0.
          5    1    3    3  501    0  0.11498969957E+03  0.11789893145E+03  0.43921702287E+02  0.17051098198E+03  0.47000000000E+01 0. -1.
        -13    1    4    4    0    0  0.24268784981E+02 -0.61577698882E+01  0.36846997393E+02  0.44548774072E+02  0.00000000000E+00 0.  1.
         14    1    4    4    0    0 -0.27051981440E+02  0.63983018847E+02  0.19176424325E+02  0.72065051519E+02  0.00000000000E+00 0. -1.
         -5    1    5    5    0  503 -0.48469118588E+02 -0.10360360521E+03  0.71878225539E+01  0.11470273433E+03  0.47000000000E+01 0.  1.
         13    1    6    6    0    0  0.31661256866E+01 -0.56198992799E+02  0.71341865914E+02  0.90873609897E+02  0.00000000000E+00 0. -1.
        -14    1    6    6    0    0 -0.66903510213E+02 -0.15921582397E+02  0.87426229197E+02  0.11123363707E+03  0.00000000000E+00 0.  1.
</event>
<event>
12    1  0.8798177E-003  0.2268771E+03  0.7818608E-02  0.1128934E+00
         21   -1    0    0  503  502  0.00000000000E+00  0.00000000000E+00  0.62710720424E+02  0.62710720424E+02  0.00000000000E+00 0. -1.
         21   -1    0    0  501  503 -0.00000000000E+00 -0.00000000000E+00 -0.96239156706E+03  0.96239156706E+03  0.00000000000E+00 0. -1.
          6    2    1    2  501    0  0.11248391477E+03 -0.94061950064E+02 -0.64715003365E+03  0.68562467270E+03  0.17256229088E+03 0.  0.
         24    2    3    3    0    0  0.14619241787E+03 -0.92175714854E+02 -0.56622341875E+03  0.59781221309E+03  0.83077654774E+02 0.  0.
         -6    2    1    2    0  502 -0.11248391477E+03  0.94061950064E+02 -0.25253081299E+03  0.33947761479E+03  0.17312699934E+03 0.  0.
        -24    2    5    5    0    0 -0.14039043398E+03  0.90582721251E+02 -0.25402137525E+03  0.31092607151E+03  0.65065040693E+02 0.  0.
          5    1    3    3  501    0 -0.33708503100E+02 -0.18862352102E+01 -0.80926614894E+02  0.87812459610E+02  0.47000000000E+01 0. -1.
        -13    1    4    4    0    0  0.15370043968E+02 -0.23149931445E+02 -0.21391668863E+03  0.21571394774E+03  0.00000000000E+00 0.  1.
         14    1    4    4    0    0  0.13082237391E+03 -0.69025783409E+02 -0.35230673012E+03  0.38209826535E+03  0.00000000000E+00 0. -1.
         -5    1    5    5    0  502  0.27906519208E+02  0.34792288130E+01  0.14905622589E+01  0.28551543273E+02  0.47000000000E+01 0.  1.
         13    1    6    6    0    0 -0.10470201787E+03  0.94711529395E+02 -0.18105502821E+03  0.22959466367E+03  0.00000000000E+00 0. -1.
        -14    1    6    6    0    0 -0.35688416115E+02 -0.41288081441E+01 -0.72966347039E+02  0.81331407843E+02  0.00000000000E+00 0.  1.
</event>
<event>
12    1  0.8798177E-003  0.1992509E+03  0.7818608E-02  0.1150609E+00
         21   -1    0    0  501  502  0.00000000000E+00  0.00000000000E+00  0.41011123550E+03  0.41011123550E+03  0.00000000000E+00 0.  1.
         21   -1    0    0  502  503 -0.00000000000E+00 -0.00000000000E+00 -0.99021288387E+02  0.99021288387E+02  0.00000000000E+00 0.  1.
          6    2    1    2  501    0 -0.79948213672E+02  0.58996424027E+02  0.11350334127E+03  0.22931189000E+03  0.17270969718E+03 0.  0.
         24    2    3    3    0    0 -0.33648194435E+02 -0.33912437919E+02  0.45312296479E+02  0.10502248177E+03  0.81818476094E+02 0.  0.
         -6    2    1    2    0  503  0.79948213672E+02 -0.58996424027E+02  0.19758660585E+03  0.27982063389E+03  0.17142585984E+03 0.  0.
        -24    2    5    5    0    0  0.96875926741E+02  0.75975978930E+01  0.10357120420E+03  0.16327752181E+03  0.80559829408E+02 0.  0.
          5    1    3    3  501    0 -0.46300019237E+02  0.92908861946E+02  0.68191044788E+02  0.12428940823E+03  0.47000000000E+01 0. -1.
        -13    1    4    4    0    0 -0.47435068179E+02 -0.12778805029E+02  0.58629724459E+02  0.76490706241E+02  0.00000000000E+00 0.  1.
         14    1    4    4    0    0  0.13786873743E+02 -0.21133632890E+02 -0.13317427981E+02  0.28531775528E+02  0.00000000000E+00 0. -1.
         -5    1    5    5    0  503 -0.16927713069E+02 -0.66594021920E+02  0.94015401652E+02  0.11654311208E+03  0.47000000000E+01 0.  1.
         11    1    6    6    0    0  0.13131377465E+02  0.27407732456E+02  0.24415593125E+01  0.30488983001E+02  0.00000000000E+00 0. -1.
        -12    1    6    6    0    0  0.83744549276E+02 -0.19810134563E+02  0.10112964489E+03  0.13278853881E+03  0.00000000000E+00 0.  1.
</event>
<event>
12    1  0.8798177E-003  0.2000858E+03  0.7818608E-02  0.1150196E+00
         21   -1    0    0  501  502  0.00000000000E+00  0.00000000000E+00  0.44762668792E+03  0.44762668792E+03  0.00000000000E+00 0. -1.
         21   -1    0    0  502  503 -0.00000000000E+00 -0.00000000000E+00 -0.88708553726E+02  0.88708553726E+02  0.00000000000E+00 0.  1.
          6    2    1    2  501    0  0.97330149111E+02 -0.18029587098E+02  0.16293833351E+03  0.25803728021E+03  0.17388534590E+03 0.  0.
         24    2    3    3    0    0  0.12845560023E+03 -0.30197080729E+02  0.15930896413E+03  0.22409462371E+03  0.86176269416E+02 0.  0.
         -6    2    1    2    0  503 -0.97330149111E+02  0.18029587098E+02  0.19597980068E+03  0.27829796143E+03  0.17100716102E+03 0.  0.
        -24    2    5    5    0    0 -0.65155581265E+02 -0.29976055134E+02  0.19717077271E+03  0.22030440216E+03  0.67185581388E+02 0.  0.
          5    1    3    3  501    0 -0.31125451117E+02  0.12167493631E+02  0.36293693795E+01  0.33942656505E+02  0.47000000000E+01 0. -1.
        -11    1    4    4    0    0  0.85372382896E+02 -0.18823351534E+02  0.38865463085E+02  0.95672809853E+02  0.00000000000E+00 0.  1.
         12    1    4    4    0    0  0.43083217332E+02 -0.11373729195E+02  0.12044350104E+03  0.12842181386E+03  0.00000000000E+00 0. -1.
         -5    1    5    5    0  503 -0.32174567846E+02  0.48005642233E+02 -0.11909720300E+01  0.57993559268E+02  0.47000000000E+01 0.  1.
         11    1    6    6    0    0 -0.70568245055E+02 -0.12732470439E+02  0.18527519873E+03  0.19866779376E+03  0.00000000000E+00 0. -1.
        -12    1    6    6    0    0  0.54126637904E+01 -0.17243584695E+02  0.11895573980E+02  0.21636608393E+02  0.00000000000E+00 0.  1.
</event>
<event>
12    1  0.8798177E-003  0.1853138E+03  0.7818608E-02  0.1162998E+00
         21   -1    0    0  501  502  0.00000000000E+00  0.00000000000E+00  0.24403185579E+04  0.24403185579E+04  0.00000000000E+00 0.  1.
         21   -1    0    0  502  503 -0.00000000000E+00 -0.00000000000E+00 -0.14018803160E+02  0.14018803160E+02  0.00000000000E+00 0. -1.
          6    2    1    2  501    0 -0.39939047454E+02 -0.53501636120E+02  0.11652037151E+04  0.11798478266E+04  0.17286886210E+03 0.  0.
         24    2    3    3    0    0 -0.64389337397E+02 -0.45215646841E+02  0.11310027339E+04  0.11367401542E+04  0.82586637191E+02 0.  0.
         -6    2    1    2    0  503  0.39939047454E+02  0.53501636120E+02  0.12610960396E+04  0.12744895345E+04  0.17176379095E+03 0.  0.
        -24    2    5    5    0    0  0.32914420173E+02  0.10086448600E+03  0.80987082080E+03  0.82070668663E+03  0.80073188478E+02 0.  0.
          5    1    3    3  501    0  0.24450289944E+02 -0.82859892790E+01  0.34200981247E+02  0.43107672344E+02  0.47000000000E+01 0. -1.
        -11    1    4    4    0    0 -0.34489297061E+02 -0.66522732858E+02  0.64125436797E+03  0.64561749515E+03  0.00000000000E+00 0.  1.
         12    1    4    4    0    0 -0.29900040336E+02  0.21307086017E+02  0.48974836592E+03  0.49112265907E+03  0.00000000000E+00 0. -1.
         -5    1    5    5    0  503  0.70246272806E+01 -0.47362849877E+02  0.45122521883E+03  0.45378284789E+03  0.47000000000E+01 0.  1.
         13    1    6    6    0    0  0.46530328746E+02  0.26268031761E+02  0.43287671467E+03  0.43616204683E+03  0.00000000000E+00 0. -1.
        -14    1    6    6    0    0 -0.13615908573E+02  0.74596454236E+02  0.37699410612E+03  0.38454463981E+03  0.00000000000E+00 0.  1.
</event>
<event>
12    1  0.8798177E-003  0.1974769E+03  0.7818608E-02  0.1152685E+00
         21   -1    0    0  503  502  0.00000000000E+00  0.00000000000E+00  0.11056252960E+03  0.11056252960E+03  0.00000000000E+00 0.  1.
         21   -1    0    0  501  503 -0.00000000000E+00 -0.00000000000E+00 -0.36594146645E+03  0.36594146645E+03  0.00000000000E+00 0.  1.
          6    2    1    2  501    0  0.35303364737E+02 -0.82552309226E+02 -0.18195274441E+03  0.26581810943E+03  0.17173018017E+03 0.  0.
         24    2    3    3    0    0  0.49794989147E+02 -0.46694120222E+02 -0.19801498348E+03  0.22367665216E+03  0.78494771989E+02 0.  0.
         -6    2    1    2    0  502 -0.35303364737E+02  0.82552309226E+02 -0.73426192444E+02  0.21068588662E+03  0.17588611589E+03 0.  0.
        -24    2    5    5    0    0  0.38548586512E+02  0.32798118708E+00 -0.22834382357E+02  0.89044725526E+02  0.76950978114E+02 0.  0.
          5    1    3    3  501    0 -0.14491624410E+02 -0.35858189004E+02  0.16062239073E+02  0.42141457268E+02  0.47000000000E+01 0. -1.
        -11    1    4    4    0    0 -0.12398362537E+02 -0.77504999782E+01 -0.10091043983E+03  0.10196424133E+03  0.00000000000E+00 0.  1.
         12    1    4    4    0    0  0.62193351684E+02 -0.38943620244E+02 -0.97104543652E+02  0.12171241083E+03  0.00000000000E+00 0. -1.
         -5    1    5    5    0  502 -0.73851951249E+02  0.82224328039E+02 -0.50591810086E+02  0.12164116109E+03  0.47000000000E+01 0.  1.
         11    1    6    6    0    0  0.18988973782E+02 -0.28098460764E+02 -0.38364824629E+02  0.51205120754E+02  0.00000000000E+00 0. -1.
        -12    1    6    6    0    0  0.19559612730E+02  0.28426441951E+02  0.15530442272E+02  0.37839604772E+02  0.00000000000E+00 0.  1.
</event>
<event>
12    1  0.8798177E-003  0.2501385E+03  0.7818608E-02  0.1113398E+00
         21   -1    0    0  503  502  0.00000000000E+00  0.00000000000E+00  0.11093388071E+04  0.11093388071E+04  0.00000000000E+00 0.  1.
         21   -1    0    0  501  503 -0.00000000000E+00 -0.00000000000E+00 -0.94267029167E+02  0.94267029167E+02  0.00000000000E+00 0. -1.
          6    2    1    2  501    0 -0.49165656914E+02  0.17199970725E+03  0.12552636971E+03  0.27986804667E+03  0.17483733281E+03 0.  0.
         24    2    3    3    0    0 -0.57968325358E+02  0.15715218832E+03  0.15684540629E+03  0.24379994661E+03  0.82345585525E+02 0.  0.
         -6    2    1    2    0  502  0.49165656914E+02 -0.17199970725E+03  0.88954540825E+03  0.92373778962E+03  0.17320308752E+03 0.  0.
        -24    2    5    5    0    0  0.71352226023E+02 -0.17208506353E+03  0.87174542564E+03  0.89490758817E+03  0.78835873854E+02 0.  0.
          5    1    3    3  501    0  0.88026684439E+01  0.14847518928E+02 -0.31319036577E+02  0.36068100063E+02  0.47000000000E+01 0. -1.
        -13    1    4    4    0    0 -0.96227618054E+00 -0.98325745123E+01  0.11790536884E+02  0.15382530903E+02  0.00000000000E+00 0.  1.
         14    1    4    4    0    0 -0.57006049177E+02  0.16698476283E+03  0.14505486940E+03  0.22841741570E+03  0.00000000000E+00 0. -1.
         -5    1    5    5    0  502 -0.22186569109E+02  0.85356281997E-01  0.17799982616E+02  0.28830201450E+02  0.47000000000E+01 0.  1.
         13    1    6    6    0    0 -0.70052915865E+01 -0.67202631311E+01  0.99591155038E+01  0.13907552926E+02  0.00000000000E+00 0. -1.
        -14    1    6    6    0    0  0.78357517610E+02 -0.16536480040E+03  0.86178631013E+03  0.88100003525E+03  0.00000000000E+00 0.  1.
</event>
<event>
12    1  0.8798177E-003  0.2514918E+03  0.7818608E-02  0.1113177E+00
         21   -1    0    0  501  502  0.00000000000E+00  0.00000000000E+00  0.73437183640E+03  0.73437183640E+03  0.00000000000E+00 0.  1.
         21   -1    0    0  502  503 -0.00000000000E+00 -0.00000000000E+00 -0.84561978904E+02  0.84561978904E+02  0.00000000000E+00 0. -1.
          6    2    1    2  501    0 -0.11678655685E+03  0.13816359987E+03  0.34048405698E+03  0.42027284642E+03  0.16724709919E+03 0.  0.
         24    2    3    3    0    0 -0.12769500388E+03  0.15401396026E+03  0.33741633493E+03  0.40022966654E+03  0.79420960263E+02 0.  0.
         -6    2    1    2    0  503  0.11678655685E+03 -0.13816359987E+03  0.30932580051E+03  0.39866096889E+03  0.17469927607E+03 0.  0.
        -24    2    5    5    0    0  0.78156815227E+02 -0.16514113255E+03  0.21341953089E+03  0.29170234717E+03  0.78500202220E+02 0.  0.
          5    1    3    3  501    0  0.10908447028E+02 -0.15850360392E+02  0.30677220511E+01  0.20043179880E+02  0.47000000000E+01 0. -1.
        -11    1    4    4    0    0 -0.11844018320E+03  0.96510915424E+02  0.20589189571E+03  0.25638624478E+03  0.00000000000E+00 0.  1.
         12    1    4    4    0    0 -0.92548206765E+01  0.57503044835E+02  0.13152443922E+03  0.14384342176E+03  0.00000000000E+00 0. -1.
         -5    1    5    5    0  503  0.38629741624E+02  0.26977532686E+02  0.95906269620E+02  0.10695862172E+03  0.47000000000E+01 0.  1.
         11    1    6    6    0    0  0.30640292174E+02 -0.60138959173E+01  0.48305170718E+02  0.57518553239E+02  0.00000000000E+00 0. -1.
        -12    1    6    6    0    0  0.47516523053E+02 -0.15912723664E+03  0.16511436018E+03  0.23418379393E+03  0.00000000000E+00 0.  1.
</event>
<event>
12    1  0.8798177E-003  0.2083649E+03  0.7818608E-02  0.1143094E+00
         21   -1    0    0  501  502  0.00000000000E+00  0.00000000000E+00  0.15827752951E+03  0.15827752951E+03  0.00000000000E+00 0. -1.
         21   -1    0    0  502  503 -0.00000000000E+00 -0.00000000000E+00 -0.31705788462E+03  0.31705788462E+03  0.00000000000E+00 0.  1.
          6    2    1    2  501    0 -0.88858533209E+02  0.72687870061E+02  0.92034864323E+01  0.20856810177E+03  0.17388669741E+03 0.  0.
         24    2    3    3    0    0 -0.15788516976E+02  0.10016719754E+03  0.12560472658E+02  0.13028847436E+03  0.80836726475E+02 0.  0.
         -6    2    1    2    0  503  0.88858533209E+02 -0.72687870061E+02 -0.16798384154E+03  0.26676731236E+03  0.17253075827E+03 0.  0.
        -24    2    5    5    0    0 -0.35346364522E+01 -0.65848175831E+02 -0.13082514016E+03  0.16683664487E+03  0.79817121342E+02 0.  0.
          5    1    3    3  501    0 -0.73070016233E+02 -0.27479327475E+02 -0.33569862253E+01  0.78279627409E+02  0.47000000000E+01 0. -1.
        -11    1    4    4    0    0 -0.26234311166E+02  0.23849012982E+02 -0.26173039041E+02  0.44068610997E+02  0.00000000000E+00 0.  1.
         12    1    4    4    0    0  0.10445794189E+02  0.76318184554E+02  0.38733511699E+02  0.86219863363E+02  0.00000000000E+00 0. -1.
         -5    1    5    5    0  503  0.92393169662E+02 -0.68396942303E+01 -0.37158701382E+02  0.99930667493E+02  0.47000000000E+01 0.  1.
         13    1    6    6    0    0  0.22054450440E+02 -0.17338490565E+01 -0.40573353358E+01  0.22491486985E+02  0.00000000000E+00 0. -1.
        -14    1    6    6    0    0 -0.25589086892E+02 -0.64114326774E+02 -0.12676780482E+03  0.14434515789E+03  0.00000000000E+00 0.  1.
</event>
<event>
12    1  0.8798177E-003  0.2615377E+03  0.7818608E-02  0.1106365E+00
         21   -1    0    0  503  502  0.00000000000E+00  0.00000000000E+00  0.33905482723E+03  0.33905482723E+03  0.00000000000E+00 0.  1.
         21   -1    0    0  501  503 -0.00000000000E+00 -0.00000000000E+00 -0.21947776028E+03  0.21947776028E+03  0.00000000000E+00 0. -1.
          6    2    1    2  501    0  0.51008273589E+02  0.18942189371E+03 -0.21316578989E+02  0.26145858382E+03  0.17153336913E+03 0.  0.
         24    2    3    3    0    0  0.28226546123E+01  0.11433132510E+03  0.50037097418E+02  0.14711749537E+03  0.77847460135E+02 0.  0.
         -6    2    1    2    0  502 -0.51008273589E+02 -0.18942189371E+03  0.14089364594E+03  0.29707400369E+03  0.17297238626E+03 0.  0.
        -24    2    5    5    0    0 -0.37719447419E+02 -0.49080217170E+02  0.27517296596E+00  0.97905672827E+02  0.75853942683E+02 0.  0.
          5    1    3    3  501    0  0.48185618977E+02  0.75090568610E+02 -0.71353676407E+02  0.11434108845E+03  0.47000000000E+01 0. -1.
        -11    1    4    4    0    0 -0.34315746812E+02  0.30705880421E+02  0.24295537925E+02  0.52064332655E+02  0.00000000000E+00 0.  1.
         12    1    4    4    0    0  0.37138401425E+02  0.83625444678E+02  0.25741559493E+02  0.95053162720E+02  0.00000000000E+00 0. -1.
         -5    1    5    5    0  502 -0.13288826170E+02 -0.14034167654E+03  0.14061847298E+03  0.19916833086E+03  0.47000000000E+01 0.  1.
         11    1    6    6    0    0 -0.26026524144E+02 -0.61896712906E+02 -0.21093285070E+02  0.70381174348E+02  0.00000000000E+00 0. -1.
        -12    1    6    6    0    0 -0.11692923275E+02  0.12816495736E+02  0.21368458036E+02  0.27524498478E+02  0.00000000000E+00 0.  1.
</event>
<event>
12    1  0.8798177E-003  0.2312764E+03  0.7818608E-02  0.1125837E+00
         21   -1    0    0  503  502  0.00000000000E+00  0.00000000000E+00  0.55686990876E+03  0.55686990876E+03  0.00000000000E+00 0. -1.
         21   -1    0    0  501  503 -0.00000000000E+00 -0.00000000000E+00 -0.10056811544E+03  0.10056811544E+03  0.00000000000E+00 0.  1.
          6    2    1    2  501    0  0.99839679024E+02  0.11867169592E+03  0.15707807980E+03  0.27957522433E+03  0.17157461929E+03 0.  0.
         24    2    3    3    0    0  0.11467223688E+02 -0.60802964780E+01  0.57602887166E+02  0.97119327138E+02  0.77107741955E+02 0.  0.
         -6    2    1    2    0  502 -0.99839679024E+02 -0.11867169592E+03  0.29922371352E+03  0.37786279987E+03  0.17086407426E+03 0.  0.
        -24    2    5    5    0    0 -0.75240276360E+02 -0.12961415730E+03  0.15198002464E+03  0.22810412069E+03  0.80452675718E+02 0.  0.
          5    1    3    3  501    0  0.88372455335E+02  0.12475199240E+03  0.99475192633E+02  0.18245589719E+03  0.47000000000E+01 0. -1.
        -11    1    4    4    0    0  0.17166566874E+02  0.74094253037E+01  0.73302780175E+02  0.75649773185E+02  0.00000000000E+00 0.  1.
         12    1    4    4    0    0 -0.56993431852E+01 -0.13489721782E+02 -0.15699893008E+02  0.21469553953E+02  0.00000000000E+00 0. -1.
         -5    1    5    5    0  502 -0.24599402664E+02  0.10942461374E+02  0.14724368888E+03  0.14975867917E+03  0.47000000000E+01 0.  1.
         13    1    6    6    0    0  0.39001347236E+01 -0.90943451059E+01  0.51310443723E+02  0.52255906832E+02  0.00000000000E+00 0. -1.
        -14    1    6    6    0    0 -0.79140411083E+02 -0.12051981219E+03  0.10066958091E+03  0.17584821386E+03  0.00000000000E+00 0.  1.
</event>
<event>
12    1  0.8798177E-003  0.1746075E+03  0.7818608E-02  0.1173129E+00
         21   -1    0    0  503  502  0.00000000000E+00  0.00000000000E+00  0.26146890718E+03  0.26146890718E+03  0.00000000000E+00 0. -1.
         21   -1    0    0  501  503 -0.00000000000E+00 -0.00000000000E+00 -0.12491938918E+03  0.12491938918E+03  0.00000000000E+00 0. -1.
          6    2    1    2  501    0  0.21153184014E+02 -0.22040394901E+02  0.18404099035E+02  0.17557477877E+03  0.17191438532E+03 0.  0.
         24    2    3    3    0    0 -0.17707294983E+02  0.21659791787E+02  0.63408923257E+02  0.10163313051E+03  0.74336443238E+02 0.  0.
         -6    2    1    2    0  502 -0.21153184014E+02  0.22040394901E+02  0.11814541897E+03  0.21081351759E+03  0.17190335359E+03 0.  0.
        -24    2    5    5    0    0 -0.36636136735E+02  0.76842466760E+02  0.66646545338E+02  0.13389009534E+03  0.78979898790E+02 0.  0.
          5    1    3    3  501    0  0.38860478997E+02 -0.43700186688E+02 -0.45004824223E+02  0.73941648262E+02  0.47000000000E+01 0. -1.
        -11    1    4    4    0    0  0.16985397350E+02 -0.84388107672E+01  0.50469957352E+02  0.53915988774E+02  0.00000000000E+00 0.  1.
         12    1    4    4    0    0 -0.34692692333E+02  0.30098602554E+02  0.12938965905E+02  0.47717141739E+02  0.00000000000E+00 0. -1.
         -5    1    5    5    0  502  0.15482952721E+02 -0.54802071859E+02  0.51498873628E+02  0.76923422245E+02  0.47000000000E+01 0.  1.
         13    1    6    6    0    0 -0.22856389199E+02  0.67420171413E+02  0.83799098524E+02  0.10995536801E+03  0.00000000000E+00 0. -1.
        -14    1    6    6    0    0 -0.13779747536E+02  0.94222953467E+01 -0.17152553186E+02  0.23934727334E+02  0.00000000000E+00 0.  1.
</event>
<event>
12    1  0.8798177E-003  0.1867792E+03  0.7818608E-02  0.1162153E+00
         21   -1    0    0  503  502  0.00000000000E+00  0.00000000000E+00  0.31808875986E+02  0.31808875986E+02  0.00000000000E+00 0.  1.
         21   -1    0    0  501  503 -0.00000000000E+00 -0.00000000000E+00 -0.19642817190E+04  0.19642817190E+04  0.00000000000E+00 0.  1.
          6    2    1    2  501    0  0.24252335394E+02 -0.54641780349E+02 -0.16320566023E+04  0.16423443639E+04  0.17352912285E+03 0.  0.
         24    2    3    3    0    0  0.46302421318E+01 -0.14770049979E+02 -0.15124209865E+04  0.15146355075E+04  0.80398300053E+02 0.  0.
         -6    2    1    2    0  502 -0.24252335394E+02  0.54641780349E+02 -0.30041624069E+03  0.35374623110E+03  0.17695360526E+03 0.  0.
        -24    2    5    5    0    0 -0.77850137511E+02  0.41808482672E+02 -0.25706789800E+03  0.28347115205E+03  0.80395253148E+02 0.  0.
          5    1    3    3  501    0  0.19622093263E+02 -0.39871730370E+02 -0.11963561581E+03  0.12770885637E+03  0.47000000000E+01 0. -1.
        -13    1    4    4    0    0 -0.20652840817E+02 -0.34846398166E+02 -0.47878653301E+03  0.48049698802E+03  0.00000000000E+00 0.  1.
         14    1    4    4    0    0  0.25283082949E+02  0.20076348187E+02 -0.10336344535E+04  0.10341385195E+04  0.00000000000E+00 0. -1.
         -5    1    5    5    0  502  0.53597802116E+02  0.12833297677E+02 -0.43348342688E+02  0.70275079045E+02  0.47000000000E+01 0.  1.
         11    1    6    6    0    0 -0.22385584014E+02  0.39558938861E+02 -0.19488725476E+03  0.20011763061E+03  0.00000000000E+00 0. -1.
        -12    1    6    6    0    0 -0.55464553497E+02  0.22495438117E+01 -0.62180643245E+02  0.83353521439E+02  0.00000000000E+00 0.  1.
</event>
<event>
12    1  0.8798177E-003  0.1956234E+03  0.7818608E-02  0.1154859E+00
         21   -1    0    0  501  502  0.00000000000E+00  0.00000000000E+00  0.73824779335E+03  0.73824779335E+03  0.00000000000E+00 0. -1.
         21   -1    0    0  502  503 -0.00000000000E+00 -0.00000000000E+00 -0.56977769557E+02  0.56977769557E+02  0.00000000000E+00 0.  1.
          6    2    1    2  501    0  0.25532018626E+02  0.89248397725E+02  0.47289277989E+03  0.50941167649E+03  0.16509244198E+03 0.  0.
         24    2    3    3    0    0 -0.14295384324E+02  0.11449707205E+03  0.31641071367E+03  0.34591108129E+03  0.78897394862E+02 0.  0.
         -6    2    1    2    0  503 -0.25532018626E+02 -0.89248397725E+02  0.20837724390E+03  0.28581388642E+03  0.17219564867E+03 0.  0.
        -24    2    5    5    0    0 -0.24141079347E+02 -0.27941979671E+02  0.20599496549E+03  0.22426571945E+03  0.80607947326E+02 0.  0.
          5    1    3    3  501    0  0.39827402950E+02 -0.25248674321E+02  0.15648206622E+03  0.16350059519E+03  0.47000000000E+01 0. -1.
        -13    1    4    4    0    0 -0.80693247376E+01  0.25494918594E+02  0.13152619645E+02  0.29800944269E+02  0.00000000000E+00 0.  1.
         14    1    4    4    0    0 -0.62260595861E+01  0.89002153451E+02  0.30325809403E+03  0.31611013702E+03  0.00000000000E+00 0. -1.
         -5    1    5    5    0  503 -0.13909392785E+01 -0.61306418054E+02  0.23822784080E+01  0.61548166968E+02  0.47000000000E+01 0.  1.
         11    1    6    6    0    0  0.27409955851E+02 -0.22668835403E+02  0.10301002493E+03  0.10897819513E+03  0.00000000000E+00 0. -1.
        -12    1    6    6    0    0 -0.51551035198E+02 -0.52731442685E+01  0.10298494056E+03  0.11528752431E+03  0.00000000000E+00 0.  1.
</event>
<event>
12    1  0.8798177E-003  0.1860284E+03  0.7818608E-02  0.1162126E+00
         21   -1    0    0  503  502  0.00000000000E+00  0.00000000000E+00  0.29330455342E+03  0.29330455342E+03  0.00000000000E+00 0.  1.
         21   -1    0    0  501  503 -0.00000000000E+00 -0.00000000000E+00 -0.14854297822E+03  0.14854297822E+03  0.00000000000E+00 0.  1.
          6    2    1    2  501    0  0.31119855516E+02  0.62910158008E+02 -0.27940788447E+02  0.18811502229E+03  0.17228012237E+03 0.  0.
         24    2    3    3    0    0  0.70312611502E+02  0.82012741982E+02 -0.44753812040E+02  0.14114962440E+03  0.79059215733E+02 0.  0.
         -6    2    1    2    0  502 -0.31119855516E+02 -0.62910158008E+02  0.17270236365E+03  0.25373250936E+03  0.17212770407E+03 0.  0.
        -24    2    5    5    0    0  0.37411972753E+02 -0.27020853984E+02  0.41785843439E+02  0.10159481221E+03  0.80284910794E+02 0.  0.
          5    1    3    3  501    0 -0.39192755986E+02 -0.19102583974E+02  0.16813023594E+02  0.46965397886E+02  0.47000000000E+01 0. -1.
        -11    1    4    4    0    0  0.66029563260E+02  0.22721489716E+02 -0.42323027606E+02  0.81654197596E+02  0.00000000000E+00 0.  1.
         12    1    4    4    0    0  0.42830482415E+01  0.59291252267E+02 -0.24307844343E+01  0.59495426804E+02  0.00000000000E+00 0. -1.
         -5    1    5    5    0  502 -0.68531828269E+02 -0.35889304024E+02  0.13091652021E+03  0.15213769715E+03  0.47000000000E+01 0.  1.
         11    1    6    6    0    0  0.29159204522E+02  0.58271771658E+01 -0.16630404328E+02  0.34070303054E+02  0.00000000000E+00 0. -1.
        -12    1    6    6    0    0  0.82527682312E+01 -0.32848031150E+02  0.58416247767E+02  0.67524509158E+02  0.00000000000E+00 0.  1.
</event>
<event>
12    1  0.8798177E-003  0.2987928E+03  0.7818608E-02  0.1087046E+00
         21   -1    0    0  501  502  0.00000000000E+00  0.00000000000E+00  0.13406544615E+03  0.13406544615E+03  0.00000000000E+00 0. -1.
         21   -1    0    0  502  503 -0.00000000000E+00 -0.00000000000E+00 -0.65221365086E+03  0.65221365086E+03  0.00000000000E+00 0. -1.
          6    2    1    2  501    0 -0.94651850697E+02 -0.22443802443E+03 -0.30406413235E+03  0.42630049134E+03  0.17304829581E+03 0.  0.
         24    2    3    3    0    0 -0.12039936639E+03 -0.20136934084E+03 -0.22210944311E+03  0.33722883582E+03  0.96669871906E+02 0.  0.
         -6    2    1    2    0  503  0.94651850697E+02  0.22443802443E+03 -0.21408407236E+03  0.35997860567E+03  0.15627286025E+03 0.  0.
        -24    2    5    5    0    0  0.32655928770E+02  0.18280531793E+03 -0.10693276071E+03  0.22928709801E+03  0.81570607781E+02 0.  0.
          5    1    3    3  501    0  0.25747515696E+02 -0.23068683587E+02 -0.81954689243E+02  0.89071655514E+02  0.47000000000E+01 0. -1.
        -13    1    4    4    0    0 -0.10007863220E+02 -0.67094878660E+00  0.77888832585E+01  0.12699377973E+02  0.00000000000E+00 0.  1.
         14    1    4    4    0    0 -0.11039150317E+03 -0.20069839206E+03 -0.22989832637E+03  0.32452945785E+03  0.00000000000E+00 0. -1.
         -5    1    5    5    0  503  0.61995921926E+02  0.41632706500E+02 -0.10715131164E+03  0.13069150765E+03  0.47000000000E+01 0.  1.
         13    1    6    6    0    0  0.59098143475E+02  0.11475799728E+03 -0.58796463014E+02  0.14184150509E+03  0.00000000000E+00 0. -1.
        -14    1    6    6    0    0 -0.26442214704E+02  0.68047320647E+02 -0.48136297700E+02  0.87445592925E+02  0.00000000000E+00 0.  1.
</event>
<event>
12    1  0.8798177E-003  0.1781022E+03  0.7818608E-02  0.1169692E+00
         21   -1    0    0  501  502  0.00000000000E+00  0.00000000000E+00  0.48738573709E+02  0.48738573709E+02  0.00000000000E+00 0.  1.
         21   -1    0    0  502  503 -0.00000000000E+00 -0.00000000000E+00 -0.72650210636E+03  0.72650210636E+03  0.00000000000E+00 0.  1.
          6    2    1    2  501    0  0.34319640811E+01  0.47805619264E+02 -0.46460962242E+03  0.49757663122E+03  0.17153205845E+03 0.  0.
         24    2    3    3    0    0  0.38171754367E+02 -0.20938383804E+02 -0.32998004038E+03  0.34239994049E+03  0.80345463126E+02 0.  0.
         -6    2    1    2    0  503 -0.34319640811E+01 -0.47805619264E+02 -0.21315391024E+03  0.27766404886E+03  0.17136387883E+03 0.  0.
        -24    2    5    5    0    0  0.10450855609E+01 -0.82027904888E+02 -0.73534111424E+02  0.13376482361E+03  0.75868920567E+02 0.  0.
          5    1    3    3  501    0 -0.34739790286E+02  0.68744003068E+02 -0.13462958204E+03  0.15517669073E+03  0.47000000000E+01 0. -1.
        -13    1    4    4    0    0  0.37906978804E+02  0.15680507217E+02 -0.26192533388E+03  0.26511827149E+03  0.00000000000E+00 0.  1.
         14    1    4    4    0    0  0.26477556343E+00 -0.36618891021E+02 -0.68054706503E+02  0.77281668997E+02  0.00000000000E+00 0. -1.
         -5    1    5    5    0  503 -0.44770496420E+01  0.34222285624E+02 -0.13961979881E+03  0.14389922525E+03  0.47000000000E+01 0.  1.
         11    1    6    6    0    0 -0.15252150694E+01 -0.21259594180E+02 -0.69627562145E+02  0.72816852691E+02  0.00000000000E+00 0. -1.
        -12    1    6    6    0    0  0.25703006303E+01 -0.60768310708E+02 -0.39065492794E+01  0.60947970917E+02  0.00000000000E+00 0.  1.
</event>
<event>
12    1  0.8798177E-003  0.2128118E+03  0.7818608E-02  0.1139408E+00
         21   -1    0    0  503  502  0.00000000000E+00  0.00000000000E+00  0.35403621470E+03  0.35403621470E+03  0.00000000000E+00 0.  1.
         21   -1    0    0  501  503 -0.00000000000E+00 -0.00000000000E+00 -0.14355552620E+03  0.14355552620E+03  0.00000000000E+00 0.  1.
          6    2    1    2  501    0 -0.83887931758E+02  0.92878719273E+02  0.22788138748E+02  0.21402845686E+03  0.17211984049E+03 0.  0.
         24    2    3    3    0    0 -0.58448830242E+02  0.11415211128E+03  0.61490325589E+02  0.16284589772E+03  0.79314286207E+02 0.  0.
         -6    2    1    2    0  502  0.83887931758E+02 -0.92878719273E+02  0.18769254975E+03  0.28356328404E+03  0.17180221545E+03 0.  0.
        -24    2    5    5    0    0  0.57287505438E+02  0.23177200484E+01  0.14626606684E+03  0.17628706008E+03  0.79975840963E+02 0.  0.
          5    1    3    3  501    0 -0.25439101515E+02 -0.21273392011E+02 -0.38702186841E+02  0.51182559138E+02  0.47000000000E+01 0. -1.
        -13    1    4    4    0    0 -0.62687320132E+02  0.46237724184E+02  0.12250259739E+02  0.78852369062E+02  0.00000000000E+00 0.  1.
         14    1    4    4    0    0  0.42384898897E+01  0.67914387100E+02  0.49240065850E+02  0.83993528660E+02  0.00000000000E+00 0. -1.
         -5    1    5    5    0  502  0.26600426319E+02 -0.95196439321E+02  0.41426482911E+02  0.10727622396E+03  0.47000000000E+01 0.  1.
         13    1    6    6    0    0  0.56678885609E+02  0.28825545685E+02  0.65537972636E+02  0.91316121332E+02  0.00000000000E+00 0. -1.
        -14    1    6    6    0    0  0.60861982902E+00 -0.26507825637E+02  0.80728094205E+02  0.84970938750E+02  0.00000000000E+00 0.  1.
</event>
<event>
12    1  0.8798177E-003  0.1842444E+03  0.7818608E-02  0.1164369E+00
         21   -1    0    0  501  502  0.00000000000E+00  0.00000000000E+00  0.10560085063E+03  0.10560085063E+03  0.00000000000E+00 0.  1.
         21   -1    0    0  502  503 -0.00000000000E+00 -0.00000000000E+00 -0.33067837102E+03  0.33067837102E+03  0.00000000000E+00 0.  1.
          6    2    1    2  501    0  0.64540399261E+02 -0.68401140100E+01 -0.15773012026E+03  0.24253824159E+03  0.17243479203E+03 0.  0.
         24    2    3    3    0    0  0.71565079685E+02  0.31638132726E+02 -0.36113988120E+02  0.11470047251E+03  0.75693105264E+02 0.  0.
         -6    2    1    2    0  503 -0.64540399261E+02  0.68401140100E+01 -0.67347400128E+02  0.19374098006E+03  0.16966922159E+03 0.  0.
        -24    2    5    5    0    0 -0.61541414407E+02 -0.24077204483E+02 -0.10250870536E+03  0.14658928997E+03  0.81322369581E+02 0.  0.
          5    1    3    3  501    0 -0.70246804237E+01 -0.38478246736E+02 -0.12161613214E+03  0.12783776908E+03  0.47000000000E+01 0. -1.
        -11    1    4    4    0    0  0.30483627239E+02  0.28150343500E+01  0.22162834048E+02  0.37793745000E+02  0.00000000000E+00 0.  1.
         12    1    4    4    0    0  0.41081452445E+02  0.28823098376E+02 -0.58276822168E+02  0.76906727515E+02  0.00000000000E+00 0. -1.
         -5    1    5    5    0  503 -0.29989848540E+01  0.30917318493E+02  0.35161305236E+02  0.47151690095E+02  0.47000000000E+01 0.  1.
         13    1    6    6    0    0  0.12846842952E+02  0.15649873641E+02 -0.16318651258E+02  0.26004966789E+02  0.00000000000E+00 0. -1.
        -14    1    6    6    0    0 -0.74388257359E+02 -0.39727078124E+02 -0.86190054105E+02  0.12058432318E+03  0.00000000000E+00 0.  1.
</event>
<event>
12    1  0.8798177E-003  0.2258199E+03  0.7818608E-02  0.1130599E+00
         21   -1    0    0  503  502  0.00000000000E+00  0.00000000000E+00  0.12751650892E+03  0.12751650892E+03  0.00000000000E+00 0. -1.
         21   -1    0    0  501  503 -0.00000000000E+00 -0.00000000000E+00 -0.59393557200E+03  0.59393557200E+03  0.00000000000E+00 0. -1.
          6    2    1    2  501    0  0.14523601736E+03 -0.12389990552E+02 -0.44250024348E+03  0.49436894882E+03  0.16536982635E+03 0.  0.
         24    2    3    3    0    0  0.37932361629E+02 -0.20750459436E+02 -0.93866823509E+02  0.12946988949E+03  0.77987345792E+02 0.  0.
         -6    2    1    2    0  502 -0.14523601736E+03  0.12389990552E+02 -0.23918819593E+02  0.22708313211E+03  0.17247500211E+03 0.  0.
        -24    2    5    5    0    0 -0.16761934290E+03  0.29464918464E+02 -0.14037388002E+01  0.19072951759E+03  0.86089214552E+02 0.  0.
          5    1    3    3  501    0  0.10730365573E+03  0.83604688839E+01 -0.34863341998E+03  0.36489905932E+03  0.47000000000E+01 0. -1.
        -13    1    4    4    0    0  0.11716557547E+02  0.27062222061E+02 -0.55331607571E+02  0.62699508611E+02  0.00000000000E+00 0.  1.
         14    1    4    4    0    0  0.26215804082E+02 -0.47812681497E+02 -0.38535215938E+02  0.66770380881E+02  0.00000000000E+00 0. -1.
         -5    1    5    5    0  502  0.22383325544E+02 -0.17074927911E+02 -0.22515080793E+02  0.36353614520E+02  0.47000000000E+01 0.  1.
         11    1    6    6    0    0 -0.10773923655E+03 -0.21382117987E+02 -0.15468464273E+02  0.11092435012E+03  0.00000000000E+00 0. -1.
        -12    1    6    6    0    0 -0.59880106352E+02  0.50847036451E+02  0.14064725472E+02  0.79805167472E+02  0.00000000000E+00 0.  1.
</event>
<event>
12    1  0.8798177E-003  0.1896157E+03  0.7818608E-02  0.1159074E+00
         21   -1    0    0  503  502  0.00000000000E+00  0.00000000000E+00  0.86784815151E+02  0.86784815151E+02  0.00000000000E+00 0.  1.
         21   -1    0    0  501  503 -0.00000000000E+00 -0.00000000000E+00 -0.43215455631E+03  0.43215455631E+03  0.00000000000E+00 0. -1.
          6    2    1    2  501    0  0.98567367266E+01  0.76130998419E+02 -0.22960019579E+03  0.29777570584E+03  0.17338118958E+03 0.  0.
         24    2    3    3    0    0  0.58602159366E+02  0.35126526614E+01 -0.11593677510E+03  0.15428004886E+03  0.83153146929E+02 0.  0.
         -6    2    1    2    0  502 -0.98567367266E+01 -0.76130998419E+02 -0.11576954538E+03  0.22116366563E+03  0.17209792323E+03 0.  0.
        -24    2    5    5    0    0  0.12814070884E+02 -0.55899840004E+02 -0.14746440197E+03  0.17700577593E+03  0.79349242845E+02 0.  0.
          5    1    3    3  501    0 -0.48745422640E+02  0.72618345758E+02 -0.11366342069E+03  0.14349565698E+03  0.47000000000E+01 0. -1.
        -11    1    4    4    0    0  0.24509353605E+02  0.42696966282E+02 -0.47952186145E+02  0.68725188249E+02  0.00000000000E+00 0.  1.
         12    1    4    4    0    0  0.34092805761E+02 -0.39184313620E+02 -0.67984588954E+02  0.85554860609E+02  0.00000000000E+00 0. -1.
         -5    1    5    5    0  502 -0.22670807611E+02 -0.20231158415E+02  0.31694856590E+02  0.44157889700E+02  0.47000000000E+01 0.  1.
         13    1    6    6    0    0 -0.23555589048E+02 -0.96431298278E+01 -0.94396698473E+02  0.97768054143E+02  0.00000000000E+00 0. -1.
        -14    1    6    6    0    0  0.36369659932E+02 -0.46256710176E+02 -0.53067703493E+02  0.79237721786E+02  0.00000000000E+00 0.  1.
</event>
<event>
12    1  0.8798177E-003  0.2960678E+03  0.7818608E-02  0.1087413E+00
         21   -1    0    0  503  502  0.00000000000E+00  0.00000000000E+00  0.38990374165E+03  0.38990374165E+03  0.00000000000E+00 0. -1.
         21   -1    0    0  501  503 -0.00000000000E+00 -0.00000000000E+00 -0.22435549485E+03  0.22435549485E+03  0.00000000000E+00 0.  1.
          6    2    1    2  501    0  0.13070514052E+03 -0.20258967357E+03  0.99377511220E+02  0.31088697532E+03  0.16925841808E+03 0.  0.
         24    2    3    3    0    0  0.89739625396E+02 -0.71279895122E+02 -0.27512986650E+01  0.13950198428E+03  0.79493459850E+02 0.  0.
         -6    2    1    2    0  502 -0.13070514052E+03  0.20258967357E+03  0.66170735585E+02  0.30337226117E+03  0.17184223290E+03 0.  0.
        -24    2    5    5    0    0 -0.10578639732E+03  0.16148889985E+03  0.11099920064E+03  0.23747917624E+03  0.82499151336E+02 0.  0.
          5    1    3    3  501    0  0.40965515125E+02 -0.13130977845E+03  0.10212880988E+03  0.17138499104E+03  0.47000000000E+01 0. -1.
        -11    1    4    4    0    0 -0.97613497292E+01 -0.21470263980E+01 -0.14676298828E+02  0.17756334593E+02  0.00000000000E+00 0.  1.
         12    1    4    4    0    0  0.99500975125E+02 -0.69132868724E+02  0.11925000163E+02  0.12174564969E+03  0.00000000000E+00 0. -1.
         -5    1    5    5    0  502 -0.24918743202E+02  0.41100773724E+02 -0.44828465057E+02  0.65893084939E+02  0.47000000000E+01 0.  1.
         11    1    6    6    0    0 -0.16444002832E+02  0.99927284377E+02  0.48786314789E+02  0.11240983899E+03  0.00000000000E+00 0. -1.
        -12    1    6    6    0    0 -0.89342394487E+02  0.61561615469E+02  0.62212885852E+02  0.12506933724E+03  0.00000000000E+00 0.  1.
</event>
<event>
12    1  0.8798177E-003  0.1948406E+03  0.7818608E-02  0.1155458E+00
         21   -1    0    0  503  502  0.00000000000E+00  0.00000000000E+00  0.60533758845E+02  0.60533758845E+02  0.00000000000E+00 0.  1.
         21   -1    0    0  501  503 -0.00000000000E+00 -0.00000000000E+00 -0.61035801170E+03  0.61035801170E+03  0.00000000000E+00 0. -1.
          6    2    1    2  501    0 -0.52706469961E+02 -0.58484268652E+02 -0.26074336418E+03  0.32549958161E+03  0.17822596333E+03 0.  0.
         24    2    3    3    0    0  0.11700473001E+01  0.23741182345E+02 -0.56980179371E+02  0.99213856498E+02  0.77663606215E+02 0.  0.
         -6    2    1    2    0  502  0.52706469961E+02  0.58484268652E+02 -0.28908088867E+03  0.34539218893E+03  0.17184185266E+03 0.  0.
        -24    2    5    5    0    0  0.73435436822E+02  0.76434892898E+02 -0.28841816106E+03  0.31756335163E+03  0.80164770511E+02 0.  0.
          5    1    3    3  501    0 -0.53876517261E+02 -0.82225450997E+02 -0.20376318481E+03  0.22628572511E+03  0.47000000000E+01 0. -1.
        -11    1    4    4    0    0 -0.32051619864E+02  0.60867845448E+01 -0.51828243460E+02  0.61241506367E+02  0.00000000000E+00 0.  1.
         12    1    4    4    0    0  0.33221667164E+02  0.17654397800E+02 -0.51519359106E+01  0.37972350131E+02  0.00000000000E+00 0. -1.
         -5    1    5    5    0  502 -0.20728966861E+02 -0.17950624246E+02 -0.66272760356E+00  0.27828837306E+02  0.47000000000E+01 0.  1.
         13    1    6    6    0    0  0.41786808801E+02 -0.77543022695E+01 -0.10516548022E+03  0.11342858909E+03  0.00000000000E+00 0. -1.
        -14    1    6    6    0    0  0.31648628020E+02  0.84189195167E+02 -0.18325268085E+03  0.20413476254E+03  0.00000000000E+00 0.  1.
</event>
<event>
12    1  0.8798177E-003  0.2076950E+03  0.7818608E-02  0.1143759E+00
         21   -1    0    0  503  502  0.00000000000E+00  0.00000000000E+00  0.15084575131E+04  0.15084575131E+04  0.00000000000E+00 0.  1.
         21   -1    0    0  501  503 -0.00000000000E+00 -0.00000000000E+00 -0.30927076914E+02  0.30927076914E+02  0.00000000000E+00 0.  1.
          6    2    1    2  501    0 -0.11466193087E+03 -0.38775931046E+01  0.51968989515E+03  0.55965596308E+03  0.17313236489E+03 0.  0.
         24    2    3    3    0    0 -0.43170132891E+02  0.56705477461E+02  0.20423193130E+03  0.23054017407E+03  0.79742827584E+02 0.  0.
         -6    2    1    2    0  502  0.11466193087E+03  0.38775931046E+01  0.95784054101E+03  0.97972862691E+03  0.17101837989E+03 0.  0.
        -24    2    5    5    0    0  0.43687856206E+02  0.59495574896E+02  0.64685557071E+03  0.65590086261E+03  0.79595602955E+02 0.  0.
          5    1    3    3  501    0 -0.71491797980E+02 -0.60583070566E+02  0.31545796386E+03  0.32911578901E+03  0.47000000000E+01 0. -1.
        -13    1    4    4    0    0 -0.16863995718E+02  0.71934929387E+02  0.16597617680E+03  0.18167861647E+03  0.00000000000E+00 0.  1.
         14    1    4    4    0    0 -0.26306137174E+02 -0.15229451926E+02  0.38255754499E+02  0.48861557601E+02  0.00000000000E+00 0. -1.
         -5    1    5    5    0  502  0.70974074666E+02 -0.55617981791E+02  0.31098497031E+03  0.32382776430E+03  0.47000000000E+01 0.  1.
         11    1    6    6    0    0 -0.23011938191E+02  0.95847480615E+01  0.17117395435E+03  0.17297959227E+03  0.00000000000E+00 0. -1.
        -12    1    6    6    0    0  0.66699794397E+02  0.49910826835E+02  0.47568161636E+03  0.48292127034E+03  0.00000000000E+00 0.  1.
</event>
<event>
12    1  0.8798177E-003  0.3241595E+03  0.7818608E-02  0.1073944E+00
         21   -1    0    0  501  502  0.00000000000E+00  0.00000000000E+00  0.33624650148E+03  0.33624650148E+03  0.00000000000E+00 0.  1.
         21   -1    0    0  502  503 -0.00000000000E+00 -0.00000000000E+00 -0.34117577348E+03  0.34117577348E+03  0.00000000000E+00 0.  1.
          6    2    1    2  501    0 -0.26704901491E+03  0.62176567746E+02  0.98499886217E+02  0.33716213444E+03  0.16969082289E+03 0.  0.
         24    2    3    3    0    0 -0.11348097804E+03  0.87044626101E+02  0.65563948864E+02  0.17807590548E+03  0.83412813238E+02 0.  0.
         -6    2    1    2    0  503  0.26704901491E+03 -0.62176567746E+02 -0.10342915822E+03  0.34026014053E+03  0.17291116368E+03 0.  0.
        -24    2    5    5    0    0  0.26597081390E+03 -0.92217454711E+02 -0.10113061130E+03  0.30974799992E+03  0.80448058470E+02 0.  0.
          5    1    3    3  501    0 -0.15356803687E+03 -0.24868058355E+02  0.32935937353E+02  0.15908622895E+03  0.47000000000E+01 0. -1.
        -11    1    4    4    0    0 -0.94454076614E+02  0.20902690019E+02  0.38864845500E+02  0.10425435845E+03  0.00000000000E+00 0.  1.
         12    1    4    4    0    0 -0.19026901428E+02  0.66141936081E+02  0.26699103364E+02  0.73821547037E+02  0.00000000000E+00 0. -1.
         -5    1    5    5    0  503  0.10782010095E+01  0.30040886965E+02 -0.22985469216E+01  0.30512140617E+02  0.47000000000E+01 0.  1.
         13    1    6    6    0    0  0.10558690433E+02 -0.26127874306E+02 -0.16630359537E+02  0.32721867577E+02  0.00000000000E+00 0. -1.
        -14    1    6    6    0    0  0.25541212347E+03 -0.66089580405E+02 -0.84500251759E+02  0.27702613234E+03  0.00000000000E+00 0.  1.
</event>
<event>
12    1  0.8798177E-003  0.2018170E+03  0.7818608E-02  0.1148573E+00
         21   -1    0    0  503  502  0.00000000000E+00  0.00000000000E+00  0.20953500242E+02  0.20953500242E+02  0.00000000000E+00 0. -1.
         21   -1    0    0  501  503 -0.00000000000E+00 -0.00000000000E+00 -0.19798499287E+04  0.19798499287E+04  0.00000000000E+00 0. -1.
          6    2    1    2  501    0 -0.35577733468E+02  0.96445418607E+02 -0.11463550332E+04  0.11639845121E+04  0.17367379883E+03 0.  0.
         24    2    3    3    0    0 -0.73247033082E+02  0.19968207953E+02 -0.52003896822E+03  0.53187562661E+03  0.81775892071E+02 0.  0.
         -6    2    1    2    0  502  0.35577733468E+02 -0.96445418607E+02 -0.81254139522E+03  0.83681891679E+03  0.17168251707E+03 0.  0.
        -24    2    5    5    0    0 -0.50409084097E+01 -0.77271570330E+01 -0.19295343222E+03  0.20957722661E+03  0.81280177143E+02 0.  0.
          5    1    3    3  501    0  0.37669299614E+02  0.76477210654E+02 -0.62631606499E+03  0.63210888552E+03  0.47000000000E+01 0. -1.
        -13    1    4    4    0    0 -0.84000383594E+01 -0.26327096585E+02 -0.20787095177E+03  0.20969980746E+03  0.00000000000E+00 0.  1.
         14    1    4    4    0    0 -0.64846994723E+02  0.46295304538E+02 -0.31216801645E+03  0.32217581915E+03  0.00000000000E+00 0. -1.
         -5    1    5    5    0  502  0.40618641878E+02 -0.88718261574E+02 -0.61958796300E+03  0.62724169018E+03  0.47000000000E+01 0.  1.
         11    1    6    6    0    0  0.22387111720E+02 -0.33140562565E+02 -0.65429172062E+02  0.76684132746E+02  0.00000000000E+00 0. -1.
        -12    1    6    6    0    0 -0.27428020129E+02  0.25413405532E+02 -0.12752426016E+03  0.13289309387E+03  0.00000000000E+00 0.  1.
</event>
<event>
12    1  0.8798177E-003  0.1929139E+03  0.7818608E-02  0.1159093E+00
         21   -1    0    0  501  502  0.00000000000E+00  0.00000000000E+00  0.26222337130E+03  0.26222337130E+03  0.00000000000E+00 0.  1.
         21   -1    0    0  502  503 -0.00000000000E+00 -0.00000000000E+00 -0.16841627048E+03  0.16841627048E+03  0.00000000000E+00 0.  1.
          6    2    1    2  501    0 -0.42681498516E+02  0.58381240625E+02  0.14589331719E+03  0.23081784216E+03  0.16359075979E+03 0.  0.
         24    2    3    3    0    0 -0.21308420142E+01  0.78957679777E+02  0.46876790273E+02  0.12175772941E+03  0.79929065560E+02 0.  0.
         -6    2    1    2    0  503  0.42681498516E+02 -0.58381240625E+02 -0.52086216370E+02  0.19982179961E+03  0.17884545869E+03 0.  0.
        -24    2    5    5    0    0 -0.47493114070E+02 -0.26061250185E+02 -0.29090566601E+02  0.10119658760E+03  0.80372281484E+02 0.  0.
          5    1    3    3  501    0 -0.40550656502E+02 -0.20576439152E+02  0.99016526919E+02  0.10906011275E+03  0.47000000000E+01 0. -1.
        -13    1    4    4    0    0 -0.29001691806E+02  0.32648338218E+02 -0.87644819060E+01  0.44540187013E+02  0.00000000000E+00 0.  1.
         14    1    4    4    0    0  0.26870849792E+02  0.46309341559E+02  0.55641272179E+02  0.77217542397E+02  0.00000000000E+00 0. -1.
         -5    1    5    5    0  503  0.90174612586E+02 -0.32319990440E+02 -0.22995649769E+02  0.98625212017E+02  0.47000000000E+01 0.  1.
         13    1    6    6    0    0 -0.36388980915E+01  0.27331088380E+02 -0.11672641323E+02  0.29941284655E+02  0.00000000000E+00 0. -1.
        -14    1    6    6    0    0 -0.43854215978E+02 -0.53392338565E+02 -0.17417925277E+02  0.71255302943E+02  0.00000000000E+00 0.  1.
</event>
<event>
12    1  0.8798177E-003  0.2263265E+03  0.7818608E-02  0.1129373E+00
         21   -1    0    0  503  502  0.00000000000E+00  0.00000000000E+00  0.45943218807E+03  0.45943218807E+03  0.00000000000E+00 0. -1.
         21   -1    0    0  501  503 -0.00000000000E+00 -0.00000000000E+00 -0.11136920376E+03  0.11136920376E+03  0.00000000000E+00 0.  1.
          6    2    1    2  501    0  0.10031478671E+02 -0.14814654056E+03  0.16153092825E+03  0.27751333700E+03  0.16992169781E+03 0.  0.
         24    2    3    3    0    0 -0.29102063572E+02 -0.22080170685E+02  0.68842835265E+02  0.11615244854E+03  0.86125439293E+02 0.  0.
         -6    2    1    2    0  502 -0.10031478671E+02  0.14814654056E+03  0.18653205607E+03  0.29328805483E+03  0.17080880283E+03 0.  0.
        -24    2    5    5    0    0  0.41726779522E+02  0.14811729596E+03  0.15530243852E+03  0.23265557873E+03  0.79560752962E+02 0.  0.
          5    1    3    3  501    0  0.39133542243E+02 -0.12606636987E+03  0.92688092983E+02  0.16136088845E+03  0.47000000000E+01 0. -1.
        -13    1    4    4    0    0  0.93713238126E+00  0.14607963692E+02 -0.14284143039E+02  0.20452568608E+02  0.00000000000E+00 0.  1.
         14    1    4    4    0    0 -0.30039195953E+02 -0.36688134377E+02  0.83126978304E+02  0.95699879934E+02  0.00000000000E+00 0. -1.
         -5    1    5    5    0  502 -0.51758258193E+02  0.29244599995E-01  0.31229617548E+02  0.60632476105E+02  0.47000000000E+01 0.  1.
         11    1    6    6    0    0  0.38751387390E+02  0.20542341354E+02  0.25997434144E+02  0.50985531232E+02  0.00000000000E+00 0. -1.
        -12    1    6    6    0    0  0.29753921323E+01  0.12757495461E+03  0.12930500437E+03  0.18167004750E+03  0.00000000000E+00 0.  1.
</event>
<event>
12    1  0.8798177E-003  0.2028799E+03  0.7818608E-02  0.1147719E+00
         21   -1    0    0  501  502  0.00000000000E+00  0.00000000000E+00  0.19649640999E+03  0.19649640999E+03  0.00000000000E+00 0. -1.
         21   -1    0    0  502  503 -0.00000000000E+00 -0.00000000000E+00 -0.34557646249E+03  0.34557646249E+03  0.00000000000E+00 0. -1.
          6    2    1    2  501    0  0.13439954672E+02  0.10260167357E+03  0.96541596598E+02  0.22467872739E+03  0.17450648947E+03 0.  0.
         24    2    3    3    0    0 -0.21451693836E+02  0.11685881259E+02  0.95721194722E+02  0.12718066851E+03  0.80097692437E+02 0.  0.
         -6    2    1    2    0  503 -0.13439954672E+02 -0.10260167357E+03 -0.24562164910E+03  0.31739414508E+03  0.17234068882E+03 0.  0.
        -24    2    5    5    0    0 -0.56813330056E+02 -0.45339318200E+02 -0.73802635226E+02  0.13110380565E+03  0.80361499762E+02 0.  0.
          5    1    3    3  501    0  0.34891648508E+02  0.90915792313E+02  0.82040187630E+00  0.97498058887E+02  0.47000000000E+01 0. -1.
        -11    1    4    4    0    0 -0.98578745450E+01 -0.34536755664E+02  0.37162766827E+02  0.51682070591E+02  0.00000000000E+00 0.  1.
         12    1    4    4    0    0 -0.11593819291E+02  0.46222636923E+02  0.58558427895E+02  0.75498597917E+02  0.00000000000E+00 0. -1.
         -5    1    5    5    0  503  0.43373375384E+02 -0.57262355373E+02 -0.17181901388E+03  0.18629033943E+03  0.47000000000E+01 0.  1.
         13    1    6    6    0    0  0.17008878825E+02 -0.27620441100E+02 -0.21803297213E+02  0.39084197507E+02  0.00000000000E+00 0. -1.
        -14    1    6    6    0    0 -0.73822208881E+02 -0.17718877100E+02 -0.51999338013E+02  0.92019608147E+02  0.00000000000E+00 0.  1.
</event>
<event>
12    1  0.8798177E-003  0.1762638E+03  0.7818608E-02  0.1171771E+00
         21   -1    0    0  503  502  0.00000000000E+00  0.00000000000E+00  0.55742575300E+02  0.55742575300E+02  0.00000000000E+00 0.  1.
         21   -1    0    0  501  503 -0.00000000000E+00 -0.00000000000E+00 -0.58595186195E+03  0.58595186195E+03  0.00000000000E+00 0.  1.
          6    2    1    2  501    0  0.34876830129E+02 -0.17918020673E+02 -0.33970427038E+03  0.38215431649E+03  0.17060328706E+03 0.  0.
         24    2    3    3    0    0 -0.20568724515E+02  0.24273616760E+02 -0.26985247182E+03  0.28338333107E+03  0.80457907524E+02 0.  0.
         -6    2    1    2    0  502 -0.34876830129E+02  0.17918020673E+02 -0.19050501627E+03  0.25954012076E+03  0.17184721212E+03 0.  0.
        -24    2    5    5    0    0 -0.57432111093E+02  0.10332414253E+01 -0.20719972431E+03  0.22645478041E+03  0.71067058799E+02 0.  0.
          5    1    3    3  501    0  0.55445554644E+02 -0.42191637433E+02 -0.69851798559E+02  0.98770985420E+02  0.47000000000E+01 0. -1.
        -11    1    4    4    0    0  0.25916394152E+02  0.36149750140E+01 -0.16244236259E+03  0.16453646615E+03  0.00000000000E+00 0.  1.
         12    1    4    4    0    0 -0.46485118667E+02  0.20658641746E+02 -0.10741010923E+03  0.11884686492E+03  0.00000000000E+00 0. -1.
         -5    1    5    5    0  502  0.22555280964E+02  0.16884779248E+02  0.16694708034E+02  0.33085340348E+02  0.47000000000E+01 0.  1.
         11    1    6    6    0    0 -0.50108994487E+02 -0.29766411860E+02 -0.15244413277E+03  0.16320589518E+03  0.00000000000E+00 0. -1.
        -12    1    6    6    0    0 -0.73231166061E+01  0.30799653285E+02 -0.54755591535E+02  0.63248885237E+02  0.00000000000E+00 0.  1.
</event>
<event>
12    1  0.8798177E-003  0.2018817E+03  0.7818608E-02  0.1150252E+00
         21   -1    0    0  501  502  0.00000000000E+00  0.00000000000E+00  0.13255217095E+03  0.13255217095E+03  0.00000000000E+00 0. -1.
         21   -1    0    0  502  503 -0.00000000000E+00 -0.00000000000E+00 -0.31415080918E+03  0.31415080918E+03  0.00000000000E+00 0. -1.
          6    2    1    2  501    0  0.87024008653E+02 -0.63210292264E+02 -0.15115272774E+03  0.25219709427E+03  0.17084351941E+03 0.  0.
         24    2    3    3    0    0  0.10403277188E+03 -0.19026151803E+02 -0.15549508456E+03  0.20442176217E+03  0.80154372602E+02 0.  0.
         -6    2    1    2    0  503 -0.87024008653E+02  0.63210292264E+02 -0.30445910485E+02  0.19450588586E+03  0.15917558556E+03 0.  0.
        -24    2    5    5    0    0 -0.43721877962E+02  0.67782942191E+02 -0.71121401625E+02  0.13473491273E+03  0.81173351997E+02 0.  0.
          5    1    3    3  501    0 -0.17008763229E+02 -0.44184140461E+02  0.43423568157E+01  0.47775332103E+02  0.47000000000E+01 0. -1.
        -13    1    4    4    0    0  0.10480107832E+03 -0.53275147554E+01 -0.92295855300E+02  0.13975039655E+03  0.00000000000E+00 0.  1.
         14    1    4    4    0    0 -0.76830643741E+00 -0.13698637048E+02 -0.63199229259E+02  0.64671365616E+02  0.00000000000E+00 0. -1.
         -5    1    5    5    0  503 -0.43302130691E+02 -0.45726499279E+01  0.40675491140E+02  0.59770973132E+02  0.47000000000E+01 0.  1.
         13    1    6    6    0    0 -0.29594242498E+02  0.55566432569E+01  0.98142912339E+01  0.31670424464E+02  0.00000000000E+00 0. -1.
        -14    1    6    6    0    0 -0.14127635464E+02  0.62226298935E+02 -0.80935692858E+02  0.10306448827E+03  0.00000000000E+00 0.  1.
</event>
<event>
12    1  0.8798177E-003  0.1825973E+03  0.7818608E-02  0.1165470E+00
         21   -1    0    0  503  502  0.00000000000E+00  0.00000000000E+00  0.11345207808E+04  0.11345207808E+04  0.00000000000E+00 0. -1.
         21   -1    0    0  501  503 -0.00000000000E+00 -0.00000000000E+00 -0.32620312194E+02  0.32620312194E+02  0.00000000000E+00 0.  1.
          6    2    1    2  501    0 -0.64122221905E+02  0.65055602824E+01  0.73673465421E+03  0.75886685716E+03  0.17013810429E+03 0.  0.
         24    2    3    3    0    0 -0.23813130767E+02  0.64701496420E+02  0.54571512092E+03  0.55509703135E+03  0.74661718336E+02 0.  0.
         -6    2    1    2    0  502  0.64122221905E+02 -0.65055602824E+01  0.36516581443E+03  0.40827423586E+03  0.17084436773E+03 0.  0.
        -24    2    5    5    0    0 -0.25640604175E+02 -0.44074492060E+01  0.23970869028E+03  0.25392610009E+03  0.79632543104E+02 0.  0.
          5    1    3    3  501    0 -0.40309091137E+02 -0.58195936137E+02  0.19101953329E+03  0.20376982581E+03  0.47000000000E+01 0. -1.
        -13    1    4    4    0    0 -0.40634278324E+02  0.41463371805E+02  0.20172195644E+03  0.20990975082E+03  0.00000000000E+00 0.  1.
         14    1    4    4    0    0  0.16821147556E+02  0.23238124615E+02  0.34399316447E+03  0.34518728054E+03  0.00000000000E+00 0. -1.
         -5    1    5    5    0  502  0.89762826080E+02 -0.20981110764E+01  0.12545712415E+03  0.15434813577E+03  0.47000000000E+01 0.  1.
         13    1    6    6    0    0  0.26571508700E+02 -0.13685552365E+02  0.10448293641E+03  0.10867393165E+03  0.00000000000E+00 0. -1.
        -14    1    6    6    0    0 -0.52212112875E+02  0.92781031588E+01  0.13522575387E+03  0.14525216845E+03  0.00000000000E+00 0.  1.
</event>
<event>
12    1  0.8798177E-003  0.2060750E+03  0.7818608E-02  0.1145491E+00
         21   -1    0    0  503  502  0.00000000000E+00  0.00000000000E+00  0.22998896438E+03  0.22998896438E+03  0.00000000000E+00 0. -1.
         21   -1    0    0  501  503 -0.00000000000E+00 -0.00000000000E+00 -0.18170576253E+03  0.18170576253E+03  0.00000000000E+00 0. -1.
          6    2    1    2  501    0  0.93644728064E+02  0.53300272127E+02  0.14174580445E+02  0.20656188519E+03  0.17566058061E+03 0.  0.
         24    2    3    3    0    0  0.93276490830E+02  0.62474865853E+02  0.66134271362E+02  0.15358822901E+03  0.81314141680E+02 0.  0.
         -6    2    1    2    0  502 -0.93644728064E+02 -0.53300272127E+02  0.34108621401E+02  0.20513284172E+03  0.17118945819E+03 0.  0.
        -24    2    5    5    0    0 -0.55493843659E+02 -0.63918442478E+02  0.82169579618E+02  0.14268141078E+03  0.80255910644E+02 0.  0.
          5    1    3    3  501    0  0.36823723378E+00 -0.91745937257E+01 -0.51959690917E+02  0.52973656178E+02  0.47000000000E+01 0. -1.
        -11    1    4    4    0    0 -0.62832440514E+01  0.52719519604E+01 -0.12120280436E+02  0.14634679058E+02  0.00000000000E+00 0.  1.
         12    1    4    4    0    0  0.99559734881E+02  0.57202913892E+02  0.78254551798E+02  0.13895354995E+03  0.00000000000E+00 0. -1.
         -5    1    5    5    0  502 -0.38150884404E+02  0.10618170351E+02 -0.48060958217E+02  0.62451430946E+02  0.47000000000E+01 0.  1.
         11    1    6    6    0    0  0.10544672252E+02 -0.45730311512E+02  0.43671861983E+02  0.64106809568E+02  0.00000000000E+00 0. -1.
        -12    1    6    6    0    0 -0.66038515911E+02 -0.18188130966E+02  0.38497717636E+02  0.78574601208E+02  0.00000000000E+00 0.  1.
</event>
<event>
12    1  0.8798177E-003  0.1895480E+03  0.7818608E-02  0.1159506E+00
         21   -1    0    0  503  502  0.00000000000E+00  0.00000000000E+00  0.14121829104E+03  0.14121829104E+03  0.00000000000E+00 0.  1.
         21   -1    0    0  501  503 -0.00000000000E+00 -0.00000000000E+00 -0.31122253542E+03  0.31122253542E+03  0.00000000000E+00 0.  1.
          6    2    1    2  501    0 -0.44402499899E+02  0.54172495031E+02 -0.18528153542E+03  0.26506164132E+03  0.17613115884E+03 0.  0.
         24    2    3    3    0    0 -0.17503126348E+02  0.10440596891E+03 -0.12528027277E+03  0.18218088532E+03  0.79295412575E+02 0.  0.
         -6    2    1    2    0  502  0.44402499899E+02 -0.54172495031E+02  0.15277291045E+02  0.18737918514E+03  0.17312227524E+03 0.  0.
        -24    2    5    5    0    0  0.46043109621E+02  0.17346950062E+02 -0.33861029350E+02  0.10046320756E+03  0.80779961281E+02 0.  0.
          5    1    3    3  501    0 -0.26899373551E+02 -0.50233473877E+02 -0.60001262649E+02  0.82880755997E+02  0.47000000000E+01 0. -1.
        -11    1    4    4    0    0  0.31485748474E+02  0.42171240742E+02 -0.57338745082E+02  0.77829927343E+02  0.00000000000E+00 0.  1.
         12    1    4    4    0    0 -0.48988874822E+02  0.62234728167E+02 -0.67941527691E+02  0.10435095798E+03  0.00000000000E+00 0. -1.
         -5    1    5    5    0  502 -0.16406097212E+01 -0.71519445094E+02  0.49138320396E+02  0.86915977576E+02  0.47000000000E+01 0.  1.
         11    1    6    6    0    0  0.21225781405E+02 -0.18501010245E+02 -0.47119732462E+02  0.54891623802E+02  0.00000000000E+00 0. -1.
        -12    1    6    6    0    0  0.24817328216E+02  0.35847960308E+02  0.13258703112E+02  0.45571583758E+02  0.00000000000E+00 0.  1.
</event>
<event>
12    1  0.8798177E-003  0.2184726E+03  0.7818608E-02  0.1135337E+00
         21   -1    0    0  503  502  0.00000000000E+00  0.00000000000E+00  0.92932456923E+03  0.92932456923E+03  0.00000000000E+00 0.  1.
         21   -1    0    0  501  503 -0.00000000000E+00 -0.00000000000E+00 -0.50976066016E+02  0.50976066016E+02  0.00000000000E+00 0. -1.
          6    2    1    2  501    0 -0.62459083325E+02  0.11907391307E+03  0.43483365458E+03  0.48589624132E+03  0.17010325190E+03 0.  0.
         24    2    3    3    0    0 -0.87895167909E+02  0.93340011768E+02  0.42118839772E+03  0.44694099636E+03  0.76932889634E+02 0.  0.
         -6    2    1    2    0  502  0.62459083325E+02 -0.11907391307E+03  0.44351484863E+03  0.49440439393E+03  0.17219335037E+03 0.  0.
        -24    2    5    5    0    0  0.89222941745E+02 -0.12000067997E+03  0.43356292896E+03  0.46545109153E+03  0.79416677782E+02 0.  0.
          5    1    3    3  501    0  0.25436084584E+02  0.25733901306E+02  0.13645256857E+02  0.38955244963E+02  0.47000000000E+01 0. -1.
        -13    1    4    4    0    0  0.66551877804E+01 -0.57573820053E+01  0.60234714960E+02  0.60874131273E+02  0.00000000000E+00 0.  1.
         14    1    4    4    0    0 -0.94550355689E+02  0.99097393773E+02  0.36095368276E+03  0.38606686508E+03  0.00000000000E+00 0. -1.
         -5    1    5    5    0  502 -0.26763858420E+02  0.92676689423E+00  0.99519196650E+01  0.28953302392E+02  0.47000000000E+01 0.  1.
         13    1    6    6    0    0 -0.11405138765E+02 -0.19246098093E+02  0.29453385109E+02  0.36986367441E+02  0.00000000000E+00 0. -1.
        -14    1    6    6    0    0  0.10062808051E+03 -0.10075458187E+03  0.40410954386E+03  0.42846472409E+03  0.00000000000E+00 0.  1.
</event>
<event>
12    1  0.8798177E-003  0.2184930E+03  0.7818608E-02  0.1135029E+00
         21   -1    0    0  501  502  0.00000000000E+00  0.00000000000E+00  0.16298186291E+03  0.16298186291E+03  0.00000000000E+00 0. -1.
         21   -1    0    0  502  503 -0.00000000000E+00 -0.00000000000E+00 -0.65761399629E+03  0.65761399629E+03  0.00000000000E+00 0. -1.
          6    2    1    2  501    0  0.12427008136E+03  0.49577536255E+02  0.58308901357E+02  0.22605149924E+03  0.17262203541E+03 0.  0.
         24    2    3    3    0    0  0.11956847999E+03 -0.30734020774E+01  0.83761884130E+02  0.16719429327E+03  0.81435933476E+02 0.  0.
         -6    2    1    2    0  503 -0.12427008136E+03 -0.49577536255E+02 -0.55294103474E+03  0.59454435995E+03  0.17273743900E+03 0.  0.
        -24    2    5    5    0    0 -0.12542838415E+03  0.24754695481E+01 -0.28736009808E+03  0.32386709641E+03  0.81090459817E+02 0.  0.
          5    1    3    3  501    0  0.47016013650E+01  0.52650938332E+02 -0.25452982773E+02  0.58857205971E+02  0.47000000000E+01 0. -1.
        -13    1    4    4    0    0  0.29719816249E+02 -0.84122209140E+01 -0.14343559589E+02  0.34055405449E+02  0.00000000000E+00 0.  1.
         14    1    4    4    0    0  0.89848663742E+02  0.53388188367E+01  0.98105443719E+02  0.13313888782E+03  0.00000000000E+00 0. -1.
         -5    1    5    5    0  503  0.11583027951E+01 -0.52053005803E+02 -0.26558093666E+03  0.27067726354E+03  0.47000000000E+01 0.  1.
         11    1    6    6    0    0 -0.74286272881E+01  0.27243008704E+02 -0.44096233397E+02  0.52362618599E+02  0.00000000000E+00 0. -1.
        -12    1    6    6    0    0 -0.11799975686E+03 -0.24767539156E+02 -0.24326386468E+03  0.27150447782E+03  0.00000000000E+00 0.  1.
</event>
<event>
12    1  0.8798177E-003  0.1871382E+03  0.7818608E-02  0.1161345E+00
         21   -1    0    0  503  502  0.00000000000E+00  0.00000000000E+00  0.86754429711E+02  0.86754429711E+02  0.00000000000E+00 0. -1.
         21   -1    0    0  501  503 -0.00000000000E+00 -0.00000000000E+00 -0.43180413350E+03  0.43180413350E+03  0.00000000000E+00 0. -1.
          6    2    1    2  501    0  0.27702638865E+02  0.66822485771E+02 -0.24115775004E+03  0.30451589891E+03  0.17128978802E+03 0.  0.
         24    2    3    3    0    0  0.64178627536E+02 -0.49747554771E+01 -0.11887309774E+03  0.15802027512E+03  0.81828781976E+02 0.  0.
         -6    2    1    2    0  502 -0.27702638865E+02 -0.66822485771E+02 -0.10389195375E+03  0.21404266430E+03  0.17259212984E+03 0.  0.
        -24    2    5    5    0    0 -0.21498664386E+02 -0.11019246712E+03 -0.54346427777E+02  0.14773811148E+03  0.79173499297E+02 0.  0.
          5    1    3    3  501    0 -0.36475988671E+02  0.71797241248E+02 -0.12228465230E+03  0.14649562379E+03  0.47000000000E+01 0. -1.
        -13    1    4    4    0    0  0.66095175221E+02  0.18161759446E+02 -0.11584902313E+03  0.13460838701E+03  0.00000000000E+00 0.  1.
         14    1    4    4    0    0 -0.19165476851E+01 -0.23136514923E+02 -0.30240746110E+01  0.23411888114E+02  0.00000000000E+00 0. -1.
         -5    1    5    5    0  502 -0.62039744788E+01  0.43369981346E+02 -0.49545525974E+02  0.66304552825E+02  0.47000000000E+01 0.  1.
         13    1    6    6    0    0 -0.30204619476E+02 -0.23003522878E+02  0.97210621502E+01  0.39191582665E+02  0.00000000000E+00 0. -1.
        -14    1    6    6    0    0  0.87059550893E+01 -0.87188944240E+02 -0.64067489927E+02  0.10854652881E+03  0.00000000000E+00 0.  1.
</event>
<event>
12    1  0.8798177E-003  0.2005118E+03  0.7818608E-02  0.1149817E+00
         21   -1    0    0  501  502  0.00000000000E+00  0.00000000000E+00  0.22643820284E+03  0.22643820284E+03  0.00000000000E+00 0.  1.
         21   -1    0    0  502  503 -0.00000000000E+00 -0.00000000000E+00 -0.17591235865E+03  0.17591235865E+03  0.00000000000E+00 0. -1.
          6    2    1    2  501    0 -0.74985805757E+02  0.70124486376E+02  0.14867409685E+02  0.20106223431E+03  0.17223433903E+03 0.  0.
         24    2    3    3    0    0 -0.10427796077E+03  0.11710450778E+02 -0.19077524492E+01  0.13343290662E+03  0.82399473849E+02 0.  0.
         -6    2    1    2    0  503  0.74985805757E+02 -0.70124486376E+02  0.35658434511E+02  0.20128832718E+03  0.16942594858E+03 0.  0.
        -24    2    5    5    0    0  0.56049701271E+02 -0.34348178252E+01 -0.30772693076E+02  0.10515678887E+03  0.83412376902E+02 0.  0.
          5    1    3    3  501    0  0.29292155009E+02  0.58414035598E+02  0.16775162134E+02  0.67629327696E+02  0.47000000000E+01 0. -1.
        -13    1    4    4    0    0 -0.26283947208E+02 -0.26700028144E+02  0.21763396929E+02  0.43328776000E+02  0.00000000000E+00 0.  1.
         14    1    4    4    0    0 -0.77994013557E+02  0.38410478921E+02 -0.23671149379E+02  0.90104130619E+02  0.00000000000E+00 0. -1.
         -5    1    5    5    0  503  0.18936104486E+02 -0.66689668551E+02  0.66431127586E+02  0.96131538305E+02  0.47000000000E+01 0.  1.
         13    1    6    6    0    0  0.10482242393E+02 -0.26351982607E+02 -0.44106040135E+02  0.52437078192E+02  0.00000000000E+00 0. -1.
        -14    1    6    6    0    0  0.45567458878E+02  0.22917164782E+02  0.13333347060E+02  0.52719710679E+02  0.00000000000E+00 0.  1.
</event>
<event>
12    1  0.8798177E-003  0.1936599E+03  0.7818608E-02  0.1155426E+00
         21   -1    0    0  503  502  0.00000000000E+00  0.00000000000E+00  0.17398903370E+03  0.17398903370E+03  0.00000000000E+00 0. -1.
         21   -1    0    0  501  503 -0.00000000000E+00 -0.00000000000E+00 -0.21468055494E+03  0.21468055494E+03  0.00000000000E+00 0. -1.
          6    2    1    2  501    0 -0.62389921288E+02  0.61647831351E+02 -0.27177314778E+02  0.19555756591E+03  0.17265919540E+03 0.  0.
         24    2    3    3    0    0 -0.92323619001E+02 -0.26120219371E+01  0.11992677357E+02  0.11442968361E+03  0.66481989259E+02 0.  0.
         -6    2    1    2    0  502  0.62389921288E+02 -0.61647831351E+02 -0.13514206466E+02  0.19311202273E+03  0.17151286295E+03 0.  0.
        -24    2    5    5    0    0 -0.25452400850E+02 -0.55233902965E+01  0.14639856998E+02  0.85033496961E+02  0.79611793368E+02 0.  0.
          5    1    3    3  501    0  0.29933697713E+02  0.64259853289E+02 -0.39169992135E+02  0.81127882305E+02  0.47000000000E+01 0. -1.
        -13    1    4    4    0    0 -0.22804852061E+02 -0.20021033292E+02 -0.19583058994E+02  0.36116467867E+02  0.00000000000E+00 0.  1.
         14    1    4    4    0    0 -0.69518766941E+02  0.17409011355E+02  0.31575736351E+02  0.78313215739E+02  0.00000000000E+00 0. -1.
         -5    1    5    5    0  502  0.87842322138E+02 -0.56124441055E+02 -0.28154063464E+02  0.10807852577E+03  0.47000000000E+01 0.  1.
         11    1    6    6    0    0 -0.37799362124E+02  0.54490314759E+01  0.39656488836E+02  0.55055615770E+02  0.00000000000E+00 0. -1.
        -12    1    6    6    0    0  0.12346961274E+02 -0.10972421772E+02 -0.25016631838E+02  0.29977881192E+02  0.00000000000E+00 0.  1.
</event>
<event>
12    1  0.8798177E-003  0.1788744E+03  0.7818608E-02  0.1168968E+00
         21   -1    0    0  501  502  0.00000000000E+00  0.00000000000E+00  0.48836757516E+02  0.48836757516E+02  0.00000000000E+00 0. -1.
         21   -1    0    0  502  503 -0.00000000000E+00 -0.00000000000E+00 -0.70440697695E+03  0.70440697695E+03  0.00000000000E+00 0. -1.
          6    2    1    2  501    0  0.47010348651E+02  0.11004084487E+02 -0.42818758430E+03  0.46393610929E+03  0.17193325274E+03 0.  0.
         24    2    3    3    0    0  0.36913509218E+01  0.34096919715E+02 -0.10453253816E+03  0.13654567954E+03  0.80879200417E+02 0.  0.
         -6    2    1    2    0  503 -0.47010348651E+02 -0.11004084487E+02 -0.22738263513E+03  0.28930762517E+03  0.17223523585E+03 0.  0.
        -24    2    5    5    0    0 -0.26457562331E+02  0.46250780757E+02 -0.67150842145E+02  0.11785251705E+03  0.80875477421E+02 0.  0.
          5    1    3    3  501    0  0.43318997730E+02 -0.23092835228E+02 -0.32365504614E+03  0.32739042975E+03  0.47000000000E+01 0. -1.
        -13    1    4    4    0    0 -0.13639255198E+01 -0.14531005536E+02  0.59252787860E+01  0.15751804449E+02  0.00000000000E+00 0.  1.
         14    1    4    4    0    0  0.50552764416E+01  0.48627925251E+02 -0.11045781695E+03  0.12079387509E+03  0.00000000000E+00 0. -1.
         -5    1    5    5    0  503 -0.20552786321E+02 -0.57254865244E+02 -0.16023179299E+03  0.17145510813E+03  0.47000000000E+01 0.  1.
         11    1    6    6    0    0  0.21416356972E+02  0.43246096895E+02 -0.40351867141E+02  0.62905949038E+02  0.00000000000E+00 0. -1.
        -12    1    6    6    0    0 -0.47873919303E+02  0.30046838620E+01 -0.26798975004E+02  0.54946568008E+02  0.00000000000E+00 0.  1.
</event>
<event>
12    1  0.8798177E-003  0.2113445E+03  0.7818608E-02  0.1140869E+00
         21   -1    0    0  503  502  0.00000000000E+00  0.00000000000E+00  0.69677168238E+03  0.69677168238E+03  0.00000000000E+00 0.  1.
         21   -1    0    0  501  503 -0.00000000000E+00 -0.00000000000E+00 -0.87948004554E+02  0.87948004554E+02  0.00000000000E+00 0.  1.
          6    2    1    2  501    0 -0.26363884075E+02 -0.11704576086E+03  0.98709442845E+02  0.23325964554E+03  0.17398776856E+03 0.  0.
         24    2    3    3    0    0  0.23503376656E+00 -0.12430118397E+03  0.12661299020E+03  0.19375215828E+03  0.77834503736E+02 0.  0.
         -6    2    1    2    0  502  0.26363884075E+02  0.11704576086E+03  0.51011423498E+03  0.55146004140E+03  0.17174655748E+03 0.  0.
        -24    2    5    5    0    0 -0.20490754572E+02  0.13426791333E+03  0.35255533095E+03  0.38611537732E+03  0.79637175053E+02 0.  0.
          5    1    3    3  501    0 -0.26598917841E+02  0.72554231059E+01 -0.27903547355E+02  0.39507487262E+02  0.47000000000E+01 0. -1.
        -13    1    4    4    0    0 -0.14183756280E+02 -0.82339964846E+01 -0.55070770363E+01  0.17300449064E+02  0.00000000000E+00 0.  1.
         14    1    4    4    0    0  0.14418790047E+02 -0.11606718749E+03  0.13212006724E+03  0.17645170921E+03  0.00000000000E+00 0. -1.
         -5    1    5    5    0  502  0.46854638646E+02 -0.17222152466E+02  0.15755890404E+03  0.16534466408E+03  0.47000000000E+01 0.  1.
         13    1    6    6    0    0 -0.13503865461E+01 -0.79468286507E+00 -0.40323779264E+01  0.43260994465E+01  0.00000000000E+00 0. -1.
        -14    1    6    6    0    0 -0.19140368026E+02  0.13506259619E+03  0.35658770887E+03  0.38178927787E+03  0.00000000000E+00 0.  1.
</event>
<event>
12    1  0.8798177E-003  0.1922623E+03  0.7818608E-02  0.1156566E+00
         21   -1    0    0  501  502  0.00000000000E+00  0.00000000000E+00  0.18659650139E+04  0.18659650139E+04  0.00000000000E+00 0. -1.
         21   -1    0    0  502  503 -0.00000000000E+00 -0.00000000000E+00 -0.20486419603E+02  0.20486419603E+02  0.00000000000E+00 0. -1.
          6    2    1    2  501    0 -0.83300687694E+02  0.21630414864E+02  0.11029235256E+04  0.11195557530E+04  0.17192411543E+03 0.  0.
         24    2    3    3    0    0 -0.75475559605E+02 -0.49239814247E+02  0.64830359056E+03  0.65935449563E+03  0.79559323577E+02 0.  0.
         -6    2    1    2    0  503  0.83300687694E+02 -0.21630414864E+02  0.74255506869E+03  0.76689568044E+03  0.17127193354E+03 0.  0.
        -24    2    5    5    0    0  0.43072284476E+02  0.55123858747E+02  0.33165344578E+03  0.34692928100E+03  0.73973349439E+02 0.  0.
          5    1    3    3  501    0 -0.78251280889E+01  0.70870229111E+02  0.45461993502E+03  0.46020125741E+03  0.47000000000E+01 0. -1.
        -11    1    4    4    0    0  0.15708830615E+02 -0.69912703954E+01  0.55816840861E+02  0.58405179092E+02  0.00000000000E+00 0.  1.
         12    1    4    4    0    0 -0.91184390220E+02 -0.42248543852E+02  0.59248674970E+03  0.60094931653E+03  0.00000000000E+00 0. -1.
         -5    1    5    5    0  503  0.40228403218E+02 -0.76754273611E+02  0.41090162291E+03  0.41996639944E+03  0.47000000000E+01 0.  1.
         11    1    6    6    0    0  0.24465594071E+02  0.65355936665E+01  0.24162038106E+03  0.24294379560E+03  0.00000000000E+00 0. -1.
        -12    1    6    6    0    0  0.18606690404E+02  0.48588265081E+02  0.90033064715E+02  0.10398548540E+03  0.00000000000E+00 0.  1.
</event>
<event>
12    1  0.8798177E-003  0.1823969E+03  0.7818608E-02  0.1165833E+00
         21   -1    0    0  501  502  0.00000000000E+00  0.00000000000E+00  0.19662465731E+03  0.19662465731E+03  0.00000000000E+00 0.  1.
         21   -1    0    0  502  503 -0.00000000000E+00 -0.00000000000E+00 -0.16864250493E+03  0.16864250493E+03  0.00000000000E+00 0.  1.
          6    2    1    2  501    0 -0.43061947342E+02 -0.38008348691E+02  0.20910862903E+01  0.18240887470E+03  0.17311747182E+03 0.  0.
         24    2    3    3    0    0  0.14572273074E+02 -0.34790442420E+02  0.56798541746E+02  0.10274047465E+03  0.76855739937E+02 0.  0.
         -6    2    1    2    0  503  0.43061947342E+02  0.38008348691E+02  0.25891066083E+02  0.18285828754E+03  0.17166199387E+03 0.  0.
        -24    2    5    5    0    0  0.14000813487E+02  0.26182929031E+02  0.81957111488E+02  0.11843871366E+03  0.80182243794E+02 0.  0.
          5    1    3    3  501    0 -0.57634220416E+02 -0.32179062714E+01 -0.54707455456E+02  0.79668400048E+02  0.47000000000E+01 0. -1.
        -11    1    4    4    0    0  0.40679671758E+01 -0.58612410956E+02  0.32577018350E+02  0.67180541823E+02  0.00000000000E+00 0.  1.
         12    1    4    4    0    0  0.10504305898E+02  0.23821968536E+02  0.24221523397E+02  0.35559932831E+02  0.00000000000E+00 0. -1.
         -5    1    5    5    0  503  0.29061133855E+02  0.11825419661E+02 -0.56066045405E+02  0.64419573877E+02  0.47000000000E+01 0.  1.
         13    1    6    6    0    0 -0.24820073668E+02  0.49254826793E+01  0.11279879691E-01  0.25304081958E+02  0.00000000000E+00 0. -1.
        -14    1    6    6    0    0  0.38820887155E+02  0.21257446351E+02  0.81945831609E+02  0.93134631705E+02  0.00000000000E+00 0.  1.
</event>
<event>
12    1  0.8798177E-003  0.1809008E+03  0.7818608E-02  0.1168415E+00
         21   -1    0    0  503  502  0.00000000000E+00  0.00000000000E+00  0.19556180917E+03  0.19556180917E+03  0.00000000000E+00 0.  1.
         21   -1    0    0  501  503 -0.00000000000E+00 -0.00000000000E+00 -0.18748152304E+03  0.18748152304E+03  0.00000000000E+00 0.  1.
          6    2    1    2  501    0 -0.19781914558E+02 -0.16426588168E+02 -0.66907963084E+02  0.18721605109E+03  0.17295091015E+03 0.  0.
         24    2    3    3    0    0  0.33131128735E+02 -0.43780244684E+02  0.26185429010E+01  0.95542512327E+02  0.78148150196E+02 0.  0.
         -6    2    1    2    0  502  0.19781914558E+02  0.16426588168E+02  0.74988249216E+02  0.19582728113E+03  0.17906403762E+03 0.  0.
        -24    2    5    5    0    0 -0.29498281846E+02 -0.49342693667E+02  0.41145148675E+02  0.10682401352E+03  0.80084933379E+02 0.  0.
          5    1    3    3  501    0 -0.52913043292E+02  0.27353656517E+02 -0.69526505985E+02  0.91673538766E+02  0.47000000000E+01 0. -1.
        -13    1    4    4    0    0 -0.19494114706E+02  0.63650163193E+01  0.93553887543E+01  0.22540125103E+02  0.00000000000E+00 0.  1.
         14    1    4    4    0    0  0.52625243441E+02 -0.50145261004E+02 -0.67368458532E+01  0.73002387224E+02  0.00000000000E+00 0. -1.
         -5    1    5    5    0  502  0.49280196403E+02  0.65769281835E+02  0.33843100540E+02  0.89003267608E+02  0.47000000000E+01 0.  1.
         13    1    6    6    0    0  0.10488192705E+01 -0.47350559609E+02 -0.88687995666E+01  0.48185382876E+02  0.00000000000E+00 0. -1.
        -14    1    6    6    0    0 -0.30547101116E+02 -0.19921340580E+01  0.50013948242E+02  0.58638630641E+02  0.00000000000E+00 0.  1.
</event>
<event>
12    1  0.8798177E-003  0.1884655E+03  0.7818608E-02  0.1159860E+00
         21   -1    0    0  501  502  0.00000000000E+00  0.00000000000E+00  0.19141157399E+02  0.19141157399E+02  0.00000000000E+00 0. -1.
         21   -1    0    0  502  503 -0.00000000000E+00 -0.00000000000E+00 -0.20274895710E+04  0.20274895710E+04  0.00000000000E+00 0.  1.
          6    2    1    2  501    0  0.74498762746E+02  0.20238819811E+02 -0.70589260987E+03  0.73061007590E+03  0.17189249798E+03 0.  0.
         24    2    3    3    0    0  0.93773871990E+02  0.14392445138E+02 -0.69709235181E+03  0.70813243200E+03  0.80703858430E+02 0.  0.
         -6    2    1    2    0  503 -0.74498762746E+02 -0.20238819811E+02 -0.13024558037E+04  0.13160206525E+04  0.17192894361E+03 0.  0.
        -24    2    5    5    0    0  0.99231092078E+01 -0.14349620550E+01 -0.94061726396E+03  0.94395902267E+03  0.78722754000E+02 0.  0.
          5    1    3    3  501    0 -0.19275109244E+02  0.58463746732E+01 -0.88002580662E+01  0.22477643898E+02  0.47000000000E+01 0. -1.
        -13    1    4    4    0    0  0.88661835732E+02 -0.46395648963E+01 -0.37218177913E+03  0.38262478147E+03  0.00000000000E+00 0.  1.
         14    1    4    4    0    0  0.51120362578E+01  0.19032010034E+02 -0.32491057268E+03  0.32550765054E+03  0.00000000000E+00 0. -1.
         -5    1    5    5    0  503 -0.84421871953E+02 -0.18803857756E+02 -0.36183853977E+03  0.37206162983E+03  0.47000000000E+01 0.  1.
         13    1    6    6    0    0  0.11770835031E+02 -0.38330633470E+02 -0.60164933279E+03  0.60298400449E+03  0.00000000000E+00 0. -1.
        -14    1    6    6    0    0 -0.18477258231E+01  0.36895671415E+02 -0.33896793117E+03  0.34097501818E+03  0.00000000000E+00 0.  1.
</event>
<event>
12    1  0.8798177E-003  0.1962198E+03  0.7818608E-02  0.1155227E+00
         21   -1    0    0  503  502  0.00000000000E+00  0.00000000000E+00  0.16350133371E+03  0.16350133371E+03  0.00000000000E+00 0.  1.
         21   -1    0    0  501  503 -0.00000000000E+00 -0.00000000000E+00 -0.22512760165E+03  0.22512760165E+03  0.00000000000E+00 0.  1.
          6    2    1    2  501    0 -0.22615131246E+02 -0.68695231796E+02 -0.14898844281E+02  0.19678461518E+03  0.18240540063E+03 0.  0.
         24    2    3    3    0    0 -0.39586902024E+02  0.30790986519E+02  0.39361660537E+00  0.94600966791E+02  0.80212095853E+02 0.  0.
         -6    2    1    2    0  502  0.22615131246E+02  0.68695231796E+02 -0.46727423663E+02  0.19184432018E+03  0.17143602897E+03 0.  0.
        -24    2    5    5    0    0  0.51925664961E+01  0.47618885797E+02 -0.97729370747E+02  0.13378360429E+03  0.77797826699E+02 0.  0.
          5    1    3    3  501    0  0.16971770777E+02 -0.99486218315E+02 -0.15292460887E+02  0.10218364839E+03  0.47000000000E+01 0. -1.
        -11    1    4    4    0    0 -0.16003301853E+02  0.26207311818E+02  0.38688571722E+02  0.49393668065E+02  0.00000000000E+00 0.  1.
         12    1    4    4    0    0 -0.23583600170E+02  0.45836747012E+01 -0.38294955117E+02  0.45207298727E+02  0.00000000000E+00 0. -1.
         -5    1    5    5    0  502  0.17422564750E+02  0.21076345999E+02  0.51001947084E+02  0.58060715888E+02  0.47000000000E+01 0.  1.
         13    1    6    6    0    0 -0.27272920692E+02  0.93362527575E+01 -0.63383913658E+01  0.29515301519E+02  0.00000000000E+00 0. -1.
        -14    1    6    6    0    0  0.32465487188E+02  0.38282633039E+02 -0.91390979381E+02  0.10426830277E+03  0.00000000000E+00 0.  1.
</event>
<event>
12    1  0.8798177E-003  0.1892348E+03  0.7818608E-02  0.1159620E+00
         21   -1    0    0  503  502  0.00000000000E+00  0.00000000000E+00  0.54960893467E+02  0.54960893467E+02  0.00000000000E+00 0.  1.
         21   -1    0    0  501  503 -0.00000000000E+00 -0.00000000000E+00 -0.11675233599E+04  0.11675233599E+04  0.00000000000E+00 0.  1.
          6    2    1    2  501    0 -0.58843811526E+02  0.53783448452E+02 -0.96370930835E+03  0.98172072265E+03  0.16936555965E+03 0.  0.
         24    2    3    3    0    0 -0.37868997797E+02  0.72732242457E+02 -0.39052045546E+03  0.40781606969E+03  0.84164603493E+02 0.  0.
         -6    2    1    2    0  502  0.58843811526E+02 -0.53783448452E+02 -0.14885315807E+03  0.24076353071E+03  0.17162331301E+03 0.  0.
        -24    2    5    5    0    0  0.65226589226E+02 -0.45782829818E+02 -0.17700785669E+03  0.21043983034E+03  0.81256171571E+02 0.  0.
          5    1    3    3  501    0 -0.20974813729E+02 -0.18948794005E+02 -0.57318885290E+03  0.57390465296E+03  0.47000000000E+01 0. -1.
        -11    1    4    4    0    0  0.62003935496E+01 -0.10180358141E+02 -0.13611248905E+03  0.13663343020E+03  0.00000000000E+00 0.  1.
         12    1    4    4    0    0 -0.44069391347E+02  0.82912600597E+02 -0.25440796640E+03  0.27118263949E+03  0.00000000000E+00 0. -1.
         -5    1    5    5    0  502 -0.63827776999E+01 -0.80006186334E+01  0.28154698614E+02  0.30323700364E+02  0.47000000000E+01 0.  1.
         13    1    6    6    0    0 -0.57221909831E+01  0.27257359744E+01  0.57014539966E+01  0.85252380567E+01  0.00000000000E+00 0. -1.
        -14    1    6    6    0    0  0.70948780209E+02 -0.48508565793E+02 -0.18270931068E+03  0.20191459229E+03  0.00000000000E+00 0.  1.
</event>
<event>
12    1  0.8798177E-003  0.2854235E+03  0.7818608E-02  0.1093016E+00
         21   -1    0    0  501  502  0.00000000000E+00  0.00000000000E+00  0.50948227403E+03  0.50948227403E+03  0.00000000000E+00 0.  1.
         21   -1    0    0  502  503 -0.00000000000E+00 -0.00000000000E+00 -0.15920889480E+03  0.15920889480E+03  0.00000000000E+00 0.  1.
          6    2    1    2  501    0 -0.59176458621E+02  0.21927220778E+03  0.15851658475E+03  0.32483473399E+03  0.16972902642E+03 0.  0.
         24    2    3    3    0    0 -0.81181942383E+02  0.16162165423E+03  0.17159572760E+03  0.26158142090E+03  0.79168675269E+02 0.  0.
         -6    2    1    2    0  503  0.59176458621E+02 -0.21927220778E+03  0.19175679448E+03  0.34385643484E+03  0.17287112308E+03 0.  0.
        -24    2    5    5    0    0  0.10429717894E+03 -0.15172775684E+03  0.11231036437E+03  0.23013766985E+03  0.80315100746E+02 0.  0.
          5    1    3    3  501    0  0.22005483762E+02  0.57650553551E+02 -0.13079142847E+02  0.63253313098E+02  0.47000000000E+01 0. -1.
        -13    1    4    4    0    0 -0.37489588100E+02  0.13945652583E+03  0.10339214765E+03  0.17760497743E+03  0.00000000000E+00 0.  1.
         14    1    4    4    0    0 -0.43692354283E+02  0.22165128403E+02  0.68203579950E+02  0.83976443470E+02  0.00000000000E+00 0. -1.
         -5    1    5    5    0  503 -0.45120720316E+02 -0.67544450936E+02  0.79446430111E+02  0.11371876499E+03  0.47000000000E+01 0.  1.
         13    1    6    6    0    0  0.30562526641E+02 -0.36984650158E+02  0.74481267444E+02  0.88596792166E+02  0.00000000000E+00 0. -1.
        -14    1    6    6    0    0  0.73734652296E+02 -0.11474310669E+03  0.37829096923E+02  0.14154087768E+03  0.00000000000E+00 0.  1.
</event>
<event>
12    1  0.8798177E-003  0.3019614E+03  0.7818608E-02  0.1084349E+00
         21   -1    0    0  503  502  0.00000000000E+00  0.00000000000E+00  0.59492438771E+03  0.59492438771E+03  0.00000000000E+00 0.  1.
         21   -1    0    0  501  503 -0.00000000000E+00 -0.00000000000E+00 -0.21120111265E+03  0.21120111265E+03  0.00000000000E+00 0.  1.
          6    2    1    2  501    0  0.18227864325E+03  0.16724166682E+03 -0.19719363124E+02  0.30260455451E+03  0.17316288349E+03 0.  0.
         24    2    3    3    0    0  0.25057824782E+02  0.55948211163E+02 -0.41426608380E+02  0.10870274036E+03  0.79636831709E+02 0.  0.
         -6    2    1    2    0  502 -0.18227864325E+03 -0.16724166682E+03  0.40344263819E+03  0.50352094586E+03  0.17196540844E+03 0.  0.
        -24    2    5    5    0    0 -0.13134105040E+03 -0.17095219894E+03  0.25271086049E+03  0.34430233757E+03  0.90588050030E+02 0.  0.
          5    1    3    3  501    0  0.15722081847E+03  0.11129345566E+03  0.21707245256E+02  0.19390181415E+03  0.47000000000E+01 0. -1.
        -11    1    4    4    0    0  0.26746792231E+02  0.44639226146E+02  0.12547873354E+02  0.53530370177E+02  0.00000000000E+00 0.  1.
         12    1    4    4    0    0 -0.16889674488E+01  0.11308985017E+02 -0.53974481734E+02  0.55172370183E+02  0.00000000000E+00 0. -1.
         -5    1    5    5    0  502 -0.50937592852E+02  0.37105321211E+01  0.15073177770E+03  0.15921860828E+03  0.47000000000E+01 0.  1.
         11    1    6    6    0    0 -0.92826772458E+01 -0.66842419683E+02  0.11275197881E+03  0.13140428414E+03  0.00000000000E+00 0. -1.
        -12    1    6    6    0    0 -0.12205837315E+03 -0.10410977926E+03  0.13995888168E+03  0.21289805343E+03  0.00000000000E+00 0.  1.
</event>
<event>
12    1  0.8798177E-003  0.1967877E+03  0.7818608E-02  0.1152590E+00
         21   -1    0    0  503  502  0.00000000000E+00  0.00000000000E+00  0.29637658979E+03  0.29637658979E+03  0.00000000000E+00 0.  1.
         21   -1    0    0  501  503 -0.00000000000E+00 -0.00000000000E+00 -0.13303358511E+03  0.13303358511E+03  0.00000000000E+00 0.  1.
          6    2    1    2  501    0 -0.21517363449E+02 -0.93402256740E+02  0.11224440874E+03  0.22609648395E+03  0.17127123012E+03 0.  0.
         24    2    3    3    0    0  0.25104152454E+02  0.25834688948E+01  0.57979982512E+01  0.75299423045E+02  0.70707096852E+02 0.  0.
         -6    2    1    2    0  502  0.21517363449E+02  0.93402256740E+02  0.51098595945E+02  0.20331369095E+03  0.17186742544E+03 0.  0.
        -24    2    5    5    0    0  0.52237305641E+02  0.10456099021E+03  0.77286831796E+02  0.16116934521E+03  0.79627675408E+02 0.  0.
          5    1    3    3  501    0 -0.46621515903E+02 -0.95985725634E+02  0.10644641049E+03  0.15079706090E+03  0.47000000000E+01 0. -1.
        -13    1    4    4    0    0  0.18191514022E+00 -0.31012118232E+02 -0.65250202691E+01  0.31691646531E+02  0.00000000000E+00 0.  1.
         14    1    4    4    0    0  0.24922237313E+02  0.33595587126E+02  0.12323018520E+02  0.43607776514E+02  0.00000000000E+00 0. -1.
         -5    1    5    5    0  502 -0.30719942192E+02 -0.11158733474E+02 -0.26188235851E+02  0.42144345742E+02  0.47000000000E+01 0.  1.
         11    1    6    6    0    0 -0.21443425668E+02  0.23385357037E+02  0.19528382879E+02  0.37256585539E+02  0.00000000000E+00 0. -1.
        -12    1    6    6    0    0  0.73680731309E+02  0.81175633176E+02  0.57758448916E+02  0.12391275967E+03  0.00000000000E+00 0.  1.
</event>
<event>
12    1  0.8798177E-003  0.1823841E+03  0.7818608E-02  0.1166116E+00
         21   -1    0    0  503  502  0.00000000000E+00  0.00000000000E+00  0.16948892798E+04  0.16948892798E+04  0.00000000000E+00 0.  1.
         21   -1    0    0  501  503 -0.00000000000E+00 -0.00000000000E+00 -0.19450419535E+02  0.19450419535E+02  0.00000000000E+00 0.  1.
          6    2    1    2  501    0 -0.43109555081E+02  0.32369585318E+02  0.77265665946E+03  0.79331870738E+03  0.17161012291E+03 0.  0.
         24    2    3    3    0    0 -0.27956889084E+02  0.85785690595E+02  0.43600209704E+03  0.45208379125E+03  0.78365511109E+02 0.  0.
         -6    2    1    2    0  502  0.43109555081E+02 -0.32369585318E+02  0.90278220080E+03  0.92102099194E+03  0.17423473170E+03 0.  0.
        -24    2    5    5    0    0 -0.35034013594E+02 -0.37534151671E+02  0.62766568025E+03  0.63493659889E+03  0.80895511590E+02 0.  0.
          5    1    3    3  501    0 -0.15152665997E+02 -0.53416105277E+02  0.33665456242E+03  0.34123491614E+03  0.47000000000E+01 0. -1.
        -11    1    4    4    0    0 -0.51893780157E+02  0.76016237036E+02  0.30629042918E+03  0.31982066807E+03  0.00000000000E+00 0.  1.
         12    1    4    4    0    0  0.23936891073E+02  0.97694535586E+01  0.12971166785E+03  0.13226312318E+03  0.00000000000E+00 0. -1.
         -5    1    5    5    0  502  0.78143568675E+02  0.51645663536E+01  0.27511652055E+03  0.28608439305E+03  0.47000000000E+01 0.  1.
         11    1    6    6    0    0 -0.29606838767E+02 -0.93799374657E+01  0.70547896735E+02  0.77081475481E+02  0.00000000000E+00 0. -1.
        -12    1    6    6    0    0 -0.54271748275E+01 -0.28154214206E+02  0.55711778352E+03  0.55785512341E+03  0.00000000000E+00 0.  1.
</event>
<event>
12    1  0.8798177E-003  0.1781230E+03  0.7818608E-02  0.1169719E+00
         21   -1    0    0  503  502  0.00000000000E+00  0.00000000000E+00  0.44318340192E+03  0.44318340192E+03  0.00000000000E+00 0. -1.
         21   -1    0    0  501  503 -0.00000000000E+00 -0.00000000000E+00 -0.77200674393E+02  0.77200674393E+02  0.00000000000E+00 0. -1.
          6    2    1    2  501    0  0.11667175076E+02 -0.34433945423E+02  0.11180476753E+03  0.21000647453E+03  0.17401319988E+03 0.  0.
         24    2    3    3    0    0 -0.47059700017E+02 -0.63783242117E+02  0.73129035967E+02  0.13366428903E+03  0.78964352216E+02 0.  0.
         -6    2    1    2    0  502 -0.11667175076E+02  0.34433945423E+02  0.25417795999E+03  0.31037760178E+03  0.17437316527E+03 0.  0.
        -24    2    5    5    0    0  0.91622629567E+01 -0.14455216838E+02  0.32057238482E+02  0.81940037879E+02  0.73441152716E+02 0.  0.
          5    1    3    3  501    0  0.58726875093E+02  0.29349296694E+02  0.38675731564E+02  0.76342185499E+02  0.47000000000E+01 0. -1.
        -13    1    4    4    0    0 -0.16043525492E+02  0.15544135488E+02  0.15261522944E+01  0.22390712341E+02  0.00000000000E+00 0.  1.
         14    1    4    4    0    0 -0.31016174525E+02 -0.79327377606E+02  0.71602883673E+02  0.11127357669E+03  0.00000000000E+00 0. -1.
         -5    1    5    5    0  502 -0.20829438032E+02  0.48889162261E+02  0.22212072151E+03  0.22843756390E+03  0.47000000000E+01 0.  1.
         13    1    6    6    0    0 -0.27388711370E+02 -0.97756018469E+01  0.34365137957E+02  0.45018514067E+02  0.00000000000E+00 0. -1.
        -14    1    6    6    0    0  0.36550974326E+02 -0.46796149912E+01 -0.23078994752E+01  0.36921523813E+02  0.00000000000E+00 0.  1.
</event>
<event>
12    1  0.8798177E-003  0.1951475E+03  0.7818608E-02  0.1154008E+00
         21   -1    0    0  503  502  0.00000000000E+00  0.00000000000E+00  0.89669783626E+03  0.89669783626E+03  0.00000000000E+00 0.  1.
         21   -1    0    0  501  503 -0.00000000000E+00 -0.00000000000E+00 -0.64127567828E+02  0.64127567828E+02  0.00000000000E+00 0.  1.
          6    2    1    2  501    0 -0.65677347811E+02 -0.63682113358E+02  0.13604032698E+03  0.23747450928E+03  0.17180874953E+03 0.  0.
         24    2    3    3    0    0 -0.47899779098E+02 -0.94002757288E+02  0.44316364968E+02  0.13913449400E+03  0.79142656013E+02 0.  0.
         -6    2    1    2    0  502  0.65677347811E+02  0.63682113358E+02  0.69652994145E+03  0.72335089481E+03  0.17237642562E+03 0.  0.
        -24    2    5    5    0    0 -0.26261045846E+02  0.28779266730E+01  0.21728104503E+03  0.23156698691E+03  0.75592935568E+02 0.  0.
          5    1    3    3  501    0 -0.17777568713E+02  0.30320643930E+02  0.91723962012E+02  0.98340015278E+02  0.47000000000E+01 0. -1.
        -11    1    4    4    0    0 -0.69140363759E+02 -0.58922319841E+02  0.32044366793E+02  0.96327935301E+02  0.00000000000E+00 0.  1.
         12    1    4    4    0    0  0.21240584662E+02 -0.35080437446E+02  0.12271998175E+02  0.42806558696E+02  0.00000000000E+00 0. -1.
         -5    1    5    5    0  502  0.91938393656E+02  0.60804186685E+02  0.47924889642E+03  0.49178390790E+03  0.47000000000E+01 0.  1.
         13    1    6    6    0    0 -0.23148489104E+02  0.36198106058E+02  0.86657738630E+02  0.96724966242E+02  0.00000000000E+00 0. -1.
        -14    1    6    6    0    0 -0.31125567416E+01 -0.33320179386E+02  0.13062330640E+03  0.13484202067E+03  0.00000000000E+00 0.  1.
</event>
<event>
12    1  0.8798177E-003  0.1915751E+03  0.7818608E-02  0.1159989E+00
         21   -1    0    0  503  502  0.00000000000E+00  0.00000000000E+00  0.56898570772E+02  0.56898570772E+02  0.00000000000E+00 0.  1.
         21   -1    0    0  501  503 -0.00000000000E+00 -0.00000000000E+00 -0.62660391576E+03  0.62660391576E+03  0.00000000000E+00 0.  1.
          6    2    1    2  501    0 -0.44506830979E+02 -0.26514998739E+02 -0.20908428594E+03  0.27515391863E+03  0.17120028374E+03 0.  0.
         24    2    3    3    0    0  0.26599206404E+02 -0.44281765261E+02 -0.15907518377E+03  0.18630164323E+03  0.82067019335E+02 0.  0.
         -6    2    1    2    0  502  0.44506830979E+02  0.26514998739E+02 -0.36062105906E+03  0.40834856790E+03  0.18443725630E+03 0.  0.
        -24    2    5    5    0    0  0.23045550546E+02  0.90553514340E+02 -0.24365824833E+03  0.27320454424E+03  0.80872397368E+02 0.  0.
          5    1    3    3  501    0 -0.71106037383E+02  0.17766766522E+02 -0.50009102167E+02  0.88852275404E+02  0.47000000000E+01 0. -1.
        -11    1    4    4    0    0  0.17329193790E+02 -0.46515379305E+02 -0.32419387145E+02  0.59287419678E+02  0.00000000000E+00 0.  1.
         12    1    4    4    0    0  0.92700126141E+01  0.22336140432E+01 -0.12665579663E+03  0.12701422355E+03  0.00000000000E+00 0. -1.
         -5    1    5    5    0  502  0.21461280433E+02 -0.64038515601E+02 -0.11696281073E+03  0.13514402366E+03  0.47000000000E+01 0.  1.
         13    1    6    6    0    0 -0.22453766922E+02  0.45649313611E+02 -0.16015738798E+03  0.16804291240E+03  0.00000000000E+00 0. -1.
        -14    1    6    6    0    0  0.45499317468E+02  0.44904200729E+02 -0.83500860347E+02  0.10516163184E+03  0.00000000000E+00 0.  1.
</event>
<event>
12    1  0.8798177E-003  0.3811226E+03  0.7818608E-02  0.1050615E+00
         21   -1    0    0  501  502  0.00000000000E+00  0.00000000000E+00  0.64744298606E+03  0.64744298606E+03  0.00000000000E+00 0. -1.
         21   -1    0    0  502  503 -0.00000000000E+00 -0.00000000000E+00 -0.24716979066E+03  0.24716979066E+03  0.00000000000E+00 0.  1.
          6    2    1    2  501    0 -0.67590285023E+02 -0.33265599103E+03  0.33760103653E+03  0.50837157557E+03  0.17099340334E+03 0.  0.
         24    2    3    3    0    0  0.39285309616E+01 -0.89460826069E+02  0.73843276602E+02  0.14251767683E+03  0.82702998458E+02 0.  0.
         -6    2    1    2    0  503  0.67590285023E+02  0.33265599103E+03  0.62672158866E+02  0.38624120115E+03  0.17328015169E+03 0.  0.
        -24    2    5    5    0    0  0.71710046521E+02  0.33282024791E+03  0.28184027801E+02  0.35119094295E+03  0.81419228690E+02 0.  0.
          5    1    3    3  501    0 -0.71518815985E+02 -0.24319516496E+03  0.26375775993E+03  0.36585389874E+03  0.47000000000E+01 0. -1.
        -11    1    4    4    0    0 -0.18952915652E+02 -0.78899167535E+02  0.82647455133E+02  0.11582268124E+03  0.00000000000E+00 0.  1.
         12    1    4    4    0    0  0.22881446614E+02 -0.10561658534E+02 -0.88041785309E+01  0.26694995594E+02  0.00000000000E+00 0. -1.
         -5    1    5    5    0  503 -0.41197614979E+01 -0.16425687690E+00  0.34488131065E+02  0.35050258195E+02  0.47000000000E+01 0.  1.
         11    1    6    6    0    0  0.17789583662E+02  0.24428493408E+03  0.50777384751E+01  0.24498445202E+03  0.00000000000E+00 0. -1.
        -12    1    6    6    0    0  0.53920462859E+02  0.88535313831E+02  0.23106289326E+02  0.10620649093E+03  0.00000000000E+00 0.  1.
</event>
<event>
12    1  0.8798177E-003  0.1770038E+03  0.7818608E-02  0.1170840E+00
         21   -1    0    0  501  502  0.00000000000E+00  0.00000000000E+00  0.24930446845E+02  0.24930446845E+02  0.00000000000E+00 0.  1.
         21   -1    0    0  502  503 -0.00000000000E+00 -0.00000000000E+00 -0.14836444164E+04  0.14836444164E+04  0.00000000000E+00 0.  1.
          6    2    1    2  501    0 -0.29213255938E+02  0.29126284513E+02 -0.43165290886E+03  0.46637297717E+03  0.17169090056E+03 0.  0.
         24    2    3    3    0    0  0.40842362510E+01  0.75979656409E+02 -0.20481634582E+03  0.23231982556E+03  0.78950469680E+02 0.  0.
         -6    2    1    2    0  503  0.29213255938E+02 -0.29126284513E+02 -0.10270610607E+04  0.10422018861E+04  0.17212958539E+03 0.  0.
        -24    2    5    5    0    0 -0.11337337146E+02 -0.49050187325E+02 -0.30691644511E+03  0.32062606202E+03  0.77903217372E+02 0.  0.
          5    1    3    3  501    0 -0.33297492189E+02 -0.46853371896E+02 -0.22683656304E+03  0.23405315161E+03  0.47000000000E+01 0. -1.
        -13    1    4    4    0    0  0.25910652371E+02  0.67178179262E+02 -0.19298434212E+03  0.20597870273E+03  0.00000000000E+00 0.  1.
         14    1    4    4    0    0 -0.21826416120E+02  0.88014771466E+01 -0.11832003697E+02  0.26341122833E+02  0.00000000000E+00 0. -1.
         -5    1    5    5    0  503  0.40550593085E+02  0.19923902813E+02 -0.72014461558E+03  0.72157582404E+03  0.47000000000E+01 0.  1.
         11    1    6    6    0    0 -0.89408063552E+01 -0.16760091998E+02 -0.91148020864E+01  0.21069369215E+02  0.00000000000E+00 0. -1.
        -12    1    6    6    0    0 -0.23965307912E+01 -0.32290095327E+02 -0.29780164303E+03  0.29955669281E+03  0.00000000000E+00 0.  1.
</event>
<event>
12    1  0.8798177E-003  0.3710134E+03  0.7818608E-02  0.1054399E+00
         21   -1    0    0  501  502  0.00000000000E+00  0.00000000000E+00  0.13478888447E+03  0.13478888447E+03  0.00000000000E+00 0. -1.
         21   -1    0    0  502  503 -0.00000000000E+00 -0.00000000000E+00 -0.10786220902E+04  0.10786220902E+04  0.00000000000E+00 0.  1.
          6    2    1    2  501    0 -0.21218523720E+03 -0.25123684987E+03 -0.32813978098E+03  0.49457209900E+03  0.16965646358E+03 0.  0.
         24    2    3    3    0    0 -0.15520174910E+03 -0.25053862549E+03 -0.30916159960E+03  0.43432372308E+03  0.78733829948E+02 0.  0.
         -6    2    1    2    0  503  0.21218523720E+03  0.25123684987E+03 -0.61569342480E+03  0.71883887571E+03  0.17178011024E+03 0.  0.
        -24    2    5    5    0    0  0.46878885356E+02  0.14992709332E+03 -0.30668389335E+03  0.35401174232E+03  0.81200616106E+02 0.  0.
          5    1    3    3  501    0 -0.56983488096E+02 -0.69822438540E+00 -0.18978181379E+02  0.60248375923E+02  0.47000000000E+01 0. -1.
        -11    1    4    4    0    0 -0.17143511518E+02 -0.12469620475E+02 -0.10830628849E+01  0.21226503414E+02  0.00000000000E+00 0.  1.
         12    1    4    4    0    0 -0.13805823758E+03 -0.23806900501E+03 -0.30807853671E+03  0.41309721967E+03  0.00000000000E+00 0. -1.
         -5    1    5    5    0  503  0.16530635184E+03  0.10130975655E+03 -0.30900953146E+03  0.36482713340E+03  0.47000000000E+01 0.  1.
         13    1    6    6    0    0  0.99678678715E+01 -0.69714998707E+01 -0.45492944107E+02  0.47091062463E+02  0.00000000000E+00 0. -1.
        -14    1    6    6    0    0  0.36911017485E+02  0.15689859319E+03 -0.26119094924E+03  0.30692067985E+03  0.00000000000E+00 0.  1.
</event>
<event>
12    1  0.8798177E-003  0.4071164E+03  0.7818608E-02  0.1041556E+00
         21   -1    0    0  503  502  0.00000000000E+00  0.00000000000E+00  0.25359272315E+03  0.25359272315E+03  0.00000000000E+00 0. -1.
         21   -1    0    0  501  503 -0.00000000000E+00 -0.00000000000E+00 -0.81017666056E+03  0.81017666056E+03  0.00000000000E+00 0.  1.
          6    2    1    2  501    0 -0.10218293646E+03  0.35163827849E+03 -0.51442643184E+03  0.65447609935E+03  0.17208596526E+03 0.  0.
         24    2    3    3    0    0 -0.50948948921E+02  0.32843354180E+03 -0.47703440589E+03  0.58677355221E+03  0.79227459870E+02 0.  0.
         -6    2    1    2    0  502  0.10218293646E+03 -0.35163827849E+03 -0.42157505571E+02  0.40929328436E+03  0.17791263571E+03 0.  0.
        -24    2    5    5    0    0  0.13802041368E+03 -0.25700031352E+03 -0.57974239884E+02  0.30676071260E+03  0.75115421603E+02 0.  0.
          5    1    3    3  501    0 -0.51233987541E+02  0.23204736696E+02 -0.37392025945E+02  0.67702547136E+02  0.47000000000E+01 0. -1.
        -11    1    4    4    0    0 -0.10986042769E+02  0.13034800859E+03 -0.25470426475E+03  0.28633120500E+03  0.00000000000E+00 0.  1.
         12    1    4    4    0    0 -0.39962906153E+02  0.19808553321E+03 -0.22233014115E+03  0.30044234721E+03  0.00000000000E+00 0. -1.
         -5    1    5    5    0  502 -0.35837477222E+02 -0.94637964970E+02  0.15816734314E+02  0.10253257176E+03  0.47000000000E+01 0.  1.
         13    1    6    6    0    0  0.12077961534E+03 -0.17408572281E+03 -0.16666614533E+02  0.21253548035E+03  0.00000000000E+00 0. -1.
        -14    1    6    6    0    0  0.17240798339E+02 -0.82914590715E+02 -0.41307625351E+02  0.94225232252E+02  0.00000000000E+00 0.  1.
</event>
<event>
12    1  0.8798177E-003  0.2852327E+03  0.7818608E-02  0.1092875E+00
         21   -1    0    0  501  502  0.00000000000E+00  0.00000000000E+00  0.20110402014E+04  0.20110402014E+04  0.00000000000E+00 0.  1.
         21   -1    0    0  502  503 -0.00000000000E+00 -0.00000000000E+00 -0.51998101688E+02  0.51998101688E+02  0.00000000000E+00 0. -1.
          6    2    1    2  501    0 -0.79442866362E+02  0.21366697726E+03  0.14658556007E+04  0.14933486963E+04  0.17144369474E+03 0.  0.
         24    2    3    3    0    0  0.29071097403E+01  0.15893657472E+03  0.11145460287E+04  0.11283590514E+04  0.75577858279E+02 0.  0.
         -6    2    1    2    0  503  0.79442866362E+02 -0.21366697726E+03  0.49318649893E+03  0.56968960671E+03  0.17131426990E+03 0.  0.
        -24    2    5    5    0    0  0.49941405651E+02 -0.15698562854E+03  0.46611526918E+03  0.50013349298E+03  0.75706241973E+02 0.  0.
          5    1    3    3  501    0 -0.82349976102E+02  0.54730402541E+02  0.35130957199E+03  0.36498964492E+03  0.47000000000E+01 0. -1.
        -13    1    4    4    0    0 -0.31713901087E+02  0.41726755005E+02  0.27309049392E+03  0.27807429129E+03  0.00000000000E+00 0.  1.
         14    1    4    4    0    0  0.34621010828E+02  0.11720981971E+03  0.84145553483E+03  0.85028476013E+03  0.00000000000E+00 0. -1.
         -5    1    5    5    0  503  0.29501460710E+02 -0.56681348716E+02  0.27071229758E+02  0.69556113728E+02  0.47000000000E+01 0.  1.
         11    1    6    6    0    0  0.48136983026E+02 -0.13437608819E+03  0.29717263761E+03  0.32967511091E+03  0.00000000000E+00 0. -1.
        -12    1    6    6    0    0  0.18044226257E+01 -0.22609540352E+02  0.16894263157E+03  0.17045838207E+03  0.00000000000E+00 0.  1.
</event>
<event>
12    1  0.8798177E-003  0.2075615E+03  0.7818608E-02  0.1143776E+00
         21   -1    0    0  503  502  0.00000000000E+00  0.00000000000E+00  0.93400640526E+02  0.93400640526E+02  0.00000000000E+00 0.  1.
         21   -1    0    0  501  503 -0.00000000000E+00 -0.00000000000E+00 -0.91174282679E+03  0.91174282679E+03  0.00000000000E+00 0.  1.
          6    2    1    2  501    0 -0.41665352853E+02  0.11056198591E+03 -0.76422297936E+03  0.79190815351E+03  0.17065112677E+03 0.  0.
         24    2    3    3    0    0  0.23229664448E+02  0.57534211462E+02 -0.59060044434E+03  0.59906058989E+03  0.78834654151E+02 0.  0.
         -6    2    1    2    0  502  0.41665352853E+02 -0.11056198591E+03 -0.54119206907E+02  0.21323531380E+03  0.16905755274E+03 0.  0.
        -24    2    5    5    0    0  0.79623696001E+02 -0.12636413142E+03 -0.59104932742E+02  0.17155209080E+03  0.60240352835E+02 0.  0.
          5    1    3    3  501    0 -0.64895017301E+02  0.53027774446E+02 -0.17362253501E+03  0.19284756363E+03  0.47000000000E+01 0. -1.
        -13    1    4    4    0    0 -0.12822363792E+02  0.61795968312E+02 -0.41223880517E+03  0.41704194897E+03  0.00000000000E+00 0.  1.
         14    1    4    4    0    0  0.36052028240E+02 -0.42617568493E+01 -0.17836163918E+03  0.18201864092E+03  0.00000000000E+00 0. -1.
         -5    1    5    5    0  502 -0.37958343147E+02  0.15802145516E+02  0.49857258350E+01  0.41683222998E+02  0.47000000000E+01 0.  1.
         13    1    6    6    0    0  0.69304303205E+00 -0.15173891943E+02 -0.27751476411E+02  0.31636557151E+02  0.00000000000E+00 0. -1.
        -14    1    6    6    0    0  0.78930652969E+02 -0.11119023948E+03 -0.31353456331E+02  0.13991553365E+03  0.00000000000E+00 0.  1.
</event>
<event>
12    1  0.8798177E-003  0.1747482E+03  0.7818608E-02  0.1173318E+00
         21   -1    0    0  501  502  0.00000000000E+00  0.00000000000E+00  0.32658769019E+02  0.32658769019E+02  0.00000000000E+00 0. -1.
         21   -1    0    0  502  503 -0.00000000000E+00 -0.00000000000E+00 -0.98470900876E+03  0.98470900876E+03  0.00000000000E+00 0. -1.
          6    2    1    2  501    0 -0.27512885061E+02  0.12140724497E+02 -0.35223579542E+03  0.39261639655E+03  0.17080170732E+03 0.  0.
         24    2    3    3    0    0 -0.22256249457E+02  0.20227390789E+02 -0.70386359366E+02  0.11056281831E+03  0.79783514776E+02 0.  0.
         -6    2    1    2    0  503  0.27512885061E+02 -0.12140724497E+02 -0.59981444432E+03  0.62475138124E+03  0.17214111858E+03 0.  0.
        -24    2    5    5    0    0  0.49903411092E+02  0.12631886915E+02 -0.18088784586E+03  0.20446980559E+03  0.80234491409E+02 0.  0.
          5    1    3    3  501    0 -0.52566356036E+01 -0.80866662923E+01 -0.28184943606E+03  0.28205357824E+03  0.47000000000E+01 0. -1.
        -13    1    4    4    0    0 -0.36646039489E+02  0.38903132314E+02 -0.68539643476E+02  0.86914145235E+02  0.00000000000E+00 0.  1.
         14    1    4    4    0    0  0.14389790032E+02 -0.18675741525E+02 -0.18467158902E+01  0.23648673076E+02  0.00000000000E+00 0. -1.
         -5    1    5    5    0  503 -0.22390526031E+02 -0.24772611412E+02 -0.41892659846E+03  0.42028157564E+03  0.47000000000E+01 0.  1.
         11    1    6    6    0    0 -0.15136490246E+02  0.12762861093E+02 -0.11207084978E+02  0.22750883806E+02  0.00000000000E+00 0. -1.
        -12    1    6    6    0    0  0.65039901337E+02 -0.13097417783E+00 -0.16968076089E+03  0.18171892179E+03  0.00000000000E+00 0.  1.
</event>
<event>
12    1  0.8798177E-003  0.1882920E+03  0.7818608E-02  0.1161372E+00
         21   -1    0    0  503  502  0.00000000000E+00  0.00000000000E+00  0.43679496887E+03  0.43679496887E+03  0.00000000000E+00 0. -1.
         21   -1    0    0  501  503 -0.00000000000E+00 -0.00000000000E+00 -0.10263278864E+03  0.10263278864E+03  0.00000000000E+00 0.  1.
          6    2    1    2  501    0 -0.63204834966E+02 -0.42603431927E+02  0.38764089588E+02  0.19224085662E+03  0.17217429755E+03 0.  0.
         24    2    3    3    0    0 -0.84419198566E+02  0.12862415992E+02 -0.65424616643E+01  0.11739913634E+03  0.80297637426E+02 0.  0.
         -6    2    1    2    0  502  0.63204834966E+02  0.42603431927E+02  0.29539809064E+03  0.34718690090E+03  0.16573716730E+03 0.  0.
        -24    2    5    5    0    0  0.31724208290E+02  0.45434953942E+02  0.29881656107E+03  0.31504933234E+03  0.83030019908E+02 0.  0.
          5    1    3    3  501    0  0.21214363599E+02 -0.55465847919E+02  0.45306551253E+02  0.74841720282E+02  0.47000000000E+01 0. -1.
        -11    1    4    4    0    0 -0.37044577450E+02 -0.33362902887E+02  0.53825409916E+01  0.50143352052E+02  0.00000000000E+00 0.  1.
         12    1    4    4    0    0 -0.47374621116E+02  0.46225318879E+02 -0.11925002656E+02  0.67255784284E+02  0.00000000000E+00 0. -1.
         -5    1    5    5    0  502  0.31480626676E+02 -0.28315220150E+01 -0.34184704276E+01  0.32137568559E+02  0.47000000000E+01 0.  1.
         13    1    6    6    0    0  0.75582292928E+01  0.52746176794E+02  0.89093733928E+02  0.10381223156E+03  0.00000000000E+00 0. -1.
        -14    1    6    6    0    0  0.24165978997E+02 -0.73112228516E+01  0.20972282714E+03  0.21123710078E+03  0.00000000000E+00 0.  1.
</event>
<event>
12    1  0.8798177E-003  0.1824848E+03  0.7818608E-02  0.1165542E+00
         21   -1    0    0  501  502  0.00000000000E+00  0.00000000000E+00  0.70310782680E+02  0.70310782680E+02  0.00000000000E+00 0. -1.
         21   -1    0    0  502  503 -0.00000000000E+00 -0.00000000000E+00 -0.50676847615E+03  0.50676847615E+03  0.00000000000E+00 0. -1.
          6    2    1    2  501    0 -0.22045335388E+02  0.55861554314E+02 -0.14268469022E+03  0.23124218889E+03  0.17177752774E+03 0.  0.
         24    2    3    3    0    0 -0.30720270385E+02 -0.30412959328E+02 -0.94625268974E+02  0.13199328878E+03  0.81237944631E+02 0.  0.
         -6    2    1    2    0  503  0.22045335388E+02 -0.55861554314E+02 -0.29377300325E+03  0.34583706994E+03  0.17232002625E+03 0.  0.
        -24    2    5    5    0    0 -0.21900853812E+02 -0.52495310483E+02 -0.28361378014E+03  0.30036291292E+03  0.80905489018E+02 0.  0.
          5    1    3    3  501    0  0.86749349973E+01  0.86274513642E+02 -0.48059421251E+02  0.99248900106E+02  0.47000000000E+01 0. -1.
        -13    1    4    4    0    0  0.94231487941E+01  0.21416453095E+02 -0.41380668414E+02  0.47537563197E+02  0.00000000000E+00 0.  1.
         14    1    4    4    0    0 -0.40143419180E+02 -0.51829412423E+02 -0.53244600560E+02  0.84455725586E+02  0.00000000000E+00 0. -1.
         -5    1    5    5    0  503  0.43946189201E+02 -0.33662438314E+01 -0.10159223111E+02  0.45474157024E+02  0.47000000000E+01 0.  1.
         13    1    6    6    0    0 -0.90698874145E+00 -0.61548617512E+02 -0.26116645165E+03  0.26832251194E+03  0.00000000000E+00 0. -1.
        -14    1    6    6    0    0 -0.20993865071E+02  0.90533070289E+01 -0.22447328491E+02  0.32040400983E+02  0.00000000000E+00 0.  1.
</event>
<event>
12    1  0.8798177E-003  0.1766654E+03  0.7818608E-02  0.1171133E+00
         21   -1    0    0  503  502  0.00000000000E+00  0.00000000000E+00  0.47265982981E+03  0.47265982981E+03  0.00000000000E+00 0.  1.
         21   -1    0    0  501  503 -0.00000000000E+00 -0.00000000000E+00 -0.68205300921E+02  0.68205300921E+02  0.00000000000E+00 0.  1.
          6    2    1    2  501    0 -0.30605747773E+02  0.28090768763E+02  0.15304470562E+03  0.23373773417E+03  0.17171151205E+03 0.  0.
         24    2    3    3    0    0 -0.28146511931E+02  0.34353790177E+02  0.18196666693E+03  0.20367375034E+03  0.79991997547E+02 0.  0.
         -6    2    1    2    0  502  0.30605747773E+02 -0.28090768763E+02  0.25140982327E+03  0.30712739656E+03  0.17144834614E+03 0.  0.
        -24    2    5    5    0    0  0.33326157921E+02  0.25091378627E+02  0.56554440831E+02  0.10507183119E+03  0.78111937934E+02 0.  0.
          5    1    3    3  501    0 -0.24592358417E+01 -0.62630214131E+01 -0.28921961307E+02  0.30063983835E+02  0.47000000000E+01 0. -1.
        -13    1    4    4    0    0  0.26172530435E+02 -0.20213301196E+00  0.40141450680E+02  0.47920541210E+02  0.00000000000E+00 0.  1.
         14    1    4    4    0    0 -0.54319042366E+02  0.34555923189E+02  0.14182521624E+03  0.15575320913E+03  0.00000000000E+00 0. -1.
         -5    1    5    5    0  502 -0.27204101480E+01 -0.53182147391E+02  0.19485538244E+03  0.20205556538E+03  0.47000000000E+01 0.  1.
         11    1    6    6    0    0  0.39025356168E+02  0.49668564235E+02  0.37535657191E+02  0.73477004961E+02  0.00000000000E+00 0. -1.
        -12    1    6    6    0    0 -0.56991982472E+01 -0.24577185607E+02  0.19018783640E+02  0.31594826225E+02  0.00000000000E+00 0.  1.
</event>
<event>
12    1  0.8798177E-003  0.2551730E+03  0.7818608E-02  0.1110088E+00
         21   -1    0    0  501  502  0.00000000000E+00  0.00000000000E+00  0.90394401820E+02  0.90394401820E+02  0.00000000000E+00 0.  1.
         21   -1    0    0  502  503 -0.00000000000E+00 -0.00000000000E+00 -0.93544434785E+03  0.93544434785E+03  0.00000000000E+00 0. -1.
          6    2    1    2  501    0  0.89543535355E+02 -0.16594767255E+03 -0.17649483577E+03  0.31026391826E+03  0.17192032217E+03 0.  0.
         24    2    3    3    0    0  0.12439341206E+03 -0.13433125131E+03 -0.10794883287E+03  0.22698873281E+03  0.79701494735E+02 0.  0.
         -6    2    1    2    0  503 -0.89543535355E+02  0.16594767255E+03 -0.66855511026E+03  0.71557483141E+03  0.17182761460E+03 0.  0.
        -24    2    5    5    0    0 -0.11199823064E+03  0.16998139218E+03 -0.64678121461E+03  0.68368946226E+03  0.87567481823E+02 0.  0.
          5    1    3    3  501    0 -0.34849876705E+02 -0.31616421236E+02 -0.68546002904E+02  0.83275185453E+02  0.47000000000E+01 0. -1.
        -13    1    4    4    0    0  0.59921410485E+02 -0.10817793874E+03 -0.95641137262E+02  0.15633383831E+03  0.00000000000E+00 0.  1.
         14    1    4    4    0    0  0.64472001575E+02 -0.26153312572E+02 -0.12307695604E+02  0.70654894499E+02  0.00000000000E+00 0. -1.
         -5    1    5    5    0  503  0.22454695281E+02 -0.40337196278E+01 -0.21773895648E+02  0.31885369151E+02  0.47000000000E+01 0.  1.
         13    1    6    6    0    0 -0.11012838173E+03  0.10051859782E+03 -0.38565038780E+03  0.41347124517E+03  0.00000000000E+00 0. -1.
        -14    1    6    6    0    0 -0.18698489058E+01  0.69462794361E+02 -0.26113082681E+03  0.27021821709E+03  0.00000000000E+00 0.  1.
</event>
<event>
12    1  0.8798177E-003  0.1754000E+03  0.7818608E-02  0.1172460E+00
         21   -1    0    0  501  502  0.00000000000E+00  0.00000000000E+00  0.11574853638E+03  0.11574853638E+03  0.00000000000E+00 0. -1.
         21   -1    0    0  502  503 -0.00000000000E+00 -0.00000000000E+00 -0.26654301477E+03  0.26654301477E+03  0.00000000000E+00 0. -1.
          6    2    1    2  501    0 -0.82415182588E+01  0.31134264357E+02 -0.89779573714E+02  0.19658214323E+03  0.17189212355E+03 0.  0.
         24    2    3    3    0    0  0.58976980822E+02  0.35134378579E+02 -0.43868583032E+02  0.11494736756E+03  0.81090911374E+02 0.  0.
         -6    2    1    2    0  503  0.82415182588E+01 -0.31134264357E+02 -0.61014904670E+02  0.18570940792E+03  0.17241780812E+03 0.  0.
        -24    2    5    5    0    0  0.17388119269E+02 -0.77329473650E+02 -0.54284739289E+01  0.11270530561E+03  0.79942625654E+02 0.  0.
          5    1    3    3  501    0 -0.67218499081E+02 -0.40001142216E+01 -0.45910990682E+02  0.81634775665E+02  0.47000000000E+01 0. -1.
        -11    1    4    4    0    0 -0.17164418525E+02  0.17589125238E+02 -0.23940331910E+02  0.34309387665E+02  0.00000000000E+00 0.  1.
         12    1    4    4    0    0  0.76141399347E+02  0.17545253341E+02 -0.19928251122E+02  0.80637979899E+02  0.00000000000E+00 0. -1.
         -5    1    5    5    0  503 -0.91466010102E+01  0.46195209293E+02 -0.55586430741E+02  0.73004102311E+02  0.47000000000E+01 0.  1.
         13    1    6    6    0    0 -0.70586270121E+01 -0.86161773521E+02 -0.64606487900E+01  0.86691495629E+02  0.00000000000E+00 0. -1.
        -14    1    6    6    0    0  0.24446746281E+02  0.88322998706E+01  0.10321748611E+01  0.26013809980E+02  0.00000000000E+00 0.  1.
</event>
<event>
12    1  0.8798177E-003  0.1768378E+03  0.7818608E-02  0.1171089E+00
         21   -1    0    0  501  502  0.00000000000E+00  0.00000000000E+00  0.56952044933E+02  0.56952044933E+02  0.00000000000E+00 0.  1.
         21   -1    0    0  502  503 -0.00000000000E+00 -0.00000000000E+00 -0.78700235717E+03  0.78700235717E+03  0.00000000000E+00 0.  1.
          6    2    1    2  501    0 -0.33870929693E+02  0.18063112548E+02 -0.13130697618E+03  0.21964263699E+03  0.17183669596E+03 0.  0.
         24    2    3    3    0    0 -0.37232325820E+02  0.76712828990E+02 -0.88564384472E+02  0.14684080070E+03  0.80296116560E+02 0.  0.
         -6    2    1    2    0  503  0.33870929693E+02 -0.18063112548E+02 -0.59874333607E+03  0.62431176511E+03  0.17262120862E+03 0.  0.
        -24    2    5    5    0    0 -0.39637335952E+02 -0.39251355438E+02 -0.35478214220E+03  0.36859402841E+03  0.82942160858E+02 0.  0.
          5    1    3    3  501    0  0.33613961274E+01 -0.58649716441E+02 -0.42742591704E+02  0.72801836296E+02  0.47000000000E+01 0. -1.
        -13    1    4    4    0    0 -0.45720083862E+02  0.35909673854E+02 -0.11549612407E+02  0.59272458118E+02  0.00000000000E+00 0.  1.
         14    1    4    4    0    0  0.84877580418E+01  0.40803155136E+02 -0.77014772065E+02  0.87568342578E+02  0.00000000000E+00 0. -1.
         -5    1    5    5    0  503  0.73508265645E+02  0.21188242890E+02 -0.24396119387E+03  0.25571773671E+03  0.47000000000E+01 0.  1.
         13    1    6    6    0    0 -0.14114125703E+02 -0.32505973152E+01 -0.28910575108E+03  0.28946832337E+03  0.00000000000E+00 0. -1.
        -14    1    6    6    0    0 -0.25523210248E+02 -0.36000758123E+02 -0.65676391116E+02  0.79125705032E+02  0.00000000000E+00 0.  1.
</event>
<event>
12    1  0.8798177E-003  0.1742326E+03  0.7818608E-02  0.1173798E+00
         21   -1    0    0  503  502  0.00000000000E+00  0.00000000000E+00  0.27052424450E+04  0.27052424450E+04  0.00000000000E+00 0.  1.
         21   -1    0    0  501  503 -0.00000000000E+00 -0.00000000000E+00 -0.11231241412E+02  0.11231241412E+02  0.00000000000E+00 0.  1.
          6    2    1    2  501    0 -0.10921209804E+02  0.21484791223E+02  0.12337972910E+04  0.12460388271E+04  0.17255762620E+03 0.  0.
         24    2    3    3    0    0 -0.66822379440E+02  0.41637081782E+02  0.87838598080E+03  0.88566354358E+03  0.81480698171E+02 0.  0.
         -6    2    1    2    0  502  0.10921209804E+02 -0.21484791223E+02  0.14602139126E+04  0.14704348593E+04  0.17138592648E+03 0.  0.
        -24    2    5    5    0    0  0.23656567909E+01  0.52470121044E+02  0.94964860554E+03  0.95444886209E+03  0.79883955881E+02 0.  0.
          5    1    3    3  501    0  0.55901169636E+02 -0.20152290559E+02  0.35541131021E+03  0.36037528357E+03  0.47000000000E+01 0. -1.
        -13    1    4    4    0    0 -0.52275472704E+02  0.31795656579E+02  0.85056313541E+03  0.85276100763E+03  0.00000000000E+00 0.  1.
         14    1    4    4    0    0 -0.14546906736E+02  0.98414252033E+01  0.27822845397E+02  0.32902535945E+02  0.00000000000E+00 0. -1.
         -5    1    5    5    0  502  0.85555530129E+01 -0.73954912267E+02  0.51056530707E+03  0.51598599721E+03  0.47000000000E+01 0.  1.
         11    1    6    6    0    0 -0.14162810262E+02 -0.17209997736E+02  0.15740907521E+03  0.15897920045E+03  0.00000000000E+00 0. -1.
        -12    1    6    6    0    0  0.16528467053E+02  0.69680118780E+02  0.79223953033E+03  0.79546966164E+03  0.00000000000E+00 0.  1.
</event>
<event>
12    1  0.8798177E-003  0.2490353E+03  0.7818608E-02  0.1114172E+00
         21   -1    0    0  501  502  0.00000000000E+00  0.00000000000E+00  0.32717178544E+03  0.32717178544E+03  0.00000000000E+00 0.  1.
         21   -1    0    0  502  503 -0.00000000000E+00 -0.00000000000E+00 -0.23204620368E+03  0.23204620368E+03  0.00000000000E+00 0.  1.
          6    2    1    2  501    0 -0.87810457683E+02 -0.15702352828E+03  0.16878715699E+03  0.29951702922E+03  0.16986548065E+03 0.  0.
         24    2    3    3    0    0 -0.43117389641E+02 -0.10307301367E+03  0.36085473532E+02  0.14938390446E+03  0.92359266325E+02 0.  0.
         -6    2    1    2    0  503  0.87810457683E+02  0.15702352828E+03 -0.73661575225E+02  0.25970095991E+03  0.17219609752E+03 0.  0.
        -24    2    5    5    0    0  0.12218647433E+03  0.85825648385E+02 -0.52352085656E+02  0.17768246829E+03  0.80837752528E+02 0.  0.
          5    1    3    3  501    0 -0.44693068043E+02 -0.53950514611E+02  0.13270168345E+03  0.15013312476E+03  0.47000000000E+01 0. -1.
        -11    1    4    4    0    0 -0.61637169886E+02 -0.10843027273E+03  0.25203653760E+02  0.12724578154E+03  0.00000000000E+00 0.  1.
         12    1    4    4    0    0  0.18519780246E+02  0.53572590644E+01  0.10881819772E+02  0.22138122924E+02  0.00000000000E+00 0. -1.
         -5    1    5    5    0  503 -0.34376016651E+02  0.71197879892E+02 -0.21309489568E+02  0.82018491620E+02  0.47000000000E+01 0.  1.
         11    1    6    6    0    0  0.13732695528E+02  0.54135377829E+02 -0.85518845550E+01  0.56500980422E+02  0.00000000000E+00 0. -1.
        -12    1    6    6    0    0  0.10845377881E+03  0.31690270556E+02 -0.43800201101E+02  0.12118148787E+03  0.00000000000E+00 0.  1.
</event>
<event>
12    1  0.8798177E-003  0.1724488E+03  0.7818608E-02  0.1176595E+00
         21   -1    0    0  503  502  0.00000000000E+00  0.00000000000E+00  0.35339865594E+02  0.35339865594E+02  0.00000000000E+00 0.  1.
         21   -1    0    0  501  503 -0.00000000000E+00 -0.00000000000E+00 -0.88576650820E+03  0.88576650820E+03  0.00000000000E+00 0.  1.
          6    2    1    2  501    0 -0.72934824917E+01 -0.12655781925E+02 -0.55855765370E+03  0.58457270999E+03  0.17182909259E+03 0.  0.
         24    2    3    3    0    0  0.17543411379E+01  0.31396500265E+02 -0.51363136185E+03  0.52083160569E+03  0.80371435657E+02 0.  0.
         -6    2    1    2    0  502  0.72934824917E+01  0.12655781925E+02 -0.29186898891E+03  0.33653366380E+03  0.16689528598E+03 0.  0.
        -24    2    5    5    0    0  0.71313962852E+01  0.32555481146E+02 -0.30136141376E+03  0.31398991898E+03  0.81610363011E+02 0.  0.
          5    1    3    3  501    0 -0.90478236296E+01 -0.44052282190E+02 -0.44926291853E+02  0.63741104307E+02  0.47000000000E+01 0. -1.
        -13    1    4    4    0    0  0.40742893023E+02  0.21523831310E+02 -0.27733771200E+03  0.28113958303E+03  0.00000000000E+00 0.  1.
         14    1    4    4    0    0 -0.38988551886E+02  0.98726689546E+01 -0.23629364984E+03  0.23969202266E+03  0.00000000000E+00 0. -1.
         -5    1    5    5    0  502  0.16208620652E+00 -0.19899699221E+02  0.94924248523E+01  0.22543744822E+02  0.47000000000E+01 0.  1.
         13    1    6    6    0    0 -0.27533034416E+02  0.48901107695E+00 -0.20323802106E+03  0.20509510068E+03  0.00000000000E+00 0. -1.
        -14    1    6    6    0    0  0.34664430702E+02  0.32066470069E+02 -0.98123392701E+02  0.10889481830E+03  0.00000000000E+00 0.  1.
</event>
<event>
12    1  0.8798177E-003  0.2095088E+03  0.7818608E-02  0.1142394E+00
         21   -1    0    0  503  502  0.00000000000E+00  0.00000000000E+00  0.24629847736E+03  0.24629847736E+03  0.00000000000E+00 0.  1.
         21   -1    0    0  501  503 -0.00000000000E+00 -0.00000000000E+00 -0.18302482967E+03  0.18302482967E+03  0.00000000000E+00 0.  1.
          6    2    1    2  501    0  0.47511366966E+01  0.11835724413E+03  0.72783922576E+02  0.22179146873E+03  0.17280898611E+03 0.  0.
         24    2    3    3    0    0  0.44905354997E+02  0.56385359690E+02 -0.16064949991E+02  0.10616669688E+03  0.76272440727E+02 0.  0.
         -6    2    1    2    0  502 -0.47511366966E+01 -0.11835724413E+03 -0.95102748920E+01  0.20753183830E+03  0.17014114153E+03 0.  0.
        -24    2    5    5    0    0 -0.42545474434E+02 -0.48714242620E+02 -0.53085268784E+02  0.11698113583E+03  0.81751731175E+02 0.  0.
          5    1    3    3  501    0 -0.40154218300E+02  0.61971884438E+02  0.88848872567E+02  0.11562477185E+03  0.47000000000E+01 0. -1.
        -13    1    4    4    0    0  0.14644461041E+02  0.37270138131E+02  0.28394884317E+02  0.49089641381E+02  0.00000000000E+00 0.  1.
         14    1    4    4    0    0  0.30260893956E+02  0.19115221559E+02 -0.44459834309E+02  0.57077055504E+02  0.00000000000E+00 0. -1.
         -5    1    5    5    0  502  0.37794337737E+02 -0.69643001509E+02  0.43574993892E+02  0.90550702465E+02  0.47000000000E+01 0.  1.
         13    1    6    6    0    0  0.18054280762E+02 -0.37784022307E+02 -0.28618435368E+02  0.50720846192E+02  0.00000000000E+00 0. -1.
        -14    1    6    6    0    0 -0.60599755196E+02 -0.10930220313E+02 -0.24466833416E+02  0.66260289641E+02  0.00000000000E+00 0.  1.
</event>
<event>
12    1  0.8798177E-003  0.1893783E+03  0.7818608E-02  0.1159366E+00
         21   -1    0    0  503  502  0.00000000000E+00  0.00000000000E+00  0.27492715717E+03  0.27492715717E+03  0.00000000000E+00 0. -1.
         21   -1    0    0  501  503 -0.00000000000E+00 -0.00000000000E+00 -0.25639989589E+03  0.25639989589E+03  0.00000000000E+00 0. -1.
          6    2    1    2  501    0  0.39883366888E+02 -0.63340047280E+02 -0.17771621265E+03  0.25860804523E+03  0.17231489859E+03 0.  0.
         24    2    3    3    0    0  0.74307609411E+02 -0.86800779962E+02 -0.16276562683E+03  0.21409911952E+03  0.79308180441E+02 0.  0.
         -6    2    1    2    0  502 -0.39883366888E+02  0.63340047280E+02  0.19624347393E+03  0.27271900783E+03  0.17395836177E+03 0.  0.
        -24    2    5    5    0    0 -0.34576978488E+02  0.11111408939E+03  0.14528936293E+03  0.20251268130E+03  0.79752610013E+02 0.  0.
          5    1    3    3  501    0 -0.34424242523E+02  0.23460732682E+02 -0.14950585818E+02  0.44508925707E+02  0.47000000000E+01 0. -1.
        -13    1    4    4    0    0  0.37477934301E+02 -0.11543484983E+02 -0.10979409118E+02  0.40723396587E+02  0.00000000000E+00 0.  1.
         14    1    4    4    0    0  0.36829675110E+02 -0.75257294979E+02 -0.15178621771E+03  0.17337572293E+03  0.00000000000E+00 0. -1.
         -5    1    5    5    0  502 -0.53063883998E+01 -0.47774042110E+02  0.50954110999E+02  0.70206326532E+02  0.47000000000E+01 0.  1.
         13    1    6    6    0    0 -0.58069065084E+02  0.71552400596E+02  0.11526126528E+03  0.14757005667E+03  0.00000000000E+00 0. -1.
        -14    1    6    6    0    0  0.23492086596E+02  0.39561688794E+02  0.30028097650E+02  0.54942624632E+02  0.00000000000E+00 0.  1.
</event>
<event>
12    1  0.8798177E-003  0.2163447E+03  0.7818608E-02  0.1137346E+00
         21   -1    0    0  501  502  0.00000000000E+00  0.00000000000E+00  0.40951060142E+03  0.40951060142E+03  0.00000000000E+00 0.  1.
         21   -1    0    0  502  503 -0.00000000000E+00 -0.00000000000E+00 -0.17640117118E+03  0.17640117118E+03  0.00000000000E+00 0. -1.
          6    2    1    2  501    0  0.93488021156E+02  0.81650090630E+02  0.29243148351E+03  0.36158137210E+03  0.17267938124E+03 0.  0.
         24    2    3    3    0    0  0.10323611593E+03  0.11698552564E+03  0.24580974506E+03  0.30208939941E+03  0.80574596680E+02 0.  0.
         -6    2    1    2    0  503 -0.93488021156E+02 -0.81650090630E+02 -0.59322053271E+02  0.22433040050E+03  0.17719558455E+03 0.  0.
        -24    2    5    5    0    0 -0.12571758372E+03 -0.41963154605E+02 -0.18105362017E+02  0.15849193733E+03  0.85006310740E+02 0.  0.
          5    1    3    3  501    0 -0.97480947759E+01 -0.35335435006E+02  0.46621738447E+02  0.59491972691E+02  0.47000000000E+01 0. -1.
        -11    1    4    4    0    0  0.10713255621E+02  0.35948200790E+02  0.12173752787E+03  0.12738552775E+03  0.00000000000E+00 0.  1.
         12    1    4    4    0    0  0.92522860311E+02  0.81037324846E+02  0.12407221719E+03  0.17470387167E+03  0.00000000000E+00 0. -1.
         -5    1    5    5    0  503  0.32229562564E+02 -0.39686936026E+02 -0.41216691254E+02  0.65838463166E+02  0.47000000000E+01 0.  1.
         13    1    6    6    0    0 -0.34050330170E+02 -0.18778770101E+01  0.31852399091E+02  0.46663976841E+02  0.00000000000E+00 0. -1.
        -14    1    6    6    0    0 -0.91667253550E+02 -0.40085277595E+02 -0.49957761109E+02  0.11182796049E+03  0.00000000000E+00 0.  1.
</event>
<event>
12    1  0.8798177E-003  0.2068748E+03  0.7818608E-02  0.1144593E+00
         21   -1    0    0  503  502  0.00000000000E+00  0.00000000000E+00  0.26651219470E+03  0.26651219470E+03  0.00000000000E+00 0.  1.
         21   -1    0    0  501  503 -0.00000000000E+00 -0.00000000000E+00 -0.26004528291E+03  0.26004528291E+03  0.00000000000E+00 0.  1.
          6    2    1    2  501    0  0.10173036719E+02 -0.10879953629E+03  0.16768143749E+03  0.26428410809E+03  0.17259257092E+03 0.  0.
         24    2    3    3    0    0  0.45973892552E+02 -0.12261874672E+03  0.90315202651E+02  0.17779540277E+03  0.79406634313E+02 0.  0.
         -6    2    1    2    0  502 -0.10173036719E+02  0.10879953629E+03 -0.16121452570E+03  0.26227336951E+03  0.17565980555E+03 0.  0.
        -24    2    5    5    0    0  0.53606751160E+02  0.59217340216E+02 -0.13786960983E+03  0.17805145665E+03  0.79460145668E+02 0.  0.
          5    1    3    3  501    0 -0.35800855833E+02  0.13819210429E+02  0.77366234841E+02  0.86488705324E+02  0.47000000000E+01 0. -1.
        -13    1    4    4    0    0 -0.28321476484E+01 -0.93957126712E+02  0.40339958259E+02  0.10229015081E+03  0.00000000000E+00 0.  1.
         14    1    4    4    0    0  0.48806040200E+02 -0.28661620004E+02  0.49975244391E+02  0.75505251958E+02  0.00000000000E+00 0. -1.
         -5    1    5    5    0  502 -0.63779787880E+02  0.49582196071E+02 -0.23344915880E+02  0.84221912865E+02  0.47000000000E+01 0.  1.
         11    1    6    6    0    0  0.55049680190E+02  0.64353422589E+02 -0.69720978727E+02  0.10969432603E+03  0.00000000000E+00 0. -1.
        -12    1    6    6    0    0 -0.14429290299E+01 -0.51360823737E+01 -0.68148631098E+02  0.68357130622E+02  0.00000000000E+00 0.  1.
</event>
<event>
12    1  0.8798177E-003  0.1738056E+03  0.7818608E-02  0.1174401E+00
         21   -1    0    0  503  502  0.00000000000E+00  0.00000000000E+00  0.20390226300E+03  0.20390226300E+03  0.00000000000E+00 0. -1.
         21   -1    0    0  501  503 -0.00000000000E+00 -0.00000000000E+00 -0.14684659509E+03  0.14684659509E+03  0.00000000000E+00 0. -1.
          6    2    1    2  501    0  0.15309852677E+02 -0.20693945025E+02  0.21500102035E+02  0.17513032916E+03  0.17188876302E+03 0.  0.
         24    2    3    3    0    0  0.30707948180E+02 -0.18009306544E+01  0.76524590264E+02  0.11476617057E+03  0.79806262658E+02 0.  0.
         -6    2    1    2    0  502 -0.15309852677E+02  0.20693945025E+02  0.35555565883E+02  0.17561852893E+03  0.17004422510E+03 0.  0.
        -24    2    5    5    0    0  0.46607896951E+02  0.36428711173E+02  0.46286085019E+02  0.11066758879E+03  0.81274636175E+02 0.  0.
          5    1    3    3  501    0 -0.15398095503E+02 -0.18893014371E+02 -0.55024488230E+02  0.60364158588E+02  0.47000000000E+01 0. -1.
        -13    1    4    4    0    0 -0.90509742589E+01 -0.29171026996E+02  0.91474822845E+01  0.31883308849E+02  0.00000000000E+00 0.  1.
         14    1    4    4    0    0  0.39758922439E+02  0.27370096342E+02  0.67377107980E+02  0.82882861720E+02  0.00000000000E+00 0. -1.
         -5    1    5    5    0  502 -0.61917749628E+02 -0.15734766148E+02 -0.10730519136E+02  0.64950940145E+02  0.47000000000E+01 0.  1.
         13    1    6    6    0    0  0.47676321880E+02 -0.46547973734E+01  0.50195013954E+02  0.69384711806E+02  0.00000000000E+00 0. -1.
        -14    1    6    6    0    0 -0.10684249293E+01  0.41083508546E+02 -0.39089289347E+01  0.41282876980E+02  0.00000000000E+00 0.  1.
</event>
<event>
12    1  0.8798177E-003  0.2312229E+03  0.7818608E-02  0.1125793E+00
         21   -1    0    0  501  502  0.00000000000E+00  0.00000000000E+00  0.42456760892E+03  0.42456760892E+03  0.00000000000E+00 0. -1.
         21   -1    0    0  502  503 -0.00000000000E+00 -0.00000000000E+00 -0.13573958701E+03  0.13573958701E+03  0.00000000000E+00 0.  1.
          6    2    1    2  501    0  0.65486737672E+02 -0.13961211121E+03  0.21985272581E+03  0.31901561862E+03  0.17220827353E+03 0.  0.
         24    2    3    3    0    0  0.85373732135E+02 -0.43551449545E+02  0.16239848666E+03  0.20523414885E+03  0.81008545764E+02 0.  0.
         -6    2    1    2    0  503 -0.65486737672E+02  0.13961211121E+03  0.68975296096E+02  0.24129157731E+03  0.17229039266E+03 0.  0.
        -24    2    5    5    0    0 -0.82674046625E+02  0.14505577459E+03  0.17346178207E+02  0.18640357430E+03  0.81050767335E+02 0.  0.
          5    1    3    3  501    0 -0.19886994463E+02 -0.96060661663E+02  0.57454239152E+02  0.11378146978E+03  0.47000000000E+01 0. -1.
        -13    1    4    4    0    0  0.55797236626E+02 -0.62360110018E+02  0.80337081598E+02  0.11600069662E+03  0.00000000000E+00 0.  1.
         14    1    4    4    0    0  0.29576495509E+02  0.18808660473E+02  0.82061405064E+02  0.89233452228E+02  0.00000000000E+00 0. -1.
         -5    1    5    5    0  503  0.17187308952E+02 -0.54436633853E+01  0.51629117890E+02  0.54888003008E+02  0.47000000000E+01 0.  1.
         13    1    6    6    0    0  0.83715676593E+01  0.53834962327E+02  0.18437114636E+02  0.57517071465E+02  0.00000000000E+00 0. -1.
        -14    1    6    6    0    0 -0.91045614284E+02  0.91220812266E+02 -0.10909364294E+01  0.12888650284E+03  0.00000000000E+00 0.  1.
</event>
<event>
12    1  0.8798177E-003  0.2203734E+03  0.7818608E-02  0.1133806E+00
         21   -1    0    0  503  502  0.00000000000E+00  0.00000000000E+00  0.37777627092E+03  0.37777627092E+03  0.00000000000E+00 0.  1.
         21   -1    0    0  501  503 -0.00000000000E+00 -0.00000000000E+00 -0.15665895893E+03  0.15665895893E+03  0.00000000000E+00 0.  1.
          6    2    1    2  501    0 -0.13485632666E+03  0.20623888324E+02 -0.36613438449E+01  0.22040384554E+03  0.17306899225E+03 0.  0.
         24    2    3    3    0    0 -0.14958417596E+03  0.53377879024E+02  0.19931997573E+02  0.17717805219E+03  0.75961529627E+02 0.  0.
         -6    2    1    2    0  502  0.13485632666E+03 -0.20623888324E+02  0.22477865584E+03  0.31403138432E+03  0.17169360095E+03 0.  0.
        -24    2    5    5    0    0  0.11342808970E+03  0.40699585659E+02  0.11171021757E+03  0.18354652109E+03  0.81778755723E+02 0.  0.
          5    1    3    3  501    0  0.14727849296E+02 -0.32753990700E+02 -0.23593341418E+02  0.43225793352E+02  0.47000000000E+01 0. -1.
        -11    1    4    4    0    0 -0.13283563489E+03  0.22957067541E+02  0.35075284263E+02  0.13929324612E+03  0.00000000000E+00 0.  1.
         12    1    4    4    0    0 -0.16748541061E+02  0.30420811483E+02 -0.15143286690E+02  0.37884806067E+02  0.00000000000E+00 0. -1.
         -5    1    5    5    0  502  0.21428236958E+02 -0.61323473984E+02  0.11306843826E+03  0.13048486323E+03  0.47000000000E+01 0.  1.
         13    1    6    6    0    0  0.48783605834E+02  0.57765647591E+02  0.78143637967E+02  0.10873425585E+03  0.00000000000E+00 0. -1.
        -14    1    6    6    0    0  0.64644483868E+02 -0.17066061932E+02  0.33566579607E+02  0.74812265244E+02  0.00000000000E+00 0.  1.
</event>
<event>
12    1  0.8798177E-003  0.2927401E+03  0.7818608E-02  0.1089220E+00
         21   -1    0    0  503  502  0.00000000000E+00  0.00000000000E+00  0.48606204778E+03  0.48606204778E+03  0.00000000000E+00 0. -1.
         21   -1    0    0  501  503 -0.00000000000E+00 -0.00000000000E+00 -0.17960458208E+03  0.17960458208E+03  0.00000000000E+00 0.  1.
          6    2    1    2  501    0  0.72610877596E+02  0.22462379430E+03  0.99065462223E+02  0.30690732929E+03  0.16926297427E+03 0.  0.
         24    2    3    3    0    0  0.19904801190E+02  0.19573523654E+03  0.28444102045E+02  0.21405289605E+03  0.79379414414E+02 0.  0.
         -6    2    1    2    0  502 -0.72610877596E+02 -0.22462379430E+03  0.20739200348E+03  0.35875930056E+03  0.17311442495E+03 0.  0.
        -24    2    5    5    0    0  0.20742887137E+02 -0.67029070050E+02  0.10160275574E+03  0.14718312648E+03  0.80103615087E+02 0.  0.
          5    1    3    3  501    0  0.52706076406E+02  0.28888557757E+02  0.70621360178E+02  0.92854433242E+02  0.47000000000E+01 0. -1.
        -11    1    4    4    0    0  0.44331332995E+02  0.14466349824E+03  0.13944537735E+01  0.15131007670E+03  0.00000000000E+00 0.  1.
         12    1    4    4    0    0 -0.24426531805E+02  0.51071738295E+02  0.27049648272E+02  0.62742819351E+02  0.00000000000E+00 0. -1.
         -5    1    5    5    0  502 -0.93353764733E+02 -0.15759472425E+03  0.10578924775E+03  0.21157617408E+03  0.47000000000E+01 0.  1.
         13    1    6    6    0    0 -0.56412360901E+01 -0.70126604376E+02  0.42020316497E+02  0.81946758230E+02  0.00000000000E+00 0. -1.
        -14    1    6    6    0    0  0.26384123227E+02  0.30975343259E+01  0.59582439239E+02  0.65236368254E+02  0.00000000000E+00 0.  1.
</event>
<event>
12    1  0.8798177E-003  0.1918194E+03  0.7818608E-02  0.1157173E+00
         21   -1    0    0  503  502  0.00000000000E+00  0.00000000000E+00  0.91313420459E+02  0.91313420459E+02  0.00000000000E+00 0. -1.
         21   -1    0    0  501  503 -0.00000000000E+00 -0.00000000000E+00 -0.39995613621E+03  0.39995613621E+03  0.00000000000E+00 0. -1.
          6    2    1    2  501    0 -0.70228013786E+02  0.32272469170E+02 -0.16060013879E+03  0.25017410440E+03  0.17555965295E+03 0.  0.
         24    2    3    3    0    0  0.29190251857E+02  0.43183848992E+02 -0.88334128492E+02  0.12669327189E+03  0.74373054719E+02 0.  0.
         -6    2    1    2    0  502  0.70228013786E+02 -0.32272469170E+02 -0.14804257696E+03  0.24109545227E+03  0.17388768308E+03 0.  0.
        -24    2    5    5    0    0  0.51379410902E+02 -0.80277593209E+02 -0.57933773273E+02  0.13716543608E+03  0.79835449093E+02 0.  0.
          5    1    3    3  501    0 -0.99418265643E+02 -0.10911379822E+02 -0.72266010300E+02  0.12348083251E+03  0.47000000000E+01 0. -1.
        -13    1    4    4    0    0 -0.13999219260E+02 -0.12905884496E+02 -0.11614970540E+02  0.22303531899E+02  0.00000000000E+00 0.  1.
         14    1    4    4    0    0  0.43189471117E+02  0.56089733489E+02 -0.76719157952E+02  0.10438973999E+03  0.00000000000E+00 0. -1.
         -5    1    5    5    0  502  0.18848602884E+02  0.48005124039E+02 -0.90108803685E+02  0.10393001619E+03  0.47000000000E+01 0.  1.
         13    1    6    6    0    0  0.45269994008E+02 -0.10844085647E+02 -0.47815705814E+02  0.66733112272E+02  0.00000000000E+00 0. -1.
        -14    1    6    6    0    0  0.61094168944E+01 -0.69433507562E+02 -0.10118067459E+02  0.70432323803E+02  0.00000000000E+00 0.  1.
</event>
<event>
12    1  0.8798177E-003  0.1801714E+03  0.7818608E-02  0.1174788E+00
         21   -1    0    0  501  502  0.00000000000E+00  0.00000000000E+00  0.44350549524E+02  0.44350549524E+02  0.00000000000E+00 0.  1.
         21   -1    0    0  502  503 -0.00000000000E+00 -0.00000000000E+00 -0.73328118714E+03  0.73328118714E+03  0.00000000000E+00 0.  1.
          6    2    1    2  501    0 -0.28023265729E+02 -0.15846573026E+02 -0.22000902716E+03  0.28436894120E+03  0.17727184038E+03 0.  0.
         24    2    3    3    0    0 -0.63249009379E+02 -0.46948003907E+02 -0.20755567321E+03  0.23552912094E+03  0.78676915754E+02 0.  0.
         -6    2    1    2    0  503  0.28023265729E+02  0.15846573026E+02 -0.46892161046E+03  0.49326279546E+03  0.14961380730E+03 0.  0.
        -24    2    5    5    0    0  0.36777060454E+02  0.41266134115E+02 -0.44793227659E+03  0.45883279192E+03  0.82636314798E+02 0.  0.
          5    1    3    3  501    0  0.35225743650E+02  0.31101430882E+02 -0.12453353951E+02  0.48839820262E+02  0.47000000000E+01 0. -1.
        -11    1    4    4    0    0 -0.16085382357E+02 -0.76265743226E+01  0.12850197309E+01  0.17848121390E+02  0.00000000000E+00 0.  1.
         12    1    4    4    0    0 -0.47163627022E+02 -0.39321429585E+02 -0.20884069294E+03  0.21768099955E+03  0.00000000000E+00 0. -1.
         -5    1    5    5    0  503 -0.87537947246E+01 -0.25419561089E+02 -0.20989333864E+02  0.34430003545E+02  0.47000000000E+01 0.  1.
         13    1    6    6    0    0  0.33132054801E+01 -0.59770287249E+00  0.31304331655E+01  0.45971938268E+01  0.00000000000E+00 0. -1.
        -14    1    6    6    0    0  0.33463854973E+02  0.41863836987E+02 -0.45106270976E+03  0.45423559809E+03  0.00000000000E+00 0.  1.
</event>
<event>
12    1  0.8798177E-003  0.1786191E+03  0.7818608E-02  0.1169525E+00
         21   -1    0    0  501  502  0.00000000000E+00  0.00000000000E+00  0.17880081435E+04  0.17880081435E+04  0.00000000000E+00 0.  1.
         21   -1    0    0  502  503 -0.00000000000E+00 -0.00000000000E+00 -0.24314699736E+02  0.24314699736E+02  0.00000000000E+00 0.  1.
          6    2    1    2  501    0  0.36675400014E+02 -0.25158209309E+02  0.13576277035E+04  0.13693274800E+04  0.17299348449E+03 0.  0.
         24    2    3    3    0    0 -0.36248790971E+02  0.19615326777E+02  0.83949927399E+03  0.84415915780E+03  0.78402275301E+02 0.  0.
         -6    2    1    2    0  503 -0.36675400014E+02  0.25158209309E+02  0.40606574031E+03  0.44299536329E+03  0.17139861722E+03 0.  0.
        -24    2    5    5    0    0  0.44423632251E+02  0.29852032611E+01  0.22407635873E+03  0.24246875599E+03  0.81231228884E+02 0.  0.
          5    1    3    3  501    0  0.72924190985E+02 -0.44773536086E+02  0.51812842947E+03  0.52516832215E+03  0.47000000000E+01 0. -1.
        -13    1    4    4    0    0  0.14425496629E+01  0.22456561597E+02  0.65882753892E+02  0.69619791501E+02  0.00000000000E+00 0.  1.
         14    1    4    4    0    0 -0.37691340634E+02 -0.28412348201E+01  0.77361652010E+03  0.77453936630E+03  0.00000000000E+00 0. -1.
         -5    1    5    5    0  503 -0.81099032265E+02  0.22173006048E+02  0.18198938157E+03  0.20052660731E+03  0.47000000000E+01 0.  1.
         11    1    6    6    0    0  0.30668497303E+02  0.35998415292E+02  0.17780747265E+03  0.18398896695E+03  0.00000000000E+00 0. -1.
        -12    1    6    6    0    0  0.13755134948E+02 -0.33013212031E+02  0.46268886082E+02  0.58479789033E+02  0.00000000000E+00 0.  1.
</event>
<event>
12    1  0.8798177E-003  0.2573506E+03  0.7818608E-02  0.1108962E+00
         21   -1    0    0  501  502  0.00000000000E+00  0.00000000000E+00  0.92121746486E+03  0.92121746486E+03  0.00000000000E+00 0. -1.
         21   -1    0    0  502  503 -0.00000000000E+00 -0.00000000000E+00 -0.11265014602E+03  0.11265014602E+03  0.00000000000E+00 0.  1.
          6    2    1    2  501    0  0.18734668576E+03  0.29206147776E+02  0.71742994755E+03  0.76219096302E+03  0.17400446759E+03 0.  0.
         24    2    3    3    0    0  0.76012881289E+02  0.73114520522E+02  0.33133361748E+03  0.35794397503E+03  0.84960178609E+02 0.  0.
         -6    2    1    2    0  503 -0.18734668576E+03 -0.29206147776E+02  0.91137371300E+02  0.27167664786E+03  0.17190230019E+03 0.  0.
        -24    2    5    5    0    0 -0.47197610289E+02 -0.16003364887E+02  0.96004257457E+02  0.13074455991E+03  0.73441135556E+02 0.  0.
          5    1    3    3  501    0  0.11133380448E+03 -0.43908372746E+02  0.38609633006E+03  0.40424698800E+03  0.47000000000E+01 0. -1.
        -13    1    4    4    0    0 -0.95720669875E+01  0.16574908769E+02  0.12120393406E+02  0.22655154015E+02  0.00000000000E+00 0.  1.
         14    1    4    4    0    0  0.85584948276E+02  0.56539611753E+02  0.31921322408E+03  0.33528882101E+03  0.00000000000E+00 0. -1.
         -5    1    5    5    0  503 -0.14014907548E+03 -0.13202782888E+02 -0.48668861569E+01  0.14093208795E+03  0.47000000000E+01 0.  1.
         13    1    6    6    0    0 -0.61559505151E+02 -0.26652358279E+02  0.57738552670E+02  0.88507973317E+02  0.00000000000E+00 0. -1.
        -14    1    6    6    0    0  0.14361894862E+02  0.10648993392E+02  0.38265704787E+02  0.42236586594E+02  0.00000000000E+00 0.  1.
</event>
<event>
12    1  0.8798177E-003  0.1853363E+03  0.7818608E-02  0.1162843E+00
         21   -1    0    0  501  502  0.00000000000E+00  0.00000000000E+00  0.11703857521E+03  0.11703857521E+03  0.00000000000E+00 0. -1.
         21   -1    0    0  502  503 -0.00000000000E+00 -0.00000000000E+00 -0.29712641124E+03  0.29712641124E+03  0.00000000000E+00 0.  1.
          6    2    1    2  501    0  0.19653109598E+01 -0.67230050116E+02 -0.65071631062E+02  0.19642772651E+03  0.17270145480E+03 0.  0.
         24    2    3    3    0    0  0.53326541329E+02 -0.87089487607E+02 -0.55399823797E+02  0.14032062270E+03  0.78692044177E+02 0.  0.
         -6    2    1    2    0  503 -0.19653109598E+01  0.67230050116E+02 -0.11501620497E+03  0.21773725993E+03  0.17221220883E+03 0.  0.
        -24    2    5    5    0    0 -0.66043903553E+02  0.58456563468E+02 -0.75124238332E+02  0.14160251688E+03  0.81416549872E+02 0.  0.
          5    1    3    3  501    0 -0.51361230369E+02  0.19859437490E+02 -0.96718072651E+01  0.56107103813E+02  0.47000000000E+01 0. -1.
        -13    1    4    4    0    0  0.28397545927E+02 -0.97053772981E+02 -0.36585483493E+02  0.10753768208E+03  0.00000000000E+00 0.  1.
         14    1    4    4    0    0  0.24928995402E+02  0.99642853741E+01 -0.18814340304E+02  0.32782940622E+02  0.00000000000E+00 0. -1.
         -5    1    5    5    0  503  0.64078592593E+02  0.87734866488E+01 -0.39891966636E+02  0.76134743047E+02  0.47000000000E+01 0.  1.
         13    1    6    6    0    0 -0.75922692611E+02  0.63371704228E+02 -0.82113422405E+02  0.12854120853E+03  0.00000000000E+00 0. -1.
        -14    1    6    6    0    0  0.98787890582E+01 -0.49151407609E+01  0.69891840727E+01  0.13061308356E+02  0.00000000000E+00 0.  1.
</event>
<event>
12    1  0.8798177E-003  0.2046889E+03  0.7818608E-02  0.1145938E+00
         21   -1    0    0  501  502  0.00000000000E+00  0.00000000000E+00  0.28612149870E+03  0.28612149870E+03  0.00000000000E+00 0. -1.
         21   -1    0    0  502  503 -0.00000000000E+00 -0.00000000000E+00 -0.20131943849E+03  0.20131943849E+03  0.00000000000E+00 0. -1.
          6    2    1    2  501    0 -0.10983919282E+03  0.22253263475E+01 -0.85276765645E+02  0.22131251722E+03  0.17215546220E+03 0.  0.
         24    2    3    3    0    0 -0.12049394097E+03 -0.27725088171E+02 -0.20367861135E+02  0.14888457460E+03  0.80400848644E+02 0.  0.
         -6    2    1    2    0  503  0.10983919282E+03 -0.22253263475E+01  0.17007882585E+03  0.26612841996E+03  0.17270763894E+03 0.  0.
        -24    2    5    5    0    0  0.12905028423E+02  0.59821726531E+00  0.14443661803E+03  0.16571020722E+03  0.80193756171E+02 0.  0.
          5    1    3    3  501    0  0.10654748145E+02  0.29950414519E+02 -0.64908904510E+02  0.72427942623E+02  0.47000000000E+01 0. -1.
        -11    1    4    4    0    0 -0.11892577955E+03  0.77659971302E+00 -0.15683805413E+02  0.11995801725E+03  0.00000000000E+00 0.  1.
         12    1    4    4    0    0 -0.15681614170E+01 -0.28501687884E+02 -0.46840557222E+01  0.28926557356E+02  0.00000000000E+00 0. -1.
         -5    1    5    5    0  503  0.96934164401E+02 -0.28235436128E+01  0.25642207826E+02  0.10041821274E+03  0.47000000000E+01 0.  1.
         11    1    6    6    0    0  0.45507983966E+02  0.11221760391E+02  0.80085399539E+02  0.92793187952E+02  0.00000000000E+00 0. -1.
        -12    1    6    6    0    0 -0.32602955543E+02 -0.10623543126E+02  0.64351218488E+02  0.72917019273E+02  0.00000000000E+00 0.  1.
</event>
<event>
12    1  0.8798177E-003  0.2254530E+03  0.7818608E-02  0.1130883E+00
         21   -1    0    0  503  502  0.00000000000E+00  0.00000000000E+00  0.76399952344E+02  0.76399952344E+02  0.00000000000E+00 0.  1.
         21   -1    0    0  501  503 -0.00000000000E+00 -0.00000000000E+00 -0.81120866575E+03  0.81120866575E+03  0.00000000000E+00 0.  1.
          6    2    1    2  501    0  0.12960687115E+03  0.47180148716E+02 -0.56208299471E+03  0.60359585473E+03  0.17136731144E+03 0.  0.
         24    2    3    3    0    0  0.15378323200E+03  0.74378853548E+02 -0.42191243560E+03  0.45870230204E+03  0.56711571041E+02 0.  0.
         -6    2    1    2    0  502 -0.12960687115E+03 -0.47180148716E+02 -0.17272571870E+03  0.28401276336E+03  0.17834003580E+03 0.  0.
        -24    2    5    5    0    0  0.58153547042E+01 -0.62374998298E+01 -0.21097694129E+02  0.76579334072E+02  0.73120154231E+02 0.  0.
          5    1    3    3  501    0 -0.24176360858E+02 -0.27198704832E+02 -0.14017055911E+03  0.14489355269E+03  0.47000000000E+01 0. -1.
        -11    1    4    4    0    0  0.45323212456E+02  0.49432929825E+02 -0.18950060743E+03  0.20101812942E+03  0.00000000000E+00 0.  1.
         12    1    4    4    0    0  0.10846001955E+03  0.24945923722E+02 -0.23241182816E+03  0.25768417262E+03  0.00000000000E+00 0. -1.
         -5    1    5    5    0  502 -0.13542222585E+03 -0.40942648886E+02 -0.15162802457E+03  0.20743342929E+03  0.47000000000E+01 0.  1.
         11    1    6    6    0    0  0.13357847422E-01 -0.30486878508E+02 -0.36278607900E+02  0.47387628457E+02  0.00000000000E+00 0. -1.
        -12    1    6    6    0    0  0.58019968568E+01  0.24249378678E+02  0.15180913771E+02  0.29191705615E+02  0.00000000000E+00 0.  1.
</event>
<event>
12    1  0.8798177E-003  0.1800489E+03  0.7818608E-02  0.1167890E+00
         21   -1    0    0  501  502  0.00000000000E+00  0.00000000000E+00  0.39713500718E+02  0.39713500718E+02  0.00000000000E+00 0.  1.
         21   -1    0    0  502  503 -0.00000000000E+00 -0.00000000000E+00 -0.99697035512E+03  0.99697035512E+03  0.00000000000E+00 0. -1.
          6    2    1    2  501    0  0.53111532177E+02  0.10941702559E+02 -0.25583934233E+03  0.31252632789E+03  0.17110926579E+03 0.  0.
         24    2    3    3    0    0  0.13570432275E+02  0.68140110670E+02 -0.11662037132E+03  0.15683699506E+03  0.78551261583E+02 0.  0.
         -6    2    1    2    0  503 -0.53111532177E+02 -0.10941702559E+02 -0.70141751207E+03  0.72415752794E+03  0.17168879791E+03 0.  0.
        -24    2    5    5    0    0 -0.19526171758E+01  0.43563229246E+02 -0.51941953750E+03  0.52734956336E+03  0.79995864773E+02 0.  0.
          5    1    3    3  501    0  0.39541099902E+02 -0.57198408111E+02 -0.13921897101E+03  0.15568933284E+03  0.47000000000E+01 0. -1.
        -13    1    4    4    0    0 -0.20764189016E+02  0.31931342749E+02 -0.10405262516E+02  0.39484575258E+02  0.00000000000E+00 0.  1.
         14    1    4    4    0    0  0.34334621291E+02  0.36208767921E+02 -0.10621510881E+03  0.11735241980E+03  0.00000000000E+00 0. -1.
         -5    1    5    5    0  503 -0.51158915001E+02 -0.54504931806E+02 -0.18199797457E+03  0.19680796458E+03  0.47000000000E+01 0.  1.
         11    1    6    6    0    0  0.32039781330E+01  0.23921332646E+02 -0.49500592818E+03  0.49559395130E+03  0.00000000000E+00 0. -1.
        -12    1    6    6    0    0 -0.51565953089E+01  0.19641896600E+02 -0.24413609325E+02  0.31755612063E+02  0.00000000000E+00 0.  1.
</event>
<event>
12    1  0.8798177E-003  0.1725977E+03  0.7818608E-02  0.1176308E+00
         21   -1    0    0  503  502  0.00000000000E+00  0.00000000000E+00  0.17119256628E+03  0.17119256628E+03  0.00000000000E+00 0. -1.
         21   -1    0    0  501  503 -0.00000000000E+00 -0.00000000000E+00 -0.21044093221E+03  0.21044093221E+03  0.00000000000E+00 0. -1.
          6    2    1    2  501    0  0.17697710960E+02 -0.38985136902E+01  0.64636720247E+02  0.18018357073E+03  0.16721186015E+03 0.  0.
         24    2    3    3    0    0  0.41677515789E+02  0.53092392383E+02  0.30447862525E+02  0.10937423232E+03  0.80497409344E+02 0.  0.
         -6    2    1    2    0  502 -0.17697710960E+02  0.38985136902E+01 -0.10388508618E+03  0.20144992776E+03  0.17164368582E+03 0.  0.
        -24    2    5    5    0    0 -0.76630886749E+02  0.17305563704E+02 -0.74197679625E+02  0.13394955512E+03  0.79154357534E+02 0.  0.
          5    1    3    3  501    0 -0.23979804829E+02 -0.56990906074E+02  0.34188857722E+02  0.70809338417E+02  0.47000000000E+01 0. -1.
        -13    1    4    4    0    0 -0.17884197916E+02  0.30333621145E+02 -0.63127489742E+01  0.35774626573E+02  0.00000000000E+00 0.  1.
         14    1    4    4    0    0  0.59561713705E+02  0.22758771239E+02  0.36760611499E+02  0.73599605743E+02  0.00000000000E+00 0. -1.
         -5    1    5    5    0  502  0.58933175789E+02 -0.13407050013E+02 -0.29687406550E+02  0.67500372638E+02  0.47000000000E+01 0.  1.
         11    1    6    6    0    0 -0.18356721951E+02 -0.15255427480E+02 -0.61539351627E+02  0.66005977813E+02  0.00000000000E+00 0. -1.
        -12    1    6    6    0    0 -0.58274164799E+02  0.32560991184E+02 -0.12658327998E+02  0.67943577309E+02  0.00000000000E+00 0.  1.
</event>
<event>
12    1  0.8798177E-003  0.2501375E+03  0.7818608E-02  0.1113514E+00
         21   -1    0    0  503  502  0.00000000000E+00  0.00000000000E+00  0.66958227169E+03  0.66958227169E+03  0.00000000000E+00 0.  1.
         21   -1    0    0  501  503 -0.00000000000E+00 -0.00000000000E+00 -0.14680057000E+03  0.14680057000E+03  0.00000000000E+00 0. -1.
          6    2    1    2  501    0  0.14076652271E+03 -0.11231312106E+03  0.14321502510E+02  0.25054710340E+03  0.17360672369E+03 0.  0.
         24    2    3    3    0    0  0.10937112907E+02 -0.77143747936E+02 -0.32045949677E+02  0.10819335010E+03  0.67882839008E+02 0.  0.
         -6    2    1    2    0  502 -0.14076652271E+03  0.11231312106E+03  0.50846019919E+03  0.56583573828E+03  0.17090599019E+03 0.  0.
        -24    2    5    5    0    0 -0.46253955144E+02  0.12102030865E+03  0.34459836015E+03  0.37641231619E+03  0.78440158666E+02 0.  0.
          5    1    3    3  501    0  0.12982940980E+03 -0.35169373127E+02  0.46367452187E+02  0.14235375330E+03  0.47000000000E+01 0. -1.
        -11    1    4    4    0    0  0.14344131473E+02 -0.77427663932E+02 -0.28487338320E+01  0.78796653064E+02  0.00000000000E+00 0.  1.
         12    1    4    4    0    0 -0.34070185662E+01  0.28391599553E+00 -0.29197215845E+02  0.29396697041E+02  0.00000000000E+00 0. -1.
         -5    1    5    5    0  502 -0.94512567567E+02 -0.87071875860E+01  0.16386183904E+03  0.18942342209E+03  0.47000000000E+01 0.  1.
         13    1    6    6    0    0 -0.44170370586E-01  0.29550672148E+02  0.19156470029E+02  0.35216679563E+02  0.00000000000E+00 0. -1.
        -14    1    6    6    0    0 -0.46209784774E+02  0.91469636501E+02  0.32544189012E+03  0.34119563663E+03  0.00000000000E+00 0.  1.
</event>
<event>
12    1  0.8798177E-003  0.2863140E+03  0.7818608E-02  0.1092322E+00
         21   -1    0    0  503  502  0.00000000000E+00  0.00000000000E+00  0.73224084361E+03  0.73224084361E+03  0.00000000000E+00 0.  1.
         21   -1    0    0  501  503 -0.00000000000E+00 -0.00000000000E+00 -0.14062751463E+03  0.14062751463E+03  0.00000000000E+00 0. -1.
          6    2    1    2  501    0  0.15576784060E+03  0.16749293963E+03  0.98499900837E+02  0.30278362291E+03  0.17221552442E+03 0.  0.
         24    2    3    3    0    0  0.12850954554E+03  0.90889374901E+02  0.12653311684E+03  0.21664958796E+03  0.78427243623E+02 0.  0.
         -6    2    1    2    0  502 -0.15576784060E+03 -0.16749293963E+03  0.49311342814E+03  0.57008473533E+03  0.17180875255E+03 0.  0.
        -24    2    5    5    0    0 -0.10173870965E+03 -0.85168302628E+02  0.41963247870E+03  0.44712932561E+03  0.78922821959E+02 0.  0.
          5    1    3    3  501    0  0.27258295057E+02  0.76603564727E+02 -0.28033215999E+02  0.86134034954E+02  0.47000000000E+01 0. -1.
        -11    1    4    4    0    0  0.40294752764E+02 -0.98941788212E+01  0.23648598832E+02  0.47757911403E+02  0.00000000000E+00 0.  1.
         12    1    4    4    0    0  0.88214792776E+02  0.10078355372E+03  0.10288451800E+03  0.16889167656E+03  0.00000000000E+00 0. -1.
         -5    1    5    5    0  502 -0.54029130943E+02 -0.82324637000E+02  0.73480949435E+02  0.12295540971E+03  0.47000000000E+01 0.  1.
         11    1    6    6    0    0  0.18128235159E+00 -0.21279825242E+02  0.18006104320E+02  0.27876219586E+02  0.00000000000E+00 0. -1.
        -12    1    6    6    0    0 -0.10191999201E+03 -0.63888477385E+02  0.40162637438E+03  0.41925310603E+03  0.00000000000E+00 0.  1.
</event>
<event>
12    1  0.8798177E-003  0.1791764E+03  0.7818608E-02  0.1168619E+00
         21   -1    0    0  503  502  0.00000000000E+00  0.00000000000E+00  0.96718117697E+03  0.96718117697E+03  0.00000000000E+00 0.  1.
         21   -1    0    0  501  503 -0.00000000000E+00 -0.00000000000E+00 -0.37711066165E+02  0.37711066165E+02  0.00000000000E+00 0.  1.
          6    2    1    2  501    0 -0.21363410239E+01  0.50092147907E+02  0.29067252289E+03  0.34145968227E+03  0.17201863799E+03 0.  0.
         24    2    3    3    0    0  0.15521472629E+02 -0.21329894572E+02  0.89895224755E+02  0.12757532103E+03  0.86593478894E+02 0.  0.
         -6    2    1    2    0  502  0.21363410239E+01 -0.50092147907E+02  0.63879758791E+03  0.66343256086E+03  0.17194946135E+03 0.  0.
        -24    2    5    5    0    0  0.61795404547E+02 -0.49380527068E+02  0.48998690763E+03  0.50303798854E+03  0.81871483387E+02 0.  0.
          5    1    3    3  501    0 -0.17657813653E+02  0.71422042479E+02  0.20077729814E+03  0.21388436124E+03  0.47000000000E+01 0. -1.
        -11    1    4    4    0    0  0.28279074195E+02  0.52152676503E+01 -0.41248728401E+01  0.29050294834E+02  0.00000000000E+00 0.  1.
         12    1    4    4    0    0 -0.12757601565E+02 -0.26545162223E+02  0.94020097595E+02  0.98525026196E+02  0.00000000000E+00 0. -1.
         -5    1    5    5    0  502 -0.59659063523E+02 -0.71162083866E+00  0.14881068028E+03  0.16039457233E+03  0.47000000000E+01 0.  1.
         11    1    6    6    0    0 -0.32603087116E+01 -0.48580002035E+02  0.21981038801E+03  0.22513829725E+03  0.00000000000E+00 0. -1.
        -12    1    6    6    0    0  0.65055713259E+02 -0.80052503313E+00  0.27017651961E+03  0.27789969129E+03  0.00000000000E+00 0.  1.
</event>
<event>
12    1  0.8798177E-003  0.1895556E+03  0.7818608E-02  0.1159794E+00
         21   -1    0    0  503  502  0.00000000000E+00  0.00000000000E+00  0.52620621918E+02  0.52620621918E+02  0.00000000000E+00 0.  1.
         21   -1    0    0  501  503 -0.00000000000E+00 -0.00000000000E+00 -0.66836103921E+03  0.66836103921E+03  0.00000000000E+00 0. -1.
          6    2    1    2  501    0 -0.57346482489E+02 -0.38820385931E+02 -0.30005793973E+03  0.35276061386E+03  0.17207452479E+03 0.  0.
         24    2    3    3    0    0 -0.58123987299E+02  0.35100976834E+02 -0.18680363050E+03  0.21743286007E+03  0.88153138333E+02 0.  0.
         -6    2    1    2    0  502  0.57346482489E+02  0.38820385931E+02 -0.31568247756E+03  0.36822104726E+03  0.17645302942E+03 0.  0.
        -24    2    5    5    0    0  0.10513263388E+03  0.44301737823E+02 -0.25672579910E+03  0.29198758074E+03  0.79580755825E+02 0.  0.
          5    1    3    3  501    0  0.77750481070E+00 -0.73921362765E+02 -0.11325430923E+03  0.13532775379E+03  0.47000000000E+01 0. -1.
        -13    1    4    4    0    0 -0.57132362056E+02  0.99645334843E+01 -0.44974545846E+02  0.73390111703E+02  0.00000000000E+00 0.  1.
         14    1    4    4    0    0 -0.99162524345E+00  0.25136443350E+02 -0.14182908465E+03  0.14404274837E+03  0.00000000000E+00 0. -1.
         -5    1    5    5    0  502 -0.47786151396E+02 -0.54813518922E+01 -0.58956678459E+02  0.76233466527E+02  0.47000000000E+01 0.  1.
         13    1    6    6    0    0  0.27675338136E+02  0.12326148762E+02 -0.16495424777E+03  0.16771333322E+03  0.00000000000E+00 0. -1.
        -14    1    6    6    0    0  0.77457295748E+02  0.31975589061E+02 -0.91771551336E+02  0.12427424751E+03  0.00000000000E+00 0.  1.
</event>
<event>
12    1  0.8798177E-003  0.2593789E+03  0.7818608E-02  0.1107554E+00
         21   -1    0    0  501  502  0.00000000000E+00  0.00000000000E+00  0.89685945763E+03  0.89685945763E+03  0.00000000000E+00 0.  1.
         21   -1    0    0  502  503 -0.00000000000E+00 -0.00000000000E+00 -0.88790009859E+02  0.88790009859E+02  0.00000000000E+00 0.  1.
          6    2    1    2  501    0  0.27337331270E+02 -0.19272534303E+03  0.59881265990E+03  0.65257493112E+03  0.17142651936E+03 0.  0.
         24    2    3    3    0    0  0.27605607853E+02 -0.21271319211E+03  0.46116008825E+03  0.51339911941E+03  0.70007550538E+02 0.  0.
         -6    2    1    2    0  503 -0.27337331270E+02  0.19272534303E+03  0.20925678787E+03  0.33307453637E+03  0.17105512557E+03 0.  0.
        -24    2    5    5    0    0  0.32352164813E+01  0.12912141937E+03  0.21381836576E+03  0.26220114381E+03  0.79676462737E+02 0.  0.
          5    1    3    3  501    0 -0.26827658227E+00  0.19987849080E+02  0.13765257165E+03  0.13917581171E+03  0.47000000000E+01 0. -1.
        -13    1    4    4    0    0 -0.21451470966E+02 -0.33207882273E+02  0.78928816961E+02  0.88276198369E+02  0.00000000000E+00 0.  1.
         14    1    4    4    0    0  0.49057078818E+02 -0.17950530984E+03  0.38223127129E+03  0.42512292104E+03  0.00000000000E+00 0. -1.
         -5    1    5    5    0  503 -0.30572547752E+02  0.63603923661E+02 -0.45615778834E+01  0.70873392566E+02  0.47000000000E+01 0.  1.
         11    1    6    6    0    0  0.13913549926E+02  0.30614376786E+02  0.92136849082E+01  0.34867161156E+02  0.00000000000E+00 0. -1.
        -12    1    6    6    0    0 -0.10678333444E+02  0.98507042581E+02  0.20460468085E+03  0.22733398265E+03  0.00000000000E+00 0.  1.
</event>
<event>
12    1  0.8798177E-003  0.1776110E+03  0.7818608E-02  0.1170224E+00
         21   -1    0    0  501  502  0.00000000000E+00  0.00000000000E+00  0.42242225394E+02  0.42242225394E+02  0.00000000000E+00 0.  1.
         21   -1    0    0  502  503 -0.00000000000E+00 -0.00000000000E+00 -0.79900958246E+03  0.79900958246E+03  0.00000000000E+00 0.  1.
          6    2    1    2  501    0 -0.27956135560E+02  0.32546998458E+02 -0.48711593429E+03  0.51836241497E+03  0.17197908938E+03 0.  0.
         24    2    3    3    0    0 -0.63473213411E+02  0.65512692977E+02 -0.27091937487E+03  0.29675185083E+03  0.79646666758E+02 0.  0.
         -6    2    1    2    0  503  0.27956135560E+02 -0.32546998458E+02 -0.26965142277E+03  0.32288939288E+03  0.17235085614E+03 0.  0.
        -24    2    5    5    0    0  0.73867541126E+01  0.16352650408E+02 -0.25410720110E+03  0.26740977555E+03  0.81336001225E+02 0.  0.
          5    1    3    3  501    0  0.35517077851E+02 -0.32965694519E+02 -0.21619655942E+03  0.22161056414E+03  0.47000000000E+01 0. -1.
        -11    1    4    4    0    0 -0.81469804489E+02  0.49343570830E+02 -0.19405631951E+03  0.21617116405E+03  0.00000000000E+00 0.  1.
         12    1    4    4    0    0  0.17996591078E+02  0.16169122147E+02 -0.76863055359E+02  0.80580686771E+02  0.00000000000E+00 0. -1.
         -5    1    5    5    0  503  0.20569381447E+02 -0.48899648866E+02 -0.15544221667E+02  0.55479617334E+02  0.47000000000E+01 0.  1.
         11    1    6    6    0    0  0.26301232959E+01  0.17105475108E+02 -0.46692092358E+01  0.17925298941E+02  0.00000000000E+00 0. -1.
        -12    1    6    6    0    0  0.47566308167E+01 -0.75282470068E+00 -0.24943799187E+03  0.24948447661E+03  0.00000000000E+00 0.  1.
</event>
<event>
12    1  0.8798177E-003  0.2024112E+03  0.7818608E-02  0.1149235E+00
         21   -1    0    0  503  502  0.00000000000E+00  0.00000000000E+00  0.89219577009E+02  0.89219577009E+02  0.00000000000E+00 0.  1.
         21   -1    0    0  501  503 -0.00000000000E+00 -0.00000000000E+00 -0.45314355810E+03  0.45314355810E+03  0.00000000000E+00 0.  1.
          6    2    1    2  501    0 -0.74643518459E+02  0.60106231693E+02 -0.14484543781E+03  0.24889854333E+03  0.17828592227E+03 0.  0.
         24    2    3    3    0    0 -0.79988459907E+02  0.80649693997E+02 -0.16762875787E+03  0.21740613288E+03  0.79142272452E+02 0.  0.
         -6    2    1    2    0  502  0.74643518459E+02 -0.60106231693E+02 -0.21907854329E+03  0.29346459179E+03  0.17012243993E+03 0.  0.
        -24    2    5    5    0    0  0.33552252730E+02 -0.14517501395E+02 -0.55339040116E+02  0.11853735163E+03  0.98245523364E+02 0.  0.
          5    1    3    3  501    0  0.53449414484E+01 -0.20543462304E+02  0.22783320064E+02  0.31492410445E+02  0.47000000000E+01 0. -1.
        -13    1    4    4    0    0 -0.55417863808E+02  0.18969543571E+01 -0.58497053733E+02  0.80601757799E+02  0.00000000000E+00 0.  1.
         14    1    4    4    0    0 -0.24570596099E+02  0.78752739640E+02 -0.10913170414E+03  0.13680437508E+03  0.00000000000E+00 0. -1.
         -5    1    5    5    0  502  0.41091265729E+02 -0.45588730298E+02 -0.16373950317E+03  0.17492724015E+03  0.47000000000E+01 0.  1.
         11    1    6    6    0    0  0.25410811196E+02 -0.24613020620E+02 -0.81770738690E+02  0.89095251364E+02  0.00000000000E+00 0. -1.
        -12    1    6    6    0    0  0.81414415343E+01  0.10095519225E+02  0.26431698574E+02  0.29442100268E+02  0.00000000000E+00 0.  1.
</event>
<event>
12    1  0.8798177E-003  0.2485659E+03  0.7818608E-02  0.1114230E+00
         21   -1    0    0  503  502  0.00000000000E+00  0.00000000000E+00  0.17450594248E+04  0.17450594248E+04  0.00000000000E+00 0. -1.
         21   -1    0    0  501  503 -0.00000000000E+00 -0.00000000000E+00 -0.36141734114E+02  0.36141734114E+02  0.00000000000E+00 0.  1.
          6    2    1    2  501    0  0.17596531920E+03 -0.36744147707E+02  0.72599981494E+03  0.76734093584E+03  0.17152974838E+03 0.  0.
         24    2    3    3    0    0  0.11719554424E+03  0.40561698050E+02  0.49690536158E+03  0.51847061058E+03  0.80726629622E+02 0.  0.
         -6    2    1    2    0  502 -0.17596531920E+03  0.36744147707E+02  0.98291787577E+03  0.10138602231E+04  0.17167141729E+03 0.  0.
        -24    2    5    5    0    0 -0.12429707374E+03 -0.35471379836E+02  0.73225369511E+03  0.74789159436E+03  0.80239526278E+02 0.  0.
          5    1    3    3  501    0  0.58769774963E+02 -0.77305845756E+02  0.22909445336E+03  0.24887032527E+03  0.47000000000E+01 0. -1.
        -11    1    4    4    0    0  0.34400123404E+02  0.38791954308E+00  0.41715881456E+02  0.54071561263E+02  0.00000000000E+00 0.  1.
         12    1    4    4    0    0  0.82795420831E+02  0.40173778506E+02  0.45518948012E+03  0.46439904931E+03  0.00000000000E+00 0. -1.
         -5    1    5    5    0  502 -0.51668245462E+02  0.72215527543E+02  0.25066418065E+03  0.26596862873E+03  0.47000000000E+01 0.  1.
         13    1    6    6    0    0 -0.12884771631E+03 -0.36918588096E+02  0.73066850424E+03  0.74286013437E+03  0.00000000000E+00 0. -1.
        -14    1    6    6    0    0  0.45506425701E+01  0.14472082605E+01  0.15851908763E+01  0.50314599933E+01  0.00000000000E+00 0.  1.
</event>
<event>
12    1  0.8798177E-003  0.2781788E+03  0.7818608E-02  0.1096931E+00
         21   -1    0    0  501  502  0.00000000000E+00  0.00000000000E+00  0.47302852160E+02  0.47302852160E+02  0.00000000000E+00 0. -1.
         21   -1    0    0  502  503 -0.00000000000E+00 -0.00000000000E+00 -0.17468809502E+04  0.17468809502E+04  0.00000000000E+00 0. -1.
          6    2    1    2  501    0 -0.20321276362E+03  0.80831732297E+02 -0.10836611356E+04  0.11183605001E+04  0.16905488792E+03 0.  0.
         24    2    3    3    0    0 -0.14984757994E+03  0.10148510687E+03 -0.98138002944E+03  0.10010663426E+04  0.79205655990E+02 0.  0.
         -6    2    1    2    0  503  0.20321276362E+03 -0.80831732297E+02 -0.61591696243E+03  0.67582330225E+03  0.17191345210E+03 0.  0.
        -24    2    5    5    0    0  0.71815913022E+02 -0.95823707396E+02 -0.36125444648E+03  0.38883030809E+03  0.79652527449E+02 0.  0.
          5    1    3    3  501    0 -0.53365183683E+02 -0.20653374572E+02 -0.10228110619E+03  0.11729415755E+03  0.47000000000E+01 0. -1.
        -11    1    4    4    0    0 -0.11516105920E+03  0.46514519329E+02 -0.76890932235E+03  0.77887561014E+03  0.00000000000E+00 0.  1.
         12    1    4    4    0    0 -0.34686520737E+02  0.54970587539E+02 -0.21247070709E+03  0.22219073245E+03  0.00000000000E+00 0. -1.
         -5    1    5    5    0  503  0.13139685060E+03  0.14991975099E+02 -0.25466251595E+03  0.28699299416E+03  0.47000000000E+01 0.  1.
         13    1    6    6    0    0  0.74406728083E+02 -0.69644383016E+02 -0.34019273737E+03  0.35513067993E+03  0.00000000000E+00 0. -1.
        -14    1    6    6    0    0 -0.25908150603E+01 -0.26179324380E+02 -0.21061709111E+02  0.33699628163E+02  0.00000000000E+00 0.  1.
</event>
<event>
12    1  0.8798177E-003  0.1822419E+03  0.7818608E-02  0.1167065E+00
         21   -1    0    0  501  502  0.00000000000E+00  0.00000000000E+00  0.17839971397E+03  0.17839971397E+03  0.00000000000E+00 0. -1.
         21   -1    0    0  502  503 -0.00000000000E+00 -0.00000000000E+00 -0.19001285017E+03  0.19001285017E+03  0.00000000000E+00 0. -1.
          6    2    1    2  501    0  0.73636165909E+01  0.36746779271E+02  0.35851618464E+02  0.18573486604E+03  0.17834672209E+03 0.  0.
         24    2    3    3    0    0 -0.55777705802E+02 -0.86991267431E+01  0.44597885211E+02  0.10730818596E+03  0.79619395488E+02 0.  0.
         -6    2    1    2    0  503 -0.73636165909E+01 -0.36746779271E+02 -0.47464754665E+02  0.18267769809E+03  0.17237659298E+03 0.  0.
        -24    2    5    5    0    0  0.11795632202E+02 -0.42118695605E+02  0.34952593720E+02  0.97762189411E+02  0.80141377653E+02 0.  0.
          5    1    3    3  501    0  0.63141322392E+02  0.45445906014E+02 -0.87462667474E+01  0.78426680083E+02  0.47000000000E+01 0. -1.
        -13    1    4    4    0    0 -0.46404917868E+01  0.30002243932E+02  0.22198231684E+01  0.30440046318E+02  0.00000000000E+00 0.  1.
         14    1    4    4    0    0 -0.51137214015E+02 -0.38701370675E+02  0.42378062043E+02  0.76868139641E+02  0.00000000000E+00 0. -1.
         -5    1    5    5    0  503 -0.19159248793E+02  0.53719163342E+01 -0.82417348385E+02  0.84915508679E+02  0.47000000000E+01 0.  1.
         13    1    6    6    0    0 -0.21363307782E+02 -0.34217989560E+01  0.41085535201E+02  0.46434048179E+02  0.00000000000E+00 0. -1.
        -14    1    6    6    0    0  0.33158939984E+02 -0.38696896649E+02 -0.61329414812E+01  0.51328141232E+02  0.00000000000E+00 0.  1.
</event>
<event>
12    1  0.8798177E-003  0.1753501E+03  0.7818608E-02  0.1173263E+00
         21   -1    0    0  501  502  0.00000000000E+00  0.00000000000E+00  0.17223239968E+03  0.17223239968E+03  0.00000000000E+00 0. -1.
         21   -1    0    0  502  503 -0.00000000000E+00 -0.00000000000E+00 -0.18894889706E+03  0.18894889706E+03  0.00000000000E+00 0. -1.
          6    2    1    2  501    0 -0.24399189044E+02 -0.40561397571E+01 -0.57513122820E+02  0.18454109922E+03  0.17359690467E+03 0.  0.
         24    2    3    3    0    0 -0.12620634185E+02  0.42067237220E+02  0.18938590200E+02  0.94357649065E+02  0.81337340034E+02 0.  0.
         -6    2    1    2    0  503  0.24399189044E+02  0.40561397571E+01  0.40796625439E+02  0.17664019751E+03  0.17007534223E+03 0.  0.
        -24    2    5    5    0    0 -0.48745916902E+01 -0.54879984555E+02  0.59963376525E+00  0.99385365124E+02  0.82713462576E+02 0.  0.
          5    1    3    3  501    0 -0.11778554859E+02 -0.46123376977E+02 -0.76451713020E+02  0.90183450156E+02  0.47000000000E+01 0. -1.
        -11    1    4    4    0    0 -0.28253609003E+02 -0.12323428391E+02 -0.77559487637E+01  0.31785028712E+02  0.00000000000E+00 0.  1.
         12    1    4    4    0    0  0.15632974818E+02  0.54390665611E+02  0.26694538964E+02  0.62572620353E+02  0.00000000000E+00 0. -1.
         -5    1    5    5    0  503  0.29273780734E+02  0.58936124313E+02  0.40196991673E+02  0.77254832386E+02  0.47000000000E+01 0.  1.
         11    1    6    6    0    0 -0.96908796137E+01 -0.35212251485E+01  0.35590103071E+02  0.37053577572E+02  0.00000000000E+00 0. -1.
        -12    1    6    6    0    0  0.48162879235E+01 -0.51358759407E+02 -0.34990469306E+02  0.62331787552E+02  0.00000000000E+00 0.  1.
</event>
<event>
12    1  0.8798177E-003  0.1869389E+03  0.7818608E-02  0.1161770E+00
         21   -1    0    0  501  502  0.00000000000E+00  0.00000000000E+00  0.40681435364E+02  0.40681435364E+02  0.00000000000E+00 0. -1.
         21   -1    0    0  502  503 -0.00000000000E+00 -0.00000000000E+00 -0.10326753563E+04  0.10326753563E+04  0.00000000000E+00 0. -1.
          6    2    1    2  501    0 -0.72117118856E+02  0.15368752403E+02 -0.27197888331E+03  0.33002827269E+03  0.17178204337E+03 0.  0.
         24    2    3    3    0    0 -0.35999498988E+02 -0.57619914051E+02 -0.18250828376E+03  0.20895430324E+03  0.75740403860E+02 0.  0.
         -6    2    1    2    0  503  0.72117118856E+02 -0.15368752403E+02 -0.72001503763E+03  0.74332851898E+03  0.16934743968E+03 0.  0.
        -24    2    5    5    0    0  0.11360864485E+03 -0.65620762825E+01 -0.47373306007E+03  0.49337651009E+03  0.77764924481E+02 0.  0.
          5    1    3    3  501    0 -0.36117619868E+02  0.72988666454E+02 -0.89470599543E+02  0.12107396945E+03  0.47000000000E+01 0. -1.
        -11    1    4    4    0    0 -0.56121923743E+02 -0.55442391808E+02 -0.16174530014E+03  0.17995852647E+03  0.00000000000E+00 0.  1.
         12    1    4    4    0    0  0.20122424755E+02 -0.21775222432E+01 -0.20762983626E+02  0.28995776765E+02  0.00000000000E+00 0. -1.
         -5    1    5    5    0  503 -0.41491525992E+02 -0.88066761203E+01 -0.24628197757E+03  0.24995200889E+03  0.47000000000E+01 0.  1.
         11    1    6    6    0    0  0.49504375847E+02 -0.16874199476E+02 -0.34760329077E+03  0.35151595923E+03  0.00000000000E+00 0. -1.
        -12    1    6    6    0    0  0.64104269000E+02  0.10312123194E+02 -0.12612976929E+03  0.14186055086E+03  0.00000000000E+00 0.  1.
</event>
<event>
12    1  0.8798177E-003  0.2447306E+03  0.7818608E-02  0.1116875E+00
         21   -1    0    0  501  502  0.00000000000E+00  0.00000000000E+00  0.24251132095E+03  0.24251132095E+03  0.00000000000E+00 0.  1.
         21   -1    0    0  502  503 -0.00000000000E+00 -0.00000000000E+00 -0.24621980967E+03  0.24621980967E+03  0.00000000000E+00 0.  1.
          6    2    1    2  501    0 -0.16501106526E+03  0.53282356263E+02  0.85854253666E+01  0.24488110438E+03  0.17270027391E+03 0.  0.
         24    2    3    3    0    0 -0.10310025566E+03  0.10045042740E+03  0.19062519923E+02  0.16620687232E+03  0.80878882645E+02 0.  0.
         -6    2    1    2    0  503  0.16501106526E+03 -0.53282356263E+02 -0.12293914082E+02  0.24385002624E+03  0.17100887060E+03 0.  0.
        -24    2    5    5    0    0  0.17972026378E+02  0.86041160551E+01 -0.21413771380E+02  0.83988598091E+02  0.78730619579E+02 0.  0.
          5    1    3    3  501    0 -0.61910809601E+02 -0.47168071138E+02 -0.10477094556E+02  0.78674232063E+02  0.47000000000E+01 0. -1.
        -11    1    4    4    0    0 -0.11328883187E+03  0.70846725488E+02  0.12345944807E+02  0.13418658760E+03  0.00000000000E+00 0.  1.
         12    1    4    4    0    0  0.10188576209E+02  0.29603701914E+02  0.67165751160E+01  0.32020284719E+02  0.00000000000E+00 0. -1.
         -5    1    5    5    0  503  0.14703903889E+03 -0.61886472319E+02  0.91198572988E+01  0.15986142815E+03  0.47000000000E+01 0.  1.
         13    1    6    6    0    0 -0.10822198442E+02 -0.48346898697E+01  0.25041676513E+02  0.27705229973E+02  0.00000000000E+00 0. -1.
        -14    1    6    6    0    0  0.28794224820E+02  0.13438805925E+02 -0.46455447894E+02  0.56283368118E+02  0.00000000000E+00 0.  1.
</event>
<event>
12    1  0.8798177E-003  0.1940040E+03  0.7818608E-02  0.1155171E+00
         21   -1    0    0  501  502  0.00000000000E+00  0.00000000000E+00  0.83041249769E+02  0.83041249769E+02  0.00000000000E+00 0. -1.
         21   -1    0    0  502  503 -0.00000000000E+00 -0.00000000000E+00 -0.56852823535E+03  0.56852823535E+03  0.00000000000E+00 0.  1.
          6    2    1    2  501    0  0.42052352538E+02  0.78018758732E+02 -0.94830254837E+02  0.21594058481E+03  0.17257529333E+03 0.  0.
         24    2    3    3    0    0  0.33102106137E+02 -0.19343285589E+02 -0.72653431648E+02  0.11557437500E+03  0.81295774175E+02 0.  0.
         -6    2    1    2    0  503 -0.42052352538E+02 -0.78018758732E+02 -0.39065673075E+03  0.43562890031E+03  0.17118566073E+03 0.  0.
        -24    2    5    5    0    0 -0.60831204815E+02 -0.51815556029E+02 -0.38751411687E+03  0.40289941595E+03  0.75996455635E+02 0.  0.
          5    1    3    3  501    0  0.89502464006E+01  0.97362044321E+02 -0.22176823189E+02  0.10036620981E+03  0.47000000000E+01 0. -1.
        -11    1    4    4    0    0  0.40961596763E+02  0.13241849394E+02 -0.69703236224E+02  0.81925210557E+02  0.00000000000E+00 0.  1.
         12    1    4    4    0    0 -0.78594906259E+01 -0.32585134983E+02 -0.29501954239E+01  0.33649164444E+02  0.00000000000E+00 0. -1.
         -5    1    5    5    0  503  0.18778852277E+02 -0.26203202703E+02 -0.31426138763E+01  0.32729484364E+02  0.47000000000E+01 0.  1.
         13    1    6    6    0    0 -0.68309632917E+02 -0.51734466432E+02 -0.23387963394E+03  0.24908300652E+03  0.00000000000E+00 0. -1.
        -14    1    6    6    0    0  0.74784281020E+01 -0.81089597142E-01 -0.15363448293E+03  0.15381640942E+03  0.00000000000E+00 0.  1.
</event>
<event>
12    1  0.8798177E-003  0.1969924E+03  0.7818608E-02  0.1152558E+00
         21   -1    0    0  501  502  0.00000000000E+00  0.00000000000E+00  0.19325211437E+03  0.19325211437E+03  0.00000000000E+00 0. -1.
         21   -1    0    0  502  503 -0.00000000000E+00 -0.00000000000E+00 -0.21639668260E+03  0.21639668260E+03  0.00000000000E+00 0. -1.
          6    2    1    2  501    0  0.71957780044E+02 -0.60929455583E+02  0.45531205582E+02  0.20102863047E+03  0.17160739763E+03 0.  0.
         24    2    3    3    0    0  0.10226211275E+03 -0.20830298607E+01  0.23375824225E+02  0.13107003326E+03  0.78556003864E+02 0.  0.
         -6    2    1    2    0  503 -0.71957780044E+02  0.60929455583E+02 -0.68675773818E+02  0.20862016650E+03  0.17296153125E+03 0.  0.
        -24    2    5    5    0    0 -0.18962387962E+01  0.85523758165E+02 -0.74668826330E+01  0.11227641921E+03  0.72334853579E+02 0.  0.
          5    1    3    3  501    0 -0.30304332702E+02 -0.58846425722E+02  0.22155381357E+02  0.69958597212E+02  0.47000000000E+01 0. -1.
        -13    1    4    4    0    0  0.86754346332E+02  0.11990003497E+02  0.47087419684E+02  0.99434912801E+02  0.00000000000E+00 0.  1.
         14    1    4    4    0    0  0.15507766414E+02 -0.14073033358E+02 -0.23711595459E+02  0.31635120456E+02  0.00000000000E+00 0. -1.
         -5    1    5    5    0  503 -0.70061541247E+02 -0.24594302582E+02 -0.61208891185E+02  0.96343747288E+02  0.47000000000E+01 0.  1.
         11    1    6    6    0    0 -0.16787062143E+02  0.48171327893E+02  0.28407084429E+02  0.58388738059E+02  0.00000000000E+00 0. -1.
        -12    1    6    6    0    0  0.14890823347E+02  0.37352430272E+02 -0.35873967062E+02  0.53887681152E+02  0.00000000000E+00 0.  1.
</event>
<event>
12    1  0.8798177E-003  0.1784348E+03  0.7818608E-02  0.1169954E+00
         21   -1    0    0  503  502  0.00000000000E+00  0.00000000000E+00  0.11936034679E+03  0.11936034679E+03  0.00000000000E+00 0.  1.
         21   -1    0    0  501  503 -0.00000000000E+00 -0.00000000000E+00 -0.29090987879E+03  0.29090987879E+03  0.00000000000E+00 0.  1.
          6    2    1    2  501    0 -0.31171446850E+02 -0.31710623692E+02 -0.14992135416E+03  0.23305659271E+03  0.17280549824E+03 0.  0.
         24    2    3    3    0    0  0.13638769235E+02  0.21013917516E+02 -0.19535456970E+02  0.85373130889E+02  0.79242265510E+02 0.  0.
         -6    2    1    2    0  502  0.31171446850E+02  0.31710623692E+02 -0.21628177840E+02  0.17721363287E+03  0.17017541198E+03 0.  0.
        -24    2    5    5    0    0  0.23788240425E+02 -0.30920552881E+02  0.47298089657E+02  0.83671683095E+02  0.56937512185E+02 0.  0.
          5    1    3    3  501    0 -0.44810216084E+02 -0.52724541208E+02 -0.13038589719E+03  0.14768346183E+03  0.47000000000E+01 0. -1.
        -11    1    4    4    0    0  0.39563794968E+02 -0.10747816587E+02 -0.28100734640E+01  0.41093867505E+02  0.00000000000E+00 0.  1.
         12    1    4    4    0    0 -0.25925025733E+02  0.31761734102E+02 -0.16725383506E+02  0.44279263384E+02  0.00000000000E+00 0. -1.
         -5    1    5    5    0  502  0.73832064245E+01  0.62631176573E+02 -0.68926267496E+02  0.93541949771E+02  0.47000000000E+01 0.  1.
         13    1    6    6    0    0  0.15465098268E+02  0.53299222177E+01  0.43272128080E+02  0.46260722042E+02  0.00000000000E+00 0. -1.
        -14    1    6    6    0    0  0.83231421576E+01 -0.36250475099E+02  0.40259615760E+01  0.37410961052E+02  0.00000000000E+00 0.  1.
</event>
<event>
12    1  0.8798177E-003  0.3413526E+03  0.7818608E-02  0.1066407E+00
         21   -1    0    0  501  502  0.00000000000E+00  0.00000000000E+00  0.17652749810E+04  0.17652749810E+04  0.00000000000E+00 0. -1.
         21   -1    0    0  502  503 -0.00000000000E+00 -0.00000000000E+00 -0.65869275885E+02  0.65869275885E+02  0.00000000000E+00 0.  1.
          6    2    1    2  501    0  0.29277466332E+03  0.18492087276E+01  0.79728385450E+03  0.86660008722E+03  0.17208644183E+03 0.  0.
         24    2    3    3    0    0  0.12322982330E+03  0.55397300483E+02  0.29960573442E+03  0.33809421959E+03  0.79307345007E+02 0.  0.
         -6    2    1    2    0  503 -0.29277466332E+03 -0.18492087276E+01  0.90212185061E+03  0.96454416966E+03  0.17550270319E+03 0.  0.
        -24    2    5    5    0    0 -0.13853093148E+03  0.40612749068E+02  0.60305415147E+03  0.62534256981E+03  0.80862881802E+02 0.  0.
          5    1    3    3  501    0  0.16954484002E+03 -0.53548091756E+02  0.49767812008E+03  0.52850586763E+03  0.47000000000E+01 0. -1.
        -11    1    4    4    0    0  0.13320892891E+03  0.44271151919E+02  0.28195862774E+03  0.31496860381E+03  0.00000000000E+00 0.  1.
         12    1    4    4    0    0 -0.99791056127E+01  0.11126148564E+02  0.17647106682E+02  0.23125615774E+02  0.00000000000E+00 0. -1.
         -5    1    5    5    0  503 -0.15424373184E+03 -0.42461957795E+02  0.29906769914E+03  0.33920159985E+03  0.47000000000E+01 0.  1.
         13    1    6    6    0    0 -0.45357929447E+02 -0.13066284858E+02  0.30188086646E+03  0.30554889478E+03  0.00000000000E+00 0. -1.
        -14    1    6    6    0    0 -0.93173002036E+02  0.53679033926E+02  0.30117328500E+03  0.31979367503E+03  0.00000000000E+00 0.  1.
</event>
<event>
12    1  0.8798177E-003  0.1903764E+03  0.7818608E-02  0.1158783E+00
         21   -1    0    0  501  502  0.00000000000E+00  0.00000000000E+00  0.23692511952E+03  0.23692511952E+03  0.00000000000E+00 0. -1.
         21   -1    0    0  502  503 -0.00000000000E+00 -0.00000000000E+00 -0.15170398181E+03  0.15170398181E+03  0.00000000000E+00 0. -1.
          6    2    1    2  501    0  0.73672364807E+02 -0.14871624363E+02  0.59190073078E+02  0.19936560888E+03  0.17491254588E+03 0.  0.
         24    2    3    3    0    0  0.48901178014E+02 -0.46797248944E+02  0.97879198373E+02  0.14322475374E+03  0.79697458485E+02 0.  0.
         -6    2    1    2    0  503 -0.73672364807E+02  0.14871624363E+02  0.26031064633E+02  0.18926349246E+03  0.17173896094E+03 0.  0.
        -24    2    5    5    0    0 -0.12682162027E+02  0.14023417975E+02 -0.46730225263E+02  0.94201304408E+02  0.79578127106E+02 0.  0.
          5    1    3    3  501    0  0.24771186793E+02  0.31925624581E+02 -0.38689125295E+02  0.56140855143E+02  0.47000000000E+01 0. -1.
        -13    1    4    4    0    0 -0.19442698352E+02 -0.94364899899E+01  0.42422151462E+02  0.47609923306E+02  0.00000000000E+00 0.  1.
         14    1    4    4    0    0  0.68343876366E+02 -0.37360758955E+02  0.55457046911E+02  0.95614830431E+02  0.00000000000E+00 0. -1.
         -5    1    5    5    0  503 -0.60990202780E+02  0.84820638787E+00  0.72761289896E+02  0.95062188049E+02  0.47000000000E+01 0.  1.
         11    1    6    6    0    0 -0.16231964810E+02  0.63267222191E+01  0.20235293055E+02  0.26701520194E+02  0.00000000000E+00 0. -1.
        -12    1    6    6    0    0  0.35498027834E+01  0.76966957561E+01 -0.66965518318E+02  0.67499784214E+02  0.00000000000E+00 0.  1.
</event>
<event>
12    1  0.8798177E-003  0.1979639E+03  0.7818608E-02  0.1151551E+00
         21   -1    0    0  501  502  0.00000000000E+00  0.00000000000E+00  0.24743459272E+03  0.24743459272E+03  0.00000000000E+00 0. -1.
         21   -1    0    0  502  503 -0.00000000000E+00 -0.00000000000E+00 -0.17687481419E+03  0.17687481419E+03  0.00000000000E+00 0.  1.
          6    2    1    2  501    0  0.96376187078E+02 -0.91525090259E+01  0.10447387088E+03  0.22384032666E+03  0.17267763111E+03 0.  0.
         24    2    3    3    0    0  0.84771265707E+02 -0.58757248175E+02  0.11211015987E+03  0.17211308765E+03  0.80097723390E+02 0.  0.
         -6    2    1    2    0  503 -0.96376187078E+02  0.91525090259E+01 -0.33914092354E+02  0.20046908025E+03  0.17223689680E+03 0.  0.
        -24    2    5    5    0    0 -0.13335646471E+03 -0.18966082239E+01 -0.11156202792E+02  0.15541760455E+03  0.79010297685E+02 0.  0.
          5    1    3    3  501    0  0.11604921371E+02  0.49604739149E+02 -0.76362889890E+01  0.51727239010E+02  0.47000000000E+01 0. -1.
        -13    1    4    4    0    0  0.20418796779E+02 -0.20851894425E+02 -0.83704734226E+01  0.30361053808E+02  0.00000000000E+00 0.  1.
         14    1    4    4    0    0  0.64352468927E+02 -0.37905353750E+02  0.12048063329E+03  0.14175203384E+03  0.00000000000E+00 0. -1.
         -5    1    5    5    0  503  0.36980277630E+02  0.11049117250E+02 -0.22757889562E+02  0.45051475702E+02  0.47000000000E+01 0.  1.
         11    1    6    6    0    0 -0.58239738150E+02  0.38275688251E+02 -0.17226642960E+01  0.69712717514E+02  0.00000000000E+00 0. -1.
        -12    1    6    6    0    0 -0.75116726558E+02 -0.40172296475E+02 -0.94335384960E+01  0.85704887034E+02  0.00000000000E+00 0.  1.
</event>
<event>
12    1  0.8798177E-003  0.1868024E+03  0.7818608E-02  0.1161531E+00
         21   -1    0    0  503  502  0.00000000000E+00  0.00000000000E+00  0.15376061665E+03  0.15376061665E+03  0.00000000000E+00 0. -1.
         21   -1    0    0  501  503 -0.00000000000E+00 -0.00000000000E+00 -0.26726887847E+03  0.26726887847E+03  0.00000000000E+00 0. -1.
          6    2    1    2  501    0  0.75422150625E+01 -0.72591867530E+02 -0.13942488783E+03  0.23309746431E+03  0.17195541365E+03 0.  0.
         24    2    3    3    0    0  0.11737022119E+02 -0.11222812364E+03 -0.75786526896E+02  0.15786076990E+03  0.80271511692E+02 0.  0.
         -6    2    1    2    0  502 -0.75422150625E+01  0.72591867530E+02  0.25916626003E+02  0.18793203081E+03  0.17123175073E+03 0.  0.
        -24    2    5    5    0    0 -0.71129388016E+01  0.58168231412E+02  0.83257372242E+02  0.12861696749E+03  0.78590058209E+02 0.  0.
          5    1    3    3  501    0 -0.41948070569E+01  0.39636256109E+02 -0.63638360931E+02  0.75236694415E+02  0.47000000000E+01 0. -1.
        -11    1    4    4    0    0  0.45830079114E+02 -0.75256941777E+02 -0.45752339812E+02  0.99283835721E+02  0.00000000000E+00 0.  1.
         12    1    4    4    0    0 -0.34093056994E+02 -0.36971181862E+02 -0.30034187084E+02  0.58576934174E+02  0.00000000000E+00 0. -1.
         -5    1    5    5    0  502 -0.42927626092E+00  0.14423636118E+02 -0.57340746240E+02  0.59315063317E+02  0.47000000000E+01 0.  1.
         11    1    6    6    0    0 -0.50066707212E+01  0.77350270419E+02  0.74190716210E+02  0.10729582218E+03  0.00000000000E+00 0. -1.
        -12    1    6    6    0    0 -0.21062680804E+01 -0.19182039006E+02  0.90666560319E+01  0.21321145308E+02  0.00000000000E+00 0.  1.
</event>
<event>
12    1  0.8798177E-003  0.1903122E+03  0.7818608E-02  0.1158610E+00
         21   -1    0    0  501  502  0.00000000000E+00  0.00000000000E+00  0.19783752830E+03  0.19783752830E+03  0.00000000000E+00 0. -1.
         21   -1    0    0  502  503 -0.00000000000E+00 -0.00000000000E+00 -0.20464307782E+03  0.20464307782E+03  0.00000000000E+00 0. -1.
          6    2    1    2  501    0  0.56978608669E+02 -0.55481455725E+02  0.64652240188E+02  0.19919521355E+03  0.17080417783E+03 0.  0.
         24    2    3    3    0    0  0.79793617664E+02  0.14493836268E+02  0.55600508701E+02  0.12489117619E+03  0.77001926038E+02 0.  0.
         -6    2    1    2    0  503 -0.56978608669E+02  0.55481455725E+02 -0.71457789712E+02  0.20328539256E+03  0.17289876039E+03 0.  0.
        -24    2    5    5    0    0 -0.67454831435E+01  0.92700284882E+02 -0.72184556697E+02  0.14058590027E+03  0.76908652105E+02 0.  0.
          5    1    3    3  501    0 -0.22815008995E+02 -0.69975291993E+02  0.90517314874E+01  0.74304037359E+02  0.47000000000E+01 0. -1.
        -11    1    4    4    0    0  0.78689980725E+01  0.12185907007E+02  0.50731957025E+02  0.52765035050E+02  0.00000000000E+00 0.  1.
         12    1    4    4    0    0  0.71924619591E+02  0.23079292614E+01  0.48685516758E+01  0.72126141144E+02  0.00000000000E+00 0. -1.
         -5    1    5    5    0  503 -0.50233125525E+02 -0.37218829157E+02  0.72676698555E+00  0.62699492295E+02  0.47000000000E+01 0.  1.
         11    1    6    6    0    0 -0.36355624688E+02  0.19726007330E+02 -0.18733076246E+02  0.45406772152E+02  0.00000000000E+00 0. -1.
        -12    1    6    6    0    0  0.29610141544E+02  0.72974277552E+02 -0.53451480451E+02  0.95179128116E+02  0.00000000000E+00 0.  1.
</event>
<event>
12    1  0.8798177E-003  0.1982017E+03  0.7818608E-02  0.1151995E+00
         21   -1    0    0  501  502  0.00000000000E+00  0.00000000000E+00  0.24826510393E+03  0.24826510393E+03  0.00000000000E+00 0. -1.
         21   -1    0    0  502  503 -0.00000000000E+00 -0.00000000000E+00 -0.15554810633E+03  0.15554810633E+03  0.00000000000E+00 0.  1.
          6    2    1    2  501    0 -0.31732299306E+02 -0.85891942642E+02  0.45424979691E+02  0.20334041543E+03  0.17578262467E+03 0.  0.
         24    2    3    3    0    0 -0.19784849770E+02 -0.11977016481E+03  0.67770800869E+02  0.16077398251E+03  0.80740691972E+02 0.  0.
         -6    2    1    2    0  503  0.31732299306E+02  0.85891942642E+02  0.47292017908E+02  0.20047279483E+03  0.17195476696E+03 0.  0.
        -24    2    5    5    0    0  0.34163049150E+02  0.10525402708E+03  0.82121210821E+02  0.16027377075E+03  0.81842923813E+02 0.  0.
          5    1    3    3  501    0 -0.11947449536E+02  0.33878222172E+02 -0.22345821178E+02  0.42566432926E+02  0.47000000000E+01 0. -1.
        -13    1    4    4    0    0 -0.41051411192E+02 -0.26719331568E+02  0.12798369066E+02  0.50625480650E+02  0.00000000000E+00 0.  1.
         14    1    4    4    0    0  0.21266561422E+02 -0.93050833246E+02  0.54972431803E+02  0.11014850185E+03  0.00000000000E+00 0. -1.
         -5    1    5    5    0  503 -0.24307498436E+01 -0.19362084439E+02 -0.34829192912E+02  0.40199024087E+02  0.47000000000E+01 0.  1.
         13    1    6    6    0    0  0.39535870365E+02  0.97776762693E+01  0.34841544623E+02  0.53596839743E+02  0.00000000000E+00 0. -1.
        -14    1    6    6    0    0 -0.53728212154E+01  0.95476350812E+02  0.47279666198E+02  0.10667693100E+03  0.00000000000E+00 0.  1.
</event>
<event>
12    1  0.8798177E-003  0.1738244E+03  0.7818608E-02  0.1174148E+00
         21   -1    0    0  501  502  0.00000000000E+00  0.00000000000E+00  0.31911360968E+03  0.31911360968E+03  0.00000000000E+00 0.  1.
         21   -1    0    0  502  503 -0.00000000000E+00 -0.00000000000E+00 -0.94282429235E+02  0.94282429235E+02  0.00000000000E+00 0.  1.
          6    2    1    2  501    0 -0.39790319455E+01 -0.20056989404E+02  0.11917726942E+03  0.21075611876E+03  0.17261750933E+03 0.  0.
         24    2    3    3    0    0 -0.20313049109E+02 -0.84881848543E+01  0.15129112705E+03  0.17262441007E+03  0.80159295027E+02 0.  0.
         -6    2    1    2    0  503  0.39790319455E+01  0.20056989404E+02  0.10565391103E+03  0.20263992016E+03  0.17170344436E+03 0.  0.
        -24    2    5    5    0    0 -0.17152909931E+02  0.55200865298E+02  0.12276603792E+03  0.15795697187E+03  0.80855099092E+02 0.  0.
          5    1    3    3  501    0  0.16334017163E+02 -0.11568804550E+02 -0.32113857636E+02  0.38131708691E+02  0.47000000000E+01 0. -1.
        -11    1    4    4    0    0 -0.19730494500E+02 -0.38414053449E+02  0.45714001633E+02  0.62886420322E+02  0.00000000000E+00 0.  1.
         12    1    4    4    0    0 -0.58255460914E+00  0.29925868595E+02  0.10557712542E+03  0.10973798974E+03  0.00000000000E+00 0. -1.
         -5    1    5    5    0  503  0.21131941877E+02 -0.35143875894E+02 -0.17112126892E+02  0.44682948281E+02  0.47000000000E+01 0.  1.
         13    1    6    6    0    0  0.15014670299E+02  0.34541561196E+02  0.11211258661E+03  0.11826999557E+03  0.00000000000E+00 0. -1.
        -14    1    6    6    0    0 -0.32167580230E+02  0.20659304102E+02  0.10653451304E+02  0.39686976309E+02  0.00000000000E+00 0.  1.
</event>
<event>
12    1  0.8798177E-003  0.2236648E+03  0.7818608E-02  0.1131224E+00
         21   -1    0    0  503  502  0.00000000000E+00  0.00000000000E+00  0.47984806499E+03  0.47984806499E+03  0.00000000000E+00 0.  1.
         21   -1    0    0  501  503 -0.00000000000E+00 -0.00000000000E+00 -0.10907796195E+03  0.10907796195E+03  0.00000000000E+00 0.  1.
          6    2    1    2  501    0 -0.83522756152E+02 -0.11813175944E+03  0.12264936485E+03  0.25487533741E+03  0.17025688690E+03 0.  0.
         24    2    3    3    0    0 -0.13429199914E+02 -0.20370181229E+02  0.10351133801E+03  0.13297871370E+03  0.79833912017E+02 0.  0.
         -6    2    1    2    0  502  0.83522756152E+02  0.11813175944E+03  0.24812073818E+03  0.33405068953E+03  0.17057197623E+03 0.  0.
        -24    2    5    5    0    0 -0.18924994591E+02  0.49282532976E+02  0.10347133758E+03  0.14383687113E+03  0.84828086849E+02 0.  0.
          5    1    3    3  501    0 -0.70093556238E+02 -0.97761578208E+02  0.19138026845E+02  0.12189662371E+03  0.47000000000E+01 0. -1.
        -11    1    4    4    0    0 -0.46264966892E+02 -0.17768702489E+02  0.71896863678E+02  0.87323152465E+02  0.00000000000E+00 0.  1.
         12    1    4    4    0    0  0.32835766978E+02 -0.26014787399E+01  0.31614474328E+02  0.45655561236E+02  0.00000000000E+00 0. -1.
         -5    1    5    5    0  502  0.10244775074E+03  0.68849226461E+02  0.14464940060E+03  0.19021381840E+03  0.47000000000E+01 0.  1.
         11    1    6    6    0    0 -0.37189615059E+02  0.61308990973E+02  0.54057378678E+02  0.89800111536E+02  0.00000000000E+00 0. -1.
        -12    1    6    6    0    0  0.18264620469E+02 -0.12026457996E+02  0.49413958904E+02  0.54036759593E+02  0.00000000000E+00 0.  1.
</event>
<event>
12    1  0.8798177E-003  0.1841817E+03  0.7818608E-02  0.1164115E+00
         21   -1    0    0  501  502  0.00000000000E+00  0.00000000000E+00  0.99070256014E+02  0.99070256014E+02  0.00000000000E+00 0. -1.
         21   -1    0    0  502  503 -0.00000000000E+00 -0.00000000000E+00 -0.37566535562E+03  0.37566535562E+03  0.00000000000E+00 0. -1.
          6    2    1    2  501    0 -0.20837462682E+01  0.59472379405E+02 -0.64786931188E+02  0.19404790680E+03  0.17296224378E+03 0.  0.
         24    2    3    3    0    0 -0.31454179604E+02 -0.28908159986E+02 -0.27389400449E+02  0.93576978657E+02  0.78622036028E+02 0.  0.
         -6    2    1    2    0  503  0.20837462682E+01 -0.59472379405E+02 -0.21180816842E+03  0.28068770483E+03  0.17430313114E+03 0.  0.
        -24    2    5    5    0    0  0.69227083696E+02 -0.32606242583E+02 -0.12566155208E+03  0.16811174570E+03  0.81333739600E+02 0.  0.
          5    1    3    3  501    0  0.29370433336E+02  0.88380539392E+02 -0.37397530739E+02  0.10047092815E+03  0.47000000000E+01 0. -1.
        -13    1    4    4    0    0 -0.11630984438E+02 -0.49058537584E+02  0.49083487675E+01  0.50656804049E+02  0.00000000000E+00 0.  1.
         14    1    4    4    0    0 -0.19823195166E+02  0.20150377597E+02 -0.32297749216E+02  0.42920174608E+02  0.00000000000E+00 0. -1.
         -5    1    5    5    0  503 -0.67143337428E+02 -0.26866136822E+02 -0.86146616344E+02  0.11257595914E+03  0.47000000000E+01 0.  1.
         11    1    6    6    0    0  0.52912124018E+02 -0.58514631939E+02 -0.74611648744E+02  0.10858431354E+03  0.00000000000E+00 0. -1.
        -12    1    6    6    0    0  0.16314959679E+02  0.25908389355E+02 -0.51049903335E+02  0.59527432154E+02  0.00000000000E+00 0.  1.
</event>
<event>
12    1  0.8798177E-003  0.3481075E+03  0.7818608E-02  0.1064038E+00
         21   -1    0    0  503  502  0.00000000000E+00  0.00000000000E+00  0.20471135699E+03  0.20471135699E+03  0.00000000000E+00 0.  1.
         21   -1    0    0  501  503 -0.00000000000E+00 -0.00000000000E+00 -0.59968739337E+03  0.59968739337E+03  0.00000000000E+00 0. -1.
          6    2    1    2  501    0 -0.24439114506E+03 -0.17925551260E+03 -0.26924314124E+03  0.44008031911E+03  0.17122864125E+03 0.  0.
         24    2    3    3    0    0 -0.24720105486E+03 -0.15320278029E+03 -0.18982946767E+03  0.35632315820E+03  0.79696379207E+02 0.  0.
         -6    2    1    2    0  502  0.24439114506E+03  0.17925551260E+03 -0.12573289514E+03  0.36431843125E+03  0.15830220420E+03 0.  0.
        -24    2    5    5    0    0  0.11980720297E+03  0.14347155289E+03 -0.10524639817E+03  0.23300416335E+03  0.90974081126E+02 0.  0.
          5    1    3    3  501    0  0.28099098068E+01 -0.26052732302E+02 -0.79413673568E+02  0.83757160906E+02  0.47000000000E+01 0. -1.
        -13    1    4    4    0    0 -0.21027634536E+02  0.35856209785E+01  0.11229738783E+01  0.21360691990E+02  0.00000000000E+00 0.  1.
         14    1    4    4    0    0 -0.22617342033E+03 -0.15678840127E+03 -0.19095244155E+03  0.33496246621E+03  0.00000000000E+00 0. -1.
         -5    1    5    5    0  502  0.12458394208E+03  0.35783959705E+02 -0.20486496968E+02  0.13131426791E+03  0.47000000000E+01 0.  1.
         13    1    6    6    0    0  0.50752150263E+02  0.42960350912E+02  0.75104458165E+01  0.66916211064E+02  0.00000000000E+00 0. -1.
        -14    1    6    6    0    0  0.69055052708E+02  0.10051120198E+03 -0.11275684399E+03  0.16608795228E+03  0.00000000000E+00 0.  1.
</event>
<event>
12    1  0.8798177E-003  0.1867162E+03  0.7818608E-02  0.1161964E+00
         21   -1    0    0  501  502  0.00000000000E+00  0.00000000000E+00  0.87640598772E+03  0.87640598772E+03  0.00000000000E+00 0.  1.
         21   -1    0    0  502  503 -0.00000000000E+00 -0.00000000000E+00 -0.48521318997E+02  0.48521318997E+02  0.00000000000E+00 0.  1.
          6    2    1    2  501    0  0.45601139213E+02 -0.51786527252E+02  0.61735636854E+03  0.64497427469E+03  0.17349818710E+03 0.  0.
         24    2    3    3    0    0  0.40841623654E+01  0.32465630358E+02  0.37810544256E+03  0.38790389326E+03  0.80218496433E+02 0.  0.
         -6    2    1    2    0  503 -0.45601139213E+02  0.51786527252E+02  0.21052830018E+03  0.27995303203E+03  0.17114387708E+03 0.  0.
        -24    2    5    5    0    0 -0.62637466957E+02 -0.25263237054E+02  0.12943978852E+03  0.16670843230E+03  0.80469616234E+02 0.  0.
          5    1    3    3  501    0  0.41516976848E+02 -0.84252157610E+02  0.23925092598E+03  0.25707038143E+03  0.47000000000E+01 0. -1.
        -13    1    4    4    0    0  0.31976192933E+01  0.41236918696E+02  0.83653146173E+02  0.93319650114E+02  0.00000000000E+00 0.  1.
         14    1    4    4    0    0  0.88654307206E+00 -0.87712883389E+01  0.29445229639E+03  0.29458424314E+03  0.00000000000E+00 0. -1.
         -5    1    5    5    0  503  0.17036327744E+02  0.77049764307E+02  0.81088511666E+02  0.11324459972E+03  0.47000000000E+01 0.  1.
         11    1    6    6    0    0 -0.34670063917E+02 -0.35328128297E+01  0.12645085211E+03  0.13116520917E+03  0.00000000000E+00 0. -1.
        -12    1    6    6    0    0 -0.27967403040E+02 -0.21730424225E+02  0.29889364092E+01  0.35543223132E+02  0.00000000000E+00 0.  1.
</event>
<event>
12    1  0.8798177E-003  0.2056241E+03  0.7818608E-02  0.1145859E+00
         21   -1    0    0  501  502  0.00000000000E+00  0.00000000000E+00  0.69315885971E+03  0.69315885971E+03  0.00000000000E+00 0. -1.
         21   -1    0    0  502  503 -0.00000000000E+00 -0.00000000000E+00 -0.71557608584E+02  0.71557608584E+02  0.00000000000E+00 0. -1.
          6    2    1    2  501    0 -0.11082030861E+03  0.67352373430E+01  0.46769821477E+03  0.51090397348E+03  0.17307439383E+03 0.  0.
         24    2    3    3    0    0 -0.18758631937E+02 -0.76420651175E+01  0.35050025386E+03  0.36110573858E+03  0.84478630731E+02 0.  0.
         -6    2    1    2    0  503  0.11082030861E+03 -0.67352373430E+01  0.15390303636E+03  0.25381249482E+03  0.16854712605E+03 0.  0.
        -24    2    5    5    0    0  0.59791590280E+02  0.79969666504E+01  0.16997942620E+03  0.19812130844E+03  0.81975982965E+02 0.  0.
          5    1    3    3  501    0 -0.92061676675E+02  0.14377302461E+02  0.11719796091E+03  0.14979823490E+03  0.47000000000E+01 0. -1.
        -11    1    4    4    0    0 -0.86667663861E+01  0.38562892620E+02  0.15324541963E+03  0.15826044409E+03  0.00000000000E+00 0.  1.
         12    1    4    4    0    0 -0.10091865551E+02 -0.46204957737E+02  0.19725483423E+03  0.20284529449E+03  0.00000000000E+00 0. -1.
         -5    1    5    5    0  503  0.51028718332E+02 -0.14732203993E+02 -0.16076389841E+02  0.55691186371E+02  0.47000000000E+01 0.  1.
         11    1    6    6    0    0  0.44102943813E+02 -0.31790663641E+02  0.12362072062E+03  0.13504739358E+03  0.00000000000E+00 0. -1.
        -12    1    6    6    0    0  0.15688646467E+02  0.39787630292E+02  0.46358705589E+02  0.63073914863E+02  0.00000000000E+00 0.  1.
</event>
<event>
12    1  0.8798177E-003  0.2475072E+03  0.7818608E-02  0.1115020E+00
         21   -1    0    0  501  502  0.00000000000E+00  0.00000000000E+00  0.85875971492E+02  0.85875971492E+02  0.00000000000E+00 0. -1.
         21   -1    0    0  502  503 -0.00000000000E+00 -0.00000000000E+00 -0.73205259022E+03  0.73205259022E+03  0.00000000000E+00 0.  1.
          6    2    1    2  501    0 -0.14078162434E+02  0.17658728694E+03 -0.39188806896E+03  0.46307301481E+03  0.17169476952E+03 0.  0.
         24    2    3    3    0    0  0.37492906283E+01  0.10104644646E+03 -0.10458465715E+03  0.16543300220E+03  0.78776177770E+02 0.  0.
         -6    2    1    2    0  503  0.14078162434E+02 -0.17658728694E+03 -0.25428854977E+03  0.35485554691E+03  0.17285406579E+03 0.  0.
        -24    2    5    5    0    0  0.30073564433E+02 -0.86078550791E+02 -0.52220299362E+02  0.13281646921E+03  0.81236190475E+02 0.  0.
          5    1    3    3  501    0 -0.17827453063E+02  0.75540840473E+02 -0.28730341182E+03  0.29764001261E+03  0.47000000000E+01 0. -1.
        -13    1    4    4    0    0 -0.11666356241E+02  0.38147811133E+02 -0.90864122220E+02  0.99235316642E+02  0.00000000000E+00 0.  1.
         14    1    4    4    0    0  0.15415646869E+02  0.62898635331E+02 -0.13720534926E+02  0.66197685560E+02  0.00000000000E+00 0. -1.
         -5    1    5    5    0  503 -0.15995401999E+02 -0.90508736147E+02 -0.20206825041E+03  0.22203907770E+03  0.47000000000E+01 0.  1.
         13    1    6    6    0    0  0.57208207054E+02 -0.49349386960E+02 -0.40265696988E+02  0.85612308120E+02  0.00000000000E+00 0. -1.
        -14    1    6    6    0    0 -0.27134642621E+02 -0.36729163831E+02 -0.11954602374E+02  0.47204161086E+02  0.00000000000E+00 0.  1.
</event>
<event>
12    1  0.8798177E-003  0.3510760E+03  0.7818608E-02  0.1062287E+00
         21   -1    0    0  503  502  0.00000000000E+00  0.00000000000E+00  0.11859892010E+03  0.11859892010E+03  0.00000000000E+00 0.  1.
         21   -1    0    0  501  503 -0.00000000000E+00 -0.00000000000E+00 -0.10595991728E+04  0.10595991728E+04  0.00000000000E+00 0.  1.
          6    2    1    2  501    0 -0.30320415403E+03 -0.32013571590E+02 -0.55912315988E+03  0.66020682829E+03  0.17405953128E+03 0.  0.
         24    2    3    3    0    0 -0.26978325344E+03 -0.52266779023E+02 -0.54974487802E+03  0.61974460915E+03  0.79681425910E+02 0.  0.
         -6    2    1    2    0  502  0.30320415403E+03  0.32013571590E+02 -0.38187709278E+03  0.51799126457E+03  0.17183482880E+03 0.  0.
        -24    2    5    5    0    0  0.14544301359E+03  0.72375536984E+02 -0.15534744586E+03  0.23896539369E+03  0.81115608188E+02 0.  0.
          5    1    3    3  501    0 -0.33420900585E+02  0.20253207433E+02 -0.93782818535E+01  0.40462219140E+02  0.47000000000E+01 0. -1.
        -13    1    4    4    0    0 -0.96959110628E+02  0.18485338995E+02 -0.17036468487E+03  0.19689312518E+03  0.00000000000E+00 0.  1.
         14    1    4    4    0    0 -0.17282414281E+03 -0.70752118018E+02 -0.37938019315E+03  0.42285148398E+03  0.00000000000E+00 0. -1.
         -5    1    5    5    0  502  0.15776114044E+03 -0.40361965394E+02 -0.22652964692E+03  0.27902587087E+03  0.47000000000E+01 0.  1.
         13    1    6    6    0    0  0.34352667755E+02 -0.43856140363E+01 -0.73020138114E+02  0.80816334751E+02  0.00000000000E+00 0. -1.
        -14    1    6    6    0    0  0.11109034583E+03  0.76761151020E+02 -0.82327307749E+02  0.15814905894E+03  0.00000000000E+00 0.  1.
</event>
<event>
12    1  0.8798177E-003  0.2131798E+03  0.7818608E-02  0.1139288E+00
         21   -1    0    0  503  502  0.00000000000E+00  0.00000000000E+00  0.81468555518E+02  0.81468555518E+02  0.00000000000E+00 0. -1.
         21   -1    0    0  501  503 -0.00000000000E+00 -0.00000000000E+00 -0.58398671204E+03  0.58398671204E+03  0.00000000000E+00 0. -1.
          6    2    1    2  501    0 -0.37620628207E+02  0.12069337923E+03 -0.32608953208E+03  0.38958953496E+03  0.17164911698E+03 0.  0.
         24    2    3    3    0    0 -0.44566239925E+02  0.66813320121E+02 -0.81977384550E+02  0.13946130212E+03  0.79240101742E+02 0.  0.
         -6    2    1    2    0  502  0.37620628207E+02 -0.12069337923E+03 -0.17642862444E+03  0.27586573260E+03  0.17027225096E+03 0.  0.
        -24    2    5    5    0    0  0.90848255719E+02 -0.83352169672E+02 -0.12605942321E+03  0.19348434700E+03  0.79650640905E+02 0.  0.
          5    1    3    3  501    0  0.69456117177E+01  0.53880059106E+02 -0.24411214753E+03  0.25012823284E+03  0.47000000000E+01 0. -1.
        -13    1    4    4    0    0 -0.10207208476E+02 -0.17762268287E+02 -0.22891489659E+02  0.30719791315E+02  0.00000000000E+00 0.  1.
         14    1    4    4    0    0 -0.34359031449E+02  0.84575588408E+02 -0.59085894891E+02  0.10874151080E+03  0.00000000000E+00 0. -1.
         -5    1    5    5    0  502 -0.53227627512E+02 -0.37341209554E+02 -0.50369201230E+02  0.82381385604E+02  0.47000000000E+01 0.  1.
         13    1    6    6    0    0  0.51428004507E+02 -0.28154250208E+02 -0.10607977887E+02  0.59582133624E+02  0.00000000000E+00 0. -1.
        -14    1    6    6    0    0  0.39420251212E+02 -0.55197919464E+02 -0.11545144533E+03  0.13390221337E+03  0.00000000000E+00 0.  1.
</event>
<event>
12    1  0.8798177E-003  0.1921540E+03  0.7818608E-02  0.1158711E+00
         21   -1    0    0  503  502  0.00000000000E+00  0.00000000000E+00  0.45648903564E+02  0.45648903564E+02  0.00000000000E+00 0.  1.
         21   -1    0    0  501  503 -0.00000000000E+00 -0.00000000000E+00 -0.77920783463E+03  0.77920783463E+03  0.00000000000E+00 0.  1.
          6    2    1    2  501    0 -0.46750571956E+02 -0.48208579022E+02 -0.40431114140E+03  0.44363859731E+03  0.16981761657E+03 0.  0.
         24    2    3    3    0    0 -0.61781163073E+02 -0.63828139728E+02 -0.16641158814E+03  0.20470727499E+03  0.79506655289E+02 0.  0.
         -6    2    1    2    0  502  0.46750571956E+02  0.48208579022E+02 -0.32924778967E+03  0.38121814088E+03  0.18003744296E+03 0.  0.
        -24    2    5    5    0    0  0.29966109144E+02 -0.16434846587E+02 -0.29192697041E+03  0.30456682506E+03  0.79821820316E+02 0.  0.
          5    1    3    3  501    0  0.15030591117E+02  0.15619560706E+02 -0.23789955325E+03  0.23893132232E+03  0.47000000000E+01 0. -1.
        -13    1    4    4    0    0 -0.69453699238E+02 -0.37635050151E+02 -0.15714603493E+03  0.17588373897E+03  0.00000000000E+00 0.  1.
         14    1    4    4    0    0  0.76725361648E+01 -0.26193089577E+02 -0.92655532090E+01  0.28823536026E+02  0.00000000000E+00 0. -1.
         -5    1    5    5    0  502  0.16784462812E+02  0.64643425609E+02 -0.37320819261E+02  0.76651315818E+02  0.47000000000E+01 0.  1.
         11    1    6    6    0    0  0.50085091941E+02 -0.33192167494E+02 -0.18665870514E+03  0.19609107226E+03  0.00000000000E+00 0. -1.
        -12    1    6    6    0    0 -0.20118982797E+02  0.16757320906E+02 -0.10526826527E+03  0.10847575280E+03  0.00000000000E+00 0.  1.
</event>
<event>
12    1  0.8798177E-003  0.1886867E+03  0.7818608E-02  0.1159804E+00
         21   -1    0    0  501  502  0.00000000000E+00  0.00000000000E+00  0.23241041019E+03  0.23241041019E+03  0.00000000000E+00 0. -1.
         21   -1    0    0  502  503 -0.00000000000E+00 -0.00000000000E+00 -0.19809061213E+03  0.19809061213E+03  0.00000000000E+00 0. -1.
          6    2    1    2  501    0  0.66330561576E+02 -0.65063141454E+01 -0.85961532079E+02  0.20673714258E+03  0.17580894631E+03 0.  0.
         24    2    3    3    0    0  0.34265721598E+02 -0.29193402952E+02  0.19290857581E+02  0.94295986899E+02  0.80580403986E+02 0.  0.
         -6    2    1    2    0  503 -0.66330561576E+02  0.65063141454E+01  0.12028133014E+03  0.22376387975E+03  0.17652365274E+03 0.  0.
        -24    2    5    5    0    0 -0.10651992975E+03 -0.23095133799E+02  0.67929621033E+02  0.15127786399E+03  0.79941716778E+02 0.  0.
          5    1    3    3  501    0  0.32064839978E+02  0.22687088806E+02 -0.10525238966E+03  0.11244115568E+03  0.47000000000E+01 0. -1.
        -13    1    4    4    0    0  0.40803156982E+02  0.17731679299E+02  0.13909163507E+02  0.46613033585E+02  0.00000000000E+00 0.  1.
         14    1    4    4    0    0 -0.65374353845E+01 -0.46925082251E+02  0.53816940738E+01  0.47682953314E+02  0.00000000000E+00 0. -1.
         -5    1    5    5    0  503  0.40189368172E+02  0.29601447945E+02  0.52351709102E+02  0.72486015758E+02  0.47000000000E+01 0.  1.
         13    1    6    6    0    0 -0.34191563883E+02  0.87355705695E+01  0.62865211986E+02  0.72093051760E+02  0.00000000000E+00 0. -1.
        -14    1    6    6    0    0 -0.72328365864E+02 -0.31830704369E+02  0.50644090474E+01  0.79184812232E+02  0.00000000000E+00 0.  1.
</event>
<event>
12    1  0.8798177E-003  0.1962539E+03  0.7818608E-02  0.1157086E+00
         21   -1    0    0  503  502  0.00000000000E+00  0.00000000000E+00  0.13454078346E+04  0.13454078346E+04  0.00000000000E+00 0. -1.
         21   -1    0    0  501  503 -0.00000000000E+00 -0.00000000000E+00 -0.36375653934E+02  0.36375653934E+02  0.00000000000E+00 0.  1.
          6    2    1    2  501    0 -0.82239483809E+02 -0.42534408451E+02  0.30920680101E+03  0.36623004212E+03  0.17304071592E+03 0.  0.
         24    2    3    3    0    0 -0.11681299523E+03 -0.56322846849E+02  0.20765335594E+03  0.25796813316E+03  0.81302537253E+02 0.  0.
         -6    2    1    2    0  502  0.82239483809E+02  0.42534408451E+02  0.99982537967E+03  0.10155534464E+04  0.15207072074E+03 0.  0.
        -24    2    5    5    0    0  0.45826351563E+02  0.74246103644E+02  0.85298631480E+03  0.86090756453E+03  0.77224627146E+02 0.  0.
          5    1    3    3  501    0  0.34573511425E+02  0.13788438398E+02  0.10155344507E+03  0.10826190896E+03  0.47000000000E+01 0. -1.
        -13    1    4    4    0    0 -0.53100218495E+02 -0.67152554248E+02  0.14222821426E+03  0.16600591459E+03  0.00000000000E+00 0.  1.
         14    1    4    4    0    0 -0.63712776740E+02  0.10829707399E+02  0.65425141674E+02  0.91962218576E+02  0.00000000000E+00 0. -1.
         -5    1    5    5    0  502  0.36413132246E+02 -0.31711695193E+02  0.14683906488E+03  0.15464588189E+03  0.47000000000E+01 0.  1.
         13    1    6    6    0    0  0.81720299540E+01  0.60837715861E+02  0.28595704092E+03  0.29247126183E+03  0.00000000000E+00 0. -1.
        -14    1    6    6    0    0  0.37654321609E+02  0.13408387783E+02  0.56702927388E+03  0.56843630270E+03  0.00000000000E+00 0.  1.
</event>
<event>
12    1  0.8798177E-003  0.1767378E+03  0.7818608E-02  0.1175059E+00
         21   -1    0    0  501  502  0.00000000000E+00  0.00000000000E+00  0.20751859183E+04  0.20751859183E+04  0.00000000000E+00 0.  1.
         21   -1    0    0  502  503 -0.00000000000E+00 -0.00000000000E+00 -0.14771264660E+02  0.14771264660E+02  0.00000000000E+00 0.  1.
          6    2    1    2  501    0  0.10896706828E+02 -0.37087221587E+02  0.80039591477E+03  0.81967669323E+03  0.17245886706E+03 0.  0.
         24    2    3    3    0    0  0.40728512019E+02 -0.10129879426E+02  0.74657073447E+03  0.75232778878E+03  0.82872275514E+02 0.  0.
         -6    2    1    2    0  503 -0.10896706828E+02  0.37087221587E+02  0.12600187389E+04  0.12702804898E+04  0.15643241367E+03 0.  0.
        -24    2    5    5    0    0 -0.35034476028E+02  0.62233997075E+02  0.59640254958E+03  0.60573287751E+03  0.78203790460E+02 0.  0.
          5    1    3    3  501    0 -0.29831805191E+02 -0.26957342161E+02  0.53825180294E+02  0.67348904453E+02  0.47000000000E+01 0. -1.
        -13    1    4    4    0    0 -0.60059995062E+01 -0.71656122668E+01  0.80902876199E+01  0.12364092486E+02  0.00000000000E+00 0.  1.
         14    1    4    4    0    0  0.46734511525E+02 -0.29642671591E+01  0.73848044685E+03  0.73996369629E+03  0.00000000000E+00 0. -1.
         -5    1    5    5    0  503  0.24137769200E+02 -0.25146775488E+02  0.66361618932E+03  0.66454761225E+03  0.47000000000E+01 0.  1.
         13    1    6    6    0    0 -0.30926746230E+02  0.62228335358E+02  0.25480456975E+03  0.26411020071E+03  0.00000000000E+00 0. -1.
        -14    1    6    6    0    0 -0.41077297982E+01  0.56617170500E-02  0.34159797984E+03  0.34162267680E+03  0.00000000000E+00 0.  1.
</event>
<event>
12    1  0.8798177E-003  0.1892900E+03  0.7818608E-02  0.1159308E+00
         21   -1    0    0  503  502  0.00000000000E+00  0.00000000000E+00  0.11259390837E+04  0.11259390837E+04  0.00000000000E+00 0.  1.
         21   -1    0    0  501  503 -0.00000000000E+00 -0.00000000000E+00 -0.60920409519E+02  0.60920409519E+02  0.00000000000E+00 0.  1.
          6    2    1    2  501    0  0.37225394711E+01 -0.77659500902E+02  0.12198174355E+03  0.22518932639E+03  0.17258572242E+03 0.  0.
         24    2    3    3    0    0 -0.29676842962E+02 -0.10813655803E+03  0.11418006305E+03  0.17906638225E+03  0.80333382004E+02 0.  0.
         -6    2    1    2    0  502 -0.37225394711E+01  0.77659500902E+02  0.94303693061E+03  0.96167016680E+03  0.17159837367E+03 0.  0.
        -24    2    5    5    0    0 -0.34506647430E+02  0.11045632771E+03  0.64307733084E+03  0.65832029513E+03  0.80286041688E+02 0.  0.
          5    1    3    3  501    0  0.33399382433E+02  0.30477057126E+02  0.78016805030E+01  0.46122944145E+02  0.47000000000E+01 0. -1.
        -13    1    4    4    0    0  0.86664744837E+01 -0.62233300205E+02  0.17233473295E+02  0.65154309421E+02  0.00000000000E+00 0.  1.
         14    1    4    4    0    0 -0.38343317445E+02 -0.45903257824E+02  0.96946589752E+02  0.11391207283E+03  0.00000000000E+00 0. -1.
         -5    1    5    5    0  502  0.30784107959E+02 -0.32796826804E+02  0.29995959976E+03  0.30334987167E+03  0.47000000000E+01 0.  1.
         11    1    6    6    0    0  0.16037244654E+02  0.38006961895E+02  0.10111993270E+03  0.10921063665E+03  0.00000000000E+00 0. -1.
        -12    1    6    6    0    0 -0.50543892084E+02  0.72449365812E+02  0.54195739814E+03  0.54910965848E+03  0.00000000000E+00 0.  1.
</event>
<event>
12    1  0.8798177E-003  0.1760560E+03  0.7818608E-02  0.1171919E+00
         21   -1    0    0  501  502  0.00000000000E+00  0.00000000000E+00  0.14460231551E+03  0.14460231551E+03  0.00000000000E+00 0. -1.
         21   -1    0    0  502  503 -0.00000000000E+00 -0.00000000000E+00 -0.26138730518E+03  0.26138730518E+03  0.00000000000E+00 0. -1.
          6    2    1    2  501    0  0.34668007741E+02 -0.19157441096E+02  0.28664934580E+02  0.17837433389E+03  0.17154254926E+03 0.  0.
         24    2    3    3    0    0  0.35313537467E+02 -0.77508149215E+02  0.11930959309E+02  0.11748642232E+03  0.80038443993E+02 0.  0.
         -6    2    1    2    0  503 -0.34668007741E+02  0.19157441096E+02 -0.14544992425E+03  0.22761528681E+03  0.17054078695E+03 0.  0.
        -24    2    5    5    0    0  0.15645316473E+02  0.62922847245E+02 -0.11572718195E+03  0.15445537443E+03  0.79117769276E+02 0.  0.
          5    1    3    3  501    0 -0.64552972652E+00  0.58350708119E+02  0.16733975271E+02  0.60887911567E+02  0.47000000000E+01 0. -1.
        -13    1    4    4    0    0  0.26517008480E+02 -0.63997772227E+02 -0.27773291904E+02  0.74633922127E+02  0.00000000000E+00 0.  1.
         14    1    4    4    0    0  0.87965289873E+01 -0.13510376987E+02  0.39704251213E+02  0.42852500195E+02  0.00000000000E+00 0. -1.
         -5    1    5    5    0  503 -0.50313324213E+02 -0.43765406149E+02 -0.29722742303E+02  0.73159912376E+02  0.47000000000E+01 0.  1.
         11    1    6    6    0    0 -0.28249367486E+02  0.98815350192E+01 -0.18040603692E+02  0.34944740366E+02  0.00000000000E+00 0. -1.
        -12    1    6    6    0    0  0.43894683959E+02  0.53041312226E+02 -0.97686578258E+02  0.11951063406E+03  0.00000000000E+00 0.  1.
</event>
<event>
12    1  0.8798177E-003  0.2419992E+03  0.7818608E-02  0.1118938E+00
         21   -1    0    0  503  502  0.00000000000E+00  0.00000000000E+00  0.38154349779E+03  0.38154349779E+03  0.00000000000E+00 0. -1.
         21   -1    0    0  501  503 -0.00000000000E+00 -0.00000000000E+00 -0.15419937053E+03  0.15419937053E+03  0.00000000000E+00 0.  1.
          6    2    1    2  501    0 -0.13481086428E+03 -0.10503099893E+03  0.80229792276E+02  0.25495181583E+03  0.17134214006E+03 0.  0.
         24    2    3    3    0    0 -0.11332268961E+03 -0.92331973592E+02 -0.40425917002E+01  0.16693516061E+03  0.80521922308E+02 0.  0.
         -6    2    1    2    0  502  0.13481086428E+03  0.10503099893E+03  0.14711433498E+03  0.28079105249E+03  0.16731858156E+03 0.  0.
        -24    2    5    5    0    0  0.12352065464E+03  0.85041144351E+02  0.17636975424E+03  0.24330728699E+03  0.74851835888E+02 0.  0.
          5    1    3    3  501    0 -0.21488174677E+02 -0.12699025335E+02  0.84272383976E+02  0.88016655222E+02  0.47000000000E+01 0. -1.
        -13    1    4    4    0    0 -0.36548144734E+02 -0.54194716976E+02  0.33381461581E+02  0.73397249328E+02  0.00000000000E+00 0.  1.
         14    1    4    4    0    0 -0.76774544872E+02 -0.38137256617E+02 -0.37424053281E+02  0.93537911280E+02  0.00000000000E+00 0. -1.
         -5    1    5    5    0  502  0.11290209648E+02  0.19989854577E+02 -0.29255419262E+02  0.37483765500E+02  0.47000000000E+01 0.  1.
         11    1    6    6    0    0  0.67264973344E+02  0.51261681233E+02  0.43466398505E+02  0.95087666923E+02  0.00000000000E+00 0. -1.
        -12    1    6    6    0    0  0.56255681292E+02  0.33779463118E+02  0.13290335574E+03  0.14821962006E+03  0.00000000000E+00 0.  1.
</event>
<event>
12    1  0.8798177E-003  0.1883695E+03  0.7818608E-02  0.1160021E+00
         21   -1    0    0  503  502  0.00000000000E+00  0.00000000000E+00  0.36404184570E+03  0.36404184570E+03  0.00000000000E+00 0.  1.
         21   -1    0    0  501  503 -0.00000000000E+00 -0.00000000000E+00 -0.97523087118E+02  0.97523087118E+02  0.00000000000E+00 0.  1.
          6    2    1    2  501    0  0.78412186797E+02  0.15993108088E+02  0.12178882163E+03  0.22401530254E+03  0.17013549940E+03 0.  0.
         24    2    3    3    0    0  0.70453429065E+02  0.67466568680E+02  0.48725595330E+02  0.13416440379E+03  0.78169559593E+02 0.  0.
         -6    2    1    2    0  502 -0.78412186797E+02 -0.15993108088E+02  0.14472993695E+03  0.23754963027E+03  0.17052513495E+03 0.  0.
        -24    2    5    5    0    0 -0.52925037919E+02  0.56515548859E+02  0.76374310382E+02  0.13458516177E+03  0.79278392901E+02 0.  0.
          5    1    3    3  501    0  0.79587577319E+01 -0.51473460592E+02  0.73063226297E+02  0.89850898754E+02  0.47000000000E+01 0. -1.
        -11    1    4    4    0    0  0.54163862719E+02  0.16775229899E+02 -0.69508285345E+01  0.57126582080E+02  0.00000000000E+00 0.  1.
         12    1    4    4    0    0  0.16289566346E+02  0.50691338781E+02  0.55676423864E+02  0.77037821708E+02  0.00000000000E+00 0. -1.
         -5    1    5    5    0  502 -0.25487148878E+02 -0.72508656947E+02  0.68355626569E+02  0.10296446850E+03  0.47000000000E+01 0.  1.
         13    1    6    6    0    0 -0.97979481611E+01 -0.20153679465E+02  0.20515800148E+02  0.30382044695E+02  0.00000000000E+00 0. -1.
        -14    1    6    6    0    0 -0.43127089758E+02  0.76669228324E+02  0.55858510233E+02  0.10420311708E+03  0.00000000000E+00 0.  1.
</event>
<event>
12    1  0.8798177E-003  0.1840169E+03  0.7818608E-02  0.1165273E+00
         21   -1    0    0  503  502  0.00000000000E+00  0.00000000000E+00  0.24133805921E+03  0.24133805921E+03  0.00000000000E+00 0.  1.
         21   -1    0    0  501  503 -0.00000000000E+00 -0.00000000000E+00 -0.15685105961E+03  0.15685105961E+03  0.00000000000E+00 0.  1.
          6    2    1    2  501    0 -0.24306884565E+02  0.45794969654E+02 -0.30568330523E+02  0.18116387296E+03  0.17087399496E+03 0.  0.
         24    2    3    3    0    0  0.14208656056E+01  0.59688615218E+02  0.38230572257E+02  0.10626173988E+03  0.79153212582E+02 0.  0.
         -6    2    1    2    0  502  0.24306884565E+02 -0.45794969654E+02  0.11505533012E+03  0.21702524585E+03  0.17656223964E+03 0.  0.
        -24    2    5    5    0    0 -0.22827428935E+02  0.14721224203E+02  0.11241910493E+03  0.14012990847E+03  0.79123511928E+02 0.  0.
          5    1    3    3  501    0 -0.25727750171E+02 -0.13893645563E+02 -0.68798902780E+02  0.74902133078E+02  0.47000000000E+01 0. -1.
        -11    1    4    4    0    0  0.16871091634E+02 -0.15166006737E+02  0.76936072206E+01  0.23954813406E+02  0.00000000000E+00 0.  1.
         12    1    4    4    0    0 -0.15450226028E+02  0.74854621955E+02  0.30536965037E+02  0.82306926476E+02  0.00000000000E+00 0. -1.
         -5    1    5    5    0  502  0.47134313500E+02 -0.60516193857E+02  0.26362251859E+01  0.76895337383E+02  0.47000000000E+01 0.  1.
         13    1    6    6    0    0 -0.11982262760E+02 -0.14127827650E+02 -0.46270854028E+01  0.19093979529E+02  0.00000000000E+00 0. -1.
        -14    1    6    6    0    0 -0.10845166175E+02  0.28849051852E+02  0.11704619034E+03  0.12103592894E+03  0.00000000000E+00 0.  1.
</event>
<event>
12    1  0.8798177E-003  0.1748606E+03  0.7818608E-02  0.1173631E+00
         21   -1    0    0  501  502  0.00000000000E+00  0.00000000000E+00  0.61428436462E+02  0.61428436462E+02  0.00000000000E+00 0. -1.
         21   -1    0    0  502  503 -0.00000000000E+00 -0.00000000000E+00 -0.49253593990E+03  0.49253593990E+03  0.00000000000E+00 0. -1.
          6    2    1    2  501    0  0.34144223020E+01  0.25211828691E+02 -0.19115715529E+03  0.25705968369E+03  0.16997449331E+03 0.  0.
         24    2    3    3    0    0  0.30355778659E+01  0.79053520715E+02 -0.15345957010E+03  0.19116378661E+03  0.82067531864E+02 0.  0.
         -6    2    1    2    0  503 -0.34144223020E+01 -0.25211828691E+02 -0.23995034815E+03  0.29690469267E+03  0.17299980453E+03 0.  0.
        -24    2    5    5    0    0  0.20778775430E+01 -0.74397812803E+02 -0.21552766200E+03  0.24151530750E+03  0.79612301472E+02 0.  0.
          5    1    3    3  501    0  0.37884443612E+00 -0.53841692024E+02 -0.37697585191E+02  0.65895897083E+02  0.47000000000E+01 0. -1.
        -11    1    4    4    0    0 -0.81152919248E+01  0.50605235847E+00 -0.87817893497E+02  0.88193517167E+02  0.00000000000E+00 0.  1.
         12    1    4    4    0    0  0.11150869791E+02  0.78547468356E+02 -0.65641676600E+02  0.10297026944E+03  0.00000000000E+00 0. -1.
         -5    1    5    5    0  503 -0.54922998450E+01  0.49185984112E+02 -0.24422686155E+02  0.55389385171E+02  0.47000000000E+01 0.  1.
         11    1    6    6    0    0  0.22903937587E+02 -0.67162214338E+02 -0.20528820683E+03  0.21720635639E+03  0.00000000000E+00 0. -1.
        -12    1    6    6    0    0 -0.20826060044E+02 -0.72355984650E+01 -0.10239455169E+02  0.24308951114E+02  0.00000000000E+00 0.  1.
</event>
<event>
12    1  0.8798177E-003  0.1724289E+03  0.7818608E-02  0.1175607E+00
         21   -1    0    0  501  502  0.00000000000E+00  0.00000000000E+00  0.53284321353E+03  0.53284321353E+03  0.00000000000E+00 0.  1.
         21   -1    0    0  502  503 -0.00000000000E+00 -0.00000000000E+00 -0.61142046215E+02  0.61142046215E+02  0.00000000000E+00 0.  1.
          6    2    1    2  501    0  0.16456170859E+01 -0.75339673188E+01  0.32704277252E+03  0.36971433462E+03  0.17225633646E+03 0.  0.
         24    2    3    3    0    0  0.19095635796E+02 -0.35789595013E+02  0.10815667027E+03  0.14827337318E+03  0.92960149806E+02 0.  0.
         -6    2    1    2    0  503 -0.16456170859E+01  0.75339673188E+01  0.14465839480E+03  0.22427092512E+03  0.17120726606E+03 0.  0.
        -24    2    5    5    0    0 -0.32439965068E+02  0.37343505184E+02  0.25747881412E+02  0.97784955113E+02  0.80324686965E+02 0.  0.
          5    1    3    3  501    0 -0.17450018710E+02  0.28255627695E+02  0.21888610225E+03  0.22144096145E+03  0.47000000000E+01 0. -1.
        -11    1    4    4    0    0  0.54001331770E+02 -0.64835770622E+01  0.46225193421E+02  0.71378912231E+02  0.00000000000E+00 0.  1.
         12    1    4    4    0    0 -0.34905695974E+02 -0.29306017951E+02  0.61931476849E+02  0.76894460947E+02  0.00000000000E+00 0. -1.
         -5    1    5    5    0  503  0.30794347982E+02 -0.29809537866E+02  0.11891051339E+03  0.12648597001E+03  0.47000000000E+01 0.  1.
         13    1    6    6    0    0 -0.11203413691E+02 -0.28476085020E+01 -0.26271900864E+02  0.28702580502E+02  0.00000000000E+00 0. -1.
        -14    1    6    6    0    0 -0.21236551377E+02  0.40191113686E+02  0.52019782276E+02  0.69082374610E+02  0.00000000000E+00 0.  1.
</event>
<event>
12    1  0.8798177E-003  0.1737154E+03  0.7818608E-02  0.1174382E+00
         21   -1    0    0  503  502  0.00000000000E+00  0.00000000000E+00  0.57563558143E+02  0.57563558143E+02  0.00000000000E+00 0.  1.
         21   -1    0    0  501  503 -0.00000000000E+00 -0.00000000000E+00 -0.52079162967E+03  0.52079162967E+03  0.00000000000E+00 0.  1.
          6    2    1    2  501    0  0.84625027373E+01 -0.31832484427E+01 -0.24351662478E+03  0.29912769759E+03  0.17347992938E+03 0.  0.
         24    2    3    3    0    0  0.51762484778E+02 -0.43931527068E+02 -0.10701733365E+03  0.15016643708E+03  0.80547595998E+02 0.  0.
         -6    2    1    2    0  502 -0.84625027373E+01  0.31832484427E+01 -0.21971144675E+03  0.27922749023E+03  0.17208464325E+03 0.  0.
        -24    2    5    5    0    0 -0.29904785822E+02  0.49307154254E+02 -0.20250139865E+03  0.22532515311E+03  0.80244105654E+02 0.  0.
          5    1    3    3  501    0 -0.43299982040E+02  0.40748278625E+02 -0.13649929112E+03  0.14896126051E+03  0.47000000000E+01 0. -1.
        -13    1    4    4    0    0 -0.29928141479E+01  0.18760883974E+02 -0.74934660409E+01  0.20422530140E+02  0.00000000000E+00 0.  1.
         14    1    4    4    0    0  0.54755298925E+02 -0.62692411042E+02 -0.99523867613E+02  0.12974390694E+03  0.00000000000E+00 0. -1.
         -5    1    5    5    0  502  0.21442283084E+02 -0.46123905811E+02 -0.17210048099E+02  0.53902337117E+02  0.47000000000E+01 0.  1.
         11    1    6    6    0    0 -0.20772272182E+02  0.12419019890E+02 -0.17903178752E+03  0.18066017904E+03  0.00000000000E+00 0. -1.
        -12    1    6    6    0    0 -0.91325136399E+01  0.36888134364E+02 -0.23469611129E+02  0.44664974071E+02  0.00000000000E+00 0.  1.
</event>
<event>
12    1  0.8798177E-003  0.1890299E+03  0.7818608E-02  0.1159811E+00
         21   -1    0    0  501  502  0.00000000000E+00  0.00000000000E+00  0.77419082909E+03  0.77419082909E+03  0.00000000000E+00 0.  1.
         21   -1    0    0  502  503 -0.00000000000E+00 -0.00000000000E+00 -0.45858628130E+02  0.45858628130E+02  0.00000000000E+00 0.  1.
          6    2    1    2  501    0 -0.32088835899E+01  0.75733016917E+02  0.39371262598E+03  0.43674010277E+03  0.17316610153E+03 0.  0.
         24    2    3    3    0    0 -0.50558795730E+02 -0.51955275202E+01  0.18542919146E+03  0.20827670837E+03  0.80075070215E+02 0.  0.
         -6    2    1    2    0  503  0.32088835899E+01 -0.75733016917E+02  0.33461957497E+03  0.38330935445E+03  0.17090937502E+03 0.  0.
        -24    2    5    5    0    0  0.44933109564E+02 -0.80178378907E+01  0.10314299886E+03  0.13850381572E+03  0.80383821105E+02 0.  0.
          5    1    3    3  501    0  0.47349912140E+02  0.80928544438E+02  0.20828343452E+03  0.22846339440E+03  0.47000000000E+01 0. -1.
        -11    1    4    4    0    0  0.20787425286E+02 -0.10135581203E+02  0.51311968252E+02  0.56282902752E+02  0.00000000000E+00 0.  1.
         12    1    4    4    0    0 -0.71346221016E+02  0.49400536828E+01  0.13411722321E+03  0.15199380562E+03  0.00000000000E+00 0. -1.
         -5    1    5    5    0  503 -0.41724225974E+02 -0.67715179027E+02  0.23147657612E+03  0.24480553873E+03  0.47000000000E+01 0.  1.
         13    1    6    6    0    0  0.41335063322E+02  0.36672965097E+01  0.11451759806E+03  0.12180442023E+03  0.00000000000E+00 0. -1.
        -14    1    6    6    0    0  0.35980462418E+01 -0.11685134400E+02 -0.11374599197E+02  0.16699395486E+02  0.00000000000E+00 0.  1.
</event>
<event>
12    1  0.8798177E-003  0.1725513E+03  0.7818608E-02  0.1175362E+00
         21   -1    0    0  503  502  0.00000000000E+00  0.00000000000E+00  0.84148152385E+03  0.84148152385E+03  0.00000000000E+00 0.  1.
         21   -1    0    0  501  503 -0.00000000000E+00 -0.00000000000E+00 -0.44031170943E+02  0.44031170943E+02  0.00000000000E+00 0.  1.
          6    2    1    2  501    0  0.14661315228E+02 -0.49101276110E+01  0.20169376931E+03  0.26543232126E+03  0.17185714147E+03 0.  0.
         24    2    3    3    0    0  0.30911433813E+02  0.51283971244E+02  0.70842923659E+02  0.12202424301E+03  0.79281987889E+02 0.  0.
         -6    2    1    2    0  502 -0.14661315228E+02  0.49101276110E+01  0.59575658360E+03  0.62008037354E+03  0.17127375520E+03 0.  0.
        -24    2    5    5    0    0 -0.62683594997E+02 -0.13676955324E+02  0.25050142578E+03  0.27097461161E+03  0.80993725867E+02 0.  0.
          5    1    3    3  501    0 -0.16250118585E+02 -0.56194098855E+02  0.13085084565E+03  0.14340807825E+03  0.47000000000E+01 0. -1.
        -13    1    4    4    0    0 -0.25323181404E+02  0.21194247478E+02  0.11670604023E+02  0.35023743958E+02  0.00000000000E+00 0.  1.
         14    1    4    4    0    0  0.56234615217E+02  0.30089723766E+02  0.59172319635E+02  0.87000499056E+02  0.00000000000E+00 0. -1.
         -5    1    5    5    0  502  0.48022279769E+02  0.18587082935E+02  0.34525515783E+03  0.34910576193E+03  0.47000000000E+01 0.  1.
         11    1    6    6    0    0 -0.68037420693E+02 -0.29065301729E+02  0.24102773506E+03  0.25212745080E+03  0.00000000000E+00 0. -1.
        -12    1    6    6    0    0  0.53538256954E+01  0.15388346405E+02  0.94736907194E+01  0.18847160807E+02  0.00000000000E+00 0.  1.
</event>
<event>
12    1  0.8798177E-003  0.1911679E+03  0.7818608E-02  0.1157824E+00
         21   -1    0    0  501  502  0.00000000000E+00  0.00000000000E+00  0.22993175089E+03  0.22993175089E+03  0.00000000000E+00 0.  1.
         21   -1    0    0  502  503 -0.00000000000E+00 -0.00000000000E+00 -0.15745678589E+03  0.15745678589E+03  0.00000000000E+00 0. -1.
          6    2    1    2  501    0  0.76068922990E+02 -0.19357536913E+02  0.33176802213E+02  0.19222321426E+03  0.17230167908E+03 0.  0.
         24    2    3    3    0    0 -0.62048587439E+00 -0.62754889471E+02  0.23685933135E+02  0.10347208899E+03  0.78783809353E+02 0.  0.
         -6    2    1    2    0  503 -0.76068922990E+02  0.19357536913E+02  0.39298162782E+02  0.19516532252E+03  0.17430996024E+03 0.  0.
        -24    2    5    5    0    0 -0.23516083102E+02 -0.32531916408E+02  0.69632911335E+02  0.11518655462E+03  0.82509807137E+02 0.  0.
          5    1    3    3  501    0  0.76689408865E+02  0.43397352557E+02  0.94908690779E+01  0.88751125271E+02  0.47000000000E+01 0. -1.
        -11    1    4    4    0    0  0.19005417155E+02 -0.66080091436E+02 -0.45678146616E+01  0.68910444029E+02  0.00000000000E+00 0.  1.
         12    1    4    4    0    0 -0.19625903029E+02  0.33252019655E+01  0.28253747797E+02  0.34561644961E+02  0.00000000000E+00 0. -1.
         -5    1    5    5    0  503 -0.52552839888E+02  0.51889453321E+02 -0.30334748552E+02  0.79978767908E+02  0.47000000000E+01 0.  1.
         11    1    6    6    0    0  0.21991707466E+02 -0.39792945923E+02  0.38451255353E+02  0.59545048330E+02  0.00000000000E+00 0. -1.
        -12    1    6    6    0    0 -0.45507790568E+02  0.72610295148E+01  0.31181655982E+02  0.55641506286E+02  0.00000000000E+00 0.  1.
</event>
<event>
12    1  0.8798177E-003  0.1835738E+03  0.7818608E-02  0.1164620E+00
         21   -1    0    0  503  502  0.00000000000E+00  0.00000000000E+00  0.64414018779E+03  0.64414018779E+03  0.00000000000E+00 0. -1.
         21   -1    0    0  501  503 -0.00000000000E+00 -0.00000000000E+00 -0.52040240235E+02  0.52040240235E+02  0.00000000000E+00 0. -1.
          6    2    1    2  501    0  0.33153363055E+02 -0.51251072533E+02  0.29295435051E+03  0.34519977294E+03  0.17208955181E+03 0.  0.
         24    2    3    3    0    0 -0.26122189721E+02  0.11570985805E+02  0.87888540396E+02  0.12263679613E+03  0.80617192486E+02 0.  0.
         -6    2    1    2    0  502 -0.33153363055E+02  0.51251072533E+02  0.29914559704E+03  0.35098065508E+03  0.17312860564E+03 0.  0.
        -24    2    5    5    0    0  0.19927694819E+02  0.49937663214E+01  0.25217085740E+03  0.26621006320E+03  0.82798585157E+02 0.  0.
          5    1    3    3  501    0  0.59275552776E+02 -0.62822058338E+02  0.20506581011E+03  0.22256297681E+03  0.47000000000E+01 0. -1.
        -13    1    4    4    0    0 -0.49628129817E+02 -0.20460599855E+01  0.80318926399E+02  0.94436579610E+02  0.00000000000E+00 0.  1.
         14    1    4    4    0    0  0.23505940095E+02  0.13617045791E+02  0.75696139965E+01  0.28200216522E+02  0.00000000000E+00 0. -1.
         -5    1    5    5    0  502 -0.53081057873E+02  0.46257306211E+02  0.46974739647E+02  0.84770591881E+02  0.47000000000E+01 0.  1.
         13    1    6    6    0    0 -0.25679822641E+02 -0.20281826361E+02  0.11072260338E+03  0.11545692128E+03  0.00000000000E+00 0. -1.
        -14    1    6    6    0    0  0.45607517460E+02  0.25275592682E+02  0.14144825401E+03  0.15075314192E+03  0.00000000000E+00 0.  1.
</event>
<event>
12    1  0.8798177E-003  0.2032997E+03  0.7818608E-02  0.1146998E+00
         21   -1    0    0  501  502  0.00000000000E+00  0.00000000000E+00  0.15557307071E+03  0.15557307071E+03  0.00000000000E+00 0.  1.
         21   -1    0    0  502  503 -0.00000000000E+00 -0.00000000000E+00 -0.26783424925E+03  0.26783424925E+03  0.00000000000E+00 0. -1.
          6    2    1    2  501    0  0.10815255245E+03  0.15372761492E+01 -0.75542337536E+02  0.21681824143E+03  0.17205861570E+03 0.  0.
         24    2    3    3    0    0  0.14488976340E+03 -0.25733633185E+01 -0.55028373787E+02  0.17428081398E+03  0.79661875851E+02 0.  0.
         -6    2    1    2    0  503 -0.10815255245E+03 -0.15372761492E+01 -0.36718840999E+02  0.20658907853E+03  0.17213784088E+03 0.  0.
        -24    2    5    5    0    0 -0.73018339029E+02 -0.57743449271E+02 -0.59253398260E+02  0.13642182747E+03  0.80212006814E+02 0.  0.
          5    1    3    3  501    0 -0.36737210951E+02  0.41106394677E+01 -0.20513963750E+02  0.42537427449E+02  0.47000000000E+01 0. -1.
        -11    1    4    4    0    0  0.90879241536E+01  0.15264946795E+01  0.17862150132E+02  0.20099178062E+02  0.00000000000E+00 0.  1.
         12    1    4    4    0    0  0.13580183925E+03 -0.40998579980E+01 -0.72890523918E+02  0.15418163592E+03  0.00000000000E+00 0. -1.
         -5    1    5    5    0  503 -0.35134213421E+02  0.56206173121E+02  0.22534557262E+02  0.70167251055E+02  0.47000000000E+01 0.  1.
         11    1    6    6    0    0 -0.16327463584E+02 -0.56858957124E+02 -0.74539571639E+01  0.59624563308E+02  0.00000000000E+00 0. -1.
        -12    1    6    6    0    0 -0.56690875446E+02 -0.88449214700E+00 -0.51799441097E+02  0.76797264164E+02  0.00000000000E+00 0.  1.
</event>
<event>
12    1  0.8798177E-003  0.2156124E+03  0.7818608E-02  0.1137732E+00
         21   -1    0    0  503  502  0.00000000000E+00  0.00000000000E+00  0.33095206263E+03  0.33095206263E+03  0.00000000000E+00 0. -1.
         21   -1    0    0  501  503 -0.00000000000E+00 -0.00000000000E+00 -0.15063143029E+03  0.15063143029E+03  0.00000000000E+00 0. -1.
          6    2    1    2  501    0 -0.11856468246E+03 -0.36858388564E+02  0.22832877026E+02  0.21681797526E+03  0.17627413137E+03 0.  0.
         24    2    3    3    0    0 -0.36037770252E+02  0.75183030339E+01  0.70000301991E+02  0.11180922337E+03  0.79031730253E+02 0.  0.
         -6    2    1    2    0  502  0.11856468246E+03  0.36858388564E+02  0.15748775532E+03  0.26476551766E+03  0.17286486494E+03 0.  0.
        -24    2    5    5    0    0  0.10840205112E+03  0.86456321978E+02  0.14020900393E+03  0.21106375489E+03  0.75257182702E+02 0.  0.
          5    1    3    3  501    0 -0.82526912208E+02 -0.44376691598E+02 -0.47167424965E+02  0.10500875189E+03  0.47000000000E+01 0. -1.
        -13    1    4    4    0    0 -0.12651913073E+02  0.25172486565E+02 -0.73322510201E+01  0.29111628077E+02  0.00000000000E+00 0.  1.
         14    1    4    4    0    0 -0.23385857179E+02 -0.17654183531E+02  0.77332553011E+02  0.82697595294E+02  0.00000000000E+00 0. -1.
         -5    1    5    5    0  502  0.10162631340E+02 -0.49597933414E+02  0.17278751391E+02  0.53701762767E+02  0.47000000000E+01 0.  1.
         13    1    6    6    0    0  0.55049653677E+02 -0.80709215150E+00  0.41771792026E+02  0.69108598428E+02  0.00000000000E+00 0. -1.
        -14    1    6    6    0    0  0.53352397442E+02  0.87263414129E+02  0.98437211907E+02  0.14195515646E+03  0.00000000000E+00 0.  1.
</event>
<event>
12    1  0.8798177E-003  0.1809434E+03  0.7818608E-02  0.1166971E+00
         21   -1    0    0  503  502  0.00000000000E+00  0.00000000000E+00  0.10401425851E+04  0.10401425851E+04  0.00000000000E+00 0.  1.
         21   -1    0    0  501  503 -0.00000000000E+00 -0.00000000000E+00 -0.46255782582E+02  0.46255782582E+02  0.00000000000E+00 0.  1.
          6    2    1    2  501    0  0.45193706676E+02 -0.29782908944E+02  0.18901418766E+03  0.26143749559E+03  0.17231862399E+03 0.  0.
         24    2    3    3    0    0  0.26537335472E+02 -0.68345747328E+02  0.18957794578E+03  0.21833806968E+03  0.79726681815E+02 0.  0.
         -6    2    1    2    0  502 -0.45193706676E+02  0.29782908944E+02  0.80487261484E+03  0.82496087207E+03  0.17265868511E+03 0.  0.
        -24    2    5    5    0    0  0.19085602612E+02 -0.87065132311E+01  0.21663224260E+03  0.23194983444E+03  0.80194348700E+02 0.  0.
          5    1    3    3  501    0  0.18656371205E+02  0.38562838385E+02 -0.56375811684E+00  0.43099425913E+02  0.47000000000E+01 0. -1.
        -11    1    4    4    0    0  0.99727652364E+01 -0.51398223715E+02  0.37441374575E+02  0.64366839114E+02  0.00000000000E+00 0.  1.
         12    1    4    4    0    0  0.16564570235E+02 -0.16947523613E+02  0.15213657120E+03  0.15397123056E+03  0.00000000000E+00 0. -1.
         -5    1    5    5    0  502 -0.64279309288E+02  0.38489422175E+02  0.58824037224E+03  0.59301103763E+03  0.47000000000E+01 0.  1.
         11    1    6    6    0    0 -0.10497402295E+02  0.29676802230E+02  0.56885689335E+02  0.65014534503E+02  0.00000000000E+00 0. -1.
        -12    1    6    6    0    0  0.29583004907E+02 -0.38383315461E+02  0.15974655326E+03  0.16693529994E+03  0.00000000000E+00 0.  1.
</event>
<event>
12    1  0.8798177E-003  0.2185724E+03  0.7818608E-02  0.1135018E+00
         21   -1    0    0  503  502  0.00000000000E+00  0.00000000000E+00  0.68035020386E+03  0.68035020386E+03  0.00000000000E+00 0. -1.
         21   -1    0    0  501  503 -0.00000000000E+00 -0.00000000000E+00 -0.83747061710E+02  0.83747061710E+02  0.00000000000E+00 0. -1.
          6    2    1    2  501    0  0.12932346888E+03  0.39762493019E+02  0.14431774286E+03  0.26191885018E+03  0.17166321015E+03 0.  0.
         24    2    3    3    0    0  0.42429992164E+02  0.88068417572E+01  0.13684318181E+03  0.16925446811E+03  0.89683632128E+02 0.  0.
         -6    2    1    2    0  502 -0.12932346888E+03 -0.39762493019E+02  0.45228539929E+03  0.50217841539E+03  0.17121758968E+03 0.  0.
        -24    2    5    5    0    0 -0.12949934662E+02  0.15425049230E+02  0.24829210835E+03  0.26088229641E+03  0.77491732200E+02 0.  0.
          5    1    3    3  501    0  0.86893476717E+02  0.30955651262E+02  0.74745610508E+01  0.92664382068E+02  0.47000000000E+01 0. -1.
        -11    1    4    4    0    0 -0.16837407095E+02  0.31631024730E+02  0.43580968878E+02  0.56420925652E+02  0.00000000000E+00 0.  1.
         12    1    4    4    0    0  0.59267399259E+02 -0.22824182973E+02  0.93262212928E+02  0.11283354246E+03  0.00000000000E+00 0. -1.
         -5    1    5    5    0  502 -0.11637353422E+03 -0.55187542249E+02  0.20399329094E+03  0.24129611898E+03  0.47000000000E+01 0.  1.
         11    1    6    6    0    0 -0.24658623797E+02  0.43301583922E+02  0.15431003265E+03  0.16215628595E+03  0.00000000000E+00 0. -1.
        -12    1    6    6    0    0  0.11708689135E+02 -0.27876534691E+02  0.93982075706E+02  0.98726010461E+02  0.00000000000E+00 0.  1.
</event>
<event>
12    1  0.8798177E-003  0.2299082E+03  0.7818608E-02  0.1126810E+00
         21   -1    0    0  501  502  0.00000000000E+00  0.00000000000E+00  0.25655105495E+03  0.25655105495E+03  0.00000000000E+00 0. -1.
         21   -1    0    0  502  503 -0.00000000000E+00 -0.00000000000E+00 -0.22344521217E+03  0.22344521217E+03  0.00000000000E+00 0.  1.
          6    2    1    2  501    0 -0.14420216381E+03  0.50876114545E+02 -0.51449213382E+02  0.23559459752E+03  0.17168328325E+03 0.  0.
         24    2    3    3    0    0 -0.78606955849E+02  0.10401923788E+03 -0.49472307562E+02  0.15101965430E+03  0.57968710630E+02 0.  0.
         -6    2    1    2    0  503  0.14420216381E+03 -0.50876114545E+02  0.84555056163E+02  0.24440166959E+03  0.17088000321E+03 0.  0.
        -24    2    5    5    0    0  0.60558430050E+02  0.33343902109E+02  0.63986164752E+02  0.12384274335E+03  0.80396868986E+02 0.  0.
          5    1    3    3  501    0 -0.65595207957E+02 -0.53143123336E+02 -0.19769058207E+01  0.84574943225E+02  0.47000000000E+01 0. -1.
        -11    1    4    4    0    0 -0.61703295593E+02  0.45816744175E+02 -0.73334244633E+01  0.77202654411E+02  0.00000000000E+00 0.  1.
         12    1    4    4    0    0 -0.16903660256E+02  0.58202493706E+02 -0.42138883098E+02  0.73816999888E+02  0.00000000000E+00 0. -1.
         -5    1    5    5    0  503  0.83643733756E+02 -0.84220016654E+02  0.20568891412E+02  0.12055892624E+03  0.47000000000E+01 0.  1.
         13    1    6    6    0    0  0.28968139880E+01 -0.33199035999E+01  0.54707748977E+02  0.54884889444E+02  0.00000000000E+00 0. -1.
        -14    1    6    6    0    0  0.57661616062E+02  0.36663805709E+02  0.92784157748E+01  0.68957853905E+02  0.00000000000E+00 0.  1.
</event>
<event>
12    1  0.8798177E-003  0.2415514E+03  0.7818608E-02  0.1119464E+00
         21   -1    0    0  501  502  0.00000000000E+00  0.00000000000E+00  0.17842750943E+03  0.17842750943E+03  0.00000000000E+00 0. -1.
         21   -1    0    0  502  503 -0.00000000000E+00 -0.00000000000E+00 -0.36058175995E+03  0.36058175995E+03  0.00000000000E+00 0.  1.
          6    2    1    2  501    0 -0.12439647107E+03 -0.10629105834E+03 -0.17926287015E+03  0.29744060591E+03  0.17194029875E+03 0.  0.
         24    2    3    3    0    0 -0.10220315407E+03 -0.63634210537E+02 -0.19743807065E+03  0.24582105635E+03  0.83375071523E+02 0.  0.
         -6    2    1    2    0  503  0.12439647107E+03  0.10629105834E+03 -0.28913803742E+01  0.24156866348E+03  0.17769295990E+03 0.  0.
        -24    2    5    5    0    0  0.15096634142E+03  0.10938012957E+03 -0.28895894852E+02  0.20396779720E+03  0.77543797750E+02 0.  0.
          5    1    3    3  501    0 -0.22193316996E+02 -0.42656847803E+02  0.18175200501E+02  0.51619549562E+02  0.47000000000E+01 0. -1.
        -13    1    4    4    0    0 -0.56782869299E+02  0.40526367028E+01 -0.12255998783E+03  0.13513574186E+03  0.00000000000E+00 0.  1.
         14    1    4    4    0    0 -0.45420284771E+02 -0.67686847240E+02 -0.74878082811E+02  0.11068531449E+03  0.00000000000E+00 0. -1.
         -5    1    5    5    0  503 -0.26569870354E+02 -0.30890712265E+01  0.26004514478E+02  0.37600866279E+02  0.47000000000E+01 0.  1.
         13    1    6    6    0    0  0.12896593589E+03  0.52624957102E+02 -0.76612727542E+01  0.13950015709E+03  0.00000000000E+00 0. -1.
        -14    1    6    6    0    0  0.22000405533E+02  0.56755172464E+02 -0.21234622098E+02  0.64467640105E+02  0.00000000000E+00 0.  1.
</event>
<event>
12    1  0.8798177E-003  0.2663863E+03  0.7818608E-02  0.1103593E+00
         21   -1    0    0  503  502  0.00000000000E+00  0.00000000000E+00  0.16940896793E+03  0.16940896793E+03  0.00000000000E+00 0. -1.
         21   -1    0    0  501  503 -0.00000000000E+00 -0.00000000000E+00 -0.65423300572E+03  0.65423300572E+03  0.00000000000E+00 0. -1.
          6    2    1    2  501    0 -0.20189928749E+03  0.22683543205E+02 -0.49024155886E+03  0.55720063321E+03  0.16987611424E+03 0.  0.
         24    2    3    3    0    0 -0.50819490327E+02 -0.25929703663E+02 -0.15219189617E+03  0.18371968680E+03  0.85648000146E+02 0.  0.
         -6    2    1    2    0  502  0.20189928749E+03 -0.22683543205E+02  0.54175210775E+01  0.26644134044E+03  0.17228979350E+03 0.  0.
        -24    2    5    5    0    0  0.71710764634E+02 -0.55900466145E+02  0.45838273579E+02  0.12605493553E+03  0.74306147573E+02 0.  0.
          5    1    3    3  501    0 -0.15107979716E+03  0.48613246869E+02 -0.33804966270E+03  0.37348094641E+03  0.47000000000E+01 0. -1.
        -11    1    4    4    0    0 -0.32893483246E+02 -0.20879826246E+02 -0.98796000989E+01  0.40193965744E+02  0.00000000000E+00 0.  1.
         12    1    4    4    0    0 -0.17926007081E+02 -0.50498774179E+01 -0.14231229607E+03  0.14352572106E+03  0.00000000000E+00 0. -1.
         -5    1    5    5    0  502  0.13018852285E+03  0.33216922940E+02 -0.40420752501E+02  0.14038640491E+03  0.47000000000E+01 0.  1.
         13    1    6    6    0    0  0.63471365982E+02 -0.41776145087E+01  0.15284252853E+02  0.65419226133E+02  0.00000000000E+00 0. -1.
        -14    1    6    6    0    0  0.82393986526E+01 -0.51722851636E+02  0.30554020726E+02  0.60635709397E+02  0.00000000000E+00 0.  1.
</event>
<event>
12    1  0.8798177E-003  0.1869972E+03  0.7818608E-02  0.1163383E+00
         21   -1    0    0  501  502  0.00000000000E+00  0.00000000000E+00  0.13937915682E+03  0.13937915682E+03  0.00000000000E+00 0. -1.
         21   -1    0    0  502  503 -0.00000000000E+00 -0.00000000000E+00 -0.24245882802E+03  0.24245882802E+03  0.00000000000E+00 0. -1.
          6    2    1    2  501    0 -0.46244105961E+02 -0.16797448616E+02 -0.26309601496E+02  0.17969547407E+03  0.17081450949E+03 0.  0.
         24    2    3    3    0    0 -0.46098982559E+02 -0.61234061425E+01 -0.81481041881E+02  0.12330456986E+03  0.80014026680E+02 0.  0.
         -6    2    1    2    0  503  0.46244105961E+02  0.16797448616E+02 -0.76770069706E+02  0.20214251077E+03  0.18040864569E+03 0.  0.
        -24    2    5    5    0    0  0.19318492711E+02  0.23191878953E+02 -0.12486570071E+03  0.14645447696E+03  0.70330670385E+02 0.  0.
          5    1    3    3  501    0 -0.14512340247E+00 -0.10674042474E+02  0.55171440385E+02  0.56390904211E+02  0.47000000000E+01 0. -1.
        -13    1    4    4    0    0  0.86130261538E+01  0.77146237925E+01 -0.62803793743E+02  0.63859346601E+02  0.00000000000E+00 0.  1.
         14    1    4    4    0    0 -0.54712008712E+02 -0.13838029935E+02 -0.18677248138E+02  0.59445223255E+02  0.00000000000E+00 0. -1.
         -5    1    5    5    0  503  0.26925613250E+02 -0.63944303373E+01  0.48095631003E+02  0.55688033812E+02  0.47000000000E+01 0.  1.
         11    1    6    6    0    0  0.14241885981E+02  0.42862032848E+02 -0.43923942428E+02  0.63002364198E+02  0.00000000000E+00 0. -1.
        -12    1    6    6    0    0  0.50766067299E+01 -0.19670153894E+02 -0.80941758280E+02  0.83452112757E+02  0.00000000000E+00 0.  1.
</event>
<event>
12    1  0.8798177E-003  0.1838528E+03  0.7818608E-02  0.1164715E+00
         21   -1    0    0  503  502  0.00000000000E+00  0.00000000000E+00  0.24448946387E+02  0.24448946387E+02  0.00000000000E+00 0. -1.
         21   -1    0    0  501  503 -0.00000000000E+00 -0.00000000000E+00 -0.15429066278E+04  0.15429066278E+04  0.00000000000E+00 0. -1.
          6    2    1    2  501    0 -0.34012284087E+02 -0.50476452831E+02 -0.10215710000E+04  0.10375459440E+04  0.17084955389E+03 0.  0.
         24    2    3    3    0    0 -0.69796655731E+02 -0.84222888663E+01 -0.85468654574E+03  0.86170059990E+03  0.84239683610E+02 0.  0.
         -6    2    1    2    0  502  0.34012284087E+02  0.50476452831E+02 -0.49688668142E+03  0.52980963021E+03  0.17348533753E+03 0.  0.
        -24    2    5    5    0    0  0.11241722122E+02 -0.18655043041E+02 -0.40157221829E+03  0.40979046884E+03  0.78699395859E+02 0.  0.
          5    1    3    3  501    0  0.35784371644E+02 -0.42054163965E+02 -0.16688445424E+03  0.17584534406E+03  0.47000000000E+01 0. -1.
        -11    1    4    4    0    0 -0.67486790480E+02 -0.30532064757E+02 -0.42259122876E+03  0.42903382209E+03  0.00000000000E+00 0.  1.
         12    1    4    4    0    0 -0.23098652504E+01  0.22109775891E+02 -0.43209531698E+03  0.43266677781E+03  0.00000000000E+00 0. -1.
         -5    1    5    5    0  502  0.22770561965E+02  0.69131495872E+02 -0.95314463132E+02  0.12001916137E+03  0.47000000000E+01 0.  1.
         11    1    6    6    0    0 -0.16943655234E+02 -0.28123784917E+02 -0.75057456542E+02  0.81924700263E+02  0.00000000000E+00 0. -1.
        -12    1    6    6    0    0  0.28185377356E+02  0.94687418763E+01 -0.32651476175E+03  0.32786576858E+03  0.00000000000E+00 0.  1.
</event>
<event>
12    1  0.8798177E-003  0.2108426E+03  0.7818608E-02  0.1141058E+00
         21   -1    0    0  501  502  0.00000000000E+00  0.00000000000E+00  0.11123139735E+02  0.11123139735E+02  0.00000000000E+00 0. -1.
         21   -1    0    0  502  503 -0.00000000000E+00 -0.00000000000E+00 -0.40591833061E+04  0.40591833061E+04  0.00000000000E+00 0. -1.
          6    2    1    2  501    0 -0.48930248929E+02  0.10981765608E+03 -0.17461821698E+04  0.17588651997E+04  0.17320662168E+03 0.  0.
         24    2    3    3    0    0  0.71175544513E+01  0.74967933937E+02 -0.54491373732E+03  0.55577592777E+03  0.79278307678E+02 0.  0.
         -6    2    1    2    0  503  0.48930248929E+02 -0.10981765608E+03 -0.23018779966E+04  0.23114412461E+04  0.17223308727E+03 0.  0.
        -24    2    5    5    0    0  0.93526522309E+01 -0.11201844825E+03 -0.10816688266E+04  0.10905793628E+04  0.81977382879E+02 0.  0.
          5    1    3    3  501    0 -0.56047803381E+02  0.34849722140E+02 -0.12012684324E+04  0.12030892719E+04  0.47000000000E+01 0. -1.
        -11    1    4    4    0    0  0.16663761422E+02 -0.66461912280E+01 -0.35480276453E+02  0.39758053520E+02  0.00000000000E+00 0.  1.
         12    1    4    4    0    0 -0.95462069704E+01  0.81614125165E+02 -0.50943346086E+03  0.51601787425E+03  0.00000000000E+00 0. -1.
         -5    1    5    5    0  503  0.39577596698E+02  0.22007921707E+01 -0.12202091699E+04  0.12208618833E+04  0.47000000000E+01 0.  1.
         13    1    6    6    0    0 -0.18654063223E+02 -0.71704361858E+02 -0.87625273969E+03  0.87937952751E+03  0.00000000000E+00 0. -1.
        -14    1    6    6    0    0  0.28006715454E+02 -0.40314086389E+02 -0.20541608692E+03  0.21119983532E+03  0.00000000000E+00 0.  1.
</event>
<event>
12    1  0.8798177E-003  0.1742317E+03  0.7818608E-02  0.1173782E+00
         21   -1    0    0  501  502  0.00000000000E+00  0.00000000000E+00  0.39394100056E+02  0.39394100056E+02  0.00000000000E+00 0. -1.
         21   -1    0    0  502  503 -0.00000000000E+00 -0.00000000000E+00 -0.76578401058E+03  0.76578401058E+03  0.00000000000E+00 0. -1.
          6    2    1    2  501    0  0.39138358217E+01  0.21789933812E+02 -0.36004624104E+03  0.39951275245E+03  0.17171786266E+03 0.  0.
         24    2    3    3    0    0 -0.57669401662E+02 -0.12585316437E+02 -0.17394118847E+03  0.20043655206E+03  0.80219226359E+02 0.  0.
         -6    2    1    2    0  503 -0.39138358217E+01 -0.21789933812E+02 -0.36634366949E+03  0.40566535819E+03  0.17281949929E+03 0.  0.
        -24    2    5    5    0    0 -0.79604763329E+01  0.51436801796E+02 -0.25656254545E+03  0.27355738984E+03  0.79373749093E+02 0.  0.
          5    1    3    3  501    0  0.61583237484E+02  0.34375250249E+02 -0.18610505257E+03  0.19907620039E+03  0.47000000000E+01 0. -1.
        -13    1    4    4    0    0  0.52922000611E+01 -0.14587378684E+02 -0.82830249785E-01  0.15517920582E+02  0.00000000000E+00 0.  1.
         14    1    4    4    0    0 -0.62961601724E+02  0.20020622470E+01 -0.17385835822E+03  0.18491863148E+03  0.00000000000E+00 0. -1.
         -5    1    5    5    0  503  0.40466405112E+01 -0.73226735609E+02 -0.10978112404E+03  0.13210796835E+03  0.47000000000E+01 0.  1.
         11    1    6    6    0    0 -0.60133218572E+01  0.18105126572E+02 -0.49096893137E+01  0.19699256257E+02  0.00000000000E+00 0. -1.
        -12    1    6    6    0    0 -0.19471544757E+01  0.33331675224E+02 -0.25165285613E+03  0.25385813358E+03  0.00000000000E+00 0.  1.
</event>
<event>
12    1  0.8798177E-003  0.2052306E+03  0.7818608E-02  0.1147063E+00
         21   -1    0    0  501  502  0.00000000000E+00  0.00000000000E+00  0.13130168704E+03  0.13130168704E+03  0.00000000000E+00 0.  1.
         21   -1    0    0  502  503 -0.00000000000E+00 -0.00000000000E+00 -0.33915254581E+03  0.33915254581E+03  0.00000000000E+00 0.  1.
          6    2    1    2  501    0 -0.98435804659E+02 -0.54632011975E+02 -0.35013412547E+02  0.20819594932E+03  0.17159647399E+03 0.  0.
         24    2    3    3    0    0 -0.37196001139E+01 -0.10257315626E+02  0.25727761392E+02  0.87151109320E+02  0.82549077527E+02 0.  0.
         -6    2    1    2    0  503  0.98435804659E+02  0.54632011975E+02 -0.17283744622E+03  0.26225828353E+03  0.16196407038E+03 0.  0.
        -24    2    5    5    0    0  0.12579762779E+03  0.51580234600E+02 -0.17296173819E+03  0.23432822519E+03  0.80674596274E+02 0.  0.
          5    1    3    3  501    0 -0.94716204545E+02 -0.44374696349E+02 -0.60741173939E+02  0.12104484000E+03  0.47000000000E+01 0. -1.
        -13    1    4    4    0    0 -0.24262714120E+02 -0.25896687729E+02  0.43251946903E+02  0.55946837647E+02  0.00000000000E+00 0.  1.
         14    1    4    4    0    0  0.20543114006E+02  0.15639372103E+02 -0.17524185511E+02  0.31204271673E+02  0.00000000000E+00 0. -1.
         -5    1    5    5    0  503 -0.27361823133E+02  0.30517773750E+01  0.12429197204E+00  0.27930058339E+02  0.47000000000E+01 0.  1.
         11    1    6    6    0    0  0.85861869296E+02  0.14758678579E+02 -0.51330046484E+02  0.10111801454E+03  0.00000000000E+00 0. -1.
        -12    1    6    6    0    0  0.39935758496E+02  0.36821556021E+02 -0.12163169171E+03  0.13321021065E+03  0.00000000000E+00 0.  1.
</event>
<event>
12    1  0.8798177E-003  0.1787235E+03  0.7818608E-02  0.1169217E+00
         21   -1    0    0  501  502  0.00000000000E+00  0.00000000000E+00  0.49412823892E+03  0.49412823892E+03  0.00000000000E+00 0. -1.
         21   -1    0    0  502  503 -0.00000000000E+00 -0.00000000000E+00 -0.64934074627E+02  0.64934074627E+02  0.00000000000E+00 0. -1.
          6    2    1    2  501    0 -0.43252486230E+02 -0.88836361688E+01  0.23981490488E+03  0.29866534785E+03  0.17245319611E+03 0.  0.
         24    2    3    3    0    0  0.81715518044E+01  0.56486978989E+02  0.15397760791E+03  0.17904979466E+03  0.71359457517E+02 0.  0.
         -6    2    1    2    0  503  0.43252486230E+02  0.88836361688E+01  0.18937925941E+03  0.26039696569E+03  0.17318308027E+03 0.  0.
        -24    2    5    5    0    0  0.86667227692E+02 -0.14061241567E+02  0.16899663222E+03  0.20702235861E+03  0.81175540590E+02 0.  0.
          5    1    3    3  501    0 -0.51424038034E+02 -0.65370615157E+02  0.85837296970E+02  0.11961555319E+03  0.47000000000E+01 0. -1.
        -11    1    4    4    0    0 -0.21780826334E+02  0.55649530979E+02  0.11766213301E+03  0.13196837590E+03  0.00000000000E+00 0.  1.
         12    1    4    4    0    0  0.29952378138E+02  0.83744800913E+00  0.36315474902E+02  0.47081418762E+02  0.00000000000E+00 0. -1.
         -5    1    5    5    0  503 -0.43414741462E+02  0.22944877736E+02  0.20382627191E+02  0.53374607088E+02  0.47000000000E+01 0.  1.
         13    1    6    6    0    0  0.22367550104E+02 -0.19890671300E+02  0.12586980701E+03  0.12937988414E+03  0.00000000000E+00 0. -1.
        -14    1    6    6    0    0  0.64299677588E+02  0.58294297325E+01  0.43126825213E+02  0.77642474470E+02  0.00000000000E+00 0.  1.
</event>
<event>
12    1  0.8798177E-003  0.2728649E+03  0.7818608E-02  0.1099781E+00
         21   -1    0    0  501  502  0.00000000000E+00  0.00000000000E+00  0.30492914206E+03  0.30492914206E+03  0.00000000000E+00 0.  1.
         21   -1    0    0  502  503 -0.00000000000E+00 -0.00000000000E+00 -0.28065740272E+03  0.28065740272E+03  0.00000000000E+00 0.  1.
          6    2    1    2  501    0 -0.19030388765E+03  0.91735730371E+02  0.11890524275E+03  0.29764696265E+03  0.17269697086E+03 0.  0.
         24    2    3    3    0    0 -0.95719202542E+02  0.13607475860E+02 -0.20073696118E+01  0.12533260853E+03  0.79730195616E+02 0.  0.
         -6    2    1    2    0  503  0.19030388765E+03 -0.91735730371E+02 -0.94633503413E+02  0.28793958212E+03  0.17123869044E+03 0.  0.
        -24    2    5    5    0    0  0.11236588733E+03 -0.60394652967E+02 -0.12407721199E+03  0.19880139164E+03  0.88618463325E+02 0.  0.
          5    1    3    3  501    0 -0.94584685107E+02  0.78128254512E+02  0.12091261236E+03  0.17231435413E+03  0.47000000000E+01 0. -1.
        -11    1    4    4    0    0 -0.86514340392E+02 -0.17861592615E+01  0.27503764167E+02  0.90798560020E+02  0.00000000000E+00 0.  1.
         12    1    4    4    0    0 -0.92048621503E+01  0.15393635121E+02 -0.29511133778E+02  0.34534048508E+02  0.00000000000E+00 0. -1.
         -5    1    5    5    0  503  0.77938000320E+02 -0.31341077404E+02  0.29443708577E+02  0.89138190477E+02  0.47000000000E+01 0.  1.
         13    1    6    6    0    0  0.10423019990E+02  0.18589531249E+02 -0.23099296433E+01  0.21437019213E+02  0.00000000000E+00 0. -1.
        -14    1    6    6    0    0  0.10194286734E+03 -0.78984184216E+02 -0.12176728235E+03  0.17736437243E+03  0.00000000000E+00 0.  1.
</event>
<event>
12    1  0.8798177E-003  0.1864312E+03  0.7818608E-02  0.1161921E+00
         21   -1    0    0  503  502  0.00000000000E+00  0.00000000000E+00  0.10464503454E+04  0.10464503454E+04  0.00000000000E+00 0.  1.
         21   -1    0    0  501  503 -0.00000000000E+00 -0.00000000000E+00 -0.35930786681E+02  0.35930786681E+02  0.00000000000E+00 0.  1.
          6    2    1    2  501    0 -0.14269408445E+02 -0.67537510530E+02  0.65716187835E+03  0.68285862676E+03  0.17224760793E+03 0.  0.
         24    2    3    3    0    0 -0.40937813184E+02 -0.54181932814E+02  0.21946400776E+03  0.24412056004E+03  0.82576090619E+02 0.  0.
         -6    2    1    2    0  502  0.14269408445E+02  0.67537510530E+02  0.35335768039E+03  0.39952250534E+03  0.17318097655E+03 0.  0.
        -24    2    5    5    0    0 -0.46265425128E+02  0.17141514265E+02  0.11063379974E+03  0.14429477418E+03  0.78401678155E+02 0.  0.
          5    1    3    3  501    0  0.26668404739E+02 -0.13355577717E+02  0.43769787059E+03  0.43873806672E+03  0.47000000000E+01 0. -1.
        -13    1    4    4    0    0 -0.31373968572E+02 -0.74338438308E+02  0.19487311991E+03  0.21091719270E+03  0.00000000000E+00 0.  1.
         14    1    4    4    0    0 -0.95638446124E+01  0.20156505495E+02  0.24590887850E+02  0.33203367341E+02  0.00000000000E+00 0. -1.
         -5    1    5    5    0  502  0.60534833574E+02  0.50395996265E+02  0.24272388065E+03  0.25522773116E+03  0.47000000000E+01 0.  1.
         13    1    6    6    0    0 -0.51706944751E+02  0.28123688661E+02  0.11663684795E+03  0.13064725140E+03  0.00000000000E+00 0. -1.
        -14    1    6    6    0    0  0.54415196224E+01 -0.10982174395E+02 -0.60030482082E+01  0.13647522780E+02  0.00000000000E+00 0.  1.
</event>
<event>
12    1  0.8798177E-003  0.2219260E+03  0.7818608E-02  0.1132479E+00
         21   -1    0    0  501  502  0.00000000000E+00  0.00000000000E+00  0.57230540344E+03  0.57230540344E+03  0.00000000000E+00 0.  1.
         21   -1    0    0  502  503 -0.00000000000E+00 -0.00000000000E+00 -0.14089174249E+03  0.14089174249E+03  0.00000000000E+00 0.  1.
          6    2    1    2  501    0 -0.83924826554E+02  0.11216466107E+03  0.43823494731E+03  0.49116638841E+03  0.17196006619E+03 0.  0.
         24    2    3    3    0    0 -0.38929023270E+02  0.74291453808E+02  0.40926921849E+03  0.42543887829E+03  0.80388164523E+02 0.  0.
         -6    2    1    2    0  503  0.83924826554E+02 -0.11216466107E+03 -0.68212863562E+01  0.22203075752E+03  0.17212448876E+03 0.  0.
        -24    2    5    5    0    0 -0.11207555947E+02 -0.86563637121E+02 -0.27388418160E+02  0.12128017669E+03  0.79623383661E+02 0.  0.
          5    1    3    3  501    0 -0.44995803285E+02  0.37873207259E+02  0.28965728814E+02  0.65727510124E+02  0.47000000000E+01 0. -1.
        -11    1    4    4    0    0 -0.34963010460E+02  0.91057312753E+02  0.36824415696E+03  0.38094304750E+03  0.00000000000E+00 0.  1.
         12    1    4    4    0    0 -0.39660128098E+01 -0.16765858946E+02  0.41025061532E+02  0.44495830788E+02  0.00000000000E+00 0. -1.
         -5    1    5    5    0  503  0.95132382501E+02 -0.25601023946E+02  0.20567131804E+02  0.10075058083E+03  0.47000000000E+01 0.  1.
         11    1    6    6    0    0 -0.92448701519E+01 -0.15405911939E+02  0.26487315243E+02  0.32006055920E+02  0.00000000000E+00 0. -1.
        -12    1    6    6    0    0 -0.19626857949E+01 -0.71157725182E+02 -0.53875733403E+02  0.89274120765E+02  0.00000000000E+00 0.  1.
</event>
<event>
12    1  0.8798177E-003  0.1744693E+03  0.7818608E-02  0.1173538E+00
         21   -1    0    0  503  502  0.00000000000E+00  0.00000000000E+00  0.15748592888E+03  0.15748592888E+03  0.00000000000E+00 0.  1.
         21   -1    0    0  501  503 -0.00000000000E+00 -0.00000000000E+00 -0.19445318118E+03  0.19445318118E+03  0.00000000000E+00 0.  1.
          6    2    1    2  501    0 -0.14351298599E+02  0.13732296578E+02 -0.37824021143E+02  0.17746767874E+03  0.17224861300E+03 0.  0.
         24    2    3    3    0    0 -0.60812724530E+02  0.40546253826E+02  0.54850594793E+01  0.10836327319E+03  0.79814327875E+02 0.  0.
         -6    2    1    2    0  502  0.14351298599E+02 -0.13732296578E+02  0.85676884855E+00  0.17447143132E+03  0.17333496633E+03 0.  0.
        -24    2    5    5    0    0  0.63486446153E+02  0.13936932047E+02  0.32470954531E+02  0.10965325737E+03  0.82126165404E+02 0.  0.
          5    1    3    3  501    0  0.46461425931E+02 -0.26813957249E+02 -0.43309080622E+02  0.69104405556E+02  0.47000000000E+01 0. -1.
        -11    1    4    4    0    0 -0.30820656165E+02  0.35741786106E+02 -0.34275377063E+02  0.58328291535E+02  0.00000000000E+00 0.  1.
         12    1    4    4    0    0 -0.29992068364E+02  0.48044677199E+01  0.39760436543E+02  0.50034981652E+02  0.00000000000E+00 0. -1.
         -5    1    5    5    0  502 -0.49135147554E+02 -0.27669228624E+02 -0.31614185682E+02  0.64818173950E+02  0.47000000000E+01 0.  1.
         13    1    6    6    0    0  0.18609436275E+02  0.20604656916E+02 -0.24358228224E+02  0.36934892545E+02  0.00000000000E+00 0. -1.
        -14    1    6    6    0    0  0.44877009878E+02 -0.66677248689E+01  0.56829182754E+02  0.72718364826E+02  0.00000000000E+00 0.  1.
</event>
<event>
12    1  0.8798177E-003  0.1755983E+03  0.7818608E-02  0.1172195E+00
         21   -1    0    0  501  502  0.00000000000E+00  0.00000000000E+00  0.11104086662E+03  0.11104086662E+03  0.00000000000E+00 0.  1.
         21   -1    0    0  502  503 -0.00000000000E+00 -0.00000000000E+00 -0.27737065461E+03  0.27737065461E+03  0.00000000000E+00 0.  1.
          6    2    1    2  501    0 -0.33121190766E+02  0.17819890674E+02 -0.86443058230E+02  0.19572220142E+03  0.17152322301E+03 0.  0.
         24    2    3    3    0    0 -0.36056334391E+02 -0.46486616438E+02 -0.20630277157E+02  0.10354110750E+03  0.82668542074E+02 0.  0.
         -6    2    1    2    0  503  0.33121190766E+02 -0.17819890674E+02 -0.79886729759E+02  0.19268931980E+03  0.17126798473E+03 0.  0.
        -24    2    5    5    0    0  0.65732835940E+02 -0.56228490355E+02 -0.33357323988E+02  0.12394475251E+03  0.82262638927E+02 0.  0.
          5    1    3    3  501    0  0.29351436253E+01  0.64306507112E+02 -0.65812781073E+02  0.92181093927E+02  0.47000000000E+01 0. -1.
        -11    1    4    4    0    0 -0.21538362143E+02 -0.57912256032E+02  0.14842657803E+02  0.63545534329E+02  0.00000000000E+00 0.  1.
         12    1    4    4    0    0 -0.14517972248E+02  0.11425639594E+02 -0.35472934960E+02  0.39995573168E+02  0.00000000000E+00 0. -1.
         -5    1    5    5    0  503 -0.32611645174E+02  0.38408599680E+02 -0.46529405770E+02  0.68744567288E+02  0.47000000000E+01 0.  1.
         11    1    6    6    0    0 -0.16350373256E+02  0.48119609139E+01 -0.58396884214E+01  0.18016426790E+02  0.00000000000E+00 0. -1.
        -12    1    6    6    0    0  0.82083209196E+02 -0.61040451269E+02 -0.27517635567E+02  0.10592832572E+03  0.00000000000E+00 0.  1.
</event>
<event>
12    1  0.8798177E-003  0.2031046E+03  0.7818608E-02  0.1149865E+00
         21   -1    0    0  503  502  0.00000000000E+00  0.00000000000E+00  0.60019993379E+02  0.60019993379E+02  0.00000000000E+00 0. -1.
         21   -1    0    0  501  503 -0.00000000000E+00 -0.00000000000E+00 -0.79389093017E+03  0.79389093017E+03  0.00000000000E+00 0. -1.
          6    2    1    2  501    0 -0.81017163118E+02  0.72349941771E+01 -0.54214987824E+03  0.57461098271E+03  0.17214867154E+03 0.  0.
         24    2    3    3    0    0 -0.23773491513E+02 -0.15483970689E+02 -0.47827304525E+03  0.48575531831E+03  0.80051178648E+02 0.  0.
         -6    2    1    2    0  502  0.81017163118E+02 -0.72349941771E+01 -0.19172105855E+03  0.27929994084E+03  0.18610579465E+03 0.  0.
        -24    2    5    5    0    0  0.26597503985E+01 -0.24953158031E+02 -0.13778837509E+02  0.84006977609E+02  0.78978361315E+02 0.  0.
          5    1    3    3  501    0 -0.57243671604E+02  0.22718964866E+02 -0.63876832984E+02  0.88855664397E+02  0.47000000000E+01 0. -1.
        -13    1    4    4    0    0  0.28767582520E+02 -0.11454837204E+02 -0.13840428315E+03  0.14182571239E+03  0.00000000000E+00 0.  1.
         14    1    4    4    0    0 -0.52541074033E+02 -0.40291334850E+01 -0.33986876210E+03  0.34392960592E+03  0.00000000000E+00 0. -1.
         -5    1    5    5    0  502  0.78357412719E+02  0.17718163854E+02 -0.17794222105E+03  0.19529296323E+03  0.47000000000E+01 0.  1.
         13    1    6    6    0    0  0.37658585950E+02 -0.21875686637E+02  0.55560580449E+01  0.43904265653E+02  0.00000000000E+00 0. -1.
        -14    1    6    6    0    0 -0.34998835551E+02 -0.30774713947E+01 -0.19334895554E+02  0.40102711956E+02  0.00000000000E+00 0.  1.
</event>
<event>
12    1  0.8798177E-003  0.2097151E+03  0.7818608E-02  0.1142552E+00
         21   -1    0    0  503  502  0.00000000000E+00  0.00000000000E+00  0.10256629419E+04  0.10256629419E+04  0.00000000000E+00 0. -1.
         21   -1    0    0  501  503 -0.00000000000E+00 -0.00000000000E+00 -0.45755456649E+02  0.45755456649E+02  0.00000000000E+00 0. -1.
          6    2    1    2  501    0 -0.11226407327E+03 -0.31423144881E+02  0.33458857999E+03  0.39287810756E+03  0.16974408195E+03 0.  0.
         24    2    3    3    0    0 -0.10598249156E+03 -0.72932752299E+02  0.19221109399E+03  0.24436566936E+03  0.78854301325E+02 0.  0.
         -6    2    1    2    0  502  0.11226407327E+03  0.31423144881E+02  0.64531890527E+03  0.67854029101E+03  0.17432670718E+03 0.  0.
        -24    2    5    5    0    0  0.88757222674E+02  0.85106442114E+02  0.52118979271E+03  0.54119184721E+03  0.78287064056E+02 0.  0.
          5    1    3    3  501    0 -0.62815817087E+01  0.41509607418E+02  0.14237748601E+03  0.14851243819E+03  0.47000000000E+01 0. -1.
        -13    1    4    4    0    0 -0.39894051006E+02 -0.73924923106E+02  0.11990378205E+03  0.14640132004E+03  0.00000000000E+00 0.  1.
         14    1    4    4    0    0 -0.66088440551E+02  0.99217080723E+00  0.72307311941E+02  0.97964349319E+02  0.00000000000E+00 0. -1.
         -5    1    5    5    0  502  0.23506850591E+02 -0.53683297234E+02  0.12412911257E+03  0.13734844380E+03  0.47000000000E+01 0.  1.
         11    1    6    6    0    0  0.79088250784E+01  0.55957987248E+02  0.15297188189E+03  0.16307741260E+03  0.00000000000E+00 0. -1.
        -12    1    6    6    0    0  0.80848397596E+02  0.29148454866E+02  0.36821791082E+03  0.37811443461E+03  0.00000000000E+00 0.  1.
</event>
<event>
12    1  0.8798177E-003  0.1768685E+03  0.7818608E-02  0.1171179E+00
         21   -1    0    0  501  502  0.00000000000E+00  0.00000000000E+00  0.54671853855E+03  0.54671853855E+03  0.00000000000E+00 0.  1.
         21   -1    0    0  502  503 -0.00000000000E+00 -0.00000000000E+00 -0.57238844674E+02  0.57238844674E+02  0.00000000000E+00 0. -1.
          6    2    1    2  501    0  0.21510032207E+02 -0.36065608722E+02  0.26984766597E+03  0.32196325904E+03  0.17052614969E+03 0.  0.
         24    2    3    3    0    0  0.58820386312E+02 -0.63247814456E+02  0.24779586806E+03  0.27058907659E+03  0.65996456421E+02 0.  0.
         -6    2    1    2    0  503 -0.21510032207E+02  0.36065608722E+02  0.21963202791E+03  0.28199412418E+03  0.17181108454E+03 0.  0.
        -24    2    5    5    0    0 -0.59409449006E+02  0.36829318333E+02  0.72814041891E+02  0.13028861978E+03  0.82385426071E+02 0.  0.
          5    1    3    3  501    0 -0.37310354105E+02  0.27182205734E+02  0.22051797907E+02  0.51374182455E+02  0.47000000000E+01 0. -1.
        -11    1    4    4    0    0 -0.11406326902E+02 -0.22088455709E+02  0.36551094208E+02  0.44203921283E+02  0.00000000000E+00 0.  1.
         12    1    4    4    0    0  0.70226713214E+02 -0.41159358748E+02  0.21124477385E+03  0.22638515530E+03  0.00000000000E+00 0. -1.
         -5    1    5    5    0  503  0.37899416799E+02 -0.76370961083E+00  0.14681798601E+03  0.15170550439E+03  0.47000000000E+01 0.  1.
         13    1    6    6    0    0  0.19778338688E+02  0.13356489707E+00  0.70103494541E+01  0.20984411364E+02  0.00000000000E+00 0. -1.
        -14    1    6    6    0    0 -0.79187787694E+02  0.36695753436E+02  0.65803692436E+02  0.10930420842E+03  0.00000000000E+00 0.  1.
</event>
<event>
12    1  0.8798177E-003  0.1766366E+03  0.7818608E-02  0.1171184E+00
         21   -1    0    0  503  502  0.00000000000E+00  0.00000000000E+00  0.22211141026E+03  0.22211141026E+03  0.00000000000E+00 0.  1.
         21   -1    0    0  501  503 -0.00000000000E+00 -0.00000000000E+00 -0.14213466793E+03  0.14213466793E+03  0.00000000000E+00 0.  1.
          6    2    1    2  501    0 -0.38565183457E+02  0.17909007558E+01  0.18697280776E+02  0.17728175986E+03  0.17201381738E+03 0.  0.
         24    2    3    3    0    0 -0.56286811596E+02 -0.10118765914E+02  0.70853852572E+02  0.12072829626E+03  0.79274576690E+02 0.  0.
         -6    2    1    2    0  502  0.38565183457E+02 -0.17909007558E+01  0.61279461549E+02  0.18696431833E+03  0.17236589924E+03 0.  0.
        -24    2    5    5    0    0  0.45327151823E+02  0.62896024387E+02  0.26686361898E+02  0.11314768712E+03  0.77972922301E+02 0.  0.
          5    1    3    3  501    0  0.17721628139E+02  0.11909666670E+02 -0.52156571796E+02  0.56553463603E+02  0.47000000000E+01 0. -1.
        -11    1    4    4    0    0  0.11443478825E+02  0.19746587752E+02  0.24022217079E+02  0.33135296119E+02  0.00000000000E+00 0.  1.
         12    1    4    4    0    0 -0.67730290421E+02 -0.29865353666E+02  0.46831635492E+02  0.87593000137E+02  0.00000000000E+00 0. -1.
         -5    1    5    5    0  502 -0.67619683665E+01 -0.64686925143E+02  0.34593099650E+02  0.73816631215E+02  0.47000000000E+01 0.  1.
         13    1    6    6    0    0 -0.14980086981E+02  0.44381708082E+02  0.12652485074E+02  0.48520350336E+02  0.00000000000E+00 0. -1.
        -14    1    6    6    0    0  0.60307238804E+02  0.18514316305E+02  0.14033876825E+02  0.64627336779E+02  0.00000000000E+00 0.  1.
</event>
<event>
12    1  0.8798177E-003  0.1962782E+03  0.7818608E-02  0.1153072E+00
         21   -1    0    0  503  502  0.00000000000E+00  0.00000000000E+00  0.18855268699E+03  0.18855268699E+03  0.00000000000E+00 0.  1.
         21   -1    0    0  501  503 -0.00000000000E+00 -0.00000000000E+00 -0.20945204875E+03  0.20945204875E+03  0.00000000000E+00 0.  1.
          6    2    1    2  501    0 -0.98421041819E+01  0.93123756010E+02 -0.43758704415E+02  0.20039989169E+03  0.17168689941E+03 0.  0.
         24    2    3    3    0    0 -0.70442006915E+02  0.81556656166E+02 -0.27282577270E+02  0.13637100153E+03  0.78988268318E+02 0.  0.
         -6    2    1    2    0  502  0.98421041819E+01 -0.93123756010E+02  0.22859342656E+02  0.19760484404E+03  0.17249992433E+03 0.  0.
        -24    2    5    5    0    0 -0.19635342598E+02  0.90387758310E+01 -0.14345131314E+02  0.84855716934E+02  0.80792720937E+02 0.  0.
          5    1    3    3  501    0  0.60599902733E+02  0.11567099844E+02 -0.16476127146E+02  0.64028890165E+02  0.47000000000E+01 0. -1.
        -11    1    4    4    0    0 -0.39637637600E+02  0.50072761194E+02  0.24489253108E+02  0.68396982725E+02  0.00000000000E+00 0.  1.
         12    1    4    4    0    0 -0.30804369315E+02  0.31483894973E+02 -0.51771830378E+02  0.67974018803E+02  0.00000000000E+00 0. -1.
         -5    1    5    5    0  502  0.29477446780E+02 -0.10216253184E+03  0.37204473970E+02  0.11274912711E+03  0.47000000000E+01 0.  1.
         13    1    6    6    0    0  0.27126234916E+02  0.20740463527E+02 -0.13286687879E+02  0.36640626671E+02  0.00000000000E+00 0. -1.
        -14    1    6    6    0    0 -0.46761577514E+02 -0.11701687696E+02 -0.10584434349E+01  0.48215090263E+02  0.00000000000E+00 0.  1.
</event>
<event>
12    1  0.8798177E-003  0.1962398E+03  0.7818608E-02  0.1153236E+00
         21   -1    0    0  501  502  0.00000000000E+00  0.00000000000E+00  0.38847740496E+03  0.38847740496E+03  0.00000000000E+00 0. -1.
         21   -1    0    0  502  503 -0.00000000000E+00 -0.00000000000E+00 -0.17593549446E+03  0.17593549446E+03  0.00000000000E+00 0. -1.
          6    2    1    2  501    0 -0.18818553441E+02 -0.92302171098E+02  0.29373306482E+03  0.35325512068E+03  0.17215178818E+03 0.  0.
         24    2    3    3    0    0 -0.45173007901E+02 -0.77674068106E+02  0.29847618547E+03  0.32238238415E+03  0.82270935444E+02 0.  0.
         -6    2    1    2    0  503  0.18818553441E+02  0.92302171098E+02 -0.81191154318E+02  0.21115777873E+03  0.17065103351E+03 0.  0.
        -24    2    5    5    0    0  0.65173097099E+02  0.14086527680E+02 -0.42235904464E+02  0.11213236743E+03  0.79648184862E+02 0.  0.
          5    1    3    3  501    0  0.26354454460E+02 -0.14628102992E+02 -0.47431206534E+01  0.30872736525E+02  0.47000000000E+01 0. -1.
        -11    1    4    4    0    0 -0.42715339122E+02 -0.78600995001E+01  0.61262847173E+02  0.75096722993E+02  0.00000000000E+00 0.  1.
         12    1    4    4    0    0 -0.24576687791E+01 -0.69813968606E+02  0.23721333830E+03  0.24728566116E+03  0.00000000000E+00 0. -1.
         -5    1    5    5    0  503 -0.46354543658E+02  0.78215643418E+02 -0.38955249854E+02  0.99025411306E+02  0.47000000000E+01 0.  1.
         13    1    6    6    0    0 -0.14342840846E+02 -0.38514078012E+01 -0.24595463391E+02  0.28731293827E+02  0.00000000000E+00 0. -1.
        -14    1    6    6    0    0  0.79515937945E+02  0.17937935481E+02 -0.17640441073E+02  0.83401073601E+02  0.00000000000E+00 0.  1.
</event>
<event>
12    1  0.8798177E-003  0.2724642E+03  0.7818608E-02  0.1100071E+00
         21   -1    0    0  503  502  0.00000000000E+00  0.00000000000E+00  0.31401046084E+03  0.31401046084E+03  0.00000000000E+00 0. -1.
         21   -1    0    0  501  503 -0.00000000000E+00 -0.00000000000E+00 -0.23548646611E+03  0.23548646611E+03  0.00000000000E+00 0.  1.
          6    2    1    2  501    0  0.10179502091E+03  0.18434185697E+03  0.48172299511E+02  0.27534736456E+03  0.17073796946E+03 0.  0.
         24    2    3    3    0    0  0.54549521995E+02  0.10537685506E+03 -0.40561922952E+02  0.14742762046E+03  0.77522266145E+02 0.  0.
         -6    2    1    2    0  502 -0.10179502091E+03 -0.18434185697E+03  0.30351695221E+02  0.27414956239E+03  0.17289479646E+03 0.  0.
        -24    2    5    5    0    0 -0.81325366672E+02 -0.18099037787E+03 -0.24286415499E+02  0.21551806659E+03  0.80541137953E+02 0.  0.
          5    1    3    3  501    0  0.47245498919E+02  0.78965001906E+02  0.88734222463E+02  0.12791974410E+03  0.47000000000E+01 0. -1.
        -13    1    4    4    0    0  0.20723773902E+02 -0.31149482123E+01  0.97890085754E+01  0.23130118806E+02  0.00000000000E+00 0.  1.
         14    1    4    4    0    0  0.33825748093E+02  0.10849180327E+03 -0.50350931527E+02  0.12429750165E+03  0.00000000000E+00 0. -1.
         -5    1    5    5    0  502 -0.20469654242E+02 -0.33514790969E+01  0.54638110720E+02  0.58631495802E+02  0.47000000000E+01 0.  1.
         11    1    6    6    0    0 -0.25382782834E+01 -0.16185265256E+02  0.21660716954E+02  0.27158651053E+02  0.00000000000E+00 0. -1.
        -12    1    6    6    0    0 -0.78787088389E+02 -0.16480511261E+03 -0.45947132453E+02  0.18835941554E+03  0.00000000000E+00 0.  1.
</event>
<event>
12    1  0.8798177E-003  0.2150337E+03  0.7818608E-02  0.1137870E+00
         21   -1    0    0  503  502  0.00000000000E+00  0.00000000000E+00  0.20655796658E+03  0.20655796658E+03  0.00000000000E+00 0. -1.
         21   -1    0    0  501  503 -0.00000000000E+00 -0.00000000000E+00 -0.22529910353E+03  0.22529910353E+03  0.00000000000E+00 0. -1.
          6    2    1    2  501    0  0.87408768623E+02  0.92949014816E+02  0.14208590790E+02  0.21431355623E+03  0.17160595603E+03 0.  0.
         24    2    3    3    0    0  0.77706385414E+02 -0.20789569231E+01 -0.18538635564E+02  0.11322486998E+03  0.80209636445E+02 0.  0.
         -6    2    1    2    0  502 -0.87408768623E+02 -0.92949014816E+02 -0.32949727742E+02  0.21754351387E+03  0.17308865845E+03 0.  0.
        -24    2    5    5    0    0 -0.11820272035E+03 -0.49576568701E+02 -0.81781264374E+01  0.15867791462E+03  0.93177677446E+02 0.  0.
          5    1    3    3  501    0  0.97023832095E+01  0.95027971739E+02  0.32747226353E+02  0.10108868624E+03  0.47000000000E+01 0. -1.
        -11    1    4    4    0    0  0.62534196574E+01 -0.27706841390E+02 -0.23906510395E+02  0.37125403116E+02  0.00000000000E+00 0.  1.
         12    1    4    4    0    0  0.71452965756E+02  0.25627884467E+02  0.53678748311E+01  0.76099466869E+02  0.00000000000E+00 0. -1.
         -5    1    5    5    0  502  0.30793951722E+02 -0.43372446115E+02 -0.24771601305E+02  0.58865599257E+02  0.47000000000E+01 0.  1.
         13    1    6    6    0    0 -0.45347447710E+02 -0.53853575401E+02 -0.37806821304E+02  0.79912166373E+02  0.00000000000E+00 0. -1.
        -14    1    6    6    0    0 -0.72855272636E+02  0.42770066996E+01  0.29628694867E+02  0.78765748245E+02  0.00000000000E+00 0.  1.
</event>
<event>
12    1  0.8798177E-003  0.2162869E+03  0.7818608E-02  0.1137175E+00
         21   -1    0    0  501  502  0.00000000000E+00  0.00000000000E+00  0.27997389567E+03  0.27997389567E+03  0.00000000000E+00 0. -1.
         21   -1    0    0  502  503 -0.00000000000E+00 -0.00000000000E+00 -0.16793793541E+03  0.16793793541E+03  0.00000000000E+00 0.  1.
          6    2    1    2  501    0  0.83848480238E+02  0.95639258668E+02  0.84760696686E+02  0.22991194455E+03  0.17174891880E+03 0.  0.
         24    2    3    3    0    0  0.25556841563E+02  0.25512830456E+02 -0.20848888523E+02  0.90301394945E+02  0.80097497512E+02 0.  0.
         -6    2    1    2    0  503 -0.83848480238E+02 -0.95639258668E+02  0.27275263570E+02  0.21799988653E+03  0.17493591708E+03 0.  0.
        -24    2    5    5    0    0 -0.11463955474E+03 -0.58350931568E+02  0.52270410326E+02  0.16336146627E+03  0.86068078532E+02 0.  0.
          5    1    3    3  501    0  0.58291638675E+02  0.70126428212E+02  0.10560958521E+03  0.13961054961E+03  0.47000000000E+01 0. -1.
        -11    1    4    4    0    0  0.45128094606E+02  0.61389112471E+00 -0.33491194719E+02  0.56201262519E+02  0.00000000000E+00 0.  1.
         12    1    4    4    0    0 -0.19571253043E+02  0.24898939332E+02  0.12642306196E+02  0.34100132426E+02  0.00000000000E+00 0. -1.
         -5    1    5    5    0  503  0.30791074497E+02 -0.37288327100E+02 -0.24995146756E+02  0.54638420255E+02  0.47000000000E+01 0.  1.
         11    1    6    6    0    0 -0.14006803353E+02 -0.46559110868E+02 -0.15257546698E+01  0.48644313874E+02  0.00000000000E+00 0. -1.
        -12    1    6    6    0    0 -0.10063275138E+03 -0.11791820701E+02  0.53796164996E+02  0.11471715240E+03  0.00000000000E+00 0.  1.
</event>
<event>
12    1  0.8798177E-003  0.1754644E+03  0.7818608E-02  0.1172978E+00
         21   -1    0    0  501  502  0.00000000000E+00  0.00000000000E+00  0.65686243372E+02  0.65686243372E+02  0.00000000000E+00 0. -1.
         21   -1    0    0  502  503 -0.00000000000E+00 -0.00000000000E+00 -0.46216956398E+03  0.46216956398E+03  0.00000000000E+00 0. -1.
          6    2    1    2  501    0 -0.73355204047E+01  0.17860974329E+01 -0.18456638987E+03  0.25272578710E+03  0.17247774115E+03 0.  0.
         24    2    3    3    0    0 -0.57590464994E+02 -0.74327207389E+01 -0.54754438621E+02  0.11314148013E+03  0.80193758994E+02 0.  0.
         -6    2    1    2    0  503  0.73355204047E+01 -0.17860974329E+01 -0.21191693073E+03  0.27513002025E+03  0.17530186111E+03 0.  0.
        -24    2    5    5    0    0 -0.18011571703E+02  0.41189972968E+02 -0.47066385772E+02  0.10283025275E+03  0.79610210546E+02 0.  0.
          5    1    3    3  501    0  0.50254944590E+02  0.92188181718E+01 -0.12981195125E+03  0.13958430697E+03  0.47000000000E+01 0. -1.
        -13    1    4    4    0    0 -0.10611970008E+02  0.48001056435E+01 -0.62855190657E+02  0.63925189982E+02  0.00000000000E+00 0.  1.
         14    1    4    4    0    0 -0.46978494986E+02 -0.12232826382E+02  0.81007520366E+01  0.49216290149E+02  0.00000000000E+00 0. -1.
         -5    1    5    5    0  503  0.25347092108E+02 -0.42976070401E+02 -0.16485054496E+03  0.17229976750E+03  0.47000000000E+01 0.  1.
         13    1    6    6    0    0  0.17381277365E+02 -0.15950634317E+02 -0.17641840390E+02  0.29457869412E+02  0.00000000000E+00 0. -1.
        -14    1    6    6    0    0 -0.35392849068E+02  0.57140607285E+02 -0.29424545382E+02  0.73372383340E+02  0.00000000000E+00 0.  1.
</event>
<event>
12    1  0.8798177E-003  0.2024875E+03  0.7818608E-02  0.1147937E+00
         21   -1    0    0  501  502  0.00000000000E+00  0.00000000000E+00  0.81557032845E+03  0.81557032845E+03  0.00000000000E+00 0.  1.
         21   -1    0    0  502  503 -0.00000000000E+00 -0.00000000000E+00 -0.87313337512E+02  0.87313337512E+02  0.00000000000E+00 0.  1.
          6    2    1    2  501    0 -0.98605042597E+02  0.44982884675E+02  0.66017637218E+03  0.69053169207E+03  0.17104023217E+03 0.  0.
         24    2    3    3    0    0 -0.40439643001E+02 -0.35017075853E+01  0.54806677253E+03  0.55516322554E+03  0.78621836363E+02 0.  0.
         -6    2    1    2    0  503  0.98605042597E+02 -0.44982884675E+02  0.68080618753E+02  0.21235197389E+03  0.16944608531E+03 0.  0.
        -24    2    5    5    0    0  0.41504935141E+02 -0.91849929577E+01 -0.31199209953E+02  0.92266647101E+02  0.75714725971E+02 0.  0.
          5    1    3    3  501    0 -0.58165399596E+02  0.48484592260E+02  0.11210959965E+03  0.13536846653E+03  0.47000000000E+01 0. -1.
        -11    1    4    4    0    0 -0.27108716766E+02  0.24735152907E+02  0.10949013971E+03  0.11547640888E+03  0.00000000000E+00 0.  1.
         12    1    4    4    0    0 -0.13330926235E+02 -0.28236860493E+02  0.43857663282E+03  0.43968681666E+03  0.00000000000E+00 0. -1.
         -5    1    5    5    0  503  0.57100107456E+02 -0.35797891717E+02  0.99279828706E+02  0.12008532679E+03  0.47000000000E+01 0.  1.
         13    1    6    6    0    0 -0.16994627459E+02 -0.20133334854E+02 -0.16060240166E+02  0.30856115261E+02  0.00000000000E+00 0. -1.
        -14    1    6    6    0    0  0.58499562600E+02  0.10948341896E+02 -0.15138969787E+02  0.61410531840E+02  0.00000000000E+00 0.  1.
</event>
<event>
12    1  0.8798177E-003  0.1924446E+03  0.7818608E-02  0.1156781E+00
         21   -1    0    0  503  502  0.00000000000E+00  0.00000000000E+00  0.38865737307E+02  0.38865737307E+02  0.00000000000E+00 0.  1.
         21   -1    0    0  501  503 -0.00000000000E+00 -0.00000000000E+00 -0.96909763880E+03  0.96909763880E+03  0.00000000000E+00 0.  1.
          6    2    1    2  501    0  0.80274451182E+02 -0.77949874614E+01 -0.38304426921E+03  0.42866985566E+03  0.17472888609E+03 0.  0.
         24    2    3    3    0    0  0.62905612058E+02  0.60425070964E+02 -0.27851108615E+03  0.30255510908E+03  0.79767560411E+02 0.  0.
         -6    2    1    2    0  502 -0.80274451182E+02  0.77949874614E+01 -0.54718763228E+03  0.57929352044E+03  0.17222638754E+03 0.  0.
        -24    2    5    5    0    0 -0.58534965181E+01  0.45204457914E+02 -0.17644389789E+03  0.19927910814E+03  0.80635025885E+02 0.  0.
          5    1    3    3  501    0  0.17368839123E+02 -0.68220058425E+02 -0.10453318306E+03  0.12611474658E+03  0.47000000000E+01 0. -1.
        -13    1    4    4    0    0  0.71375511934E+02  0.17391394998E+02 -0.15607085996E+03  0.17249648591E+03  0.00000000000E+00 0.  1.
         14    1    4    4    0    0 -0.84698998760E+01  0.43033675965E+02 -0.12244022620E+03  0.13005862317E+03  0.00000000000E+00 0. -1.
         -5    1    5    5    0  502 -0.74420954664E+02 -0.37409470453E+02 -0.37074373439E+03  0.38001441231E+03  0.47000000000E+01 0.  1.
         11    1    6    6    0    0 -0.26940004406E+02  0.43349726953E+02 -0.51325800268E+02  0.72383012078E+02  0.00000000000E+00 0. -1.
        -12    1    6    6    0    0  0.21086507888E+02  0.18547309612E+01 -0.12511809762E+03  0.12689609606E+03  0.00000000000E+00 0.  1.
</event>
<event>
12    1  0.8798177E-003  0.1860319E+03  0.7818608E-02  0.1162591E+00
         21   -1    0    0  503  502  0.00000000000E+00  0.00000000000E+00  0.21187374888E+03  0.21187374888E+03  0.00000000000E+00 0.  1.
         21   -1    0    0  501  503 -0.00000000000E+00 -0.00000000000E+00 -0.17065192582E+03  0.17065192582E+03  0.00000000000E+00 0.  1.
          6    2    1    2  501    0 -0.19030461445E+02 -0.68351020332E+02 -0.23886595307E+02  0.18542927705E+03  0.16964500260E+03 0.  0.
         24    2    3    3    0    0 -0.73480799257E+02 -0.59038875903E+02 -0.38445702154E+02  0.12810901087E+03  0.77774224045E+02 0.  0.
         -6    2    1    2    0  502  0.19030461445E+02  0.68351020332E+02  0.65108418368E+02  0.19709639766E+03  0.17197053057E+03 0.  0.
        -24    2    5    5    0    0  0.21826087888E+02  0.29790118900E+02 -0.31403845411E+02  0.93022069861E+02  0.79391905621E+02 0.  0.
          5    1    3    3  501    0  0.54450337812E+02 -0.93121444290E+01  0.14559106847E+02  0.57320266171E+02  0.47000000000E+01 0. -1.
        -13    1    4    4    0    0 -0.48052883858E+02 -0.54264272995E+02 -0.60265894364E+02  0.94263826541E+02  0.00000000000E+00 0.  1.
         14    1    4    4    0    0 -0.25427915399E+02 -0.47746029075E+01  0.21820192209E+02  0.33845184333E+02  0.00000000000E+00 0. -1.
         -5    1    5    5    0  502 -0.27956264439E+01  0.38560901432E+02  0.96512263780E+02  0.10407432780E+03  0.47000000000E+01 0.  1.
         13    1    6    6    0    0  0.26507202656E+02  0.55345427151E+02 -0.25009051784E+02  0.66266135924E+02  0.00000000000E+00 0. -1.
        -14    1    6    6    0    0 -0.46811147675E+01 -0.25555308252E+02 -0.63947936274E+01  0.26755933937E+02  0.00000000000E+00 0.  1.
</event>
<event>
12    1  0.8798177E-003  0.2374546E+03  0.7818608E-02  0.1122976E+00
         21   -1    0    0  501  502  0.00000000000E+00  0.00000000000E+00  0.13872438752E+03  0.13872438752E+03  0.00000000000E+00 0.  1.
         21   -1    0    0  502  503 -0.00000000000E+00 -0.00000000000E+00 -0.40752496115E+03  0.40752496115E+03  0.00000000000E+00 0.  1.
          6    2    1    2  501    0 -0.15031793502E+03 -0.62336931715E+02 -0.83326906784E+02  0.25165067914E+03  0.17292575364E+03 0.  0.
         24    2    3    3    0    0 -0.13208819796E+03 -0.68987913360E+02 -0.29102018740E+01  0.16879239471E+03  0.79219814483E+02 0.  0.
         -6    2    1    2    0  503  0.15031793502E+03  0.62336931715E+02 -0.18547366684E+03  0.29459866952E+03  0.16095502586E+03 0.  0.
        -24    2    5    5    0    0  0.56747745677E+02  0.86363104643E+02 -0.89348020526E+02  0.15823567161E+03  0.79853406413E+02 0.  0.
          5    1    3    3  501    0 -0.18229737059E+02  0.66509816451E+01 -0.80416704910E+02  0.82858284430E+02  0.47000000000E+01 0. -1.
        -11    1    4    4    0    0 -0.10714403336E+03 -0.17372269889E+02 -0.16725170564E+02  0.10982427317E+03  0.00000000000E+00 0.  1.
         12    1    4    4    0    0 -0.24944164601E+02 -0.51615643472E+02  0.13814968690E+02  0.58968121545E+02  0.00000000000E+00 0. -1.
         -5    1    5    5    0  503  0.93570189347E+02 -0.24026172927E+02 -0.96125646315E+02  0.13636299791E+03  0.47000000000E+01 0.  1.
         13    1    6    6    0    0  0.57756985577E+02  0.85837905053E+02 -0.10214523762E+03  0.14538798057E+03  0.00000000000E+00 0. -1.
        -14    1    6    6    0    0 -0.10092399001E+01  0.52519959007E+00  0.12797217092E+02  0.12847691041E+02  0.00000000000E+00 0.  1.
</event>
<event>
12    1  0.8798177E-003  0.2272029E+03  0.7818608E-02  0.1129018E+00
         21   -1    0    0  503  502  0.00000000000E+00  0.00000000000E+00  0.35825997757E+02  0.35825997757E+02  0.00000000000E+00 0. -1.
         21   -1    0    0  501  503 -0.00000000000E+00 -0.00000000000E+00 -0.20967583851E+04  0.20967583851E+04  0.00000000000E+00 0. -1.
          6    2    1    2  501    0  0.12877728068E+03 -0.73356604467E+02 -0.16365010801E+04  0.16521976145E+04  0.17221031590E+03 0.  0.
         24    2    3    3    0    0  0.10125988260E+03 -0.11568848110E+03 -0.13712459218E+04  0.13821391320E+04  0.79723357528E+02 0.  0.
         -6    2    1    2    0  502 -0.12877728068E+03  0.73356604467E+02 -0.42443130724E+03  0.48038676830E+03  0.16930662468E+03 0.  0.
        -24    2    5    5    0    0 -0.11261840998E+03  0.66032336960E+02 -0.43368930385E+03  0.45983063787E+03  0.79464630269E+02 0.  0.
          5    1    3    3  501    0  0.27517398084E+02  0.42331876638E+02 -0.26525515833E+03  0.27005848255E+03  0.47000000000E+01 0. -1.
        -11    1    4    4    0    0  0.60069354753E+02 -0.11172599423E+03 -0.11570452464E+04  0.11639779755E+04  0.00000000000E+00 0.  1.
         12    1    4    4    0    0  0.41190527844E+02 -0.39624868733E+01 -0.21420067539E+03  0.21816115654E+03  0.00000000000E+00 0. -1.
         -5    1    5    5    0  502 -0.16158870703E+02  0.73242675067E+01  0.92579966148E+01  0.20556130429E+02  0.47000000000E+01 0.  1.
         11    1    6    6    0    0 -0.16300162977E+02  0.33215165001E+02 -0.46124639041E+02  0.59130574374E+02  0.00000000000E+00 0. -1.
        -12    1    6    6    0    0 -0.96318247002E+02  0.32817171959E+02 -0.38756466481E+03  0.40070006350E+03  0.00000000000E+00 0.  1.
</event>
<event>
12    1  0.8798177E-003  0.2059232E+03  0.7818608E-02  0.1145480E+00
         21   -1    0    0  503  502  0.00000000000E+00  0.00000000000E+00  0.12959138159E+03  0.12959138159E+03  0.00000000000E+00 0. -1.
         21   -1    0    0  501  503 -0.00000000000E+00 -0.00000000000E+00 -0.32436269412E+03  0.32436269412E+03  0.00000000000E+00 0.  1.
          6    2    1    2  501    0 -0.87394403716E+02 -0.63008176612E+02 -0.79746022007E+02  0.22082523330E+03  0.17548943990E+03 0.  0.
         24    2    3    3    0    0 -0.47397079242E+02 -0.46300341092E+02  0.24672784908E+02  0.10766908026E+03  0.81201476730E+02 0.  0.
         -6    2    1    2    0  502  0.87394403716E+02  0.63008176612E+02 -0.11502529052E+03  0.23312884241E+03  0.17178599356E+03 0.  0.
        -24    2    5    5    0    0  0.76738889887E+02  0.20952867501E+02 -0.27123535222E+01  0.11263620854E+03  0.79697419883E+02 0.  0.
          5    1    3    3  501    0 -0.39997324475E+02 -0.16707835520E+02 -0.10441880692E+03  0.11315615304E+03  0.47000000000E+01 0. -1.
        -11    1    4    4    0    0 -0.12248742335E+02 -0.25613827974E+02 -0.28784358852E+02  0.40430671362E+02  0.00000000000E+00 0.  1.
         12    1    4    4    0    0 -0.35148336906E+02 -0.20686513117E+02  0.53457143760E+02  0.67238408898E+02  0.00000000000E+00 0. -1.
         -5    1    5    5    0  502  0.10655513829E+02  0.42055309111E+02 -0.11231293700E+03  0.12049263387E+03  0.47000000000E+01 0.  1.
         13    1    6    6    0    0  0.84435070748E+02 -0.20548832259E+01 -0.14446492215E+02  0.85686666726E+02  0.00000000000E+00 0. -1.
        -14    1    6    6    0    0 -0.76961808609E+01  0.23007750727E+02  0.11734138693E+02  0.26949541818E+02  0.00000000000E+00 0.  1.
</event>
<event>
12    1  0.8798177E-003  0.2101955E+03  0.7818608E-02  0.1141526E+00
         21   -1    0    0  503  502  0.00000000000E+00  0.00000000000E+00  0.10211218244E+03  0.10211218244E+03  0.00000000000E+00 0.  1.
         21   -1    0    0  501  503 -0.00000000000E+00 -0.00000000000E+00 -0.43414411187E+03  0.43414411187E+03  0.00000000000E+00 0. -1.
          6    2    1    2  501    0 -0.34359684707E+02  0.11569656721E+03 -0.18674255420E+03  0.28073500389E+03  0.17138575571E+03 0.  0.
         24    2    3    3    0    0 -0.10331746622E+02  0.14515365814E+03 -0.17407928016E+03  0.24039258794E+03  0.79427143310E+02 0.  0.
         -6    2    1    2    0  502  0.34359684707E+02 -0.11569656721E+03 -0.14528937522E+03  0.25552129043E+03  0.17209254404E+03 0.  0.
        -24    2    5    5    0    0  0.63335620145E+02 -0.26108032315E+02 -0.11694540682E+03  0.15707749446E+03  0.79398242810E+02 0.  0.
          5    1    3    3  501    0 -0.24027938085E+02 -0.29457090935E+02 -0.12663274043E+02  0.40342415947E+02  0.47000000000E+01 0. -1.
        -11    1    4    4    0    0  0.27093646248E+02  0.50721546939E+02 -0.32219362125E+02  0.65915311473E+02  0.00000000000E+00 0.  1.
         12    1    4    4    0    0 -0.37425392870E+02  0.94432111203E+02 -0.14185991803E+03  0.17447727646E+03  0.00000000000E+00 0. -1.
         -5    1    5    5    0  502 -0.28975935438E+02 -0.89588534893E+02 -0.28343968408E+02  0.98443795964E+02  0.47000000000E+01 0.  1.
         11    1    6    6    0    0 -0.96988276585E+01 -0.16906990285E+02 -0.62638704461E+02  0.65601226170E+02  0.00000000000E+00 0. -1.
        -12    1    6    6    0    0  0.73034447803E+02 -0.92010420297E+01 -0.54306702354E+02  0.91476268294E+02  0.00000000000E+00 0.  1.
</event>
<event>
12    1  0.8798177E-003  0.1854787E+03  0.7818608E-02  0.1162992E+00
         21   -1    0    0  501  502  0.00000000000E+00  0.00000000000E+00  0.18532132939E+04  0.18532132939E+04  0.00000000000E+00 0. -1.
         21   -1    0    0  502  503 -0.00000000000E+00 -0.00000000000E+00 -0.26068959574E+02  0.26068959574E+02  0.00000000000E+00 0.  1.
          6    2    1    2  501    0 -0.27062637091E+02 -0.39152427722E+02  0.40675375364E+03  0.44704694754E+03  0.17926811843E+03 0.  0.
         24    2    3    3    0    0 -0.82287556611E+02 -0.14160735003E+02  0.20785107657E+03  0.23905958883E+03  0.83520348358E+02 0.  0.
         -6    2    1    2    0  503  0.27062637091E+02  0.39152427722E+02  0.14203905807E+04  0.14322353059E+04  0.17754793979E+03 0.  0.
        -24    2    5    5    0    0  0.21093637345E+02  0.76623482197E+02  0.13347020889E+04  0.13384039865E+04  0.59828633680E+02 0.  0.
          5    1    3    3  501    0  0.55224919519E+02 -0.24991692719E+02  0.19890267707E+03  0.20798735872E+03  0.47000000000E+01 0. -1.
        -11    1    4    4    0    0 -0.79769728834E+02  0.15474371607E+02  0.18326523240E+03  0.20047147234E+03  0.00000000000E+00 0.  1.
         12    1    4    4    0    0 -0.25178277769E+01 -0.29635106610E+02  0.24585844167E+02  0.38588116485E+02  0.00000000000E+00 0. -1.
         -5    1    5    5    0  503  0.59689997469E+01 -0.37471054475E+02  0.85688491818E+02  0.93831319459E+02  0.47000000000E+01 0.  1.
         13    1    6    6    0    0 -0.14214090732E+02  0.38811726651E+02  0.83711520716E+03  0.83813498946E+03  0.00000000000E+00 0. -1.
        -14    1    6    6    0    0  0.35307728076E+02  0.37811755546E+02  0.49758688169E+03  0.50026899699E+03  0.00000000000E+00 0.  1.
</event>
<event>
12    1  0.8798177E-003  0.1783291E+03  0.7818608E-02  0.1169825E+00
         21   -1    0    0  503  502  0.00000000000E+00  0.00000000000E+00  0.71601189030E+02  0.71601189030E+02  0.00000000000E+00 0. -1.
         21   -1    0    0  501  503 -0.00000000000E+00 -0.00000000000E+00 -0.77541243002E+03  0.77541243002E+03  0.00000000000E+00 0. -1.
          6    2    1    2  501    0 -0.20052593991E+02  0.35311058415E+02 -0.63127653699E+03  0.65598120297E+03  0.17364416238E+03 0.  0.
         24    2    3    3    0    0  0.28387280163E+02 -0.18490523828E+02 -0.19619111355E+03  0.21488886871E+03  0.80861212650E+02 0.  0.
         -6    2    1    2    0  502  0.20052593991E+02 -0.35311058415E+02 -0.72534704008E+02  0.19103241608E+03  0.17199745154E+03 0.  0.
        -24    2    5    5    0    0 -0.45525071022E+02 -0.56738417362E+01 -0.15386767286E+02  0.99017355183E+02  0.86388421958E+02 0.  0.
          5    1    3    3  501    0 -0.48439874154E+02  0.53801582243E+02 -0.43508542344E+03  0.44109233427E+03  0.47000000000E+01 0. -1.
        -13    1    4    4    0    0 -0.21780852257E+02  0.40954028469E+01 -0.11298458207E+03  0.11513771596E+03  0.00000000000E+00 0.  1.
         14    1    4    4    0    0  0.50168132421E+02 -0.22585926675E+02 -0.83206531476E+02  0.99751152749E+02  0.00000000000E+00 0. -1.
         -5    1    5    5    0  502  0.65577665013E+02 -0.29637216679E+02 -0.57147936722E+02  0.92015060901E+02  0.47000000000E+01 0.  1.
         11    1    6    6    0    0  0.53672266739E+01 -0.33468824405E+02 -0.22366917293E+02  0.40610938408E+02  0.00000000000E+00 0. -1.
        -12    1    6    6    0    0 -0.50892297696E+02  0.27794982669E+02  0.69801500068E+01  0.58406416775E+02  0.00000000000E+00 0.  1.
</event>
<event>
12    1  0.8798177E-003  0.2221464E+03  0.7818608E-02  0.1132521E+00
         21   -1    0    0  501  502  0.00000000000E+00  0.00000000000E+00  0.74827301078E+03  0.74827301078E+03  0.00000000000E+00 0. -1.
         21   -1    0    0  502  503 -0.00000000000E+00 -0.00000000000E+00 -0.65727579449E+02  0.65727579449E+02  0.00000000000E+00 0.  1.
          6    2    1    2  501    0  0.12673663530E+03  0.56294443068E+02  0.35932567452E+03  0.42180164387E+03  0.17196059827E+03 0.  0.
         24    2    3    3    0    0  0.69829917784E+02  0.82856015748E+02  0.14448686353E+03  0.19792289019E+03  0.80967153625E+02 0.  0.
         -6    2    1    2    0  503 -0.12673663530E+03 -0.56294443068E+02  0.32321975681E+03  0.39219894635E+03  0.17354470110E+03 0.  0.
        -24    2    5    5    0    0 -0.26112684369E+02 -0.26273303648E+02  0.64380984105E+02  0.11283171748E+03  0.84934837291E+02 0.  0.
          5    1    3    3  501    0  0.56906717518E+02 -0.26561572680E+02  0.21483881099E+03  0.22387875368E+03  0.47000000000E+01 0. -1.
        -13    1    4    4    0    0  0.13785435253E+02  0.30742944056E+02 -0.81192654402E+00  0.33702018620E+02  0.00000000000E+00 0.  1.
         14    1    4    4    0    0  0.56044482531E+02  0.52113071692E+02  0.14529879007E+03  0.16422087157E+03  0.00000000000E+00 0. -1.
         -5    1    5    5    0  503 -0.10062395093E+03 -0.30021139420E+02  0.25883877270E+03  0.27936722887E+03  0.47000000000E+01 0.  1.
         11    1    6    6    0    0 -0.24893124775E+02  0.28143970234E+02  0.32969588567E+02  0.49987443342E+02  0.00000000000E+00 0. -1.
        -12    1    6    6    0    0 -0.12195595942E+01 -0.54417273882E+02  0.31411395538E+02  0.62844274138E+02  0.00000000000E+00 0.  1.
</event>
<event>
12    1  0.8798177E-003  0.1874572E+03  0.7818608E-02  0.1160937E+00
         21   -1    0    0  503  502  0.00000000000E+00  0.00000000000E+00  0.25223216944E+03  0.25223216944E+03  0.00000000000E+00 0. -1.
         21   -1    0    0  501  503 -0.00000000000E+00 -0.00000000000E+00 -0.16505056263E+03  0.16505056263E+03  0.00000000000E+00 0. -1.
          6    2    1    2  501    0 -0.64525353937E+01 -0.72900811808E+02 -0.39693055386E+02  0.19092600886E+03  0.17181687530E+03 0.  0.
         24    2    3    3    0    0 -0.10181999808E+02  0.40221430611E+01  0.30487060471E+02  0.86626495189E+02  0.80342006807E+02 0.  0.
         -6    2    1    2    0  502  0.64525353937E+01  0.72900811808E+02  0.12687466220E+03  0.22635672320E+03  0.17258048168E+03 0.  0.
        -24    2    5    5    0    0  0.48616615307E+02  0.99063061335E+02  0.96873824436E+02  0.16818101348E+03  0.81995426884E+02 0.  0.
          5    1    3    3  501    0  0.37294644144E+01 -0.76922954869E+02 -0.70180115858E+02  0.10429951367E+03  0.47000000000E+01 0. -1.
        -13    1    4    4    0    0  0.63372812440E+01  0.39710136589E+02  0.69898915082E+01  0.40815617903E+02  0.00000000000E+00 0.  1.
         14    1    4    4    0    0 -0.16519281052E+02 -0.35687993528E+02  0.23497168963E+02  0.45810877287E+02  0.00000000000E+00 0. -1.
         -5    1    5    5    0  502 -0.42164079913E+02 -0.26162249526E+02  0.30000837765E+02  0.58175709723E+02  0.47000000000E+01 0.  1.
         11    1    6    6    0    0  0.23778993078E+02  0.13147745868E+02 -0.98834364568E+01  0.28913423343E+02  0.00000000000E+00 0. -1.
        -12    1    6    6    0    0  0.24837622229E+02  0.85915315467E+02  0.10675726089E+03  0.13926759014E+03  0.00000000000E+00 0.  1.
</event>
<event>
12    1  0.8798177E-003  0.1816303E+03  0.7818608E-02  0.1166288E+00
         21   -1    0    0  503  502  0.00000000000E+00  0.00000000000E+00  0.65931666598E+03  0.65931666598E+03  0.00000000000E+00 0. -1.
         21   -1    0    0  501  503 -0.00000000000E+00 -0.00000000000E+00 -0.50454517808E+02  0.50454517808E+02  0.00000000000E+00 0. -1.
          6    2    1    2  501    0 -0.37637419923E+02 -0.45135856940E+02  0.26963201273E+03  0.32497688817E+03  0.17162381709E+03 0.  0.
         24    2    3    3    0    0 -0.87952699950E+02 -0.11176694303E+02  0.14945119162E+03  0.19025357209E+03  0.77460745498E+02 0.  0.
         -6    2    1    2    0  502  0.37637419923E+02  0.45135856940E+02  0.33923013544E+03  0.38479429562E+03  0.17185966423E+03 0.  0.
        -24    2    5    5    0    0 -0.23301032314E+02  0.29426951423E+02  0.85178661104E+02  0.12302243639E+03  0.80437752146E+02 0.  0.
          5    1    3    3  501    0  0.50315280027E+02 -0.33959162637E+02  0.12018082111E+03  0.13472331607E+03  0.47000000000E+01 0. -1.
        -11    1    4    4    0    0 -0.36629951780E+02  0.33507765348E+02  0.60649630855E+02  0.78376663803E+02  0.00000000000E+00 0.  1.
         12    1    4    4    0    0 -0.51322748171E+02 -0.44684459651E+02  0.88801560766E+02  0.11187690829E+03  0.00000000000E+00 0. -1.
         -5    1    5    5    0  502  0.60938452238E+02  0.15708905517E+02  0.25405147433E+03  0.26177185923E+03  0.47000000000E+01 0.  1.
         11    1    6    6    0    0 -0.42990893023E+02  0.94260902979E+01  0.84117570552E+02  0.94935945442E+02  0.00000000000E+00 0. -1.
        -12    1    6    6    0    0  0.19689860709E+02  0.20000861125E+02  0.10610905514E+01  0.28086490946E+02  0.00000000000E+00 0.  1.
</event>
<event>
12    1  0.8798177E-003  0.1964262E+03  0.7818608E-02  0.1152900E+00
         21   -1    0    0  501  502  0.00000000000E+00  0.00000000000E+00  0.57434867080E+03  0.57434867080E+03  0.00000000000E+00 0.  1.
         21   -1    0    0  502  503 -0.00000000000E+00 -0.00000000000E+00 -0.69489329123E+02  0.69489329123E+02  0.00000000000E+00 0.  1.
          6    2    1    2  501    0  0.33008857942E+02 -0.80445129669E+02  0.31363665022E+03  0.37006918985E+03  0.17613135249E+03 0.  0.
         24    2    3    3    0    0 -0.12024476061E+02 -0.11540946008E+03  0.21598502432E+03  0.25689483051E+03  0.76690884148E+02 0.  0.
         -6    2    1    2    0  503 -0.33008857942E+02  0.80445129669E+02  0.19122269146E+03  0.27376881007E+03  0.17556263853E+03 0.  0.
        -24    2    5    5    0    0 -0.52636468128E+02 -0.19101024178E+01  0.15215393622E+03  0.18040883487E+03  0.81377399339E+02 0.  0.
          5    1    3    3  501    0  0.45033334003E+02  0.34964330411E+02  0.97651625896E+02  0.11317435934E+03  0.47000000000E+01 0. -1.
        -13    1    4    4    0    0 -0.93619286809E+01 -0.94186610439E+02  0.95253514903E+02  0.13428326551E+03  0.00000000000E+00 0.  1.
         14    1    4    4    0    0 -0.26625473799E+01 -0.21222849641E+02  0.12073150942E+03  0.12261156500E+03  0.00000000000E+00 0. -1.
         -5    1    5    5    0  503  0.19627610186E+02  0.82355232086E+02  0.39068755238E+02  0.93359975200E+02  0.47000000000E+01 0.  1.
         13    1    6    6    0    0  0.36665966129E+01  0.31290797311E+02  0.52681343457E+02  0.61383074829E+02  0.00000000000E+00 0. -1.
        -14    1    6    6    0    0 -0.56303064740E+02 -0.33200899728E+02  0.99472592762E+02  0.11902576004E+03  0.00000000000E+00 0.  1.
</event>
<event>
12    1  0.8798177E-003  0.1745769E+03  0.7818608E-02  0.1173205E+00
         21   -1    0    0  501  502  0.00000000000E+00  0.00000000000E+00  0.43559687364E+02  0.43559687364E+02  0.00000000000E+00 0. -1.
         21   -1    0    0  502  503 -0.00000000000E+00 -0.00000000000E+00 -0.70313780827E+03  0.70313780827E+03  0.00000000000E+00 0. -1.
          6    2    1    2  501    0 -0.30717542139E+02  0.77981238652E+01 -0.35857906789E+03  0.39873555540E+03  0.17148386828E+03 0.  0.
         24    2    3    3    0    0  0.24208631134E+02  0.46678193215E+02 -0.14343621492E+03  0.17326475577E+03  0.81742377613E+02 0.  0.
         -6    2    1    2    0  503  0.30717542139E+02 -0.77981238652E+01 -0.30099905302E+03  0.34796194023E+03  0.17167615968E+03 0.  0.
        -24    2    5    5    0    0  0.55143735655E+02  0.46878350694E+02 -0.13074154204E+03  0.16741868823E+03  0.75480163008E+02 0.  0.
          5    1    3    3  501    0 -0.54926173273E+02 -0.38880069350E+02 -0.21514285297E+03  0.22547079964E+03  0.47000000000E+01 0. -1.
        -11    1    4    4    0    0  0.23337501429E+02 -0.26336179753E+01 -0.21102106480E+01  0.23580243967E+02  0.00000000000E+00 0.  1.
         12    1    4    4    0    0  0.87112970486E+00  0.49311811190E+02 -0.14132600427E+03  0.14968451180E+03  0.00000000000E+00 0. -1.
         -5    1    5    5    0  503 -0.24426193516E+02 -0.54676474559E+02 -0.17025751098E+03  0.18054325201E+03  0.47000000000E+01 0.  1.
         13    1    6    6    0    0 -0.36817466995E+01 -0.13490544655E+02 -0.28860035308E+01  0.14278622841E+02  0.00000000000E+00 0. -1.
        -14    1    6    6    0    0  0.58825482355E+02  0.60368895349E+02 -0.12785553851E+03  0.15314006539E+03  0.00000000000E+00 0.  1.
</event>
<event>
12    1  0.8798177E-003  0.4662455E+03  0.7818608E-02  0.1023419E+00
         21   -1    0    0  501  502  0.00000000000E+00  0.00000000000E+00  0.25239187617E+03  0.25239187617E+03  0.00000000000E+00 0. -1.
         21   -1    0    0  502  503 -0.00000000000E+00 -0.00000000000E+00 -0.95088174544E+03  0.95088174544E+03  0.00000000000E+00 0.  1.
          6    2    1    2  501    0  0.41369209640E+03  0.10752585213E+03 -0.54300307126E+03  0.71178503877E+03  0.17053634955E+03 0.  0.
         24    2    3    3    0    0  0.13745245635E+03  0.90337101349E+02 -0.23799338435E+03  0.29989088853E+03  0.78991926140E+02 0.  0.
         -6    2    1    2    0  503 -0.41369209640E+03 -0.10752585213E+03 -0.15548679801E+03  0.49148858283E+03  0.18623083311E+03 0.  0.
        -24    2    5    5    0    0 -0.40742262752E+03 -0.66700894740E+02 -0.12949754070E+03  0.44246292750E+03  0.92529035351E+02 0.  0.
          5    1    3    3  501    0  0.27623964005E+03  0.17188750783E+02 -0.30500968691E+03  0.41189415023E+03  0.47000000000E+01 0. -1.
        -11    1    4    4    0    0  0.14382151242E+03  0.95876326906E+02 -0.23289678422E+03  0.29003070457E+03  0.00000000000E+00 0.  1.
         12    1    4    4    0    0 -0.63690560646E+01 -0.55392255564E+01 -0.50966001299E+01  0.98601839640E+01  0.00000000000E+00 0. -1.
         -5    1    5    5    0  503 -0.62694688759E+01 -0.40824957392E+02 -0.25989257307E+02  0.49025655338E+02  0.47000000000E+01 0.  1.
         11    1    6    6    0    0  0.25246082154E+01  0.29040358887E+01 -0.86126979936E+01  0.94332199069E+01  0.00000000000E+00 0. -1.
        -12    1    6    6    0    0 -0.40994723574E+03 -0.69604930629E+02 -0.12088484271E+03  0.43302970759E+03  0.00000000000E+00 0.  1.
</event>
<event>
12    1  0.8798177E-003  0.1981149E+03  0.7818608E-02  0.1151507E+00
         21   -1    0    0  501  502  0.00000000000E+00  0.00000000000E+00  0.89730860434E+02  0.89730860434E+02  0.00000000000E+00 0.  1.
         21   -1    0    0  502  503 -0.00000000000E+00 -0.00000000000E+00 -0.45147917866E+03  0.45147917866E+03  0.00000000000E+00 0. -1.
          6    2    1    2  501    0  0.97376057165E+02  0.37993900868E+01 -0.12991613651E+03  0.23625814796E+03  0.17159014563E+03 0.  0.
         24    2    3    3    0    0  0.10143700030E+03  0.35495312398E+02 -0.14793735210E+03  0.19927197538E+03  0.79211601381E+02 0.  0.
         -6    2    1    2    0  503 -0.97376057165E+02 -0.37993900868E+01 -0.23183218172E+03  0.30495189113E+03  0.17249047380E+03 0.  0.
        -24    2    5    5    0    0 -0.85171886572E+02 -0.66099498995E+02 -0.16243409806E+03  0.21077955249E+03  0.80123588952E+02 0.  0.
          5    1    3    3  501    0 -0.40609431322E+01 -0.31695922311E+02  0.18021215599E+02  0.36986172577E+02  0.47000000000E+01 0. -1.
        -13    1    4    4    0    0  0.50614161091E+01  0.83701141948E+01  0.88852611198E+01  0.13214560524E+02  0.00000000000E+00 0.  1.
         14    1    4    4    0    0  0.96375584188E+02  0.27125198203E+02 -0.15682261322E+03  0.18605741486E+03  0.00000000000E+00 0. -1.
         -5    1    5    5    0  503 -0.12204170593E+02  0.62300108908E+02 -0.69398083660E+02  0.94172338643E+02  0.47000000000E+01 0.  1.
         13    1    6    6    0    0  0.54556411259E+01 -0.35170640981E+02 -0.65359937193E+02  0.74422170064E+02  0.00000000000E+00 0. -1.
        -14    1    6    6    0    0 -0.90627527698E+02 -0.30928858014E+02 -0.97074160865E+02  0.13635738243E+03  0.00000000000E+00 0.  1.
</event>
<event>
12    1  0.8798177E-003  0.2382894E+03  0.7818608E-02  0.1121305E+00
         21   -1    0    0  501  502  0.00000000000E+00  0.00000000000E+00  0.79360873975E+03  0.79360873975E+03  0.00000000000E+00 0.  1.
         21   -1    0    0  502  503 -0.00000000000E+00 -0.00000000000E+00 -0.70945378115E+02  0.70945378115E+02  0.00000000000E+00 0. -1.
          6    2    1    2  501    0  0.13668376813E+03 -0.86184164545E+02  0.37082560171E+03  0.43961691388E+03  0.17216631899E+03 0.  0.
         24    2    3    3    0    0  0.55028159046E+02 -0.67490731830E+02  0.32027380481E+03  0.34166459338E+03  0.81094310212E+02 0.  0.
         -6    2    1    2    0  503 -0.13668376813E+03  0.86184164545E+02  0.35183775992E+03  0.42493720399E+03  0.17513325023E+03 0.  0.
        -24    2    5    5    0    0 -0.10754399976E+02  0.74895803274E+02  0.18231547548E+03  0.21340581674E+03  0.81105311513E+02 0.  0.
          5    1    3    3  501    0  0.81655609085E+02 -0.18693432715E+02  0.50551796900E+02  0.97952320500E+02  0.47000000000E+01 0. -1.
        -13    1    4    4    0    0  0.63348025482E+02 -0.80665434169E+02  0.26249981637E+03  0.28182625534E+03  0.00000000000E+00 0.  1.
         14    1    4    4    0    0 -0.83198664363E+01  0.13174702339E+02  0.57773988437E+02  0.59838338039E+02  0.00000000000E+00 0. -1.
         -5    1    5    5    0  503 -0.12592936815E+03  0.11288361271E+02  0.16952228445E+03  0.21153138724E+03  0.47000000000E+01 0.  1.
         11    1    6    6    0    0 -0.16093174289E+02  0.86022166717E+02  0.11261716432E+03  0.14262338211E+03  0.00000000000E+00 0. -1.
        -12    1    6    6    0    0  0.53387743133E+01 -0.11126363444E+02  0.69698311155E+02  0.70782434632E+02  0.00000000000E+00 0.  1.
</event>
<event>
12    1  0.8798177E-003  0.1945275E+03  0.7818608E-02  0.1155987E+00
         21   -1    0    0  503  502  0.00000000000E+00  0.00000000000E+00  0.15889679135E+03  0.15889679135E+03  0.00000000000E+00 0.  1.
         21   -1    0    0  501  503 -0.00000000000E+00 -0.00000000000E+00 -0.23322658363E+03  0.23322658363E+03  0.00000000000E+00 0.  1.
          6    2    1    2  501    0  0.75713789023E+02  0.57662108226E+01 -0.60507480695E+02  0.19710539682E+03  0.17153295660E+03 0.  0.
         24    2    3    3    0    0  0.11766721894E+03  0.82310651153E+01 -0.61174726892E+02  0.15481235949E+03  0.79443027344E+02 0.  0.
         -6    2    1    2    0  502 -0.75713789023E+02 -0.57662108226E+01 -0.13822311580E+02  0.19501797817E+03  0.17909530556E+03 0.  0.
        -24    2    5    5    0    0 -0.11089073143E+03 -0.40372206596E+02  0.36277360494E+01  0.14246718005E+03  0.79731220619E+02 0.  0.
          5    1    3    3  501    0 -0.41953429922E+02 -0.24648542928E+01  0.66724619763E+00  0.42293037328E+02  0.47000000000E+01 0. -1.
        -11    1    4    4    0    0  0.26276074833E+02  0.42436362852E+01 -0.57383338052E+02  0.63255735262E+02  0.00000000000E+00 0.  1.
         12    1    4    4    0    0  0.91391144112E+02  0.39874288301E+01 -0.37913888401E+01  0.91556624228E+02  0.00000000000E+00 0. -1.
         -5    1    5    5    0  502  0.35176942402E+02  0.34605995773E+02 -0.17450047629E+02  0.52550798115E+02  0.47000000000E+01 0.  1.
         11    1    6    6    0    0 -0.35705743510E+02 -0.21394168639E+02 -0.36316631801E+02  0.55240459056E+02  0.00000000000E+00 0. -1.
        -12    1    6    6    0    0 -0.75184987915E+02 -0.18978037957E+02  0.39944367851E+02  0.87226720995E+02  0.00000000000E+00 0.  1.
</event>
<event>
12    1  0.8798177E-003  0.1805614E+03  0.7818608E-02  0.1167919E+00
         21   -1    0    0  503  502  0.00000000000E+00  0.00000000000E+00  0.99901176499E+03  0.99901176499E+03  0.00000000000E+00 0.  1.
         21   -1    0    0  501  503 -0.00000000000E+00 -0.00000000000E+00 -0.36099161914E+02  0.36099161914E+02  0.00000000000E+00 0.  1.
          6    2    1    2  501    0 -0.53364362332E+02  0.79579272032E+01  0.31345161584E+03  0.36173791374E+03  0.17231169140E+03 0.  0.
         24    2    3    3    0    0 -0.15030532146E+02 -0.60662323036E+02  0.19356045777E+03  0.21830081581E+03  0.79270177486E+02 0.  0.
         -6    2    1    2    0  502  0.53364362332E+02 -0.79579272032E+01  0.64946098724E+03  0.67337301316E+03  0.16947140508E+03 0.  0.
        -24    2    5    5    0    0  0.78726849583E+02  0.32329906919E+02  0.55878097469E+03  0.57084828437E+03  0.79927757187E+02 0.  0.
          5    1    3    3  501    0 -0.38333830186E+02  0.68620250239E+02  0.11989115806E+03  0.14343709793E+03  0.47000000000E+01 0. -1.
        -13    1    4    4    0    0 -0.47057626144E+02 -0.27697961581E+02  0.95623023473E+02  0.11011521181E+03  0.00000000000E+00 0.  1.
         14    1    4    4    0    0  0.32027093998E+02 -0.32964361455E+02  0.97937434299E+02  0.10818560400E+03  0.00000000000E+00 0. -1.
         -5    1    5    5    0  502 -0.25362487251E+02 -0.40287834122E+02  0.90680012548E+02  0.10252472879E+03  0.47000000000E+01 0.  1.
         11    1    6    6    0    0  0.34621661656E+02  0.41368354374E+02  0.14649598167E+03  0.15611237249E+03  0.00000000000E+00 0. -1.
        -12    1    6    6    0    0  0.44105187927E+02 -0.90384474549E+01  0.41228499302E+03  0.41473591188E+03  0.00000000000E+00 0.  1.
</event>
<event>
12    1  0.8798177E-003  0.1947137E+03  0.7818608E-02  0.1155830E+00
         21   -1    0    0  503  502  0.00000000000E+00  0.00000000000E+00  0.27387385991E+03  0.27387385991E+03  0.00000000000E+00 0. -1.
         21   -1    0    0  501  503 -0.00000000000E+00 -0.00000000000E+00 -0.13412513804E+03  0.13412513804E+03  0.00000000000E+00 0. -1.
          6    2    1    2  501    0  0.89149045726E+02 -0.93340147410E+01  0.84808555637E+02  0.21238153878E+03  0.17285470986E+03 0.  0.
         24    2    3    3    0    0  0.75508593494E+02  0.21820713514E+02  0.11985240189E+03  0.16332198120E+03  0.78305683534E+02 0.  0.
         -6    2    1    2    0  502 -0.89149045726E+02  0.93340147410E+01  0.54940166234E+02  0.19561745916E+03  0.16496391205E+03 0.  0.
        -24    2    5    5    0    0 -0.78404942418E+02  0.63195954985E+01  0.99641574263E+02  0.14930516750E+03  0.78589550437E+02 0.  0.
          5    1    3    3  501    0  0.13640452232E+02 -0.31154728255E+02 -0.35043846253E+02  0.49059557580E+02  0.47000000000E+01 0. -1.
        -11    1    4    4    0    0  0.29309736580E+01  0.29895948615E+02  0.10487070907E+02  0.31817243853E+02  0.00000000000E+00 0.  1.
         12    1    4    4    0    0  0.72577619836E+02 -0.80752351008E+01  0.10936533098E+03  0.13150473734E+03  0.00000000000E+00 0. -1.
         -5    1    5    5    0  502 -0.10744103307E+02  0.30144192425E+01 -0.44701408030E+02  0.46312291663E+02  0.47000000000E+01 0.  1.
         13    1    6    6    0    0 -0.78826235565E+02 -0.16798319186E+02  0.96875823980E+02  0.12601858677E+03  0.00000000000E+00 0. -1.
        -14    1    6    6    0    0  0.42129314705E+00  0.23117914685E+02  0.27657502837E+01  0.23286580726E+02  0.00000000000E+00 0.  1.
</event>
<event>
12    1  0.8798177E-003  0.2504867E+03  0.7818608E-02  0.1115083E+00
         21   -1    0    0  503  502  0.00000000000E+00  0.00000000000E+00  0.94068504408E+02  0.94068504408E+02  0.00000000000E+00 0.  1.
         21   -1    0    0  501  503 -0.00000000000E+00 -0.00000000000E+00 -0.84315504100E+03  0.84315504100E+03  0.00000000000E+00 0.  1.
          6    2    1    2  501    0  0.14642852173E+03  0.70051565053E+02 -0.60091929315E+03  0.64619585390E+03  0.17354120828E+03 0.  0.
         24    2    3    3    0    0  0.13070468593E+03  0.78883783982E+02 -0.30606572536E+03  0.35075387390E+03  0.77754006441E+02 0.  0.
         -6    2    1    2    0  502 -0.14642852173E+03 -0.70051565053E+02 -0.14816724344E+03  0.29102769151E+03  0.19077487113E+03 0.  0.
        -24    2    5    5    0    0 -0.56850321941E+02 -0.11235630427E+03 -0.10885191120E+03  0.18434249954E+03  0.79230804303E+02 0.  0.
          5    1    3    3  501    0  0.15723835796E+02 -0.88322189292E+01 -0.29485356779E+03  0.29544198000E+03  0.47000000000E+01 0. -1.
        -13    1    4    4    0    0  0.11674190593E+03  0.53944866570E+02 -0.29164459186E+03  0.31874015937E+03  0.00000000000E+00 0.  1.
         14    1    4    4    0    0  0.13962780003E+02  0.24938917413E+02 -0.14421133496E+02  0.32013714537E+02  0.00000000000E+00 0. -1.
         -5    1    5    5    0  502 -0.89578199787E+02  0.42304739214E+02 -0.39315332242E+02  0.10668519197E+03  0.47000000000E+01 0.  1.
         13    1    6    6    0    0 -0.14394667779E+02  0.10943940012E+02 -0.17157465973E+02  0.24926991838E+02  0.00000000000E+00 0. -1.
        -14    1    6    6    0    0 -0.42455654162E+02 -0.12330024428E+03 -0.91694445223E+02  0.15941550770E+03  0.00000000000E+00 0.  1.
</event>
<event>
12    1  0.8798177E-003  0.1963173E+03  0.7818608E-02  0.1152955E+00
         21   -1    0    0  503  502  0.00000000000E+00  0.00000000000E+00  0.22117929649E+03  0.22117929649E+03  0.00000000000E+00 0.  1.
         21   -1    0    0  501  503 -0.00000000000E+00 -0.00000000000E+00 -0.21949236199E+03  0.21949236199E+03  0.00000000000E+00 0. -1.
          6    2    1    2  501    0  0.84721472697E+02 -0.40176087775E+02 -0.99511796311E+02  0.22009787323E+03  0.17247791230E+03 0.  0.
         24    2    3    3    0    0  0.12512580224E+03 -0.18045057957E+02 -0.68120413459E+02  0.16415324665E+03  0.79522368877E+02 0.  0.
         -6    2    1    2    0  502 -0.84721472697E+02  0.40176087775E+02  0.10119873081E+03  0.22057378525E+03  0.17210393853E+03 0.  0.
        -24    2    5    5    0    0  0.16202735083E+02  0.41316373344E+02  0.25660815962E+02  0.94418870379E+02  0.79289811939E+02 0.  0.
          5    1    3    3  501    0 -0.40404329544E+02 -0.22131029818E+02 -0.31391382853E+02  0.55944626588E+02  0.47000000000E+01 0. -1.
        -11    1    4    4    0    0  0.43031814320E+02  0.12748065678E+02  0.10827988387E+02  0.46168122712E+02  0.00000000000E+00 0.  1.
         12    1    4    4    0    0  0.82093987920E+02 -0.30793123634E+02 -0.78948401846E+02  0.11798512393E+03  0.00000000000E+00 0. -1.
         -5    1    5    5    0  502 -0.10092420778E+03 -0.11402855688E+01  0.75537914845E+02  0.12615491487E+03  0.47000000000E+01 0.  1.
         13    1    6    6    0    0 -0.28839659899E+02  0.34609151220E+02  0.16436731548E+02  0.47955035973E+02  0.00000000000E+00 0. -1.
        -14    1    6    6    0    0  0.45042394982E+02  0.67072221240E+01  0.92240844141E+01  0.46463834405E+02  0.00000000000E+00 0.  1.
</event>
<event>
12    1  0.8798177E-003  0.3977244E+03  0.7818608E-02  0.1044652E+00
         21   -1    0    0  503  502  0.00000000000E+00  0.00000000000E+00  0.24341222964E+04  0.24341222964E+04  0.00000000000E+00 0. -1.
         21   -1    0    0  501  503 -0.00000000000E+00 -0.00000000000E+00 -0.10115111550E+03  0.10115111550E+03  0.00000000000E+00 0.  1.
          6    2    1    2  501    0  0.24758800302E+03 -0.25878801404E+03  0.40602621854E+03  0.56771106676E+03  0.17078498097E+03 0.  0.
         24    2    3    3    0    0  0.18886920138E+03 -0.12937794044E+03  0.18454193170E+03  0.30451485833E+03  0.79141314643E+02 0.  0.
         -6    2    1    2    0  502 -0.24758800302E+03  0.25878801404E+03  0.19269449623E+04  0.19675623451E+04  0.17295559716E+03 0.  0.
        -24    2    5    5    0    0 -0.24951314917E+03  0.25998053112E+03  0.16575552159E+04  0.16981220850E+04  0.79263066037E+02 0.  0.
          5    1    3    3  501    0  0.58718801639E+02 -0.12941007360E+03  0.22148428684E+03  0.26319620843E+03  0.47000000000E+01 0. -1.
        -13    1    4    4    0    0  0.10526725341E+03 -0.10768470494E+03  0.14664808768E+03  0.21019717396E+03  0.00000000000E+00 0.  1.
         14    1    4    4    0    0  0.83601947966E+02 -0.21693235499E+02  0.37893844025E+02  0.94317684371E+02  0.00000000000E+00 0. -1.
         -5    1    5    5    0  502  0.19251461528E+01 -0.11925170794E+01  0.26938974647E+03  0.26944026015E+03  0.47000000000E+01 0.  1.
         11    1    6    6    0    0 -0.81358916006E+02  0.12329633023E+03  0.54532235663E+03  0.56497586754E+03  0.00000000000E+00 0. -1.
        -12    1    6    6    0    0 -0.16815423316E+03  0.13668420089E+03  0.11122328592E+04  0.11331462174E+04  0.00000000000E+00 0.  1.
</event>
<event>
12    1  0.8798177E-003  0.1836488E+03  0.7818608E-02  0.1164360E+00
         21   -1    0    0  501  502  0.00000000000E+00  0.00000000000E+00  0.35110254198E+02  0.35110254198E+02  0.00000000000E+00 0. -1.
         21   -1    0    0  502  503 -0.00000000000E+00 -0.00000000000E+00 -0.11154290020E+04  0.11154290020E+04  0.00000000000E+00 0.  1.
          6    2    1    2  501    0  0.58749775179E+02  0.26955722118E+02 -0.75490439576E+03  0.77687982561E+03  0.17170751196E+03 0.  0.
         24    2    3    3    0    0  0.11977098023E+02 -0.40277762125E+02 -0.25686887370E+03  0.27213286329E+03  0.79428760602E+02 0.  0.
         -6    2    1    2    0  503 -0.58749775179E+02 -0.26955722118E+02 -0.32541435207E+03  0.37365943062E+03  0.17189741859E+03 0.  0.
        -24    2    5    5    0    0 -0.37468620773E+02  0.48493860040E+02 -0.13654310274E+03  0.16911123140E+03  0.78733967729E+02 0.  0.
          5    1    3    3  501    0  0.46772677157E+02  0.67233484243E+02 -0.49803552206E+03  0.50474696232E+03  0.47000000000E+01 0. -1.
        -13    1    4    4    0    0 -0.22109017924E+02 -0.15181243359E+02 -0.19696892537E+03  0.19878640895E+03  0.00000000000E+00 0.  1.
         14    1    4    4    0    0  0.34086115947E+02 -0.25096518766E+02 -0.59899948327E+02  0.73346454339E+02  0.00000000000E+00 0. -1.
         -5    1    5    5    0  503 -0.21281154406E+02 -0.75449582158E+02 -0.18887124933E+03  0.20454819922E+03  0.47000000000E+01 0.  1.
         13    1    6    6    0    0 -0.43750395280E+02  0.30823779242E+02 -0.14014403911E+03  0.15001517974E+03  0.00000000000E+00 0. -1.
        -14    1    6    6    0    0  0.62817745069E+01  0.17670080799E+02  0.36009363648E+01  0.19096051662E+02  0.00000000000E+00 0.  1.
</event>
<event>
12    1  0.8798177E-003  0.1942238E+03  0.7818608E-02  0.1154912E+00
         21   -1    0    0  501  502  0.00000000000E+00  0.00000000000E+00  0.91822241246E+02  0.91822241246E+02  0.00000000000E+00 0. -1.
         21   -1    0    0  502  503 -0.00000000000E+00 -0.00000000000E+00 -0.46475224375E+03  0.46475224375E+03  0.00000000000E+00 0. -1.
          6    2    1    2  501    0  0.64192154763E+02  0.60880129207E+02 -0.89545065758E+02  0.21301966538E+03  0.17184887597E+03 0.  0.
         24    2    3    3    0    0  0.36874536341E+02  0.10099575472E+03 -0.32122188164E+02  0.13768711891E+03  0.79787429079E+02 0.  0.
         -6    2    1    2    0  503 -0.64192154763E+02 -0.60880129207E+02 -0.28338493675E+03  0.34355481962E+03  0.17290421869E+03 0.  0.
        -24    2    5    5    0    0 -0.21649466760E+02 -0.21927727492E+01 -0.24962716136E+03  0.26345635827E+03  0.81375827869E+02 0.  0.
          5    1    3    3  501    0  0.27317618422E+02 -0.40115625516E+02 -0.57422877594E+02  0.75332546473E+02  0.47000000000E+01 0. -1.
        -11    1    4    4    0    0  0.75666706668E+01  0.47463140504E+02 -0.54516662877E+02  0.72677855930E+02  0.00000000000E+00 0.  1.
         12    1    4    4    0    0  0.29307865674E+02  0.53532614219E+02  0.22394474713E+02  0.65009262980E+02  0.00000000000E+00 0. -1.
         -5    1    5    5    0  503 -0.42542688003E+02 -0.58687356457E+02 -0.33757775384E+02  0.80098461342E+02  0.47000000000E+01 0.  1.
         13    1    6    6    0    0 -0.47831265266E+02 -0.18731176102E+02 -0.18134514797E+03  0.18848010396E+03  0.00000000000E+00 0. -1.
        -14    1    6    6    0    0  0.26181798506E+02  0.16538403352E+02 -0.68282013390E+02  0.74976254315E+02  0.00000000000E+00 0.  1.
</event>
<event>
12    1  0.8798177E-003  0.2167910E+03  0.7818608E-02  0.1136728E+00
         21   -1    0    0  501  502  0.00000000000E+00  0.00000000000E+00  0.92249959043E+02  0.92249959043E+02  0.00000000000E+00 0.  1.
         21   -1    0    0  502  503 -0.00000000000E+00 -0.00000000000E+00 -0.83361453102E+03  0.83361453102E+03  0.00000000000E+00 0. -1.
          6    2    1    2  501    0  0.12801661840E+03 -0.42637436575E+02 -0.80842182275E+02  0.23137371301E+03  0.16968244179E+03 0.  0.
         24    2    3    3    0    0  0.26617688570E+02  0.29365486426E+02 -0.56922539806E+02  0.10464406696E+03  0.78354145231E+02 0.  0.
         -6    2    1    2    0  503 -0.12801661840E+03  0.42637436575E+02 -0.66052238970E+03  0.69449077704E+03  0.16679750155E+03 0.  0.
        -24    2    5    5    0    0 -0.60560360394E+02 -0.12728935235E+02 -0.18396011056E+03  0.20998125415E+03  0.80132526333E+02 0.  0.
          5    1    3    3  501    0  0.10139892983E+03 -0.72002923000E+02 -0.23919642468E+02  0.12672964605E+03  0.47000000000E+01 0. -1.
        -13    1    4    4    0    0  0.14656812539E+02  0.10756400251E+02  0.18563620419E+02  0.25983269680E+02  0.00000000000E+00 0.  1.
         14    1    4    4    0    0  0.11960876031E+02  0.18609086174E+02 -0.75486160226E+02  0.78660797284E+02  0.00000000000E+00 0. -1.
         -5    1    5    5    0  503 -0.67456258011E+02  0.55366371809E+02 -0.47656227914E+03  0.48450952289E+03  0.47000000000E+01 0.  1.
         13    1    6    6    0    0 -0.86217970022E+00  0.22371530402E+02 -0.93010333442E+02  0.95666874379E+02  0.00000000000E+00 0. -1.
        -14    1    6    6    0    0 -0.59698180693E+02 -0.35100465637E+02 -0.90949777116E+02  0.11431437978E+03  0.00000000000E+00 0.  1.
</event>
<event>
12    1  0.8798177E-003  0.1825854E+03  0.7818608E-02  0.1167227E+00
         21   -1    0    0  501  502  0.00000000000E+00  0.00000000000E+00  0.14854144849E+03  0.14854144849E+03  0.00000000000E+00 0.  1.
         21   -1    0    0  502  503 -0.00000000000E+00 -0.00000000000E+00 -0.21495291327E+03  0.21495291327E+03  0.00000000000E+00 0. -1.
          6    2    1    2  501    0 -0.31744296991E+02 -0.71211383929E+01 -0.29989613002E+02  0.17731174491E+03  0.17170226263E+03 0.  0.
         24    2    3    3    0    0 -0.15050959432E+02  0.29453519461E+02  0.41153722315E+02  0.95459211196E+02  0.79528554327E+02 0.  0.
         -6    2    1    2    0  503  0.31744296991E+02  0.71211383929E+01 -0.36421851778E+02  0.18618261685E+03  0.17966358709E+03 0.  0.
        -24    2    5    5    0    0  0.64108755724E+02  0.37914688362E+02  0.23096154214E+02  0.11161597588E+03  0.79857608135E+02 0.  0.
          5    1    3    3  501    0 -0.16693337558E+02 -0.36574657854E+02 -0.71143335317E+02  0.81852533718E+02  0.47000000000E+01 0. -1.
        -13    1    4    4    0    0  0.57036875035E+01  0.91817907647E+00  0.56634022530E+02  0.56927915928E+02  0.00000000000E+00 0.  1.
         14    1    4    4    0    0 -0.20754646936E+02  0.28535340385E+02 -0.15480300215E+02  0.38531295268E+02  0.00000000000E+00 0. -1.
         -5    1    5    5    0  503 -0.32364458733E+02 -0.30793549969E+02 -0.59518005993E+02  0.74566640974E+02  0.47000000000E+01 0.  1.
         11    1    6    6    0    0  0.14999225412E+02  0.55136139336E+02  0.11053823097E+02  0.58199292340E+02  0.00000000000E+00 0. -1.
        -12    1    6    6    0    0  0.49109530312E+02 -0.17221450975E+02  0.12042331117E+02  0.53416683535E+02  0.00000000000E+00 0.  1.
</event>
<event>
12    1  0.8798177E-003  0.1780685E+03  0.7818608E-02  0.1169960E+00
         21   -1    0    0  501  502  0.00000000000E+00  0.00000000000E+00  0.18593107234E+04  0.18593107234E+04  0.00000000000E+00 0. -1.
         21   -1    0    0  502  503 -0.00000000000E+00 -0.00000000000E+00 -0.16947266899E+02  0.16947266899E+02  0.00000000000E+00 0. -1.
          6    2    1    2  501    0 -0.28865320833E+01 -0.45781210204E+02  0.92424946038E+03  0.94124675789E+03  0.17205854517E+03 0.  0.
         24    2    3    3    0    0 -0.61028625539E+02  0.15147689899E+00  0.62760264852E+03  0.63544987145E+03  0.78657095118E+02 0.  0.
         -6    2    1    2    0  503  0.28865320833E+01  0.45781210204E+02  0.91811399617E+03  0.93501123245E+03  0.17090477925E+03 0.  0.
        -24    2    5    5    0    0 -0.22982128010E+02  0.95148743680E+01  0.84804978183E+03  0.85185163396E+03  0.76446470011E+02 0.  0.
          5    1    3    3  501    0  0.58142093456E+02 -0.45932687103E+02  0.29664681185E+03  0.30579688644E+03  0.47000000000E+01 0. -1.
        -13    1    4    4    0    0  0.19232498459E+02 -0.13021561151E+01  0.11891418347E+03  0.12046645856E+03  0.00000000000E+00 0.  1.
         14    1    4    4    0    0 -0.80261123999E+02  0.14536330141E+01  0.50868846505E+03  0.51498341289E+03  0.00000000000E+00 0. -1.
         -5    1    5    5    0  503  0.25868660094E+02  0.36266335836E+02  0.70064214337E+02  0.83159598488E+02  0.47000000000E+01 0.  1.
         13    1    6    6    0    0 -0.35998058871E+02  0.10719003938E+02  0.19026126461E+03  0.19393325166E+03  0.00000000000E+00 0. -1.
        -14    1    6    6    0    0  0.13015930861E+02 -0.12041295702E+01  0.65778851722E+03  0.65791838230E+03  0.00000000000E+00 0.  1.
</event>
<event>
12    1  0.8798177E-003  0.1741884E+03  0.7818608E-02  0.1173686E+00
         21   -1    0    0  501  502  0.00000000000E+00  0.00000000000E+00  0.21915077116E+03  0.21915077116E+03  0.00000000000E+00 0.  1.
         21   -1    0    0  502  503 -0.00000000000E+00 -0.00000000000E+00 -0.16657525437E+03  0.16657525437E+03  0.00000000000E+00 0.  1.
          6    2    1    2  501    0  0.18263361635E+02 -0.16775550361E+02  0.10610485458E+03  0.20349820509E+03  0.17186712845E+03 0.  0.
         24    2    3    3    0    0 -0.21572395050E+02  0.33993790763E+02  0.12895974295E+02  0.90032796821E+02  0.79489951011E+02 0.  0.
         -6    2    1    2    0  503 -0.18263361635E+02  0.16775550361E+02 -0.53529337787E+02  0.18222782044E+03  0.17241409186E+03 0.  0.
        -24    2    5    5    0    0  0.12990843927E+02 -0.51832822210E+02 -0.34443967941E+02  0.10431584771E+03  0.82704326806E+02 0.  0.
          5    1    3    3  501    0  0.39835756685E+02 -0.50769341124E+02  0.93208880287E+02  0.11346540827E+03  0.47000000000E+01 0. -1.
        -11    1    4    4    0    0 -0.14762191199E+02  0.59782369868E+02  0.14669531818E+02  0.63301257490E+02  0.00000000000E+00 0.  1.
         12    1    4    4    0    0 -0.68102038514E+01 -0.25788579105E+02 -0.17735575234E+01  0.26731539331E+02  0.00000000000E+00 0. -1.
         -5    1    5    5    0  503 -0.31254205562E+02  0.68608372571E+02 -0.19085369846E+02  0.77911972728E+02  0.47000000000E+01 0.  1.
         11    1    6    6    0    0  0.38828275686E+01 -0.34773893368E+01  0.25919297156E+02  0.26438202503E+02  0.00000000000E+00 0. -1.
        -12    1    6    6    0    0  0.91080163582E+01 -0.48355432874E+02 -0.60363265097E+02  0.77877645211E+02  0.00000000000E+00 0.  1.
</event>
<event>
12    1  0.8798177E-003  0.2446873E+03  0.7818608E-02  0.1116737E+00
         21   -1    0    0  501  502  0.00000000000E+00  0.00000000000E+00  0.17501050027E+03  0.17501050027E+03  0.00000000000E+00 0.  1.
         21   -1    0    0  502  503 -0.00000000000E+00 -0.00000000000E+00 -0.34203945525E+03  0.34203945525E+03  0.00000000000E+00 0.  1.
          6    2    1    2  501    0  0.17018538554E+03  0.19954591440E+02 -0.77766716644E+02  0.25674795955E+03  0.17467284090E+03 0.  0.
         24    2    3    3    0    0  0.79165448600E+01 -0.69019730180E-01 -0.32291262087E+02  0.86976852986E+02  0.80371455766E+02 0.  0.
         -6    2    1    2    0  503 -0.17018538554E+03 -0.19954591440E+02 -0.89262238330E+02  0.26030199597E+03  0.17443660953E+03 0.  0.
        -24    2    5    5    0    0 -0.87975914693E+01 -0.12344606352E+02 -0.42268209163E+02  0.91973564846E+02  0.80266731608E+02 0.  0.
          5    1    3    3  501    0  0.16226884068E+03  0.20023611170E+02 -0.45475454557E+02  0.16977110657E+03  0.47000000000E+01 0. -1.
        -13    1    4    4    0    0  0.13123411295E+02 -0.34585405614E+02 -0.36316274222E+02  0.51838653328E+02  0.00000000000E+00 0.  1.
         14    1    4    4    0    0 -0.52068664353E+01  0.34516385883E+02  0.40250121356E+01  0.35138199658E+02  0.00000000000E+00 0. -1.
         -5    1    5    5    0  503 -0.16138779407E+03 -0.76099850878E+01 -0.46994029167E+02  0.16832843112E+03  0.47000000000E+01 0.  1.
         13    1    6    6    0    0 -0.14372715201E+02  0.24797188339E+02  0.74976763191E+01  0.29625844156E+02  0.00000000000E+00 0. -1.
        -14    1    6    6    0    0  0.55751237321E+01 -0.37141794690E+02 -0.49765885482E+02  0.62347720690E+02  0.00000000000E+00 0.  1.
</event>
<event>
12    1  0.8798177E-003  0.1779456E+03  0.7818608E-02  0.1170009E+00
         21   -1    0    0  503  502  0.00000000000E+00  0.00000000000E+00  0.82962840785E+02  0.82962840785E+02  0.00000000000E+00 0. -1.
         21   -1    0    0  501  503 -0.00000000000E+00 -0.00000000000E+00 -0.38024988134E+03  0.38024988134E+03  0.00000000000E+00 0. -1.
          6    2    1    2  501    0 -0.25337624632E+02 -0.35548953813E+02 -0.14133232865E+03  0.22659805298E+03  0.17165700438E+03 0.  0.
         24    2    3    3    0    0 -0.64467228619E+02  0.24044004467E+02 -0.94109459811E+02  0.14095614778E+03  0.79233247152E+02 0.  0.
         -6    2    1    2    0  502  0.25337624632E+02  0.35548953813E+02 -0.15595471190E+03  0.23661466914E+03  0.17250769881E+03 0.  0.
        -24    2    5    5    0    0 -0.18460475980E+02  0.59316983361E+02 -0.36792494839E+02  0.10736716696E+03  0.79465257665E+02 0.  0.
          5    1    3    3  501    0  0.39129603987E+02 -0.59592958280E+02 -0.47222868842E+02  0.85641905201E+02  0.47000000000E+01 0. -1.
        -11    1    4    4    0    0 -0.78034975307E+02  0.20839994769E+02 -0.97499160424E+02  0.12660904011E+03  0.00000000000E+00 0.  1.
         12    1    4    4    0    0  0.13567746688E+02  0.32040096985E+01  0.33897006127E+01  0.14347107673E+02  0.00000000000E+00 0. -1.
         -5    1    5    5    0  502  0.43798100613E+02 -0.23768029549E+02 -0.11916221706E+03  0.12924750218E+03  0.47000000000E+01 0.  1.
         13    1    6    6    0    0  0.27505573049E+02  0.44963280623E+02 -0.19580139649E+02  0.56228418276E+02  0.00000000000E+00 0. -1.
        -14    1    6    6    0    0 -0.45966049029E+02  0.14353702738E+02 -0.17212355190E+02  0.51138748683E+02  0.00000000000E+00 0.  1.
</event>
<event>
12    1  0.8798177E-003  0.1850447E+03  0.7818608E-02  0.1167147E+00
         21   -1    0    0  503  502  0.00000000000E+00  0.00000000000E+00  0.25319508714E+02  0.25319508714E+02  0.00000000000E+00 0.  1.
         21   -1    0    0  501  503 -0.00000000000E+00 -0.00000000000E+00 -0.12367352591E+04  0.12367352591E+04  0.00000000000E+00 0.  1.
          6    2    1    2  501    0  0.71355826538E+02  0.86604731468E+01 -0.53793764959E+03  0.56361773426E+03  0.15205715292E+03 0.  0.
         24    2    3    3    0    0  0.82424838963E+02  0.22538265515E+02 -0.53140429825E+03  0.54412694575E+03  0.79886027596E+02 0.  0.
         -6    2    1    2    0  502 -0.71355826538E+02 -0.86604731468E+01 -0.67347810080E+03  0.69843703355E+03  0.17051357661E+03 0.  0.
        -24    2    5    5    0    0  0.26237514371E+02  0.13502017917E+01 -0.38311456523E+03  0.39191175468E+03  0.78280413631E+02 0.  0.
          5    1    3    3  501    0 -0.11069012425E+02 -0.13877792368E+02 -0.65333513434E+01  0.19490788513E+02  0.47000000000E+01 0. -1.
        -11    1    4    4    0    0  0.24224112789E+02 -0.29115028864E+02 -0.21378681243E+03  0.21711585321E+03  0.00000000000E+00 0.  1.
         12    1    4    4    0    0  0.58200726175E+02  0.51653294379E+02 -0.31761748582E+03  0.32701109254E+03  0.00000000000E+00 0. -1.
         -5    1    5    5    0  502 -0.97593340909E+02 -0.10010674939E+02 -0.29036353556E+03  0.30652527887E+03  0.47000000000E+01 0.  1.
         13    1    6    6    0    0 -0.11984047236E+02 -0.24494905591E+01 -0.30110095115E+03  0.30134929928E+03  0.00000000000E+00 0. -1.
        -14    1    6    6    0    0  0.38221561607E+02  0.37996923508E+01 -0.82013614086E+02  0.90562455406E+02  0.00000000000E+00 0.  1.
</event>
<event>
12    1  0.8798177E-003  0.2098120E+03  0.7818608E-02  0.1143162E+00
         21   -1    0    0  501  502  0.00000000000E+00  0.00000000000E+00  0.47415661275E+03  0.47415661275E+03  0.00000000000E+00 0. -1.
         21   -1    0    0  502  503 -0.00000000000E+00 -0.00000000000E+00 -0.94379719168E+02  0.94379719168E+02  0.00000000000E+00 0.  1.
          6    2    1    2  501    0  0.53110110569E+02 -0.10574025022E+03  0.25634227099E+03  0.33125885941E+03  0.17326103913E+03 0.  0.
         24    2    3    3    0    0  0.53230642807E+02  0.77449095476E+01  0.11152388699E+03  0.14721171773E+03  0.79625545591E+02 0.  0.
         -6    2    1    2    0  503 -0.53110110569E+02  0.10574025022E+03  0.12343462260E+03  0.23727747251E+03  0.16450777655E+03 0.  0.
        -24    2    5    5    0    0 -0.24825981799E+01 -0.54673103120E+01  0.41372140360E+02  0.90013737936E+02  0.79716775169E+02 0.  0.
          5    1    3    3  501    0 -0.12053223814E+00 -0.11348515977E+03  0.14481838400E+03  0.18404714168E+03  0.47000000000E+01 0. -1.
        -13    1    4    4    0    0 -0.15143249040E+02  0.60353950911E+01 -0.98044397155E-01  0.16301950745E+02  0.00000000000E+00 0.  1.
         14    1    4    4    0    0  0.68373891847E+02  0.17095144565E+01  0.11162193139E+03  0.13090976699E+03  0.00000000000E+00 0. -1.
         -5    1    5    5    0  503 -0.50627512389E+02  0.11120756053E+03  0.82062482240E+02  0.14726373458E+03  0.47000000000E+01 0.  1.
         11    1    6    6    0    0 -0.17501264287E+01 -0.15344137768E+02  0.63722550067E+02  0.65567285238E+02  0.00000000000E+00 0. -1.
        -12    1    6    6    0    0 -0.73247175121E+00  0.98768274560E+01 -0.22350409707E+02  0.24446452698E+02  0.00000000000E+00 0.  1.
</event>
<event>
12    1  0.8798177E-003  0.1848011E+03  0.7818608E-02  0.1163382E+00
         21   -1    0    0  503  502  0.00000000000E+00  0.00000000000E+00  0.36160787287E+02  0.36160787287E+02  0.00000000000E+00 0.  1.
         21   -1    0    0  501  503 -0.00000000000E+00 -0.00000000000E+00 -0.10055406569E+04  0.10055406569E+04  0.00000000000E+00 0.  1.
          6    2    1    2  501    0  0.14517177733E+02  0.70267752706E+02 -0.61562260970E+03  0.64258286062E+03  0.16962673628E+03 0.  0.
         24    2    3    3    0    0  0.21871847615E+02  0.11248180241E+03 -0.50242312157E+03  0.52145346173E+03  0.79713148640E+02 0.  0.
         -6    2    1    2    0  502 -0.14517177733E+02 -0.70267752706E+02 -0.35375725993E+03  0.39911858359E+03  0.17030308070E+03 0.  0.
        -24    2    5    5    0    0 -0.62393516164E+02 -0.78436679413E+02 -0.20466045530E+03  0.24224021575E+03  0.82153250863E+02 0.  0.
          5    1    3    3  501    0 -0.73546698828E+01 -0.42214049707E+02 -0.11319948813E+03  0.12112939889E+03  0.47000000000E+01 0. -1.
        -11    1    4    4    0    0 -0.14033906125E+01  0.11287905193E+03 -0.36453688442E+03  0.38161602426E+03  0.00000000000E+00 0.  1.
         12    1    4    4    0    0  0.23275238228E+02 -0.39724951519E+00 -0.13788623715E+03  0.13983743747E+03  0.00000000000E+00 0. -1.
         -5    1    5    5    0  502  0.47876338431E+02  0.81689267061E+01 -0.14909680463E+03  0.15687836784E+03  0.47000000000E+01 0.  1.
         13    1    6    6    0    0 -0.59632936450E+02 -0.36613030187E+02 -0.61802631552E+02  0.93360411074E+02  0.00000000000E+00 0. -1.
        -14    1    6    6    0    0 -0.27605797141E+01 -0.41823649225E+02 -0.14285782375E+03  0.14887980468E+03  0.00000000000E+00 0.  1.
</event>
<event>
12    1  0.8798177E-003  0.1973979E+03  0.7818608E-02  0.1152131E+00
         21   -1    0    0  503  502  0.00000000000E+00  0.00000000000E+00  0.67411195451E+03  0.67411195451E+03  0.00000000000E+00 0. -1.
         21   -1    0    0  501  503 -0.00000000000E+00 -0.00000000000E+00 -0.58057845741E+02  0.58057845741E+02  0.00000000000E+00 0. -1.
          6    2    1    2  501    0  0.28774138789E+02 -0.93155261541E+02  0.34122363682E+03  0.39379466630E+03  0.17068923536E+03 0.  0.
         24    2    3    3    0    0  0.11547200226E+02  0.13568053789E+02  0.89670782049E+02  0.11995609672E+03  0.77660711243E+02 0.  0.
         -6    2    1    2    0  502 -0.28774138789E+02  0.93155261541E+02  0.27483047195E+03  0.33837513395E+03  0.17163941606E+03 0.  0.
        -24    2    5    5    0    0  0.31781984138E+02  0.10309759296E+03  0.17641239462E+03  0.22229713464E+03  0.81581094028E+02 0.  0.
          5    1    3    3  501    0  0.17226938563E+02 -0.10672331533E+03  0.25155285477E+03  0.27383856958E+03  0.47000000000E+01 0. -1.
        -11    1    4    4    0    0 -0.23872435505E+02 -0.32092119103E+01  0.22988907898E+01  0.24196634412E+02  0.00000000000E+00 0.  1.
         12    1    4    4    0    0  0.35419635731E+02  0.16777265699E+02  0.87371891260E+02  0.95759462310E+02  0.00000000000E+00 0. -1.
         -5    1    5    5    0  502 -0.60556122927E+02 -0.99423314211E+01  0.98418077333E+02  0.11607799931E+03  0.47000000000E+01 0.  1.
         13    1    6    6    0    0  0.13909012592E+02  0.37553416671E+02  0.81915142323E+01  0.40875672965E+02  0.00000000000E+00 0. -1.
        -14    1    6    6    0    0  0.17872971546E+02  0.65544176291E+02  0.16822088038E+03  0.18142146167E+03  0.00000000000E+00 0.  1.
</event>
<event>
12    1  0.8798177E-003  0.3920944E+03  0.7818608E-02  0.1046587E+00
         21   -1    0    0  501  502  0.00000000000E+00  0.00000000000E+00  0.72437469303E+03  0.72437469303E+03  0.00000000000E+00 0.  1.
         21   -1    0    0  502  503 -0.00000000000E+00 -0.00000000000E+00 -0.27250995217E+03  0.27250995217E+03  0.00000000000E+00 0. -1.
          6    2    1    2  501    0 -0.31547240067E+02  0.34959785155E+03  0.46085889284E+03  0.60508589123E+03  0.17471156371E+03 0.  0.
         24    2    3    3    0    0 -0.56043203229E+00  0.10088122371E+03  0.10541294342E+03  0.17013295562E+03  0.87498563228E+02 0.  0.
         -6    2    1    2    0  503  0.31547240067E+02 -0.34959785155E+03 -0.89941519885E+01  0.39179875396E+03  0.17381450652E+03 0.  0.
        -24    2    5    5    0    0 -0.17868298137E+02 -0.32010760116E+03  0.12063649243E+02  0.33034070912E+03  0.78684814717E+02 0.  0.
          5    1    3    3  501    0 -0.30986808035E+02  0.24871662784E+03  0.35544594943E+03  0.43495293562E+03  0.47000000000E+01 0. -1.
        -13    1    4    4    0    0  0.63454258165E+01  0.88604308512E+02  0.12036217667E+03  0.14959291925E+03  0.00000000000E+00 0.  1.
         14    1    4    4    0    0 -0.69058578488E+01  0.12276915195E+02 -0.14949233253E+02  0.20540036373E+02  0.00000000000E+00 0. -1.
         -5    1    5    5    0  503  0.49415538204E+02 -0.29490250382E+02 -0.21057801231E+02  0.61458044846E+02  0.47000000000E+01 0.  1.
         13    1    6    6    0    0 -0.35450623049E+02 -0.70226074567E+02 -0.78147051621E+01  0.79053892001E+02  0.00000000000E+00 0. -1.
        -14    1    6    6    0    0  0.17582324913E+02 -0.24988152660E+03  0.19878354405E+02  0.25128681712E+03  0.00000000000E+00 0.  1.
</event>
<event>
12    1  0.8798177E-003  0.2015781E+03  0.7818608E-02  0.1148436E+00
         21   -1    0    0  501  502  0.00000000000E+00  0.00000000000E+00  0.34723716649E+03  0.34723716649E+03  0.00000000000E+00 0. -1.
         21   -1    0    0  502  503 -0.00000000000E+00 -0.00000000000E+00 -0.11918672074E+03  0.11918672074E+03  0.00000000000E+00 0. -1.
          6    2    1    2  501    0  0.16752358364E+02  0.10548977893E+03  0.82170693332E+02  0.21768265671E+03  0.17095315504E+03 0.  0.
         24    2    3    3    0    0  0.54714171519E+02  0.91337132886E+01  0.30930667691E+02  0.10204001374E+03  0.79864841562E+02 0.  0.
         -6    2    1    2    0  503 -0.16752358364E+02 -0.10548977893E+03  0.14587975242E+03  0.24874123053E+03  0.17082904505E+03 0.  0.
        -24    2    5    5    0    0 -0.56241977469E+02 -0.10772414952E+03  0.14912028890E+03  0.20877857915E+03  0.81141740980E+02 0.  0.
          5    1    3    3  501    0 -0.37961813156E+02  0.96356065637E+02  0.51240025642E+02  0.11564264296E+03  0.47000000000E+01 0. -1.
        -13    1    4    4    0    0  0.70983592698E+02  0.22825006591E+02  0.31065891438E+02  0.80775868729E+02  0.00000000000E+00 0.  1.
         14    1    4    4    0    0 -0.16269421179E+02 -0.13691293302E+02 -0.13522374709E+00  0.21264145015E+02  0.00000000000E+00 0. -1.
         -5    1    5    5    0  503  0.39489619106E+02  0.22343705930E+01 -0.32405364794E+01  0.39962651385E+02  0.47000000000E+01 0.  1.
         11    1    6    6    0    0 -0.25789691629E+02 -0.25679533101E+02  0.10427476666E+03  0.11044353117E+03  0.00000000000E+00 0. -1.
        -12    1    6    6    0    0 -0.30452285840E+02 -0.82044616418E+02  0.44845522240E+02  0.98335047979E+02  0.00000000000E+00 0.  1.
</event>
<event>
12    1  0.8798177E-003  0.1904766E+03  0.7818608E-02  0.1158189E+00
         21   -1    0    0  501  502  0.00000000000E+00  0.00000000000E+00  0.11613213652E+03  0.11613213652E+03  0.00000000000E+00 0.  1.
         21   -1    0    0  502  503 -0.00000000000E+00 -0.00000000000E+00 -0.37484838278E+03  0.37484838278E+03  0.00000000000E+00 0.  1.
          6    2    1    2  501    0  0.61085780972E+02 -0.53325075086E+02 -0.28457098096E+02  0.19259058796E+03  0.17235513300E+03 0.  0.
         24    2    3    3    0    0  0.74958105833E+02  0.22834106524E+02 -0.26778142260E+02  0.11501758214E+03  0.79823939058E+02 0.  0.
         -6    2    1    2    0  503 -0.61085780972E+02  0.53325075086E+02 -0.23025914816E+03  0.29838993133E+03  0.17158741078E+03 0.  0.
        -24    2    5    5    0    0 -0.10310694875E+03  0.53061937116E+02 -0.13862023469E+03  0.19746605781E+03  0.79565460289E+02 0.  0.
          5    1    3    3  501    0 -0.13872324861E+02 -0.76159181610E+02 -0.16789558359E+01  0.77573005828E+02  0.47000000000E+01 0. -1.
        -13    1    4    4    0    0  0.83009267445E+01  0.20514497063E+02  0.22904814876E+02  0.31849340951E+02  0.00000000000E+00 0.  1.
         14    1    4    4    0    0  0.66657179089E+02  0.23196094615E+01 -0.49682957135E+02  0.83168241185E+02  0.00000000000E+00 0. -1.
         -5    1    5    5    0  503  0.42021167782E+02  0.26313796923E+00 -0.91638913478E+02  0.10092387352E+03  0.47000000000E+01 0.  1.
         11    1    6    6    0    0  0.44090876363E+01  0.93609093351E+01  0.60580138674E+01  0.11990254767E+02  0.00000000000E+00 0. -1.
        -12    1    6    6    0    0 -0.10751603639E+03  0.43701027781E+02 -0.14467824855E+03  0.18547580304E+03  0.00000000000E+00 0.  1.
</event>
<event>
12    1  0.8798177E-003  0.1934717E+03  0.7818608E-02  0.1155575E+00
         21   -1    0    0  501  502  0.00000000000E+00  0.00000000000E+00  0.30162170282E+03  0.30162170282E+03  0.00000000000E+00 0. -1.
         21   -1    0    0  502  503 -0.00000000000E+00 -0.00000000000E+00 -0.13162734212E+03  0.13162734212E+03  0.00000000000E+00 0. -1.
          6    2    1    2  501    0  0.31488206784E+01 -0.87089507255E+02  0.13864416233E+03  0.23725383952E+03  0.17167609990E+03 0.  0.
         24    2    3    3    0    0  0.17220692425E+02 -0.91469945795E+02  0.30212777229E+02  0.12772456905E+03  0.82081973663E+02 0.  0.
         -6    2    1    2    0  503 -0.31488206784E+01  0.87089507255E+02  0.31350198376E+02  0.19599520542E+03  0.17273328650E+03 0.  0.
        -24    2    5    5    0    0  0.36063362585E+02  0.47222062545E+02  0.69002482239E+02  0.12841715467E+03  0.90549068163E+02 0.  0.
          5    1    3    3  501    0 -0.14071871747E+02  0.43804385402E+01  0.10843138510E+03  0.10952927047E+03  0.47000000000E+01 0. -1.
        -11    1    4    4    0    0 -0.22074607520E+02 -0.69750605622E+01 -0.11240489450E+02  0.25734963961E+02  0.00000000000E+00 0.  1.
         12    1    4    4    0    0  0.39295299945E+02 -0.84494885233E+02  0.41453266679E+02  0.10198960509E+03  0.00000000000E+00 0. -1.
         -5    1    5    5    0  503 -0.39212183263E+02  0.39867444710E+02 -0.37652283863E+02  0.67578050757E+02  0.47000000000E+01 0.  1.
         11    1    6    6    0    0  0.22861124258E+02  0.38958856139E+02 -0.11345065476E+02  0.46573962518E+02  0.00000000000E+00 0. -1.
        -12    1    6    6    0    0  0.13202238327E+02  0.82632064058E+01  0.80347547715E+02  0.81843192147E+02  0.00000000000E+00 0.  1.
</event>
<event>
12    1  0.8798177E-003  0.2536903E+03  0.7818608E-02  0.1111572E+00
         21   -1    0    0  501  502  0.00000000000E+00  0.00000000000E+00  0.87024067004E+02  0.87024067004E+02  0.00000000000E+00 0.  1.
         21   -1    0    0  502  503 -0.00000000000E+00 -0.00000000000E+00 -0.78261045679E+03  0.78261045679E+03  0.00000000000E+00 0. -1.
          6    2    1    2  501    0 -0.39604329177E+01  0.18501119359E+03 -0.45941013282E+03  0.52302524812E+03  0.16808602932E+03 0.  0.
         24    2    3    3    0    0 -0.50392311917E+02  0.47953427893E+02 -0.19268777394E+03  0.21953940455E+03  0.78930701095E+02 0.  0.
         -6    2    1    2    0  503  0.39604329177E+01 -0.18501119359E+03 -0.23617625697E+03  0.34660927567E+03  0.17353368217E+03 0.  0.
        -24    2    5    5    0    0  0.10664078850E+02 -0.81922322343E+02 -0.34805602687E+02  0.12023682892E+03  0.80127870150E+02 0.  0.
          5    1    3    3  501    0  0.46431878999E+02  0.13705776570E+03 -0.26672235888E+03  0.30348584357E+03  0.47000000000E+01 0. -1.
        -11    1    4    4    0    0 -0.32486647997E+02  0.65302779831E+02 -0.17308074895E+03  0.18782114100E+03  0.00000000000E+00 0.  1.
         12    1    4    4    0    0 -0.17905663920E+02 -0.17349351938E+02 -0.19607024995E+02  0.31718263544E+02  0.00000000000E+00 0. -1.
         -5    1    5    5    0  503 -0.67036459325E+01 -0.10308887125E+03 -0.20137065428E+03  0.22637244675E+03  0.47000000000E+01 0.  1.
         11    1    6    6    0    0  0.57246046664E+01  0.16001072857E+02 -0.39348476885E+01  0.17443865899E+02  0.00000000000E+00 0. -1.
        -12    1    6    6    0    0  0.49394741838E+01 -0.97923395200E+02 -0.30870754999E+02  0.10279296302E+03  0.00000000000E+00 0.  1.
</event>
<event>
12    1  0.8798177E-003  0.2643010E+03  0.7818608E-02  0.1104839E+00
         21   -1    0    0  501  502  0.00000000000E+00  0.00000000000E+00  0.84042128214E+03  0.84042128214E+03  0.00000000000E+00 0.  1.
         21   -1    0    0  502  503 -0.00000000000E+00 -0.00000000000E+00 -0.84526312033E+02  0.84526312033E+02  0.00000000000E+00 0. -1.
          6    2    1    2  501    0  0.17860966545E+03 -0.91349385819E+02  0.30659861550E+03  0.40367777564E+03  0.16943114423E+03 0.  0.
         24    2    3    3    0    0  0.11746579703E+03 -0.90684333990E+02  0.29701334439E+03  0.34160537951E+03  0.80345794311E+02 0.  0.
         -6    2    1    2    0  503 -0.17860966545E+03  0.91349385819E+02  0.44929635460E+03  0.52126981853E+03  0.17207232948E+03 0.  0.
        -24    2    5    5    0    0 -0.17943253085E+03  0.57379977114E+02  0.27013405826E+03  0.33885321769E+03  0.79753362308E+02 0.  0.
          5    1    3    3  501    0  0.61143868415E+02 -0.66505182891E+00  0.95852711160E+01  0.62072396127E+02  0.47000000000E+01 0. -1.
        -13    1    4    4    0    0  0.77181013753E+02 -0.52960666970E+02  0.99853184339E+02  0.13686635654E+03  0.00000000000E+00 0.  1.
         14    1    4    4    0    0  0.40284783280E+02 -0.37723667020E+02  0.19716016005E+03  0.20473902297E+03  0.00000000000E+00 0. -1.
         -5    1    5    5    0  503  0.82286540796E+00  0.33969408705E+02  0.17916229634E+03  0.18241660085E+03  0.47000000000E+01 0.  1.
         11    1    6    6    0    0 -0.10460473136E+03  0.73622753969E+02  0.17366069150E+03  0.21568610409E+03  0.00000000000E+00 0. -1.
        -12    1    6    6    0    0 -0.74827799492E+02 -0.16242776854E+02  0.96473366764E+02  0.12316711360E+03  0.00000000000E+00 0.  1.
</event>
<event>
12    1  0.8798177E-003  0.1933155E+03  0.7818608E-02  0.1156865E+00
         21   -1    0    0  501  502  0.00000000000E+00  0.00000000000E+00  0.28838300862E+03  0.28838300862E+03  0.00000000000E+00 0.  1.
         21   -1    0    0  502  503 -0.00000000000E+00 -0.00000000000E+00 -0.13102565929E+03  0.13102565929E+03  0.00000000000E+00 0. -1.
          6    2    1    2  501    0 -0.84143595453E+02  0.99189086975E+01  0.12273885886E+03  0.22898846775E+03  0.17375949322E+03 0.  0.
         24    2    3    3    0    0 -0.76354446222E+02 -0.24797506553E+02  0.14503545421E+03  0.18673768672E+03  0.85969546206E+02 0.  0.
         -6    2    1    2    0  503  0.84143595453E+02 -0.99189086975E+01  0.34618490467E+02  0.19042020016E+03  0.16698168564E+03 0.  0.
        -24    2    5    5    0    0 -0.33296924140E+00 -0.24158534786E+02 -0.22827783242E+02  0.87167009905E+02  0.80580607199E+02 0.  0.
          5    1    3    3  501    0 -0.77891492318E+01  0.34716415250E+02 -0.22296595352E+02  0.42250781033E+02  0.47000000000E+01 0. -1.
        -13    1    4    4    0    0  0.65552439505E+01 -0.33036034200E+02  0.33349666541E+02  0.47397795701E+02  0.00000000000E+00 0.  1.
         14    1    4    4    0    0 -0.82909690172E+02  0.82385276472E+01  0.11168578767E+03  0.13933989102E+03  0.00000000000E+00 0. -1.
         -5    1    5    5    0  503  0.84476564695E+02  0.14239626089E+02  0.57446273708E+02  0.10325319025E+03  0.47000000000E+01 0.  1.
         11    1    6    6    0    0  0.23345319392E+02 -0.45407839123E+02 -0.21279102709E+02  0.55314338137E+02  0.00000000000E+00 0. -1.
        -12    1    6    6    0    0 -0.23678288634E+02  0.21249304337E+02 -0.15486805323E+01  0.31852671769E+02  0.00000000000E+00 0.  1.
</event>
<event>
12    1  0.8798177E-003  0.1900558E+03  0.7818608E-02  0.1158774E+00
         21   -1    0    0  501  502  0.00000000000E+00  0.00000000000E+00  0.56702422717E+03  0.56702422717E+03  0.00000000000E+00 0. -1.
         21   -1    0    0  502  503 -0.00000000000E+00 -0.00000000000E+00 -0.75767137714E+02  0.75767137714E+02  0.00000000000E+00 0. -1.
          6    2    1    2  501    0  0.62519864519E+02  0.48380657415E+02  0.37755873121E+03  0.42269588154E+03  0.17283457780E+03 0.  0.
         24    2    3    3    0    0  0.60774712318E+02 -0.34377189592E+02  0.17975591107E+03  0.20821988648E+03  0.78536467593E+02 0.  0.
         -6    2    1    2    0  503 -0.62519864519E+02 -0.48380657415E+02  0.11369835824E+03  0.22009548335E+03  0.17107099009E+03 0.  0.
        -24    2    5    5    0    0 -0.19057512532E+02 -0.64564111893E+02  0.93006471650E+01  0.10576328177E+03  0.81041078499E+02 0.  0.
          5    1    3    3  501    0  0.17451522019E+01  0.82757847008E+02  0.19780282015E+03  0.21447599506E+03  0.47000000000E+01 0. -1.
        -11    1    4    4    0    0  0.34246656865E+02 -0.50659865585E+00  0.14050293510E+02  0.37020276827E+02  0.00000000000E+00 0.  1.
         12    1    4    4    0    0  0.26528055453E+02 -0.33870590937E+02  0.16570561756E+03  0.17119960966E+03  0.00000000000E+00 0. -1.
         -5    1    5    5    0  503 -0.43462351987E+02  0.16183454478E+02  0.10439771108E+03  0.11433220158E+03  0.47000000000E+01 0.  1.
         13    1    6    6    0    0 -0.51096789037E+02 -0.41144910928E+02  0.75849473382E+01  0.66040267802E+02  0.00000000000E+00 0. -1.
        -14    1    6    6    0    0  0.32039276504E+02 -0.23419200965E+02  0.17156998267E+01  0.39723013967E+02  0.00000000000E+00 0.  1.
</event>
<event>
12    1  0.8798177E-003  0.2359913E+03  0.7818608E-02  0.1125010E+00
         21   -1    0    0  503  502  0.00000000000E+00  0.00000000000E+00  0.11476624135E+03  0.11476624135E+03  0.00000000000E+00 0.  1.
         21   -1    0    0  501  503 -0.00000000000E+00 -0.00000000000E+00 -0.46637613928E+03  0.46637613928E+03  0.00000000000E+00 0. -1.
          6    2    1    2  501    0 -0.34717787556E+02  0.13511389810E+03 -0.21312389330E+03  0.30751810387E+03  0.17229190370E+03 0.  0.
         24    2    3    3    0    0  0.11281056955E+02  0.99620771505E+02 -0.55898886739E+02  0.13983552153E+03  0.79860673565E+02 0.  0.
         -6    2    1    2    0  502  0.34717787556E+02 -0.13511389810E+03 -0.13848600463E+03  0.27362427675E+03  0.19034384970E+03 0.  0.
        -24    2    5    5    0    0  0.69907775154E+01 -0.94706057763E+02 -0.17258063389E+03  0.21374010196E+03  0.82961723964E+02 0.  0.
          5    1    3    3  501    0 -0.45998844511E+02  0.35493126593E+02 -0.15722500656E+03  0.16768258234E+03  0.47000000000E+01 0. -1.
        -11    1    4    4    0    0  0.49100915846E+01  0.78981773535E+02 -0.76442738282E+02  0.11002600505E+03  0.00000000000E+00 0.  1.
         12    1    4    4    0    0  0.63709653707E+01  0.20638997970E+02  0.20543851543E+02  0.29809516487E+02  0.00000000000E+00 0. -1.
         -5    1    5    5    0  502  0.27727010040E+02 -0.40407840335E+02  0.34094629262E+02  0.59884174795E+02  0.47000000000E+01 0.  1.
         11    1    6    6    0    0  0.24797612282E+01 -0.79308636957E+02 -0.58612290174E+02  0.98647907586E+02  0.00000000000E+00 0. -1.
        -12    1    6    6    0    0  0.45110162872E+01 -0.15397420807E+02 -0.11396834372E+03  0.11509219437E+03  0.00000000000E+00 0.  1.
</event>
<event>
12    1  0.8798177E-003  0.1931526E+03  0.7818608E-02  0.1156086E+00
         21   -1    0    0  503  502  0.00000000000E+00  0.00000000000E+00  0.33383278968E+02  0.33383278968E+02  0.00000000000E+00 0. -1.
         21   -1    0    0  501  503 -0.00000000000E+00 -0.00000000000E+00 -0.11139349384E+04  0.11139349384E+04  0.00000000000E+00 0. -1.
          6    2    1    2  501    0 -0.84063856841E+02 -0.22671886171E+02 -0.59085592006E+03  0.62162579366E+03  0.17241566814E+03 0.  0.
         24    2    3    3    0    0 -0.10337293988E+02  0.24961879339E+02 -0.15315489964E+03  0.17518559053E+03  0.80644979880E+02 0.  0.
         -6    2    1    2    0  502  0.84063856841E+02  0.22671886171E+02 -0.48969573932E+03  0.52569242366E+03  0.17020534873E+03 0.  0.
        -24    2    5    5    0    0  0.16491676173E+02  0.21210859108E+02 -0.10497016085E+03  0.13504681069E+03  0.80604159214E+02 0.  0.
          5    1    3    3  501    0 -0.73726562853E+02 -0.47633765510E+02 -0.43770102043E+03  0.44644020313E+03  0.47000000000E+01 0. -1.
        -11    1    4    4    0    0  0.21412016414E+02  0.18189901137E+01 -0.12504093961E+03  0.12687403103E+03  0.00000000000E+00 0.  1.
         12    1    4    4    0    0 -0.31749310402E+02  0.23142889225E+02 -0.28113960024E+02  0.48311559496E+02  0.00000000000E+00 0. -1.
         -5    1    5    5    0  502  0.67572180668E+02  0.14610270637E+01 -0.38472557848E+03  0.39064561297E+03  0.47000000000E+01 0.  1.
         11    1    6    6    0    0 -0.15047027545E+02  0.40982875667E+02 -0.35649129184E+02  0.56363725458E+02  0.00000000000E+00 0. -1.
        -12    1    6    6    0    0  0.31538703718E+02 -0.19772016559E+02 -0.69321031664E+02  0.78683085234E+02  0.00000000000E+00 0.  1.
</event>
<event>
12    1  0.8798177E-003  0.2220452E+03  0.7818608E-02  0.1132830E+00
         21   -1    0    0  503  502  0.00000000000E+00  0.00000000000E+00  0.63971577174E+02  0.63971577174E+02  0.00000000000E+00 0. -1.
         21   -1    0    0  501  503 -0.00000000000E+00 -0.00000000000E+00 -0.98379962899E+03  0.98379962899E+03  0.00000000000E+00 0. -1.
          6    2    1    2  501    0  0.81364744632E+02 -0.11282278121E+03 -0.20919371929E+03  0.30325443445E+03  0.16985887729E+03 0.  0.
         24    2    3    3    0    0 -0.16989926499E+02 -0.79757203275E+02 -0.93162064746E+02  0.14752258596E+03  0.80211432998E+02 0.  0.
         -6    2    1    2    0  502 -0.81364744632E+02  0.11282278121E+03 -0.71063433253E+03  0.74451677172E+03  0.17307474447E+03 0.  0.
        -24    2    5    5    0    0 -0.10260781608E+03  0.10241226246E+03 -0.40866069214E+03  0.44158143791E+03  0.83510296236E+02 0.  0.
          5    1    3    3  501    0  0.98354671132E+02 -0.33065577936E+02 -0.11603165455E+03  0.15573184849E+03  0.47000000000E+01 0. -1.
        -11    1    4    4    0    0 -0.12904022619E+02 -0.39733465456E+02 -0.98447892655E+02  0.10694507770E+03  0.00000000000E+00 0.  1.
         12    1    4    4    0    0 -0.40859038798E+01 -0.40023737819E+02  0.52858279088E+01  0.40577508255E+02  0.00000000000E+00 0. -1.
         -5    1    5    5    0  502  0.21243071444E+02  0.10410518755E+02 -0.30197364038E+03  0.30293533381E+03  0.47000000000E+01 0.  1.
         11    1    6    6    0    0 -0.26317647967E+02  0.84718437380E+02 -0.20433834183E+03  0.22276442752E+03  0.00000000000E+00 0. -1.
        -12    1    6    6    0    0 -0.76290168110E+02  0.17693825077E+02 -0.20432235031E+03  0.21881701038E+03  0.00000000000E+00 0.  1.
</event>
<event>
12    1  0.8798177E-003  0.1794969E+03  0.7818608E-02  0.1169403E+00
         21   -1    0    0  501  502  0.00000000000E+00  0.00000000000E+00  0.50183770529E+03  0.50183770529E+03  0.00000000000E+00 0. -1.
         21   -1    0    0  502  503 -0.00000000000E+00 -0.00000000000E+00 -0.64523769893E+02  0.64523769893E+02  0.00000000000E+00 0. -1.
          6    2    1    2  501    0  0.31201534527E+02  0.49501557739E+01  0.17242766484E+03  0.24889847373E+03  0.17669496547E+03 0.  0.
         24    2    3    3    0    0 -0.39275064400E+02 -0.33153663100E+02  0.11617183564E+03  0.15089000303E+03  0.81426049636E+02 0.  0.
         -6    2    1    2    0  503 -0.31201534527E+02 -0.49501557739E+01  0.26488627055E+03  0.31746300145E+03  0.17210456462E+03 0.  0.
        -24    2    5    5    0    0 -0.53125990812E+02  0.47473268220E+01  0.27483550712E+03  0.29108497536E+03  0.79693154613E+02 0.  0.
          5    1    3    3  501    0  0.70476598927E+02  0.38103818874E+02  0.56255829200E+02  0.98008470695E+02  0.47000000000E+01 0. -1.
        -11    1    4    4    0    0 -0.31157715401E+02 -0.15980295407E+02  0.12509487076E+03  0.12990342474E+03  0.00000000000E+00 0.  1.
         12    1    4    4    0    0 -0.81173489988E+01 -0.17173367693E+02 -0.89230351174E+01  0.20986578292E+02  0.00000000000E+00 0. -1.
         -5    1    5    5    0  503  0.21924456285E+02 -0.96974825959E+01 -0.99492365693E+01  0.26378026090E+02  0.47000000000E+01 0.  1.
         11    1    6    6    0    0  0.81986806356E+01  0.24647314459E+02  0.12967261614E+03  0.13224861379E+03  0.00000000000E+00 0. -1.
        -12    1    6    6    0    0 -0.61324671448E+02 -0.19899987637E+02  0.14516289098E+03  0.15883636156E+03  0.00000000000E+00 0.  1.
</event>
<event>
12    1  0.8798177E-003  0.1967369E+03  0.7818608E-02  0.1154162E+00
         21   -1    0    0  501  502  0.00000000000E+00  0.00000000000E+00  0.25751914966E+02  0.25751914966E+02  0.00000000000E+00 0. -1.
         21   -1    0    0  502  503 -0.00000000000E+00 -0.00000000000E+00 -0.14749642487E+04  0.14749642487E+04  0.00000000000E+00 0.  1.
          6    2    1    2  501    0 -0.17026563305E+02  0.76264852624E+02 -0.63424727504E+03  0.66405948347E+03  0.18055237491E+03 0.  0.
         24    2    3    3    0    0  0.37424510419E+02  0.83680427778E+01 -0.47794953837E+03  0.48510147525E+03  0.73600692541E+02 0.  0.
         -6    2    1    2    0  503  0.17026563305E+02 -0.76264852624E+02 -0.81496505866E+03  0.83665668017E+03  0.17239524942E+03 0.  0.
        -24    2    5    5    0    0 -0.57885806419E+02 -0.43506546936E+02 -0.45474886899E+03  0.46724801346E+03  0.79250148463E+02 0.  0.
          5    1    3    3  501    0 -0.54451073723E+02  0.67896809847E+02 -0.15629773667E+03  0.17895800822E+03  0.47000000000E+01 0. -1.
        -11    1    4    4    0    0  0.61335178745E+01  0.33074632668E+02 -0.33536412666E+03  0.33704695343E+03  0.00000000000E+00 0.  1.
         12    1    4    4    0    0  0.31290992544E+02 -0.24706589890E+02 -0.14258541171E+03  0.14805452182E+03  0.00000000000E+00 0. -1.
         -5    1    5    5    0  503  0.74912369724E+02 -0.32758305689E+02 -0.36021618968E+03  0.36940866670E+03  0.47000000000E+01 0.  1.
         13    1    6    6    0    0 -0.37405279354E+02  0.17187852937E+02 -0.13462097850E+03  0.14077423438E+03  0.00000000000E+00 0. -1.
        -14    1    6    6    0    0 -0.20480527065E+02 -0.60694399873E+02 -0.32012789048E+03  0.32647377908E+03  0.00000000000E+00 0.  1.
</event>
<event>
12    1  0.8798177E-003  0.1854335E+03  0.7818608E-02  0.1162955E+00
         21   -1    0    0  503  502  0.00000000000E+00  0.00000000000E+00  0.22588827701E+03  0.22588827701E+03  0.00000000000E+00 0. -1.
         21   -1    0    0  501  503 -0.00000000000E+00 -0.00000000000E+00 -0.18662893199E+03  0.18662893199E+03  0.00000000000E+00 0. -1.
          6    2    1    2  501    0  0.20017828819E+02  0.62907710159E+02 -0.70370558750E+02  0.19710061612E+03  0.17186780928E+03 0.  0.
         24    2    3    3    0    0  0.66992929251E+02  0.21392010303E+02 -0.96686870970E+01  0.10971056739E+03  0.83649593016E+02 0.  0.
         -6    2    1    2    0  502 -0.20017828819E+02 -0.62907710159E+02  0.10962990377E+03  0.21541659288E+03  0.17328444598E+03 0.  0.
        -24    2    5    5    0    0 -0.56208516354E+01 -0.85700821228E+02  0.13536001270E+03  0.17785427972E+03  0.77029780224E+02 0.  0.
          5    1    3    3  501    0 -0.46975100431E+02  0.41515699855E+02 -0.60701871653E+02  0.87390048731E+02  0.47000000000E+01 0. -1.
        -13    1    4    4    0    0  0.70095483623E+02 -0.44705666241E+01  0.17173926486E+02  0.72307029681E+02  0.00000000000E+00 0.  1.
         14    1    4    4    0    0 -0.31025543723E+01  0.25862576927E+02 -0.26842613583E+02  0.37403537706E+02  0.00000000000E+00 0. -1.
         -5    1    5    5    0  502 -0.14396977184E+02  0.22793111069E+02 -0.25730108936E+02  0.37562313163E+02  0.47000000000E+01 0.  1.
         11    1    6    6    0    0  0.30396587589E+02 -0.11050225132E+02  0.42003148169E+02  0.53012493515E+02  0.00000000000E+00 0. -1.
        -12    1    6    6    0    0 -0.36017439225E+02 -0.74650596096E+02  0.93356864536E+02  0.12484178620E+03  0.00000000000E+00 0.  1.
</event>
<event>
12    1  0.8798177E-003  0.2239750E+03  0.7818608E-02  0.1131202E+00
         21   -1    0    0  503  502  0.00000000000E+00  0.00000000000E+00  0.48391309697E+03  0.48391309697E+03  0.00000000000E+00 0.  1.
         21   -1    0    0  501  503 -0.00000000000E+00 -0.00000000000E+00 -0.21183254788E+03  0.21183254788E+03  0.00000000000E+00 0.  1.
          6    2    1    2  501    0 -0.11396608735E+03 -0.87537860263E+02 -0.11306192301E+03  0.25089397104E+03  0.17179534401E+03 0.  0.
         24    2    3    3    0    0  0.13086691667E+02 -0.24715232727E+02 -0.41117215430E+02  0.91874405780E+02  0.77253975983E+02 0.  0.
         -6    2    1    2    0  502  0.11396608735E+03  0.87537860263E+02  0.38514247210E+03  0.44485167382E+03  0.17002100412E+03 0.  0.
        -24    2    5    5    0    0  0.10769925845E+03  0.83991960304E+01  0.29831372858E+03  0.32710821531E+03  0.79618007378E+02 0.  0.
          5    1    3    3  501    0 -0.12705277902E+03 -0.62822627535E+02 -0.71944707577E+02  0.15901956526E+03  0.47000000000E+01 0. -1.
        -11    1    4    4    0    0 -0.27639294727E+02  0.28708151050E+01 -0.38391965382E-01  0.27788012997E+02  0.00000000000E+00 0.  1.
         12    1    4    4    0    0  0.40725986394E+02 -0.27586047832E+02 -0.41078823465E+02  0.64086392784E+02  0.00000000000E+00 0. -1.
         -5    1    5    5    0  502  0.62668289035E+01  0.79138664232E+02  0.86828743514E+02  0.11774345851E+03  0.47000000000E+01 0.  1.
         11    1    6    6    0    0  0.38926903137E+02 -0.32870170958E+02  0.83575886644E+02  0.97880951952E+02  0.00000000000E+00 0. -1.
        -12    1    6    6    0    0  0.68772355312E+02  0.41269366989E+02  0.21473784194E+03  0.22922726336E+03  0.00000000000E+00 0.  1.
</event>
<event>
12    1  0.8798177E-003  0.3434472E+03  0.7818608E-02  0.1065422E+00
         21   -1    0    0  501  502  0.00000000000E+00  0.00000000000E+00  0.15438311522E+04  0.15438311522E+04  0.00000000000E+00 0.  1.
         21   -1    0    0  502  503 -0.00000000000E+00 -0.00000000000E+00 -0.12943090771E+03  0.12943090771E+03  0.00000000000E+00 0. -1.
          6    2    1    2  501    0  0.21032073898E+03  0.20904035410E+03  0.12431180505E+04  0.12894736543E+04  0.17165993931E+03 0.  0.
         24    2    3    3    0    0  0.12108241482E+03  0.39992003312E+02  0.52522408929E+03  0.54655060785E+03  0.81221373191E+02 0.  0.
         -6    2    1    2    0  503 -0.21032073898E+03 -0.20904035410E+03  0.17128219395E+03  0.38378840556E+03  0.17327223491E+03 0.  0.
        -24    2    5    5    0    0 -0.21922051855E+03 -0.16749167810E+03  0.10923638822E+03  0.30844074095E+03  0.84214037911E+02 0.  0.
          5    1    3    3  501    0  0.89238324160E+02  0.16904835079E+03  0.71789396122E+03  0.74292304645E+03  0.47000000000E+01 0. -1.
        -11    1    4    4    0    0  0.10033970584E+01  0.18976311206E+02  0.16858578214E+03  0.16965339116E+03  0.00000000000E+00 0.  1.
         12    1    4    4    0    0  0.12007901776E+03  0.21015692106E+02  0.35663830715E+03  0.37689721669E+03  0.00000000000E+00 0. -1.
         -5    1    5    5    0  503  0.88997795725E+01 -0.41548676002E+02  0.62045805724E+02  0.75347664608E+02  0.47000000000E+01 0.  1.
         13    1    6    6    0    0 -0.27739168010E+02  0.73841924155E+01  0.59906701718E+01  0.29323640099E+02  0.00000000000E+00 0. -1.
        -14    1    6    6    0    0 -0.19148135054E+03 -0.17487587052E+03  0.10324571805E+03  0.27911710085E+03  0.00000000000E+00 0.  1.
</event>
<event>
12    1  0.8798177E-003  0.1949984E+03  0.7818608E-02  0.1154132E+00
         21   -1    0    0  503  502  0.00000000000E+00  0.00000000000E+00  0.60646496889E+03  0.60646496889E+03  0.00000000000E+00 0. -1.
         21   -1    0    0  501  503 -0.00000000000E+00 -0.00000000000E+00 -0.65776229089E+02  0.65776229089E+02  0.00000000000E+00 0.  1.
          6    2    1    2  501    0 -0.64558825343E+02 -0.63368231799E+02  0.19617606591E+03  0.27660338462E+03  0.17274550303E+03 0.  0.
         24    2    3    3    0    0 -0.90441647172E+02 -0.78851440910E+02  0.98800050187E+02  0.17455521625E+03  0.79440747260E+02 0.  0.
         -6    2    1    2    0  502  0.64558825343E+02  0.63368231799E+02  0.34451267389E+03  0.39563781335E+03  0.17221185254E+03 0.  0.
        -24    2    5    5    0    0  0.20265829153E+02 -0.36627152402E+01  0.28204638441E+03  0.29375972595E+03  0.79501536570E+02 0.  0.
          5    1    3    3  501    0  0.25882821828E+02  0.15483209111E+02  0.97376015726E+02  0.10204816838E+03  0.47000000000E+01 0. -1.
        -11    1    4    4    0    0  0.13670968740E+02 -0.15928762787E+02  0.69055412413E+01  0.22097677934E+02  0.00000000000E+00 0.  1.
         12    1    4    4    0    0 -0.10411261591E+03 -0.62922678123E+02  0.91894508946E+02  0.15245753831E+03  0.00000000000E+00 0. -1.
         -5    1    5    5    0  502  0.44292996190E+02  0.67030947039E+02  0.62466289476E+02  0.10187808741E+03  0.47000000000E+01 0.  1.
         11    1    6    6    0    0  0.18866808406E+02  0.36923034880E+02  0.13727856610E+03  0.14340387608E+03  0.00000000000E+00 0. -1.
        -12    1    6    6    0    0  0.13990207475E+01 -0.40585750120E+02  0.14476781831E+03  0.15035584987E+03  0.00000000000E+00 0.  1.
</event>
<event>
12    1  0.8798177E-003  0.1889712E+03  0.7818608E-02  0.1159511E+00
         21   -1    0    0  501  502  0.00000000000E+00  0.00000000000E+00  0.31457185435E+03  0.31457185435E+03  0.00000000000E+00 0. -1.
         21   -1    0    0  502  503 -0.00000000000E+00 -0.00000000000E+00 -0.12315276862E+03  0.12315276862E+03  0.00000000000E+00 0.  1.
          6    2    1    2  501    0 -0.78793061082E+02  0.83044474800E+00  0.15802638491E+03  0.24633810531E+03  0.17175880672E+03 0.  0.
         24    2    3    3    0    0 -0.16978846711E+02  0.34193527393E+02  0.12918893386E+03  0.17026063844E+03  0.10412216776E+03 0.  0.
         -6    2    1    2    0  503  0.78793061082E+02 -0.83044474800E+00  0.33392700818E+02  0.19138651766E+03  0.17118612842E+03 0.  0.
        -24    2    5    5    0    0  0.45032794956E+02 -0.57488089715E+02 -0.15395256334E+02  0.10921475204E+03  0.79737162386E+02 0.  0.
          5    1    3    3  501    0 -0.61814214370E+02 -0.33363082645E+02  0.28837451060E+02  0.76077466870E+02  0.47000000000E+01 0. -1.
        -13    1    4    4    0    0  0.93794114159E+01 -0.25400929928E+02  0.17569681625E+01  0.27134250254E+02  0.00000000000E+00 0.  1.
         14    1    4    4    0    0 -0.26358258127E+02  0.59594457320E+02  0.12743196569E+03  0.14312638819E+03  0.00000000000E+00 0. -1.
         -5    1    5    5    0  503  0.33760266126E+02  0.56657644967E+02  0.48787957152E+02  0.82171765620E+02  0.47000000000E+01 0.  1.
         11    1    6    6    0    0 -0.17469364091E+02  0.42666693930E+00  0.10213336425E+02  0.20240379625E+02  0.00000000000E+00 0. -1.
        -12    1    6    6    0    0  0.62502159048E+02 -0.57914756654E+02 -0.25608592759E+02  0.88974372417E+02  0.00000000000E+00 0.  1.
</event>
<event>
12    1  0.8798177E-003  0.1786956E+03  0.7818608E-02  0.1170309E+00
         21   -1    0    0  503  502  0.00000000000E+00  0.00000000000E+00  0.50876569020E+03  0.50876569020E+03  0.00000000000E+00 0.  1.
         21   -1    0    0  501  503 -0.00000000000E+00 -0.00000000000E+00 -0.61224490765E+02  0.61224490765E+02  0.00000000000E+00 0.  1.
          6    2    1    2  501    0  0.28768345419E+02 -0.11547704007E+02  0.23696165690E+03  0.29380935565E+03  0.17091560333E+03 0.  0.
         24    2    3    3    0    0  0.45095645999E+02  0.49853742721E+01  0.48642666705E+02  0.10400404621E+03  0.79951618871E+02 0.  0.
         -6    2    1    2    0  502 -0.28768345419E+02  0.11547704007E+02  0.21057954253E+03  0.27618082531E+03  0.17598618517E+03 0.  0.
        -24    2    5    5    0    0 -0.51814383539E+02  0.48437712847E+02  0.68419089496E+02  0.12744052468E+03  0.80802061580E+02 0.  0.
          5    1    3    3  501    0 -0.16327300581E+02 -0.16533078279E+02  0.18831899019E+03  0.18980530943E+03  0.47000000000E+01 0. -1.
        -11    1    4    4    0    0  0.44360695161E+02  0.90341699629E+01  0.69390297253E+02  0.82852283342E+02  0.00000000000E+00 0.  1.
         12    1    4    4    0    0  0.73495083885E+00 -0.40487956908E+01 -0.20747630548E+02  0.21151762873E+02  0.00000000000E+00 0. -1.
         -5    1    5    5    0  502  0.23046038120E+02 -0.36890008840E+02  0.14216045303E+03  0.14874030063E+03  0.47000000000E+01 0.  1.
         11    1    6    6    0    0 -0.32215539996E+02 -0.89004379084E+01  0.56558181801E+02  0.65695408826E+02  0.00000000000E+00 0. -1.
        -12    1    6    6    0    0 -0.19598843543E+02  0.57338150756E+02  0.11860907695E+02  0.61745115853E+02  0.00000000000E+00 0.  1.
</event>
<event>
12    1  0.8798177E-003  0.2184981E+03  0.7818608E-02  0.1135237E+00
         21   -1    0    0  501  502  0.00000000000E+00  0.00000000000E+00  0.36401545534E+02  0.36401545534E+02  0.00000000000E+00 0. -1.
         21   -1    0    0  502  503 -0.00000000000E+00 -0.00000000000E+00 -0.13228045829E+04  0.13228045829E+04  0.00000000000E+00 0. -1.
          6    2    1    2  501    0 -0.10017507139E+03 -0.87724943466E+02 -0.56090025345E+03  0.60151508597E+03  0.17169913713E+03 0.  0.
         24    2    3    3    0    0  0.60812593942E+01 -0.73224972007E+02 -0.26208333160E+03  0.28400240939E+03  0.81060579785E+02 0.  0.
         -6    2    1    2    0  503  0.10017507139E+03  0.87724943466E+02 -0.72550278395E+03  0.75769104250E+03  0.17323601165E+03 0.  0.
        -24    2    5    5    0    0  0.76701098544E+02  0.12246025807E+03 -0.49139712672E+03  0.51981477586E+03  0.88637981326E+02 0.  0.
          5    1    3    3  501    0 -0.10625633078E+03 -0.14499971459E+02 -0.29881692186E+03  0.31751267659E+03  0.47000000000E+01 0. -1.
        -13    1    4    4    0    0  0.99061203305E+01  0.13481119430E+02 -0.86933143048E+02  0.88528205456E+02  0.00000000000E+00 0.  1.
         14    1    4    4    0    0 -0.38248609363E+01 -0.86706091437E+02 -0.17515018855E+03  0.19547420393E+03  0.00000000000E+00 0. -1.
         -5    1    5    5    0  503  0.23473972846E+02 -0.34735314603E+02 -0.23410565723E+03  0.23787626663E+03  0.47000000000E+01 0.  1.
         11    1    6    6    0    0  0.11735669859E+02  0.94102367666E+02 -0.22544349870E+03  0.24457668052E+03  0.00000000000E+00 0. -1.
        -12    1    6    6    0    0  0.64965428686E+02  0.28357890403E+02 -0.26595362801E+03  0.27523809534E+03  0.00000000000E+00 0.  1.
</event>
<event>
12    1  0.8798177E-003  0.1959261E+03  0.7818608E-02  0.1153408E+00
         21   -1    0    0  501  502  0.00000000000E+00  0.00000000000E+00  0.11372865173E+04  0.11372865173E+04  0.00000000000E+00 0.  1.
         21   -1    0    0  502  503 -0.00000000000E+00 -0.00000000000E+00 -0.33630020769E+02  0.33630020769E+02  0.00000000000E+00 0.  1.
          6    2    1    2  501    0 -0.80362291123E+02  0.43784647654E+02  0.53494574103E+03  0.56940264141E+03  0.17227080133E+03 0.  0.
         24    2    3    3    0    0  0.10003567196E+02  0.49079053194E+02  0.31852626640E+03  0.33476782285E+03  0.90009377352E+02 0.  0.
         -6    2    1    2    0  503  0.80362291123E+02 -0.43784647654E+02  0.56871075551E+03  0.60151389667E+03  0.17323928899E+03 0.  0.
        -24    2    5    5    0    0  0.10044640680E+03 -0.54643465212E+02  0.55930108012E+03  0.57637592515E+03  0.79474020515E+02 0.  0.
          5    1    3    3  501    0 -0.90365858319E+02 -0.52944055400E+01  0.21641947464E+03  0.23463481856E+03  0.47000000000E+01 0. -1.
        -13    1    4    4    0    0 -0.52960158089E+01  0.50313883388E+02  0.73314347552E+02  0.89075968712E+02  0.00000000000E+00 0.  1.
         14    1    4    4    0    0  0.15299583005E+02 -0.12348301942E+01  0.24521191885E+03  0.24569185414E+03  0.00000000000E+00 0. -1.
         -5    1    5    5    0  503 -0.20084115679E+02  0.10858817559E+02  0.94096753929E+01  0.25137971525E+02  0.47000000000E+01 0.  1.
         11    1    6    6    0    0 -0.13372245953E+02 -0.33281829233E+01  0.41186422367E+02  0.43430578522E+02  0.00000000000E+00 0. -1.
        -12    1    6    6    0    0  0.11381865275E+03 -0.51315282289E+02  0.51811465775E+03  0.53294534663E+03  0.00000000000E+00 0.  1.
</event>
<event>
12    1  0.8798177E-003  0.2702405E+03  0.7818608E-02  0.1101752E+00
         21   -1    0    0  501  502  0.00000000000E+00  0.00000000000E+00  0.53698401910E+02  0.53698401910E+02  0.00000000000E+00 0.  1.
         21   -1    0    0  502  503 -0.00000000000E+00 -0.00000000000E+00 -0.13406366159E+04  0.13406366159E+04  0.00000000000E+00 0. -1.
          6    2    1    2  501    0  0.20074475119E+03 -0.41751256184E+02 -0.62267549875E+03  0.67878914499E+03  0.17603495134E+03 0.  0.
         24    2    3    3    0    0  0.11900245065E+03 -0.46397192503E+02 -0.54669808211E+03  0.56699448385E+03  0.79307433399E+02 0.  0.
         -6    2    1    2    0  503 -0.20074475119E+03  0.41751256184E+02 -0.66426271528E+03  0.71554587285E+03  0.16946775129E+03 0.  0.
        -24    2    5    5    0    0 -0.81521252515E+02 -0.85042796124E+01 -0.45839714701E+03  0.47235339001E+03  0.79194338689E+02 0.  0.
          5    1    3    3  501    0  0.81742300541E+02  0.46459363188E+01 -0.75977416636E+02  0.11179466115E+03  0.47000000000E+01 0. -1.
        -13    1    4    4    0    0  0.61338762405E+01 -0.18936877920E+02 -0.20760083969E+03  0.20855296311E+03  0.00000000000E+00 0.  1.
         14    1    4    4    0    0  0.11286857441E+03 -0.27460314583E+02 -0.33909724242E+03  0.35844152073E+03  0.00000000000E+00 0. -1.
         -5    1    5    5    0  503 -0.11922349868E+03  0.50255535797E+02 -0.20586556826E+03  0.24319248284E+03  0.47000000000E+01 0.  1.
         11    1    6    6    0    0 -0.75613463102E+02 -0.15903200554E+02 -0.20980432547E+03  0.22358032690E+03  0.00000000000E+00 0. -1.
        -12    1    6    6    0    0 -0.59077894135E+01  0.73989209417E+01 -0.24859282154E+03  0.24877306311E+03  0.00000000000E+00 0.  1.
</event>
<event>
12    1  0.8798177E-003  0.2432986E+03  0.7818608E-02  0.1117733E+00
         21   -1    0    0  503  502  0.00000000000E+00  0.00000000000E+00  0.37808427084E+03  0.37808427084E+03  0.00000000000E+00 0. -1.
         21   -1    0    0  501  503 -0.00000000000E+00 -0.00000000000E+00 -0.16491177742E+03  0.16491177742E+03  0.00000000000E+00 0.  1.
          6    2    1    2  501    0  0.13677068298E+03  0.10446678267E+03  0.43677015152E+02  0.24647804486E+03  0.17095091852E+03 0.  0.
         24    2    3    3    0    0  0.95624731091E+02 -0.30929218553E+01  0.29551423976E+01  0.12423877001E+03  0.79201538787E+02 0.  0.
         -6    2    1    2    0  502 -0.13677068298E+03 -0.10446678267E+03  0.16949547826E+03  0.29651800340E+03  0.17197290712E+03 0.  0.
        -24    2    5    5    0    0 -0.38910921454E+01 -0.55800779484E+02  0.97720834690E+02  0.13777590128E+03  0.79397543102E+02 0.  0.
          5    1    3    3  501    0  0.41145951892E+02  0.10755970452E+03  0.40721872754E+02  0.12223927485E+03  0.47000000000E+01 0. -1.
        -11    1    4    4    0    0  0.35818660811E+02 -0.60556349422E+01 -0.37315185475E+02  0.52077540686E+02  0.00000000000E+00 0.  1.
         12    1    4    4    0    0  0.59806070280E+02  0.29627130870E+01  0.40270327873E+02  0.72161229328E+02  0.00000000000E+00 0. -1.
         -5    1    5    5    0  502 -0.13287959084E+03 -0.48666003185E+02  0.71774643569E+02  0.15874210212E+03  0.47000000000E+01 0.  1.
         11    1    6    6    0    0  0.29578711497E+02 -0.19487744600E+02  0.95001638088E+01  0.36673225598E+02  0.00000000000E+00 0. -1.
        -12    1    6    6    0    0 -0.33469803642E+02 -0.36313034884E+02  0.88220670882E+02  0.10110267568E+03  0.00000000000E+00 0.  1.
</event>
<event>
12    1  0.8798177E-003  0.1880738E+03  0.7818608E-02  0.1161265E+00
         21   -1    0    0  503  502  0.00000000000E+00  0.00000000000E+00  0.56361284699E+02  0.56361284699E+02  0.00000000000E+00 0.  1.
         21   -1    0    0  501  503 -0.00000000000E+00 -0.00000000000E+00 -0.63230487900E+03  0.63230487900E+03  0.00000000000E+00 0.  1.
          6    2    1    2  501    0  0.64910716356E+02 -0.84009765525E+01 -0.23042697044E+03  0.29743627293E+03  0.17631724318E+03 0.  0.
         24    2    3    3    0    0  0.93598265669E+02  0.99920074375E+01 -0.88565091592E+02  0.15146312466E+03  0.78973585037E+02 0.  0.
         -6    2    1    2    0  502 -0.64910716356E+02  0.84009765525E+01 -0.34551662386E+03  0.39122989077E+03  0.17145002935E+03 0.  0.
        -24    2    5    5    0    0  0.23101543701E+02 -0.11414614068E+02 -0.10334528785E+03  0.13275772295E+03  0.79248910066E+02 0.  0.
          5    1    3    3  501    0 -0.28687549313E+02 -0.18392983990E+02 -0.14186187885E+03  0.14597314827E+03  0.47000000000E+01 0. -1.
        -13    1    4    4    0    0  0.54117968076E+02  0.12519221637E+02 -0.12020573778E+01  0.55560150477E+02  0.00000000000E+00 0.  1.
         14    1    4    4    0    0  0.39480297593E+02 -0.25272142000E+01 -0.87363034214E+02  0.95902974181E+02  0.00000000000E+00 0. -1.
         -5    1    5    5    0  502 -0.88012260057E+02  0.19815590620E+02 -0.24217133601E+03  0.25847216782E+03  0.47000000000E+01 0.  1.
         11    1    6    6    0    0  0.11245792476E+02  0.12154198792E+02  0.79569902018E+01  0.18371338813E+02  0.00000000000E+00 0. -1.
        -12    1    6    6    0    0  0.11855751225E+02 -0.23568812860E+02 -0.11130227805E+03  0.11438638414E+03  0.00000000000E+00 0.  1.
</event>
<event>
12    1  0.8798177E-003  0.2471750E+03  0.7818608E-02  0.1115134E+00
         21   -1    0    0  503  502  0.00000000000E+00  0.00000000000E+00  0.50777061841E+02  0.50777061841E+02  0.00000000000E+00 0. -1.
         21   -1    0    0  501  503 -0.00000000000E+00 -0.00000000000E+00 -0.14011213757E+04  0.14011213757E+04  0.00000000000E+00 0.  1.
          6    2    1    2  501    0 -0.13760737644E+03 -0.11158283453E+03 -0.94842451123E+03  0.98005631801E+03  0.17208955216E+03 0.  0.
         24    2    3    3    0    0 -0.10352058861E+03 -0.11447473748E+03 -0.91604597327E+03  0.93271994798E+03  0.83697660834E+02 0.  0.
         -6    2    1    2    0  502  0.13760737644E+03  0.11158283453E+03 -0.40191980264E+03  0.47184211954E+03  0.17236281214E+03 0.  0.
        -24    2    5    5    0    0  0.73893612308E+02  0.14009112819E+03 -0.27892371440E+03  0.33034196311E+03  0.79003696110E+02 0.  0.
          5    1    3    3  501    0 -0.34086787833E+02  0.28919029549E+01 -0.32378537961E+02  0.47336370034E+02  0.47000000000E+01 0. -1.
        -11    1    4    4    0    0 -0.27412634032E+01  0.55926352088E+01 -0.18275478668E+03  0.18286088743E+03  0.00000000000E+00 0.  1.
         12    1    4    4    0    0 -0.10077932520E+03 -0.12006737269E+03 -0.73329118658E+03  0.74985906055E+03  0.00000000000E+00 0. -1.
         -5    1    5    5    0  502  0.63713764130E+02 -0.28508293665E+02 -0.12299608825E+03  0.14150015644E+03  0.47000000000E+01 0.  1.
         13    1    6    6    0    0  0.26010200544E+02  0.47162404132E+01 -0.16386479136E+02  0.31101288630E+02  0.00000000000E+00 0. -1.
        -14    1    6    6    0    0  0.47883411764E+02  0.13537488778E+03 -0.26253723526E+03  0.29924067448E+03  0.00000000000E+00 0.  1.
</event>
<event>
12    1  0.8798177E-003  0.4451110E+03  0.7818608E-02  0.1029212E+00
         21   -1    0    0  503  502  0.00000000000E+00  0.00000000000E+00  0.69595030238E+02  0.69595030238E+02  0.00000000000E+00 0.  1.
         21   -1    0    0  501  503 -0.00000000000E+00 -0.00000000000E+00 -0.28545460578E+04  0.28545460578E+04  0.00000000000E+00 0. -1.
          6    2    1    2  501    0  0.29015466015E+03  0.28981175870E+03 -0.13074205224E+04  0.13810207999E+04  0.17230625341E+03 0.  0.
         24    2    3    3    0    0  0.25222355542E+03  0.24085626847E+03 -0.89506762728E+03  0.96401671254E+03  0.80954929864E+02 0.  0.
         -6    2    1    2    0  502 -0.29015466015E+03 -0.28981175870E+03 -0.14775305051E+04  0.15431202881E+04  0.17304117379E+03 0.  0.
        -24    2    5    5    0    0 -0.23435893997E+03 -0.27664288869E+03 -0.13875987604E+04  0.14363664112E+04  0.79137518565E+02 0.  0.
          5    1    3    3  501    0  0.37931104725E+02  0.48955490225E+02 -0.41235289516E+03  0.41700408736E+03  0.47000000000E+01 0. -1.
        -13    1    4    4    0    0  0.62777096169E+02  0.10081212254E+03 -0.23787687492E+03  0.26587488688E+03  0.00000000000E+00 0.  1.
         14    1    4    4    0    0  0.18944645925E+03  0.14004414593E+03 -0.65719075236E+03  0.69814182565E+03  0.00000000000E+00 0. -1.
         -5    1    5    5    0  502 -0.55795720175E+02 -0.13168870010E+02 -0.89931744740E+02  0.10675387693E+03  0.47000000000E+01 0.  1.
         13    1    6    6    0    0 -0.14398531578E+03 -0.17862841381E+03 -0.10157698450E+04  0.10413588524E+04  0.00000000000E+00 0. -1.
        -14    1    6    6    0    0 -0.90373624197E+02 -0.98014474877E+02 -0.37182891533E+03  0.39500755881E+03  0.00000000000E+00 0.  1.
</event>
<event>
12    1  0.8798177E-003  0.2027907E+03  0.7818608E-02  0.1147565E+00
         21   -1    0    0  503  502  0.00000000000E+00  0.00000000000E+00  0.70126945995E+03  0.70126945995E+03  0.00000000000E+00 0.  1.
         21   -1    0    0  501  503 -0.00000000000E+00 -0.00000000000E+00 -0.61505009634E+02  0.61505009634E+02  0.00000000000E+00 0. -1.
          6    2    1    2  501    0 -0.19621861405E+01  0.10414902276E+03  0.23388632009E+03  0.30905526747E+03  0.17309384308E+03 0.  0.
         24    2    3    3    0    0 -0.28806944205E+02  0.79627981802E+02  0.24438982156E+03  0.27091950961E+03  0.80625928101E+02 0.  0.
         -6    2    1    2    0  502  0.19621861405E+01 -0.10414902276E+03  0.40587813023E+03  0.45371920211E+03  0.17399192123E+03 0.  0.
        -24    2    5    5    0    0 -0.30182587393E+02 -0.43016094540E+02  0.35512781300E+03  0.36788094679E+03  0.80369487221E+02 0.  0.
          5    1    3    3  501    0  0.26844758065E+02  0.24521040954E+02 -0.10503501469E+02  0.38135757868E+02  0.47000000000E+01 0. -1.
        -11    1    4    4    0    0  0.77773855135E+01  0.20978464970E+01  0.11755086607E+03  0.11782654540E+03  0.00000000000E+00 0.  1.
         12    1    4    4    0    0 -0.36584329719E+02  0.77530135305E+02  0.12683895549E+03  0.15309296421E+03  0.00000000000E+00 0. -1.
         -5    1    5    5    0  502  0.32144773533E+02 -0.61132928217E+02  0.50750317230E+02  0.85838255322E+02  0.47000000000E+01 0.  1.
         11    1    6    6    0    0 -0.38048349529E+01 -0.98025501962E+01  0.28980966579E+03  0.29000036060E+03  0.00000000000E+00 0. -1.
        -12    1    6    6    0    0 -0.26377752440E+02 -0.33213544343E+02  0.65318147203E+02  0.77880586192E+02  0.00000000000E+00 0.  1.
</event>
<event>
12    1  0.8798177E-003  0.3183122E+03  0.7818608E-02  0.1076576E+00
         21   -1    0    0  501  502  0.00000000000E+00  0.00000000000E+00  0.18188126495E+03  0.18188126495E+03  0.00000000000E+00 0.  1.
         21   -1    0    0  502  503 -0.00000000000E+00 -0.00000000000E+00 -0.62683158397E+03  0.62683158397E+03  0.00000000000E+00 0.  1.
          6    2    1    2  501    0  0.60421866649E+02  0.25949255172E+03 -0.85852383655E+02  0.32968665750E+03  0.17417081841E+03 0.  0.
         24    2    3    3    0    0  0.63652558335E+02  0.23810557307E+03 -0.12250088666E+03  0.28687260611E+03  0.80891982240E+02 0.  0.
         -6    2    1    2    0  503 -0.60421866649E+02 -0.25949255172E+03 -0.35909793536E+03  0.47902619143E+03  0.17183590580E+03 0.  0.
        -24    2    5    5    0    0 -0.70777741851E+02 -0.27592832704E+03 -0.33877822924E+03  0.45052427362E+03  0.83997036339E+02 0.  0.
          5    1    3    3  501    0 -0.32306916863E+01  0.21386978646E+02  0.36648503001E+02  0.42814051392E+02  0.47000000000E+01 0. -1.
        -13    1    4    4    0    0  0.66578087439E+02  0.18119823466E+03 -0.59677724869E+02  0.20205660795E+03  0.00000000000E+00 0.  1.
         14    1    4    4    0    0 -0.29255291042E+01  0.56907338410E+02 -0.62823161787E+02  0.84815998151E+02  0.00000000000E+00 0. -1.
         -5    1    5    5    0  503  0.10355875203E+02  0.16435775317E+02 -0.20319706128E+02  0.28501917806E+02  0.47000000000E+01 0.  1.
         11    1    6    6    0    0 -0.47915256371E+02 -0.48213032057E+02 -0.71579461981E+02  0.98711638781E+02  0.00000000000E+00 0. -1.
        -12    1    6    6    0    0 -0.22862485480E+02 -0.22771529498E+03 -0.26719876725E+03  0.35181263484E+03  0.00000000000E+00 0.  1.
</event>
<event>
12    1  0.8798177E-003  0.1814567E+03  0.7818608E-02  0.1166551E+00
         21   -1    0    0  503  502  0.00000000000E+00  0.00000000000E+00  0.33770359339E+03  0.33770359339E+03  0.00000000000E+00 0.  1.
         21   -1    0    0  501  503 -0.00000000000E+00 -0.00000000000E+00 -0.97507318018E+02  0.97507318018E+02  0.00000000000E+00 0.  1.
          6    2    1    2  501    0  0.40619976166E+01 -0.56702105334E+02  0.10741429464E+03  0.21086576767E+03  0.17232211903E+03 0.  0.
         24    2    3    3    0    0 -0.21189521219E+02 -0.98572084249E+02  0.53904871141E+02  0.13822911892E+03  0.77692358586E+02 0.  0.
         -6    2    1    2    0  502 -0.40619976166E+01  0.56702105334E+02  0.13278198073E+03  0.22434514374E+03  0.17166263583E+03 0.  0.
        -24    2    5    5    0    0  0.38845458587E+01  0.31961289394E+02  0.16298652542E+03  0.18422457487E+03  0.79608245799E+02 0.  0.
          5    1    3    3  501    0  0.25251518836E+02  0.41869978915E+02  0.53509423497E+02  0.72636648744E+02  0.47000000000E+01 0. -1.
        -11    1    4    4    0    0 -0.39824689775E+02 -0.79197114982E+02  0.64189890558E+02  0.10944647544E+03  0.00000000000E+00 0.  1.
         12    1    4    4    0    0  0.18635168556E+02 -0.19374969266E+02 -0.10285019418E+02  0.28782643478E+02  0.00000000000E+00 0. -1.
         -5    1    5    5    0  502 -0.79465434753E+01  0.24740815940E+02 -0.30204544692E+02  0.40120568872E+02  0.47000000000E+01 0.  1.
         13    1    6    6    0    0  0.18121378726E+02 -0.49171036413E+01  0.25014828069E+01  0.18942536561E+02  0.00000000000E+00 0. -1.
        -14    1    6    6    0    0 -0.14236832867E+02  0.36878393035E+02  0.16048504262E+03  0.16528203831E+03  0.00000000000E+00 0.  1.
</event>
<event>
12    1  0.8798177E-003  0.3777872E+03  0.7818608E-02  0.1052028E+00
         21   -1    0    0  501  502  0.00000000000E+00  0.00000000000E+00  0.45489435737E+03  0.45489435737E+03  0.00000000000E+00 0.  1.
         21   -1    0    0  502  503 -0.00000000000E+00 -0.00000000000E+00 -0.34973927522E+03  0.34973927522E+03  0.00000000000E+00 0. -1.
          6    2    1    2  501    0  0.28305038900E+03 -0.18159011681E+03  0.18573394573E+03  0.41834864017E+03  0.16560794937E+03 0.  0.
         24    2    3    3    0    0  0.15116638808E+03 -0.13993412723E+03  0.53945992579E+02  0.22724980248E+03  0.79369173904E+02 0.  0.
         -6    2    1    2    0  503 -0.28305038900E+03  0.18159011681E+03 -0.80578863589E+02  0.38628499242E+03  0.17213555379E+03 0.  0.
        -24    2    5    5    0    0 -0.17331667762E+03  0.36486724235E+02 -0.23187773417E+02  0.19546489604E+03  0.79365615756E+02 0.  0.
          5    1    3    3  501    0  0.13188400092E+03 -0.41655989584E+02  0.13178795315E+03  0.19109883768E+03  0.47000000000E+01 0. -1.
        -13    1    4    4    0    0  0.59237995168E+02 -0.11006963696E+02  0.29300545652E+02  0.66998621604E+02  0.00000000000E+00 0.  1.
         14    1    4    4    0    0  0.91928392912E+02 -0.12892716353E+03  0.24645446927E+02  0.16025118088E+03  0.00000000000E+00 0. -1.
         -5    1    5    5    0  503 -0.10973371138E+03  0.14510339258E+03 -0.57391090173E+02  0.19082009638E+03  0.47000000000E+01 0.  1.
         13    1    6    6    0    0 -0.15669187898E+03  0.29813489522E+02 -0.46427060231E+02  0.16612242780E+03  0.00000000000E+00 0. -1.
        -14    1    6    6    0    0 -0.16624798639E+02  0.66732347123E+01  0.23239286814E+02  0.29342468249E+02  0.00000000000E+00 0.  1.
</event>
<event>
12    1  0.8798177E-003  0.2330062E+03  0.7818608E-02  0.1125357E+00
         21   -1    0    0  501  502  0.00000000000E+00  0.00000000000E+00  0.27162946800E+03  0.27162946800E+03  0.00000000000E+00 0.  1.
         21   -1    0    0  502  503 -0.00000000000E+00 -0.00000000000E+00 -0.20227622009E+03  0.20227622009E+03  0.00000000000E+00 0.  1.
          6    2    1    2  501    0 -0.82573832429E+02  0.12580339281E+03  0.77090614531E+02  0.24542787339E+03  0.17789588737E+03 0.  0.
         24    2    3    3    0    0 -0.70827487552E+02  0.16045628235E+03  0.50801821049E+02  0.20012897678E+03  0.81902568862E+02 0.  0.
         -6    2    1    2    0  503  0.82573832429E+02 -0.12580339281E+03 -0.77373666235E+01  0.22847781470E+03  0.17174781956E+03 0.  0.
        -24    2    5    5    0    0 -0.19467549928E+02 -0.74535428597E+02 -0.14985938512E+02  0.11395498002E+03  0.82623504543E+02 0.  0.
          5    1    3    3  501    0 -0.11746344876E+02 -0.34652889539E+02  0.26288793482E+02  0.45298896610E+02  0.47000000000E+01 0. -1.
        -13    1    4    4    0    0 -0.41161478286E+02  0.32985586067E+02  0.44648454077E+02  0.69107167749E+02  0.00000000000E+00 0.  1.
         14    1    4    4    0    0 -0.29666009267E+02  0.12747069628E+03  0.61533669729E+01  0.13102180903E+03  0.00000000000E+00 0. -1.
         -5    1    5    5    0  503  0.10204138236E+03 -0.51267964210E+02  0.72485718883E+01  0.11452283467E+03  0.47000000000E+01 0.  1.
         11    1    6    6    0    0 -0.71587990131E+01 -0.12077520310E+02 -0.42385032743E+02  0.44649814118E+02  0.00000000000E+00 0. -1.
        -12    1    6    6    0    0 -0.12308750914E+02 -0.62457908287E+02  0.27399094231E+02  0.69305165906E+02  0.00000000000E+00 0.  1.
</event>
<event>
12    1  0.8798177E-003  0.2393298E+03  0.7818608E-02  0.1120595E+00
         21   -1    0    0  501  502  0.00000000000E+00  0.00000000000E+00  0.45364831955E+03  0.45364831955E+03  0.00000000000E+00 0. -1.
         21   -1    0    0  502  503 -0.00000000000E+00 -0.00000000000E+00 -0.15196227213E+03  0.15196227213E+03  0.00000000000E+00 0. -1.
          6    2    1    2  501    0  0.12289540765E+03  0.10991255204E+03  0.27858169734E+03  0.36726900422E+03  0.17347826680E+03 0.  0.
         24    2    3    3    0    0  0.47993632138E+02  0.57273209383E+02  0.52853154382E+02  0.12363681941E+03  0.83120382260E+02 0.  0.
         -6    2    1    2    0  503 -0.12289540765E+03 -0.10991255204E+03  0.23104350086E+02  0.23834158746E+03  0.17055453967E+03 0.  0.
        -24    2    5    5    0    0 -0.14260656115E+03 -0.90675700379E+02 -0.18101026275E+02  0.18855645840E+03  0.81652782727E+02 0.  0.
          5    1    3    3  501    0  0.74901775510E+02  0.52639342659E+02  0.22572854296E+03  0.24363218481E+03  0.47000000000E+01 0. -1.
        -11    1    4    4    0    0  0.56372664944E+02  0.62570627617E+02  0.16324884642E+02  0.85787310552E+02  0.00000000000E+00 0.  1.
         12    1    4    4    0    0 -0.83790328054E+01 -0.52974182334E+01  0.36528269740E+02  0.37849508859E+02  0.00000000000E+00 0. -1.
         -5    1    5    5    0  503  0.19711153506E+02 -0.19236851663E+02  0.41205376361E+02  0.49785129060E+02  0.47000000000E+01 0.  1.
         11    1    6    6    0    0 -0.61971303413E+02 -0.54710993301E+02  0.30085596626E+02  0.87970894954E+02  0.00000000000E+00 0. -1.
        -12    1    6    6    0    0 -0.80635257742E+02 -0.35964707078E+02 -0.48186622901E+02  0.10058556344E+03  0.00000000000E+00 0.  1.
</event>
<event>
12    1  0.8798177E-003  0.1951894E+03  0.7818608E-02  0.1153880E+00
         21   -1    0    0  501  502  0.00000000000E+00  0.00000000000E+00  0.64488733107E+02  0.64488733107E+02  0.00000000000E+00 0. -1.
         21   -1    0    0  502  503 -0.00000000000E+00 -0.00000000000E+00 -0.82248294467E+03  0.82248294467E+03  0.00000000000E+00 0.  1.
          6    2    1    2  501    0  0.16738154477E+02  0.89911043556E+02 -0.14343286799E+03  0.24215809494E+03  0.17234672539E+03 0.  0.
         24    2    3    3    0    0  0.66034480432E+02  0.15947746528E+02 -0.86331788148E+02  0.13640687565E+03  0.80862691370E+02 0.  0.
         -6    2    1    2    0  503 -0.16738154477E+02 -0.89911043556E+02 -0.61456134357E+03  0.64481358284E+03  0.17243767001E+03 0.  0.
        -24    2    5    5    0    0  0.69461013919E+01 -0.14977719821E+02 -0.12994285886E+03  0.15384198213E+03  0.80682268694E+02 0.  0.
          5    1    3    3  501    0 -0.49296325955E+02  0.73963297029E+02 -0.57101079846E+02  0.10575121928E+03  0.47000000000E+01 0. -1.
        -13    1    4    4    0    0  0.67515410178E+02  0.23525400950E+02 -0.98670883765E+02  0.12185121421E+03  0.00000000000E+00 0.  1.
         14    1    4    4    0    0 -0.14809297453E+01 -0.75776544227E+01  0.12339095617E+02  0.14555661445E+02  0.00000000000E+00 0. -1.
         -5    1    5    5    0  503 -0.23684255869E+02 -0.74933323735E+02 -0.48461848471E+03  0.49097160071E+03  0.47000000000E+01 0.  1.
         11    1    6    6    0    0 -0.21497880486E+02  0.22911797517E+02 -0.30983286783E+02  0.44125654564E+02  0.00000000000E+00 0. -1.
        -12    1    6    6    0    0  0.28443981878E+02 -0.37889517338E+02 -0.98959572074E+02  0.10971632756E+03  0.00000000000E+00 0.  1.
</event>
<event>
12    1  0.8798177E-003  0.1816189E+03  0.7818608E-02  0.1166929E+00
         21   -1    0    0  503  502  0.00000000000E+00  0.00000000000E+00  0.33199411845E+03  0.33199411845E+03  0.00000000000E+00 0. -1.
         21   -1    0    0  501  503 -0.00000000000E+00 -0.00000000000E+00 -0.11013111581E+03  0.11013111581E+03  0.00000000000E+00 0.  1.
          6    2    1    2  501    0 -0.47067754958E+02  0.34573175195E+02  0.36219176106E+02  0.18241564860E+03  0.16897621767E+03 0.  0.
         24    2    3    3    0    0 -0.92708291090E+02  0.40204890296E+02  0.31854220302E+02  0.13598378893E+03  0.85238718083E+02 0.  0.
         -6    2    1    2    0  502  0.47067754958E+02 -0.34573175195E+02  0.18564382653E+03  0.25970958566E+03  0.17197313904E+03 0.  0.
        -24    2    5    5    0    0  0.17748091689E+02 -0.31082716962E+02  0.17455914042E+02  0.88884851318E+02  0.79464947030E+02 0.  0.
          5    1    3    3  501    0  0.45640536132E+02 -0.56317151012E+01  0.43649558043E+01  0.46431859672E+02  0.47000000000E+01 0. -1.
        -13    1    4    4    0    0 -0.59942338560E+01 -0.80969918947E+01 -0.21173379243E+02  0.23447901950E+02  0.00000000000E+00 0.  1.
         14    1    4    4    0    0 -0.86714057234E+02  0.48301882191E+02  0.53027599545E+02  0.11253588698E+03  0.00000000000E+00 0. -1.
         -5    1    5    5    0  502  0.29319663269E+02 -0.34904582328E+01  0.16818791249E+03  0.17082473434E+03  0.47000000000E+01 0.  1.
         11    1    6    6    0    0 -0.25988589013E+02 -0.82297821640E+00  0.23893371087E+02  0.35312564817E+02  0.00000000000E+00 0. -1.
        -12    1    6    6    0    0  0.43736680702E+02 -0.30259738746E+02 -0.64374570455E+01  0.53572286501E+02  0.00000000000E+00 0.  1.
</event>
<event>
12    1  0.8798177E-003  0.2809169E+03  0.7818608E-02  0.1095305E+00
         21   -1    0    0  503  502  0.00000000000E+00  0.00000000000E+00  0.34078304759E+03  0.34078304759E+03  0.00000000000E+00 0. -1.
         21   -1    0    0  501  503 -0.00000000000E+00 -0.00000000000E+00 -0.25287498499E+03  0.25287498499E+03  0.00000000000E+00 0.  1.
          6    2    1    2  501    0 -0.16223954249E+03 -0.15091071482E+03 -0.43667720922E+02  0.28345412052E+03  0.17129989958E+03 0.  0.
         24    2    3    3    0    0 -0.12276490026E+03 -0.26801260538E+02 -0.14259778853E+02  0.14985651172E+03  0.80399654906E+02 0.  0.
         -6    2    1    2    0  502  0.16223954249E+03  0.15091071482E+03  0.13157578352E+03  0.31020391205E+03  0.17268053523E+03 0.  0.
        -24    2    5    5    0    0  0.14327336979E+02  0.34770908458E+02  0.68927789991E+02  0.11192800264E+03  0.79765587076E+02 0.  0.
          5    1    3    3  501    0 -0.39474642230E+02 -0.12410945428E+03 -0.29407942069E+02  0.13359760880E+03  0.47000000000E+01 0. -1.
        -13    1    4    4    0    0  0.41443088748E+01  0.14742600411E+02 -0.45139123268E+01  0.15965430386E+02  0.00000000000E+00 0.  1.
         14    1    4    4    0    0 -0.12690920913E+03 -0.41543860949E+02 -0.97458665260E+01  0.13389108133E+03  0.00000000000E+00 0. -1.
         -5    1    5    5    0  502  0.14791220551E+03  0.11613980636E+03  0.62647993530E+02  0.19827590941E+03  0.47000000000E+01 0.  1.
         11    1    6    6    0    0 -0.32497396741E+02  0.92943459085E+01  0.35446418788E+02  0.48978712372E+02  0.00000000000E+00 0. -1.
        -12    1    6    6    0    0  0.46824733720E+02  0.25476562550E+02  0.33481371204E+02  0.62949290266E+02  0.00000000000E+00 0.  1.
</event>
<event>
12    1  0.8798177E-003  0.1969136E+03  0.7818608E-02  0.1152577E+00
         21   -1    0    0  503  502  0.00000000000E+00  0.00000000000E+00  0.33135623232E+03  0.33135623232E+03  0.00000000000E+00 0. -1.
         21   -1    0    0  501  503 -0.00000000000E+00 -0.00000000000E+00 -0.11968169380E+03  0.11968169380E+03  0.00000000000E+00 0. -1.
          6    2    1    2  501    0  0.91057831462E+02 -0.62992022337E+01  0.68509128880E+02  0.20758096986E+03  0.17339304971E+03 0.  0.
         24    2    3    3    0    0  0.61171253700E+02 -0.71119523854E+02  0.35819193413E+02  0.12893236208E+03  0.80874164117E+02 0.  0.
         -6    2    1    2    0  502 -0.91057831462E+02  0.62992022337E+01  0.14316540964E+03  0.24345695626E+03  0.17448136408E+03 0.  0.
        -24    2    5    5    0    0 -0.12432077117E+03  0.33601425377E+02  0.12526890276E+03  0.19661456621E+03  0.79876653119E+02 0.  0.
          5    1    3    3  501    0  0.29886577762E+02  0.64820321620E+02  0.32689935467E+02  0.78648607782E+02  0.47000000000E+01 0. -1.
        -11    1    4    4    0    0  0.44776693150E+02 -0.47019693349E+02 -0.18303704464E+02  0.67459835526E+02  0.00000000000E+00 0.  1.
         12    1    4    4    0    0  0.16394560550E+02 -0.24099830505E+02  0.54122897877E+02  0.61472526551E+02  0.00000000000E+00 0. -1.
         -5    1    5    5    0  502  0.33262939713E+02 -0.27302223143E+02  0.17896506885E+02  0.46842390050E+02  0.47000000000E+01 0.  1.
         11    1    6    6    0    0 -0.29559086583E+01  0.11932977845E+02 -0.83103418505E+01  0.14838973614E+02  0.00000000000E+00 0. -1.
        -12    1    6    6    0    0 -0.12136486252E+03  0.21668447531E+02  0.13357924461E+03  0.18177559259E+03  0.00000000000E+00 0.  1.
</event>
<event>
12    1  0.8798177E-003  0.1892923E+03  0.7818608E-02  0.1159116E+00
         21   -1    0    0  503  502  0.00000000000E+00  0.00000000000E+00  0.94806647277E+02  0.94806647277E+02  0.00000000000E+00 0.  1.
         21   -1    0    0  501  503 -0.00000000000E+00 -0.00000000000E+00 -0.41062403312E+03  0.41062403312E+03  0.00000000000E+00 0.  1.
          6    2    1    2  501    0  0.76487805623E+02  0.18485946217E+02 -0.22937478194E+03  0.29739598219E+03  0.17216116001E+03 0.  0.
         24    2    3    3    0    0  0.59397001528E+02  0.24498213371E+02 -0.45186103860E+02  0.11225873020E+03  0.80200201216E+02 0.  0.
         -6    2    1    2    0  502 -0.76487805623E+02 -0.18485946217E+02 -0.86442603902E+02  0.20803469821E+03  0.17208717928E+03 0.  0.
        -24    2    5    5    0    0 -0.14321382043E+02 -0.70633384069E+02 -0.39861609022E+02  0.11435493210E+03  0.79334265560E+02 0.  0.
          5    1    3    3  501    0  0.17090804095E+02 -0.60122671539E+01 -0.18418867808E+03  0.18513725199E+03  0.47000000000E+01 0. -1.
        -11    1    4    4    0    0  0.32545295703E+02  0.13680718358E+02 -0.67187529319E+02  0.75898105531E+02  0.00000000000E+00 0.  1.
         12    1    4    4    0    0  0.26851705824E+02  0.10817495013E+02  0.22001425459E+02  0.36360624668E+02  0.00000000000E+00 0. -1.
         -5    1    5    5    0  502 -0.62166423580E+02  0.52147437852E+02 -0.46580994880E+02  0.93679766115E+02  0.47000000000E+01 0.  1.
         11    1    6    6    0    0 -0.52687125692E+01 -0.66660607698E+02 -0.61320585640E+02  0.90728221486E+02  0.00000000000E+00 0. -1.
        -12    1    6    6    0    0 -0.90526694739E+01 -0.39727763711E+01  0.21458976618E+02  0.23626710609E+02  0.00000000000E+00 0.  1.
</event>
<event>
12    1  0.8798177E-003  0.2663791E+03  0.7818608E-02  0.1103423E+00
         21   -1    0    0  503  502  0.00000000000E+00  0.00000000000E+00  0.20254356674E+03  0.20254356674E+03  0.00000000000E+00 0.  1.
         21   -1    0    0  501  503 -0.00000000000E+00 -0.00000000000E+00 -0.61323155717E+03  0.61323155717E+03  0.00000000000E+00 0. -1.
          6    2    1    2  501    0  0.19543215089E+03  0.60220332074E+02 -0.47273229808E+03  0.54261742051E+03  0.17069746747E+03 0.  0.
         24    2    3    3    0    0  0.21465354197E+03  0.49657403439E+02 -0.37391747658E+03  0.44128876571E+03  0.79871738756E+02 0.  0.
         -6    2    1    2    0  502 -0.19543215089E+03 -0.60220332074E+02  0.62044307649E+02  0.27315770340E+03  0.17013353819E+03 0.  0.
        -24    2    5    5    0    0 -0.56201123550E+02 -0.45713512901E+02 -0.23538892602E+02  0.10901660269E+03  0.77988772567E+02 0.  0.
          5    1    3    3  501    0 -0.19221391079E+02  0.10562928635E+02 -0.98814821500E+02  0.10132865480E+03  0.47000000000E+01 0. -1.
        -11    1    4    4    0    0  0.18268544707E+02  0.16943895783E+02 -0.97520529072E+02  0.10065331053E+03  0.00000000000E+00 0.  1.
         12    1    4    4    0    0  0.19638499727E+03  0.32713507656E+02 -0.27639694750E+03  0.34063545518E+03  0.00000000000E+00 0. -1.
         -5    1    5    5    0  502 -0.13923102734E+03 -0.14506819173E+02  0.85583200251E+02  0.16414110071E+03  0.47000000000E+01 0.  1.
         13    1    6    6    0    0 -0.69817745958E+02 -0.22434477412E+02 -0.33026491077E+02  0.80427436490E+02  0.00000000000E+00 0. -1.
        -14    1    6    6    0    0  0.13616622408E+02 -0.23279035488E+02  0.94875984744E+01  0.28589166198E+02  0.00000000000E+00 0.  1.
</event>
<event>
12    1  0.8798177E-003  0.1907587E+03  0.7818608E-02  0.1158368E+00
         21   -1    0    0  501  502  0.00000000000E+00  0.00000000000E+00  0.77923111199E+02  0.77923111199E+02  0.00000000000E+00 0.  1.
         21   -1    0    0  502  503 -0.00000000000E+00 -0.00000000000E+00 -0.54239566421E+03  0.54239566421E+03  0.00000000000E+00 0. -1.
          6    2    1    2  501    0 -0.32241920014E+02  0.74624721996E+02 -0.11316457248E+03  0.22179966052E+03  0.17257021297E+03 0.  0.
         24    2    3    3    0    0 -0.72830897545E+02  0.95016673985E+01 -0.65437146031E+02  0.13130947005E+03  0.86980086930E+02 0.  0.
         -6    2    1    2    0  503  0.32241920014E+02 -0.74624721996E+02 -0.35130798053E+03  0.39851911489E+03  0.16968145805E+03 0.  0.
        -24    2    5    5    0    0  0.43306266322E+02 -0.25990262401E+02 -0.33174796849E+03  0.34473794262E+03  0.78972197914E+02 0.  0.
          5    1    3    3  501    0  0.40588977531E+02  0.65123054598E+02 -0.47727426451E+02  0.90490190478E+02  0.47000000000E+01 0. -1.
        -13    1    4    4    0    0 -0.36919601549E+02 -0.36924767394E+02 -0.45686187928E+02  0.69381000231E+02  0.00000000000E+00 0.  1.
         14    1    4    4    0    0 -0.35911295996E+02  0.46426434792E+02 -0.19750958103E+02  0.61928469815E+02  0.00000000000E+00 0. -1.
         -5    1    5    5    0  503 -0.11064346307E+02 -0.48634459596E+02 -0.19560012041E+02  0.53781172267E+02  0.47000000000E+01 0.  1.
         11    1    6    6    0    0  0.30476038967E+02 -0.51002653338E+02 -0.27577225301E+03  0.28209997364E+03  0.00000000000E+00 0. -1.
        -12    1    6    6    0    0  0.12830227355E+02  0.25012390938E+02 -0.55975715482E+02  0.62637968981E+02  0.00000000000E+00 0.  1.
</event>
<event>
12    1  0.8798177E-003  0.2099170E+03  0.7818608E-02  0.1141848E+00
         21   -1    0    0  501  502  0.00000000000E+00  0.00000000000E+00  0.12558592406E+04  0.12558592406E+04  0.00000000000E+00 0. -1.
         21   -1    0    0  502  503 -0.00000000000E+00 -0.00000000000E+00 -0.40820959132E+02  0.40820959132E+02  0.00000000000E+00 0.  1.
          6    2    1    2  501    0  0.99912387099E+02  0.62570627250E+02  0.85566301263E+03  0.88103593517E+03  0.17368810954E+03 0.  0.
         24    2    3    3    0    0  0.13871314917E+03  0.55040884088E+02  0.61573179866E+03  0.63782558670E+03  0.73654561916E+02 0.  0.
         -6    2    1    2    0  503 -0.99912387099E+02 -0.62570627250E+02  0.35937526888E+03  0.41564426460E+03  0.17237169814E+03 0.  0.
        -24    2    5    5    0    0 -0.11844371902E+03 -0.41074519299E+02  0.17790087064E+03  0.23190384951E+03  0.80091478526E+02 0.  0.
          5    1    3    3  501    0 -0.38800762068E+02  0.75297431617E+01  0.23993121397E+03  0.24321034847E+03  0.47000000000E+01 0. -1.
        -11    1    4    4    0    0  0.64775081328E+01 -0.12589575583E+02  0.10451855908E+03  0.10547314690E+03  0.00000000000E+00 0.  1.
         12    1    4    4    0    0  0.13223564103E+03  0.67630459671E+02  0.51121323958E+03  0.53235243980E+03  0.00000000000E+00 0. -1.
         -5    1    5    5    0  503  0.18531331921E+02 -0.21496107951E+02  0.18147439824E+03  0.18374041509E+03  0.47000000000E+01 0.  1.
         13    1    6    6    0    0  0.16096011667E+01  0.13162646839E+02  0.35584102869E+02  0.37974655557E+02  0.00000000000E+00 0. -1.
        -14    1    6    6    0    0 -0.12005332019E+03 -0.54237166138E+02  0.14231676777E+03  0.19392919395E+03  0.00000000000E+00 0.  1.
</event>
<event>
12    1  0.8798177E-003  0.3286981E+03  0.7818608E-02  0.1072260E+00
         21   -1    0    0  501  502  0.00000000000E+00  0.00000000000E+00  0.23080676176E+03  0.23080676176E+03  0.00000000000E+00 0.  1.
         21   -1    0    0  502  503 -0.00000000000E+00 -0.00000000000E+00 -0.88363891425E+03  0.88363891425E+03  0.00000000000E+00 0. -1.
          6    2    1    2  501    0  0.31632969792E+02  0.27840968528E+03  0.60124705209E+02  0.32936612020E+03  0.16234057818E+03 0.  0.
         24    2    3    3    0    0 -0.40619416941E+02  0.13807855581E+03  0.44959721696E+02  0.17073037388E+03  0.80074086836E+02 0.  0.
         -6    2    1    2    0  503 -0.31632969792E+02 -0.27840968528E+03 -0.71295685771E+03  0.78507955580E+03  0.17184245795E+03 0.  0.
        -24    2    5    5    0    0  0.15165743434E+02 -0.16894549917E+03 -0.56257857897E+03  0.59322480784E+03  0.81537927708E+02 0.  0.
          5    1    3    3  501    0  0.72252386733E+02  0.14033112947E+03  0.15164983514E+02  0.15863574632E+03  0.47000000000E+01 0. -1.
        -13    1    4    4    0    0 -0.49454607101E+02  0.12051341356E+03  0.10035848782E+02  0.13065205422E+03  0.00000000000E+00 0.  1.
         14    1    4    4    0    0  0.88351901604E+01  0.17565142255E+02  0.34923872914E+02  0.40078319662E+02  0.00000000000E+00 0. -1.
         -5    1    5    5    0  503 -0.46798713227E+02 -0.10946418611E+03 -0.15037827873E+03  0.19185474796E+03  0.47000000000E+01 0.  1.
         13    1    6    6    0    0 -0.18458499499E+02 -0.97678010859E+02 -0.40525988571E+03  0.41727363322E+03  0.00000000000E+00 0. -1.
        -14    1    6    6    0    0  0.33624242933E+02 -0.71267488309E+02 -0.15731869326E+03  0.17595117462E+03  0.00000000000E+00 0.  1.
</event>
<event>
12    1  0.8798177E-003  0.1815815E+03  0.7818608E-02  0.1166356E+00
         21   -1    0    0  501  502  0.00000000000E+00  0.00000000000E+00  0.12602548163E+04  0.12602548163E+04  0.00000000000E+00 0. -1.
         21   -1    0    0  502  503 -0.00000000000E+00 -0.00000000000E+00 -0.62188070172E+02  0.62188070172E+02  0.00000000000E+00 0.  1.
          6    2    1    2  501    0  0.14668418064E+02  0.59294839709E+02  0.11023958622E+04  0.11171997303E+04  0.17066798172E+03 0.  0.
         24    2    3    3    0    0  0.45134268458E+02  0.76908256518E+02  0.52509356164E+03  0.53880675258E+03  0.81470768045E+02 0.  0.
         -6    2    1    2    0  503 -0.14668418064E+02 -0.59294839709E+02  0.95670883978E+02  0.20524315617E+03  0.17099939945E+03 0.  0.
        -24    2    5    5    0    0 -0.18380719466E+02 -0.89883996235E+02  0.19511830262E+02  0.12295239642E+03  0.79495890693E+02 0.  0.
          5    1    3    3  501    0 -0.30465850394E+02 -0.17613416809E+02  0.57730230052E+03  0.57839297772E+03  0.47000000000E+01 0. -1.
        -13    1    4    4    0    0  0.22286147806E+02  0.77968062779E+02  0.49163263435E+03  0.49827536398E+03  0.00000000000E+00 0.  1.
         14    1    4    4    0    0  0.22848120652E+02 -0.10598062608E+01  0.33460927289E+02  0.40531388598E+02  0.00000000000E+00 0. -1.
         -5    1    5    5    0  503  0.37123014022E+01  0.30589156526E+02  0.76159053716E+02  0.82290759758E+02  0.47000000000E+01 0.  1.
         13    1    6    6    0    0 -0.47259405278E+01 -0.51182103832E+02  0.50092347787E+02  0.71771760278E+02  0.00000000000E+00 0. -1.
        -14    1    6    6    0    0 -0.13654778938E+02 -0.38701892403E+02 -0.30580517525E+02  0.51180636138E+02  0.00000000000E+00 0.  1.
</event>
<event>
12    1  0.8798177E-003  0.2063175E+03  0.7818608E-02  0.1144670E+00
         21   -1    0    0  503  502  0.00000000000E+00  0.00000000000E+00  0.13271290357E+03  0.13271290357E+03  0.00000000000E+00 0.  1.
         21   -1    0    0  501  503 -0.00000000000E+00 -0.00000000000E+00 -0.34612754305E+03  0.34612754305E+03  0.00000000000E+00 0.  1.
          6    2    1    2  501    0 -0.11292929774E+03  0.93360689479E+01 -0.17321506170E+03  0.26938890178E+03  0.17241442610E+03 0.  0.
         24    2    3    3    0    0 -0.99691002982E+02 -0.55021595330E+02 -0.13446404540E+03  0.19296316878E+03  0.78667229346E+02 0.  0.
         -6    2    1    2    0  502  0.11292929774E+03 -0.93360689479E+01 -0.40199577777E+02  0.20945154484E+03  0.17150438802E+03 0.  0.
        -24    2    5    5    0    0  0.35010368600E+02 -0.58506068990E+02  0.20549193556E+02  0.98990910943E+02  0.68762235823E+02 0.  0.
          5    1    3    3  501    0 -0.13238294759E+02  0.64357664278E+02 -0.38751016306E+02  0.76425732998E+02  0.47000000000E+01 0. -1.
        -11    1    4    4    0    0 -0.80584460192E+02 -0.17696964869E+02 -0.44576942324E+02  0.93777084499E+02  0.00000000000E+00 0.  1.
         12    1    4    4    0    0 -0.19106542790E+02 -0.37324630461E+02 -0.89887103071E+02  0.99186084281E+02  0.00000000000E+00 0. -1.
         -5    1    5    5    0  502  0.77918929141E+02  0.49170000042E+02 -0.60748771334E+02  0.11046063390E+03  0.47000000000E+01 0.  1.
         11    1    6    6    0    0 -0.44008623349E+01 -0.51458615418E+02 -0.43730854894E+01  0.51831270163E+02  0.00000000000E+00 0. -1.
        -12    1    6    6    0    0  0.39411230935E+02 -0.70474535716E+01  0.24922279046E+02  0.47159640780E+02  0.00000000000E+00 0.  1.
</event>
<event>
12    1  0.8798177E-003  0.2083747E+03  0.7818608E-02  0.1143277E+00
         21   -1    0    0  503  502  0.00000000000E+00  0.00000000000E+00  0.34543122851E+03  0.34543122851E+03  0.00000000000E+00 0.  1.
         21   -1    0    0  501  503 -0.00000000000E+00 -0.00000000000E+00 -0.14241033326E+03  0.14241033326E+03  0.00000000000E+00 0.  1.
          6    2    1    2  501    0 -0.83956472183E+02  0.75611658399E+02  0.15328762566E+02  0.20893772907E+03  0.17508338459E+03 0.  0.
         24    2    3    3    0    0 -0.49142418794E+02  0.10559030552E+03  0.51600197677E+02  0.15021427037E+03  0.79608144552E+02 0.  0.
         -6    2    1    2    0  502  0.83956472183E+02 -0.75611658399E+02  0.18769213268E+03  0.27890383271E+03  0.17260706567E+03 0.  0.
        -24    2    5    5    0    0  0.18645994914E+02 -0.10462729252E+03  0.99883152919E+02  0.16559067199E+03  0.78416088572E+02 0.  0.
          5    1    3    3  501    0 -0.34814053388E+02 -0.29978647119E+02 -0.36271435110E+02  0.58723458697E+02  0.47000000000E+01 0. -1.
        -11    1    4    4    0    0 -0.61891315278E+02  0.53922652755E+02  0.10053616974E+02  0.82699834349E+02  0.00000000000E+00 0.  1.
         12    1    4    4    0    0  0.12748896484E+02  0.51667652763E+02  0.41546580703E+02  0.67514436024E+02  0.00000000000E+00 0. -1.
         -5    1    5    5    0  502  0.65310477269E+02  0.29015634118E+02  0.87808979764E+02  0.11331316072E+03  0.47000000000E+01 0.  1.
         11    1    6    6    0    0 -0.92972810752E+01 -0.93347482301E+02  0.47478765660E+02  0.10514002604E+03  0.00000000000E+00 0. -1.
        -12    1    6    6    0    0  0.27943275989E+02 -0.11279810216E+02  0.52404387259E+02  0.60450645948E+02  0.00000000000E+00 0.  1.
</event>
<event>
12    1  0.8798177E-003  0.1821481E+03  0.7818608E-02  0.1166892E+00
         21   -1    0    0  503  502  0.00000000000E+00  0.00000000000E+00  0.83999147516E+02  0.83999147516E+02  0.00000000000E+00 0. -1.
         21   -1    0    0  501  503 -0.00000000000E+00 -0.00000000000E+00 -0.39084005052E+03  0.39084005052E+03  0.00000000000E+00 0. -1.
          6    2    1    2  501    0 -0.29117489263E+01  0.42470912664E+02 -0.18514364961E+03  0.25972313989E+03  0.17710359031E+03 0.  0.
         24    2    3    3    0    0 -0.15523564272E+02 -0.36676470903E+02 -0.47173475031E+02  0.10009474241E+03  0.78787538008E+02 0.  0.
         -6    2    1    2    0  502  0.29117489263E+01 -0.42470912664E+02 -0.12169725340E+03  0.21511605814E+03  0.17219883938E+03 0.  0.
        -24    2    5    5    0    0 -0.14923868552E+02 -0.10376328296E+02  0.50566633512E+01  0.83067517797E+02  0.80896555101E+02 0.  0.
          5    1    3    3  501    0  0.12611815345E+02  0.79147383567E+02 -0.13797017458E+03  0.15962839749E+03  0.47000000000E+01 0. -1.
        -13    1    4    4    0    0 -0.77066402741E+01 -0.36206399161E+02  0.13135879296E+02  0.39279090740E+02  0.00000000000E+00 0.  1.
         14    1    4    4    0    0 -0.78169239975E+01 -0.47007174238E+00 -0.60309354327E+02  0.60815651666E+02  0.00000000000E+00 0. -1.
         -5    1    5    5    0  502  0.17835617479E+02 -0.32094584368E+02 -0.12675391675E+03  0.13204854035E+03  0.47000000000E+01 0.  1.
         13    1    6    6    0    0  0.24511768149E+02 -0.30083299494E+02  0.13935515215E+01  0.38830061448E+02  0.00000000000E+00 0. -1.
        -14    1    6    6    0    0 -0.39435636702E+02  0.19706971198E+02  0.36631118297E+01  0.44237456348E+02  0.00000000000E+00 0.  1.
</event>
<event>
12    1  0.8798177E-003  0.2398595E+03  0.7818608E-02  0.1119957E+00
         21   -1    0    0  503  502  0.00000000000E+00  0.00000000000E+00  0.42149587320E+03  0.42149587320E+03  0.00000000000E+00 0. -1.
         21   -1    0    0  501  503 -0.00000000000E+00 -0.00000000000E+00 -0.19712828148E+03  0.19712828148E+03  0.00000000000E+00 0.  1.
          6    2    1    2  501    0  0.16694218431E+03  0.66934597039E+01 -0.59629924109E+02  0.24716052803E+03  0.17209910941E+03 0.  0.
         24    2    3    3    0    0  0.11768076072E+03  0.52386704622E+02  0.43587334933E+01  0.15425628277E+03  0.84751837452E+02 0.  0.
         -6    2    1    2    0  502 -0.16694218431E+03 -0.66934597039E+01  0.28399751583E+03  0.37146362666E+03  0.17151134549E+03 0.  0.
        -24    2    5    5    0    0 -0.99512162353E+02 -0.22310038845E+00  0.27411410280E+03  0.30284551489E+03  0.81695436260E+02 0.  0.
          5    1    3    3  501    0  0.49261423588E+02 -0.45693244918E+02 -0.63988657603E+02  0.92904245258E+02  0.47000000000E+01 0. -1.
        -13    1    4    4    0    0  0.12507644626E+03  0.56927779991E+02  0.17474853171E+02  0.13852891409E+03  0.00000000000E+00 0.  1.
         14    1    4    4    0    0 -0.73956855467E+01 -0.45410753693E+01 -0.13116119678E+02  0.15727368681E+02  0.00000000000E+00 0. -1.
         -5    1    5    5    0  502 -0.67430021953E+02 -0.64703593154E+01  0.98834130296E+01  0.68618111773E+02  0.47000000000E+01 0.  1.
         13    1    6    6    0    0 -0.93338891949E+02  0.18458774758E+02  0.15320439422E+03  0.18034539507E+03  0.00000000000E+00 0. -1.
        -14    1    6    6    0    0 -0.61732704040E+01 -0.18681875147E+02  0.12090970858E+03  0.12250011982E+03  0.00000000000E+00 0.  1.
</event>
<event>
12    1  0.8798177E-003  0.2135969E+03  0.7818608E-02  0.1140644E+00
         21   -1    0    0  501  502  0.00000000000E+00  0.00000000000E+00  0.14489909136E+03  0.14489909136E+03  0.00000000000E+00 0. -1.
         21   -1    0    0  502  503 -0.00000000000E+00 -0.00000000000E+00 -0.42218640461E+03  0.42218640461E+03  0.00000000000E+00 0. -1.
          6    2    1    2  501    0  0.78377880160E+02  0.77782096440E+02  0.11014150878E+02  0.21388067004E+03  0.18284004724E+03 0.  0.
         24    2    3    3    0    0 -0.10811524622E+02 -0.16169089178E+02  0.23838559730E+02  0.83618892586E+02  0.77752901925E+02 0.  0.
         -6    2    1    2    0  503 -0.78377880160E+02 -0.77782096440E+02 -0.28830146413E+03  0.35320482592E+03  0.17158895131E+03 0.  0.
        -24    2    5    5    0    0 -0.10234624549E+03 -0.77438226120E+02 -0.15126187293E+03  0.21400518391E+03  0.80290919185E+02 0.  0.
          5    1    3    3  501    0  0.89189404782E+02  0.93951185618E+02 -0.12824408853E+02  0.13026177746E+03  0.47000000000E+01 0. -1.
        -11    1    4    4    0    0 -0.17017385949E+01 -0.47481569252E+02  0.13086443821E+02  0.49281338707E+02  0.00000000000E+00 0.  1.
         12    1    4    4    0    0 -0.91097860270E+01  0.31312480074E+02  0.10752115909E+02  0.34337553879E+02  0.00000000000E+00 0. -1.
         -5    1    5    5    0  503  0.23968365335E+02 -0.34387031974E+00 -0.13703959119E+03  0.13919964202E+03  0.47000000000E+01 0.  1.
         11    1    6    6    0    0 -0.56562473307E+02 -0.32801603860E+02 -0.20628714776E+02  0.68562398409E+02  0.00000000000E+00 0. -1.
        -12    1    6    6    0    0 -0.45783772188E+02 -0.44636622260E+02 -0.13063315816E+03  0.14544278550E+03  0.00000000000E+00 0.  1.
</event>
<event>
12    1  0.8798177E-003  0.1996598E+03  0.7818608E-02  0.1150095E+00
         21   -1    0    0  503  502  0.00000000000E+00  0.00000000000E+00  0.17542471892E+03  0.17542471892E+03  0.00000000000E+00 0. -1.
         21   -1    0    0  501  503 -0.00000000000E+00 -0.00000000000E+00 -0.24153927610E+03  0.24153927610E+03  0.00000000000E+00 0. -1.
          6    2    1    2  501    0  0.74900666800E+02 -0.68184901694E+02 -0.84404478237E+02  0.21646824789E+03  0.17168312582E+03 0.  0.
         24    2    3    3    0    0  0.11267384341E+03 -0.56443894241E+02 -0.36062212514E+02  0.15382857370E+03  0.80507383071E+02 0.  0.
         -6    2    1    2    0  502 -0.74900666800E+02  0.68184901694E+02  0.18289921063E+02  0.20049574712E+03  0.17206025891E+03 0.  0.
        -24    2    5    5    0    0 -0.48519584042E+02  0.92836033944E+01 -0.49089086544E+02  0.10707548629E+03  0.81333179074E+02 0.  0.
          5    1    3    3  501    0 -0.37773176613E+02 -0.11741007453E+02 -0.48342265724E+02  0.62639674191E+02  0.47000000000E+01 0. -1.
        -11    1    4    4    0    0 -0.68747802667E+01 -0.19567129656E+02 -0.17927449623E+02  0.27414022264E+02  0.00000000000E+00 0.  1.
         12    1    4    4    0    0  0.11954862368E+03 -0.36876764584E+02 -0.18134762890E+02  0.12641455144E+03  0.00000000000E+00 0. -1.
         -5    1    5    5    0  502 -0.26381082758E+02  0.58901298299E+02  0.67379007607E+02  0.93420260838E+02  0.47000000000E+01 0.  1.
         11    1    6    6    0    0  0.15712289411E+02  0.51568351799E+01 -0.38426764980E+02  0.41834020299E+02  0.00000000000E+00 0. -1.
        -12    1    6    6    0    0 -0.64231873452E+02  0.41267682145E+01 -0.10662321565E+02  0.65241465988E+02  0.00000000000E+00 0.  1.
</event>
<event>
12    1  0.8798177E-003  0.2139076E+03  0.7818608E-02  0.1139040E+00
         21   -1    0    0  503  502  0.00000000000E+00  0.00000000000E+00  0.30632372522E+02  0.30632372522E+02  0.00000000000E+00 0.  1.
         21   -1    0    0  501  503 -0.00000000000E+00 -0.00000000000E+00 -0.14836091790E+04  0.14836091790E+04  0.00000000000E+00 0. -1.
          6    2    1    2  501    0  0.45923365581E+02 -0.11504200425E+03 -0.78970599760E+03  0.81816382217E+03  0.17439282961E+03 0.  0.
         24    2    3    3    0    0  0.64154901221E+02 -0.11455963911E+03 -0.41069069476E+03  0.43868086952E+03  0.80834994007E+02 0.  0.
         -6    2    1    2    0  502 -0.45923365581E+02  0.11504200425E+03 -0.66327080884E+03  0.69607772931E+03  0.17103339187E+03 0.  0.
        -24    2    5    5    0    0  0.32883184473E+02  0.10086512699E+03 -0.33945319607E+03  0.36247408347E+03  0.70027931560E+02 0.  0.
          5    1    3    3  501    0 -0.18231535640E+02 -0.48236513872E+00 -0.37901530283E+03  0.37948295265E+03  0.47000000000E+01 0. -1.
        -11    1    4    4    0    0 -0.96486291065E+01 -0.34537041299E+02 -0.18075418730E+03  0.18427690982E+03  0.00000000000E+00 0.  1.
         12    1    4    4    0    0  0.73803530327E+02 -0.80022597812E+02 -0.22993650746E+03  0.25440395971E+03  0.00000000000E+00 0. -1.
         -5    1    5    5    0  502 -0.78806550054E+02  0.14176877255E+02 -0.32381761277E+03  0.33360364585E+03  0.47000000000E+01 0.  1.
         13    1    6    6    0    0 -0.68600189212E+01  0.32544955046E+02 -0.19495344547E+03  0.19777027042E+03  0.00000000000E+00 0. -1.
        -14    1    6    6    0    0  0.39743203394E+02  0.68320171949E+02 -0.14449975060E+03  0.16470381305E+03  0.00000000000E+00 0.  1.
</event>
<event>
12    1  0.8798177E-003  0.1755984E+03  0.7818608E-02  0.1172441E+00
         21   -1    0    0  503  502  0.00000000000E+00  0.00000000000E+00  0.24057657258E+03  0.24057657258E+03  0.00000000000E+00 0. -1.
         21   -1    0    0  501  503 -0.00000000000E+00 -0.00000000000E+00 -0.13146803142E+03  0.13146803142E+03  0.00000000000E+00 0. -1.
          6    2    1    2  501    0  0.16509883746E+02  0.24424947657E+02  0.21507419773E+02  0.17691066096E+03  0.17310591708E+03 0.  0.
         24    2    3    3    0    0 -0.19635202066E+02 -0.15849021508E+02  0.61820959683E+02  0.10926650881E+03  0.86490498025E+02 0.  0.
         -6    2    1    2    0  502 -0.16509883746E+02 -0.24424947657E+02  0.87601121380E+02  0.19513394304E+03  0.17185501136E+03 0.  0.
        -24    2    5    5    0    0 -0.32470559078E+02  0.44622805428E+02  0.77862808954E+02  0.12344531010E+03  0.78298120008E+02 0.  0.
          5    1    3    3  501    0  0.36145085811E+02  0.40273969164E+02 -0.40313539909E+02  0.67644152154E+02  0.47000000000E+01 0. -1.
        -11    1    4    4    0    0 -0.27038221025E+02 -0.48876612061E+02  0.43367327467E+02  0.70715724520E+02  0.00000000000E+00 0.  1.
         12    1    4    4    0    0  0.74030189594E+01  0.33027590553E+02  0.18453632216E+02  0.38550784291E+02  0.00000000000E+00 0. -1.
         -5    1    5    5    0  502  0.15960675332E+02 -0.69047753084E+02  0.97383124258E+01  0.71688632934E+02  0.47000000000E+01 0.  1.
         13    1    6    6    0    0 -0.17060247946E+02 -0.75810717384E+01  0.64845685565E+02  0.67479535010E+02  0.00000000000E+00 0. -1.
        -14    1    6    6    0    0 -0.15410311132E+02  0.52203877166E+02  0.13017123389E+02  0.55965775092E+02  0.00000000000E+00 0.  1.
</event>
<event>
12    1  0.8798177E-003  0.2166585E+03  0.7818608E-02  0.1137498E+00
         21   -1    0    0  503  502  0.00000000000E+00  0.00000000000E+00  0.32438786186E+03  0.32438786186E+03  0.00000000000E+00 0. -1.
         21   -1    0    0  501  503 -0.00000000000E+00 -0.00000000000E+00 -0.14536080563E+03  0.14536080563E+03  0.00000000000E+00 0. -1.
          6    2    1    2  501    0  0.61179743636E+02 -0.10471548830E+03  0.47328606470E+02  0.21620303412E+03  0.17261361606E+03 0.  0.
         24    2    3    3    0    0  0.54791420867E+02  0.38169479795E+01 -0.33287261373E+01  0.96168223582E+02  0.78870640398E+02 0.  0.
         -6    2    1    2    0  502 -0.61179743636E+02  0.10471548830E+03  0.13169844976E+03  0.25354563337E+03  0.17953443127E+03 0.  0.
        -24    2    5    5    0    0 -0.34936169368E+02  0.13464654312E+03  0.58527203939E+02  0.17011473713E+03  0.78507086832E+02 0.  0.
          5    1    3    3  501    0  0.63883227691E+01 -0.10853243628E+03  0.50657332607E+02  0.12003481053E+03  0.47000000000E+01 0. -1.
        -13    1    4    4    0    0 -0.12549745846E+01  0.30213495187E+02 -0.13968341518E+02  0.33309830642E+02  0.00000000000E+00 0.  1.
         14    1    4    4    0    0  0.56046395452E+02 -0.26396547207E+02  0.10639615381E+02  0.62858392941E+02  0.00000000000E+00 0. -1.
         -5    1    5    5    0  502 -0.26243574268E+02 -0.29931054819E+02  0.73171245819E+02  0.83430896241E+02  0.47000000000E+01 0.  1.
         11    1    6    6    0    0 -0.24471746494E+02  0.27826540355E+02 -0.15038763876E+02  0.39991838462E+02  0.00000000000E+00 0. -1.
        -12    1    6    6    0    0 -0.10464422874E+02  0.10682000277E+03  0.73565967815E+02  0.13012289867E+03  0.00000000000E+00 0.  1.
</event>
<event>
12    1  0.8798177E-003  0.2194754E+03  0.7818608E-02  0.1135309E+00
         21   -1    0    0  501  502  0.00000000000E+00  0.00000000000E+00  0.12072455716E+03  0.12072455716E+03  0.00000000000E+00 0. -1.
         21   -1    0    0  502  503 -0.00000000000E+00 -0.00000000000E+00 -0.46685872934E+03  0.46685872934E+03  0.00000000000E+00 0. -1.
          6    2    1    2  501    0  0.10139692320E+03 -0.86692913788E+02 -0.51390322576E+02  0.22010081298E+03  0.16735114366E+03 0.  0.
         24    2    3    3    0    0  0.89006859662E+02 -0.14360026215E+02 -0.76573928626E+02  0.14237138282E+03  0.79231386970E+02 0.  0.
         -6    2    1    2    0  503 -0.10139692320E+03  0.86692913788E+02 -0.29474384960E+03  0.36748247352E+03  0.17427688927E+03 0.  0.
        -24    2    5    5    0    0  0.12427940039E+02  0.28326943322E+02 -0.16079714571E+03  0.18220836448E+03  0.79920564343E+02 0.  0.
          5    1    3    3  501    0  0.12390063538E+02 -0.72332887573E+02  0.25183606049E+02  0.77729430159E+02  0.47000000000E+01 0. -1.
        -13    1    4    4    0    0  0.73748278197E+02  0.13766382927E+02 -0.20438583409E+02  0.77756398628E+02  0.00000000000E+00 0.  1.
         14    1    4    4    0    0  0.15258581465E+02 -0.28126409141E+02 -0.56135345217E+02  0.64614984192E+02  0.00000000000E+00 0. -1.
         -5    1    5    5    0  503 -0.11382486324E+03  0.58365970466E+02 -0.13394670389E+03  0.18527410905E+03  0.47000000000E+01 0.  1.
         13    1    6    6    0    0 -0.30747609109E+02  0.22037582627E+02 -0.10345295487E+03  0.11015255052E+03  0.00000000000E+00 0. -1.
        -14    1    6    6    0    0  0.43175549148E+02  0.62893606952E+01 -0.57344190837E+02  0.72055813957E+02  0.00000000000E+00 0.  1.
</event>
<event>
12    1  0.8798177E-003  0.2035793E+03  0.7818608E-02  0.1146852E+00
         21   -1    0    0  501  502  0.00000000000E+00  0.00000000000E+00  0.63758520659E+02  0.63758520659E+02  0.00000000000E+00 0.  1.
         21   -1    0    0  502  503 -0.00000000000E+00 -0.00000000000E+00 -0.69062974595E+03  0.69062974595E+03  0.00000000000E+00 0.  1.
          6    2    1    2  501    0 -0.18247636965E+02 -0.10666395405E+03 -0.22062191923E+03  0.30019752895E+03  0.17243650945E+03 0.  0.
         24    2    3    3    0    0 -0.62963231476E+02 -0.10015860531E+03 -0.20885244835E+03  0.25326764082E+03  0.80802462641E+02 0.  0.
         -6    2    1    2    0  503  0.18247636965E+02  0.10666395405E+03 -0.40624930606E+03  0.45419073766E+03  0.17187365172E+03 0.  0.
        -24    2    5    5    0    0 -0.29113136472E+02  0.99076241528E+02 -0.37439299565E+03  0.39641937145E+03  0.79463995079E+02 0.  0.
          5    1    3    3  501    0  0.44715594511E+02 -0.65053487401E+01 -0.11769470885E+02  0.46929888127E+02  0.47000000000E+01 0. -1.
        -11    1    4    4    0    0 -0.92717505101E-01 -0.59928276606E+02 -0.51133100229E+02  0.78778175103E+02  0.00000000000E+00 0.  1.
         12    1    4    4    0    0 -0.62870513971E+02 -0.40230328707E+02 -0.15771934812E+03  0.17448946572E+03  0.00000000000E+00 0. -1.
         -5    1    5    5    0  503  0.47360773437E+02  0.75877125259E+01 -0.31856310407E+02  0.57771366218E+02  0.47000000000E+01 0.  1.
         11    1    6    6    0    0 -0.28100549646E+02  0.41952135326E+02 -0.67735286984E+02  0.84484860488E+02  0.00000000000E+00 0. -1.
        -12    1    6    6    0    0 -0.10125868262E+01  0.57124106202E+02 -0.30665770867E+03  0.31193451096E+03  0.00000000000E+00 0.  1.
</event>
<event>
12    1  0.8798177E-003  0.1766184E+03  0.7818608E-02  0.1172103E+00
         21   -1    0    0  501  502  0.00000000000E+00  0.00000000000E+00  0.33182361434E+03  0.33182361434E+03  0.00000000000E+00 0. -1.
         21   -1    0    0  502  503 -0.00000000000E+00 -0.00000000000E+00 -0.10685093639E+03  0.10685093639E+03  0.00000000000E+00 0. -1.
          6    2    1    2  501    0  0.26081435922E+02 -0.27355499023E+02  0.19336227871E+03  0.25924973266E+03  0.16850189444E+03 0.  0.
         24    2    3    3    0    0  0.51206311681E+02  0.17405916321E+02  0.55083366708E+02  0.11167605211E+03  0.80698891251E+02 0.  0.
         -6    2    1    2    0  503 -0.26081435922E+02  0.27355499023E+02  0.31610399235E+02  0.17942481807E+03  0.17252676132E+03 0.  0.
        -24    2    5    5    0    0 -0.43223599428E+02 -0.63669537108E+01  0.77487017470E+02  0.11977742342E+03  0.80209573223E+02 0.  0.
          5    1    3    3  501    0 -0.25124875759E+02 -0.44761415344E+02  0.13827891200E+03  0.14757368055E+03  0.47000000000E+01 0. -1.
        -11    1    4    4    0    0  0.65880048740E+02  0.33670850016E+02  0.49666386060E+02  0.89110363410E+02  0.00000000000E+00 0.  1.
         12    1    4    4    0    0 -0.14673737059E+02 -0.16264933695E+02  0.54169806479E+01  0.22565688705E+02  0.00000000000E+00 0. -1.
         -5    1    5    5    0  503  0.17142163506E+02  0.33722452734E+02 -0.45876618235E+02  0.59647394652E+02  0.47000000000E+01 0.  1.
         13    1    6    6    0    0 -0.25735777607E+02  0.46358456312E+01 -0.11395529585E+02  0.28525066315E+02  0.00000000000E+00 0. -1.
        -14    1    6    6    0    0 -0.17487821821E+02 -0.11002799342E+02  0.88882547055E+02  0.91252357101E+02  0.00000000000E+00 0.  1.
</event>
<event>
12    1  0.8798177E-003  0.2361000E+03  0.7818608E-02  0.1123319E+00
         21   -1    0    0  501  502  0.00000000000E+00  0.00000000000E+00  0.85189901806E+03  0.85189901806E+03  0.00000000000E+00 0. -1.
         21   -1    0    0  502  503 -0.00000000000E+00 -0.00000000000E+00 -0.10187645858E+03  0.10187645858E+03  0.00000000000E+00 0. -1.
          6    2    1    2  501    0 -0.14333312176E+03 -0.75391987527E+02  0.66317135058E+03  0.70220769547E+03  0.16453288962E+03 0.  0.
         24    2    3    3    0    0 -0.33578003573E+02 -0.54084560930E+02  0.18506547064E+03  0.21118069536E+03  0.79343781208E+02 0.  0.
         -6    2    1    2    0  503  0.14333312176E+03  0.75391987527E+02  0.86851208896E+02  0.25156778116E+03  0.17179895359E+03 0.  0.
        -24    2    5    5    0    0  0.10289351734E+03  0.10807087354E+03  0.99916927993E+02  0.19775259545E+03  0.82802819335E+02 0.  0.
          5    1    3    3  501    0 -0.10975511819E+03 -0.21307426597E+02  0.47810587994E+03  0.49102700011E+03  0.47000000000E+01 0. -1.
        -13    1    4    4    0    0 -0.41399590268E+02 -0.70416884152E+02  0.16525284332E+03  0.18433926840E+03  0.00000000000E+00 0.  1.
         14    1    4    4    0    0  0.78215866943E+01  0.16332323222E+02  0.19812627315E+02  0.26841426962E+02  0.00000000000E+00 0. -1.
         -5    1    5    5    0  503  0.40439604423E+02 -0.32678886018E+02 -0.13065719097E+02  0.53815185708E+02  0.47000000000E+01 0.  1.
         13    1    6    6    0    0  0.78894295871E+02  0.35219809468E+02  0.23628622923E+02  0.89571517354E+02  0.00000000000E+00 0. -1.
        -14    1    6    6    0    0  0.23999221469E+02  0.72851064077E+02  0.76288305071E+02  0.10818107810E+03  0.00000000000E+00 0.  1.
</event>
<event>
12    1  0.8798177E-003  0.1982226E+03  0.7818608E-02  0.1151884E+00
         21   -1    0    0  501  502  0.00000000000E+00  0.00000000000E+00  0.19707893103E+03  0.19707893103E+03  0.00000000000E+00 0. -1.
         21   -1    0    0  502  503 -0.00000000000E+00 -0.00000000000E+00 -0.19648766861E+03  0.19648766861E+03  0.00000000000E+00 0. -1.
          6    2    1    2  501    0 -0.50007950966E+02 -0.75312814912E+02  0.43049695542E+01  0.19530916753E+03  0.17307317212E+03 0.  0.
         24    2    3    3    0    0  0.37895951820E+02 -0.47616046968E+02  0.16477071986E+02  0.10222610163E+03  0.80469191998E+02 0.  0.
         -6    2    1    2    0  503  0.50007950966E+02  0.75312814912E+02 -0.37137071289E+01  0.19825743211E+03  0.17640692310E+03 0.  0.
        -24    2    5    5    0    0 -0.35875718106E+02  0.61157431107E+02  0.16447650995E+02  0.10878704670E+03  0.80850465536E+02 0.  0.
          5    1    3    3  501    0 -0.87903902786E+02 -0.27696767945E+02 -0.12172102432E+02  0.93083065899E+02  0.47000000000E+01 0. -1.
        -11    1    4    4    0    0  0.17970935711E+02 -0.69210745761E+02  0.11467817886E+02  0.72419560245E+02  0.00000000000E+00 0.  1.
         12    1    4    4    0    0  0.19925016109E+02  0.21594698793E+02  0.50092540995E+01  0.29806541388E+02  0.00000000000E+00 0. -1.
         -5    1    5    5    0  503  0.85883669072E+02  0.14155383806E+02 -0.20161358124E+02  0.89470385409E+02  0.47000000000E+01 0.  1.
         11    1    6    6    0    0 -0.38877858765E+02 -0.13354824233E+01  0.24091797963E+02  0.45756815280E+02  0.00000000000E+00 0. -1.
        -12    1    6    6    0    0  0.30021406599E+01  0.62492913530E+02 -0.76441469678E+01  0.63030231420E+02  0.00000000000E+00 0.  1.
</event>
<event>
12    1  0.8798177E-003  0.3062189E+03  0.7818608E-02  0.1083076E+00
         21   -1    0    0  503  502  0.00000000000E+00  0.00000000000E+00  0.17589706940E+03  0.17589706940E+03  0.00000000000E+00 0.  1.
         21   -1    0    0  501  503 -0.00000000000E+00 -0.00000000000E+00 -0.61804125927E+03  0.61804125927E+03  0.00000000000E+00 0. -1.
          6    2    1    2  501    0 -0.24334268225E+03 -0.18250152118E+02 -0.37658067909E+03  0.48077924105E+03  0.17258893851E+03 0.  0.
         24    2    3    3    0    0 -0.23139497321E+03  0.32004436897E+02 -0.31618784277E+03  0.40116984369E+03  0.79966080067E+02 0.  0.
         -6    2    1    2    0  502  0.24334268225E+03  0.18250152118E+02 -0.65563510780E+02  0.31315908763E+03  0.18499002990E+03 0.  0.
        -24    2    5    5    0    0  0.19817228340E+03  0.18025458190E+02  0.20623729579E+02  0.21573862869E+03  0.80750520960E+02 0.  0.
          5    1    3    3  501    0 -0.11947709038E+02 -0.50254589015E+02 -0.60392836326E+02  0.79609397359E+02  0.47000000000E+01 0. -1.
        -11    1    4    4    0    0 -0.17109333640E+03  0.39717557523E+02 -0.17735478967E+03  0.24960996686E+03  0.00000000000E+00 0.  1.
         12    1    4    4    0    0 -0.60301636808E+02 -0.77131206259E+01 -0.13883305309E+03  0.15155987682E+03  0.00000000000E+00 0. -1.
         -5    1    5    5    0  502  0.45170398848E+02  0.22469392714E+00 -0.86187240360E+02  0.97420458941E+02  0.47000000000E+01 0.  1.
         13    1    6    6    0    0  0.13071218558E+02 -0.15770724373E+01  0.26412924956E+02  0.29512480696E+02  0.00000000000E+00 0. -1.
        -14    1    6    6    0    0  0.18510106484E+03  0.19602530628E+02 -0.57891953773E+01  0.18622614799E+03  0.00000000000E+00 0.  1.
</event>
<event>
12    1  0.8798177E-003  0.1994569E+03  0.7818608E-02  0.1150677E+00
         21   -1    0    0  501  502  0.00000000000E+00  0.00000000000E+00  0.10316070261E+04  0.10316070261E+04  0.00000000000E+00 0. -1.
         21   -1    0    0  502  503 -0.00000000000E+00 -0.00000000000E+00 -0.71509122983E+02  0.71509122983E+02  0.00000000000E+00 0.  1.
          6    2    1    2  501    0 -0.94251097064E+02  0.27793392762E+02  0.85542359643E+03  0.87786126552E+03  0.17098283598E+03 0.  0.
         24    2    3    3    0    0  0.89108877096E+01  0.45234281179E+02  0.37673056321E+03  0.38784525584E+03  0.79827821647E+02 0.  0.
         -6    2    1    2    0  503  0.94251097064E+02 -0.27793392762E+02  0.10467430666E+03  0.22525488353E+03  0.17357220429E+03 0.  0.
        -24    2    5    5    0    0  0.20321365980E+02  0.32426042538E+01  0.12305074868E+03  0.14286178995E+03  0.69602671496E+02 0.  0.
          5    1    3    3  501    0 -0.10316198477E+03 -0.17440888417E+02  0.47869303322E+03  0.49001600968E+03  0.47000000000E+01 0. -1.
        -11    1    4    4    0    0  0.22438953835E+02 -0.16178311429E+02  0.84052358189E+02  0.88487532043E+02  0.00000000000E+00 0.  1.
         12    1    4    4    0    0 -0.13528066125E+02  0.61412592607E+02  0.29267820502E+03  0.29935772380E+03  0.00000000000E+00 0. -1.
         -5    1    5    5    0  503  0.73929731084E+02 -0.31035997016E+02 -0.18376442019E+02  0.82393093583E+02  0.47000000000E+01 0.  1.
         13    1    6    6    0    0  0.23691314014E+02 -0.58230318711E+01  0.12914567608E+03  0.13142979765E+03  0.00000000000E+00 0. -1.
        -14    1    6    6    0    0 -0.33699480338E+01  0.90656361249E+01 -0.60949273958E+01  0.11431992305E+02  0.00000000000E+00 0.  1.
</event>
<event>
12    1  0.8798177E-003  0.1735007E+03  0.7818608E-02  0.1174677E+00
         21   -1    0    0  501  502  0.00000000000E+00  0.00000000000E+00  0.52946402582E+03  0.52946402582E+03  0.00000000000E+00 0.  1.
         21   -1    0    0  502  503 -0.00000000000E+00 -0.00000000000E+00 -0.56982224684E+02  0.56982224684E+02  0.00000000000E+00 0.  1.
          6    2    1    2  501    0 -0.40429985150E+01  0.14482524910E+01  0.26713081380E+03  0.31761259495E+03  0.17175693733E+03 0.  0.
         24    2    3    3    0    0  0.57021661015E+02  0.10124290834E+02  0.21556269956E+03  0.23707982714E+03  0.79909923709E+02 0.  0.
         -6    2    1    2    0  503  0.40429985150E+01 -0.14482524910E+01  0.20535098734E+03  0.26883365555E+03  0.17344758022E+03 0.  0.
        -24    2    5    5    0    0  0.20617464111E+02  0.17787469198E+02  0.22238767904E+03  0.23789719223E+03  0.79983250698E+02 0.  0.
          5    1    3    3  501    0 -0.61064659530E+02 -0.86760383429E+01  0.51568114238E+02  0.80532767809E+02  0.47000000000E+01 0. -1.
        -11    1    4    4    0    0  0.57923295414E+02  0.22827968167E+02  0.82232005940E+02  0.10314226623E+03  0.00000000000E+00 0.  1.
         12    1    4    4    0    0 -0.90163439818E+00 -0.12703677333E+02  0.13333069362E+03  0.13393756091E+03  0.00000000000E+00 0. -1.
         -5    1    5    5    0  503 -0.16574465596E+02 -0.19235721689E+02 -0.17036691706E+02  0.30936463324E+02  0.47000000000E+01 0.  1.
         11    1    6    6    0    0  0.18376864252E+02 -0.16157883184E+02  0.17204355915E+02  0.29912809817E+02  0.00000000000E+00 0. -1.
        -12    1    6    6    0    0  0.22405998596E+01  0.33945352382E+02  0.20518332313E+03  0.20798438241E+03  0.00000000000E+00 0.  1.
</event>
<event>
12    1  0.8798177E-003  0.1729493E+03  0.7818608E-02  0.1175114E+00
         21   -1    0    0  503  502  0.00000000000E+00  0.00000000000E+00  0.17077666153E+04  0.17077666153E+04  0.00000000000E+00 0. -1.
         21   -1    0    0  501  503 -0.00000000000E+00 -0.00000000000E+00 -0.20755677808E+02  0.20755677808E+02  0.00000000000E+00 0. -1.
          6    2    1    2  501    0  0.77910759276E+01 -0.19398153715E+02  0.49321233867E+03  0.52226090440E+03  0.17047302429E+03 0.  0.
         24    2    3    3    0    0 -0.19280651735E+02 -0.72543283356E+02  0.27940418622E+03  0.30023996102E+03  0.80268695169E+02 0.  0.
         -6    2    1    2    0  502 -0.77910759276E+01  0.19398153715E+02  0.11937985988E+04  0.12062613887E+04  0.17168125733E+03 0.  0.
        -24    2    5    5    0    0 -0.46890231144E+02  0.60213446715E+02  0.92358265661E+03  0.93015746352E+03  0.79772366196E+02 0.  0.
          5    1    3    3  501    0  0.27071727663E+02  0.53145129640E+02  0.21380815246E+03  0.22202094338E+03  0.47000000000E+01 0. -1.
        -11    1    4    4    0    0  0.89780518108E+01 -0.80112156344E+02  0.20799458077E+03  0.22307018769E+03  0.00000000000E+00 0.  1.
         12    1    4    4    0    0 -0.28258703546E+02  0.75688729884E+01  0.71409605449E+02  0.77169773323E+02  0.00000000000E+00 0. -1.
         -5    1    5    5    0  502  0.39099155216E+02 -0.40815293000E+02  0.27021594219E+03  0.27610392517E+03  0.47000000000E+01 0.  1.
         11    1    6    6    0    0 -0.61696444401E+02  0.24325851038E+02  0.43397641944E+03  0.43901449966E+03  0.00000000000E+00 0. -1.
        -12    1    6    6    0    0  0.14806213258E+02  0.35887595677E+02  0.48960623717E+03  0.49114296386E+03  0.00000000000E+00 0.  1.
</event>
<event>
12    1  0.8798177E-003  0.1837782E+03  0.7818608E-02  0.1164288E+00
         21   -1    0    0  501  502  0.00000000000E+00  0.00000000000E+00  0.74514316896E+03  0.74514316896E+03  0.00000000000E+00 0.  1.
         21   -1    0    0  502  503 -0.00000000000E+00 -0.00000000000E+00 -0.48759354935E+02  0.48759354935E+02  0.00000000000E+00 0. -1.
          6    2    1    2  501    0 -0.19090509238E+02 -0.63882551178E+02  0.45464418367E+03  0.49023742841E+03  0.17083903119E+03 0.  0.
         24    2    3    3    0    0 -0.73003342188E+02 -0.67539923132E+02  0.28391329794E+03  0.31109755214E+03  0.79270404401E+02 0.  0.
         -6    2    1    2    0  503  0.19090509238E+02  0.63882551178E+02  0.24173963035E+03  0.30366509549E+03  0.17125715590E+03 0.  0.
        -24    2    5    5    0    0 -0.47759791731E+02  0.62463524373E+02  0.11373715275E+03  0.15917391704E+03  0.78851165918E+02 0.  0.
          5    1    3    3  501    0  0.53912832950E+02  0.36573719538E+01  0.17073088573E+03  0.17913987626E+03  0.47000000000E+01 0. -1.
        -13    1    4    4    0    0 -0.10134400678E+02 -0.39212821986E+02  0.19182082967E+03  0.19604994817E+03  0.00000000000E+00 0.  1.
         14    1    4    4    0    0 -0.62868941510E+02 -0.28327101146E+02  0.92092468276E+02  0.11504760397E+03  0.00000000000E+00 0. -1.
         -5    1    5    5    0  503  0.66850300969E+02  0.14190268049E+01  0.12800247760E+03  0.14449117844E+03  0.47000000000E+01 0.  1.
         11    1    6    6    0    0  0.97448364436E+01  0.50321089460E+02  0.65300415988E+02  0.83013963946E+02  0.00000000000E+00 0. -1.
        -12    1    6    6    0    0 -0.57504628175E+02  0.12142434913E+02  0.48436736766E+02  0.76159953096E+02  0.00000000000E+00 0.  1.
</event>
<event>
12    1  0.8798177E-003  0.2319901E+03  0.7818608E-02  0.1127400E+00
         21   -1    0    0  501  502  0.00000000000E+00  0.00000000000E+00  0.57959058122E+03  0.57959058122E+03  0.00000000000E+00 0. -1.
         21   -1    0    0  502  503 -0.00000000000E+00 -0.00000000000E+00 -0.11609167670E+03  0.11609167670E+03  0.00000000000E+00 0. -1.
          6    2    1    2  501    0  0.94730695809E+02  0.99031526640E+02  0.39780789039E+03  0.45457086418E+03  0.17205349433E+03 0.  0.
         24    2    3    3    0    0  0.10397384013E+03  0.13275965914E+03  0.34837817426E+03  0.39383858714E+03  0.72840880635E+02 0.  0.
         -6    2    1    2    0  503 -0.94730695809E+02 -0.99031526640E+02  0.65691014128E+02  0.24111139374E+03  0.18718506045E+03 0.  0.
        -24    2    5    5    0    0 -0.77403496400E+02  0.41848484910E+01 -0.55854195732E+01  0.11439804820E+03  0.83945829613E+02 0.  0.
          5    1    3    3  501    0 -0.92431443195E+01 -0.33728132497E+02  0.49429716125E+02  0.60732277043E+02  0.47000000000E+01 0. -1.
        -13    1    4    4    0    0  0.66545724102E+02  0.34987257282E+02  0.18619032366E+03  0.20079660902E+03  0.00000000000E+00 0.  1.
         14    1    4    4    0    0  0.37428116026E+02  0.97772401855E+02  0.16218785060E+03  0.19304197812E+03  0.00000000000E+00 0. -1.
         -5    1    5    5    0  503 -0.17327199409E+02 -0.10321637513E+03  0.71276433701E+02  0.12671334553E+03  0.47000000000E+01 0.  1.
         11    1    6    6    0    0  0.51104866661E+01 -0.22363815657E+02  0.12094917972E+02  0.25933460345E+02  0.00000000000E+00 0. -1.
        -12    1    6    6    0    0 -0.82513983066E+02  0.26548664148E+02 -0.17680337545E+02  0.88464587860E+02  0.00000000000E+00 0.  1.
</event>
<event>
12    1  0.8798177E-003  0.1988537E+03  0.7818608E-02  0.1151055E+00
         21   -1    0    0  503  502  0.00000000000E+00  0.00000000000E+00  0.15870260237E+03  0.15870260237E+03  0.00000000000E+00 0.  1.
         21   -1    0    0  501  503 -0.00000000000E+00 -0.00000000000E+00 -0.26664236688E+03  0.26664236688E+03  0.00000000000E+00 0.  1.
          6    2    1    2  501    0 -0.51894859067E+02 -0.84897833725E+02  0.33418759168E+01  0.19888174390E+03  0.17216870028E+03 0.  0.
         24    2    3    3    0    0 -0.44463865416E+01 -0.41957918921E+02 -0.59791811575E+02  0.10886426602E+03  0.80598575489E+02 0.  0.
         -6    2    1    2    0  502  0.51894859067E+02  0.84897833725E+02 -0.11128164043E+03  0.22646322535E+03  0.17029759355E+03 0.  0.
        -24    2    5    5    0    0  0.61355565611E+01 -0.20180922148E+02 -0.42733089399E+02  0.92835187311E+02  0.79670197693E+02 0.  0.
          5    1    3    3  501    0 -0.47448472525E+02 -0.42939914804E+02  0.63133687492E+02  0.90017477885E+02  0.47000000000E+01 0. -1.
        -13    1    4    4    0    0 -0.36849335598E+02 -0.29177319359E+02 -0.99279081861E+01  0.48039076385E+02  0.00000000000E+00 0.  1.
         14    1    4    4    0    0  0.32402949056E+02 -0.12780599562E+02 -0.49863903389E+02  0.60825189633E+02  0.00000000000E+00 0. -1.
         -5    1    5    5    0  502  0.45759302506E+02  0.10507875587E+03 -0.68548551028E+02  0.13362803804E+03  0.47000000000E+01 0.  1.
         13    1    6    6    0    0  0.65217108915E+01 -0.28754747549E+02 -0.63692742121E+02  0.70186420470E+02  0.00000000000E+00 0. -1.
        -14    1    6    6    0    0 -0.38615433042E+00  0.85738254007E+01  0.20959652722E+02  0.22648766840E+02  0.00000000000E+00 0.  1.
</event>
<event>
12    1  0.8798177E-003  0.2697665E+03  0.7818608E-02  0.1101705E+00
         21   -1    0    0  501  502  0.00000000000E+00  0.00000000000E+00  0.50940114966E+03  0.50940114966E+03  0.00000000000E+00 0. -1.
         21   -1    0    0  502  503 -0.00000000000E+00 -0.00000000000E+00 -0.14658074277E+03  0.14658074277E+03  0.00000000000E+00 0. -1.
          6    2    1    2  501    0 -0.20555270292E+03 -0.23708478753E+02  0.24005013906E+03  0.35959274336E+03  0.16990840526E+03 0.  0.
         24    2    3    3    0    0 -0.18017917461E+03 -0.32011576948E+02  0.25877216932E+03  0.32664791379E+03  0.79035105798E+02 0.  0.
         -6    2    1    2    0  503  0.20555270292E+03  0.23708478753E+02  0.12277026784E+03  0.29638914907E+03  0.17308952416E+03 0.  0.
        -24    2    5    5    0    0  0.31349985132E+02 -0.14405981191E+02  0.41290550893E+02  0.10027608674E+03  0.84616961163E+02 0.  0.
          5    1    3    3  501    0 -0.25373528312E+02  0.83030981948E+01 -0.18722030261E+02  0.32944829575E+02  0.47000000000E+01 0. -1.
        -13    1    4    4    0    0 -0.31712609255E+02 -0.82991192013E+01  0.71835253599E+01  0.33558426689E+02  0.00000000000E+00 0.  1.
         14    1    4    4    0    0 -0.14846656536E+03 -0.23712457747E+02  0.25158864396E+03  0.29308948710E+03  0.00000000000E+00 0. -1.
         -5    1    5    5    0  503  0.17420271779E+03  0.38114459944E+02  0.81479716947E+02  0.19611306233E+03  0.47000000000E+01 0.  1.
         11    1    6    6    0    0  0.49663815800E+02  0.13707763905E+02  0.64781851832E+01  0.51926527656E+02  0.00000000000E+00 0. -1.
        -12    1    6    6    0    0 -0.18313830668E+02 -0.28113745096E+02  0.34812365710E+02  0.48349559081E+02  0.00000000000E+00 0.  1.
</event>
<event>
12    1  0.8798177E-003  0.1979906E+03  0.7818608E-02  0.1151529E+00
         21   -1    0    0  503  502  0.00000000000E+00  0.00000000000E+00  0.48923629546E+03  0.48923629546E+03  0.00000000000E+00 0.  1.
         21   -1    0    0  501  503 -0.00000000000E+00 -0.00000000000E+00 -0.17152358543E+03  0.17152358543E+03  0.00000000000E+00 0. -1.
          6    2    1    2  501    0 -0.95084096316E+02 -0.21558416671E+02 -0.82594512769E+02  0.21416594048E+03  0.17187043324E+03 0.  0.
         24    2    3    3    0    0 -0.11590164102E+03  0.27459436525E+02 -0.52020937441E+02  0.15257898076E+03  0.79918435865E+02 0.  0.
         -6    2    1    2    0  502  0.95084096316E+02  0.21558416671E+02  0.40030722281E+03  0.44659394041E+03  0.17232099198E+03 0.  0.
        -24    2    5    5    0    0  0.56301487715E+02 -0.32870071844E+01  0.89347459665E+02  0.13220652000E+03  0.79466555528E+02 0.  0.
          5    1    3    3  501    0  0.20817544706E+02 -0.49017853197E+02 -0.30573575328E+02  0.61586959723E+02  0.47000000000E+01 0. -1.
        -11    1    4    4    0    0 -0.70911392295E+02  0.52106540014E+02 -0.14880824660E+02  0.89246602244E+02  0.00000000000E+00 0.  1.
         12    1    4    4    0    0 -0.44990248727E+02 -0.24647103489E+02 -0.37140112781E+02  0.63332378514E+02  0.00000000000E+00 0. -1.
         -5    1    5    5    0  502  0.38782608600E+02  0.24845423856E+02  0.31095976314E+03  0.31438742041E+03  0.47000000000E+01 0.  1.
         11    1    6    6    0    0  0.21889378870E+02 -0.83425443322E+01 -0.11089528330E+02  0.25917573031E+02  0.00000000000E+00 0. -1.
        -12    1    6    6    0    0  0.34412108846E+02  0.50555371478E+01  0.10043698799E+03  0.10628894697E+03  0.00000000000E+00 0.  1.
</event>
<event>
12    1  0.8798177E-003  0.1847323E+03  0.7818608E-02  0.1163309E+00
         21   -1    0    0  503  502  0.00000000000E+00  0.00000000000E+00  0.26859756290E+03  0.26859756290E+03  0.00000000000E+00 0. -1.
         21   -1    0    0  501  503 -0.00000000000E+00 -0.00000000000E+00 -0.57535642974E+03  0.57535642974E+03  0.00000000000E+00 0.  1.
          6    2    1    2  501    0  0.32437906232E+02 -0.59695896455E+02 -0.52586976381E+03  0.55736091493E+03  0.17174505287E+03 0.  0.
         24    2    3    3    0    0  0.79593415995E+02 -0.74112599237E+02 -0.40525253234E+03  0.42696885249E+03  0.79025292094E+02 0.  0.
         -6    2    1    2    0  502 -0.32437906232E+02  0.59695896455E+02  0.21911089696E+03  0.28659307772E+03  0.17178529976E+03 0.  0.
        -24    2    5    5    0    0 -0.74180729559E+01  0.53143565993E+02  0.23652783049E+03  0.25505952947E+03  0.78934672778E+02 0.  0.
          5    1    3    3  501    0 -0.47155509764E+02  0.14416702782E+02 -0.12061723147E+03  0.13039206244E+03  0.47000000000E+01 0. -1.
        -11    1    4    4    0    0  0.21444203568E+02  0.13305438599E+02 -0.12883344895E+03  0.13128193376E+03  0.00000000000E+00 0.  1.
         12    1    4    4    0    0  0.58149212428E+02 -0.87418037835E+02 -0.27641908339E+03  0.29568691872E+03  0.00000000000E+00 0. -1.
         -5    1    5    5    0  502 -0.25019833276E+02  0.65523304613E+01 -0.17416933523E+02  0.31533548246E+02  0.47000000000E+01 0.  1.
         13    1    6    6    0    0 -0.40796440231E+02  0.12121036780E+02  0.10497484917E+03  0.11327395123E+03  0.00000000000E+00 0. -1.
        -14    1    6    6    0    0  0.33378367275E+02  0.41022529213E+02  0.13155298132E+03  0.14178557824E+03  0.00000000000E+00 0.  1.
</event>
<event>
12    1  0.8798177E-003  0.2571155E+03  0.7818608E-02  0.1109513E+00
         21   -1    0    0  503  502  0.00000000000E+00  0.00000000000E+00  0.92369257877E+03  0.92369257877E+03  0.00000000000E+00 0. -1.
         21   -1    0    0  501  503 -0.00000000000E+00 -0.00000000000E+00 -0.74970126791E+02  0.74970126791E+02  0.00000000000E+00 0.  1.
          6    2    1    2  501    0 -0.14501540242E+03 -0.11910699456E+03  0.54387254480E+03  0.59986222517E+03  0.16976866939E+03 0.  0.
         24    2    3    3    0    0 -0.18344697400E+02 -0.60583222162E+02  0.32218606780E+03  0.33787466148E+03  0.79677913207E+02 0.  0.
         -6    2    1    2    0  502  0.14501540242E+03  0.11910699456E+03  0.30484990718E+03  0.39880048039E+03  0.17576237983E+03 0.  0.
        -24    2    5    5    0    0  0.28812870729E+02  0.17427121000E+02  0.49167003739E+02  0.10007374545E+03  0.80395734997E+02 0.  0.
          5    1    3    3  501    0 -0.12667070502E+03 -0.58523772394E+02  0.22168647700E+03  0.26198756369E+03  0.47000000000E+01 0. -1.
        -11    1    4    4    0    0  0.29310248936E+02 -0.38132715088E+02  0.13045484686E+03  0.13903834623E+03  0.00000000000E+00 0.  1.
         12    1    4    4    0    0 -0.47654946336E+02 -0.22450507074E+02  0.19173122094E+03  0.19883631525E+03  0.00000000000E+00 0. -1.
         -5    1    5    5    0  502  0.11620253169E+03  0.10167987356E+03  0.25568290344E+03  0.29872673494E+03  0.47000000000E+01 0.  1.
         11    1    6    6    0    0 -0.19147670322E+01 -0.25168836903E+02  0.39185050355E+02  0.46611209544E+02  0.00000000000E+00 0. -1.
        -12    1    6    6    0    0  0.30727637761E+02  0.42595957904E+02  0.99819533843E+01  0.53462535906E+02  0.00000000000E+00 0.  1.
</event>
<event>
12    1  0.8798177E-003  0.2146532E+03  0.7818608E-02  0.1138882E+00
         21   -1    0    0  501  502  0.00000000000E+00  0.00000000000E+00  0.14009737411E+03  0.14009737411E+03  0.00000000000E+00 0.  1.
         21   -1    0    0  502  503 -0.00000000000E+00 -0.00000000000E+00 -0.34703197512E+03  0.34703197512E+03  0.00000000000E+00 0.  1.
          6    2    1    2  501    0 -0.24411130260E+02  0.12553658154E+03 -0.36260684281E+02  0.21289298278E+03  0.16629265861E+03 0.  0.
         24    2    3    3    0    0 -0.77487317726E+02  0.94303131820E+02 -0.11836394704E+02  0.14647577131E+03  0.80110462881E+02 0.  0.
         -6    2    1    2    0  503  0.24411130260E+02 -0.12553658154E+03 -0.17067391673E+03  0.27423636645E+03  0.17239681623E+03 0.  0.
        -24    2    5    5    0    0 -0.44800793376E+02 -0.25186124688E+02 -0.71389280515E+02  0.11694671787E+03  0.77062659464E+02 0.  0.
          5    1    3    3  501    0  0.53076187466E+02  0.31233449716E+02 -0.24424289577E+02  0.66417211462E+02  0.47000000000E+01 0. -1.
        -13    1    4    4    0    0 -0.18810983865E+02  0.82043352930E+02 -0.18443930243E+02  0.86169271998E+02  0.00000000000E+00 0.  1.
         14    1    4    4    0    0 -0.58676333861E+02  0.12259778891E+02  0.66075355391E+01  0.60306499316E+02  0.00000000000E+00 0. -1.
         -5    1    5    5    0  503  0.69211923636E+02 -0.10035045685E+03 -0.99284636217E+02  0.15728964858E+03  0.47000000000E+01 0.  1.
         13    1    6    6    0    0 -0.20539499196E+02 -0.38289457502E+02 -0.77366241740E+02  0.88732682502E+02  0.00000000000E+00 0. -1.
        -14    1    6    6    0    0 -0.24261294179E+02  0.13103332814E+02  0.59769612254E+01  0.28214035365E+02  0.00000000000E+00 0.  1.
</event>
<event>
12    1  0.8798177E-003  0.2215346E+03  0.7818608E-02  0.1132940E+00
         21   -1    0    0  503  502  0.00000000000E+00  0.00000000000E+00  0.22908804831E+03  0.22908804831E+03  0.00000000000E+00 0. -1.
         21   -1    0    0  501  503 -0.00000000000E+00 -0.00000000000E+00 -0.25767130134E+03  0.25767130134E+03  0.00000000000E+00 0. -1.
          6    2    1    2  501    0  0.18171284749E+02 -0.13847838742E+03 -0.11536503472E+03  0.24883364009E+03  0.17059492910E+03 0.  0.
         24    2    3    3    0    0 -0.39279620151E+02 -0.37056413258E+02 -0.24677587930E+02  0.10107259543E+03  0.81796209433E+02 0.  0.
         -6    2    1    2    0  502 -0.18171284749E+02  0.13847838742E+03  0.86781781695E+02  0.23792570955E+03  0.17196251412E+03 0.  0.
        -24    2    5    5    0    0 -0.53440765364E+02  0.10447910171E+03  0.72391178866E+01  0.14438955046E+03  0.83810138761E+02 0.  0.
          5    1    3    3  501    0  0.57450904900E+02 -0.10142197416E+03 -0.90687446789E+02  0.14776104467E+03  0.47000000000E+01 0. -1.
        -13    1    4    4    0    0 -0.11319799976E+01  0.20384147214E+02  0.11260650578E+02  0.23315168620E+02  0.00000000000E+00 0.  1.
         14    1    4    4    0    0 -0.38147640153E+02 -0.57440560472E+02 -0.35938238508E+02  0.77757426807E+02  0.00000000000E+00 0. -1.
         -5    1    5    5    0  502  0.35269480615E+02  0.33999285710E+02  0.79542663809E+02  0.93536159091E+02  0.47000000000E+01 0.  1.
         11    1    6    6    0    0 -0.11589019364E+01  0.20420751734E+02  0.35913285221E+02  0.41329338374E+02  0.00000000000E+00 0. -1.
        -12    1    6    6    0    0 -0.52281863428E+02  0.84058349973E+02 -0.28674167334E+02  0.10306021209E+03  0.00000000000E+00 0.  1.
</event>
<event>
12    1  0.8798177E-003  0.1755643E+03  0.7818608E-02  0.1172260E+00
         21   -1    0    0  501  502  0.00000000000E+00  0.00000000000E+00  0.74118372260E+03  0.74118372260E+03  0.00000000000E+00 0. -1.
         21   -1    0    0  502  503 -0.00000000000E+00 -0.00000000000E+00 -0.42043523185E+02  0.42043523185E+02  0.00000000000E+00 0. -1.
          6    2    1    2  501    0  0.21346032698E+02  0.31523789483E+02  0.39382743790E+03  0.43103595118E+03  0.17100449686E+03 0.  0.
         24    2    3    3    0    0  0.75669419548E+02  0.40317047029E+02  0.23714028029E+03  0.26489954006E+03  0.81147572075E+02 0.  0.
         -6    2    1    2    0  503 -0.21346032698E+02 -0.31523789483E+02  0.30531276152E+03  0.35219129461E+03  0.17138676507E+03 0.  0.
        -24    2    5    5    0    0 -0.24596864085E+02 -0.80715279182E+02  0.26036394413E+03  0.28531187515E+03  0.80582384437E+02 0.  0.
          5    1    3    3  501    0 -0.54323386850E+02 -0.87932575454E+01  0.15668715762E+03  0.16613641112E+03  0.47000000000E+01 0. -1.
        -13    1    4    4    0    0  0.59893067957E+02  0.17353710734E+02  0.63351566911E+02  0.88891798810E+02  0.00000000000E+00 0.  1.
         14    1    4    4    0    0  0.15776351592E+02  0.22963336295E+02  0.17378871338E+03  0.17600774125E+03  0.00000000000E+00 0. -1.
         -5    1    5    5    0  503  0.32508313866E+01  0.49191489699E+02  0.44948817388E+02  0.66879419466E+02  0.47000000000E+01 0.  1.
         11    1    6    6    0    0  0.29678933081E+01 -0.47700200177E+02  0.44826147035E+02  0.65524811679E+02  0.00000000000E+00 0. -1.
        -12    1    6    6    0    0 -0.27564757393E+02 -0.33015079005E+02  0.21553779709E+03  0.21978706347E+03  0.00000000000E+00 0.  1.
</event>
<event>
12    1  0.8798177E-003  0.2520456E+03  0.7818608E-02  0.1112288E+00
         21   -1    0    0  501  502  0.00000000000E+00  0.00000000000E+00  0.25287018009E+03  0.25287018009E+03  0.00000000000E+00 0.  1.
         21   -1    0    0  502  503 -0.00000000000E+00 -0.00000000000E+00 -0.26988493997E+03  0.26988493997E+03  0.00000000000E+00 0. -1.
          6    2    1    2  501    0 -0.19311056381E+01  0.18345520699E+03  0.63265168164E+02  0.25986429281E+03  0.17282195183E+03 0.  0.
         24    2    3    3    0    0  0.18586341237E+02  0.16782615987E+03 -0.46983694604E+01  0.18701949076E+03  0.80269192274E+02 0.  0.
         -6    2    1    2    0  503  0.19311056381E+01 -0.18345520699E+03 -0.80279928043E+02  0.26289082725E+03  0.17031493788E+03 0.  0.
        -24    2    5    5    0    0  0.11401215687E+02 -0.20678925454E+03 -0.60223753825E+02  0.23035621670E+03  0.80903044026E+02 0.  0.
          5    1    3    3  501    0 -0.20517446875E+02  0.15629047116E+02  0.67963537624E+02  0.72844802055E+02  0.47000000000E+01 0. -1.
        -13    1    4    4    0    0 -0.15153104650E+02  0.70683511819E+02  0.30312969928E+02  0.78387827942E+02  0.00000000000E+00 0.  1.
         14    1    4    4    0    0  0.33739445887E+02  0.97142648054E+02 -0.35011339389E+02  0.10863166281E+03  0.00000000000E+00 0. -1.
         -5    1    5    5    0  503 -0.94701100487E+01  0.23334047553E+02 -0.20056174218E+02  0.32534610552E+02  0.47000000000E+01 0.  1.
         13    1    6    6    0    0  0.11917919167E+02 -0.91877802960E+02 -0.68387639655E+02  0.11515396967E+03  0.00000000000E+00 0. -1.
        -14    1    6    6    0    0 -0.51670347985E+00 -0.11491145158E+03  0.81638858303E+01  0.11520224702E+03  0.00000000000E+00 0.  1.
</event>
<event>
12    1  0.8798177E-003  0.1825738E+03  0.7818608E-02  0.1165858E+00
         21   -1    0    0  503  502  0.00000000000E+00  0.00000000000E+00  0.24979847314E+02  0.24979847314E+02  0.00000000000E+00 0. -1.
         21   -1    0    0  501  503 -0.00000000000E+00 -0.00000000000E+00 -0.13227455541E+04  0.13227455541E+04  0.00000000000E+00 0. -1.
          6    2    1    2  501    0 -0.53868000253E+02 -0.92528325116E+01 -0.68328288702E+03  0.70669315904E+03  0.17190794334E+03 0.  0.
         24    2    3    3    0    0 -0.92625513523E+02  0.12503406527E+02 -0.35104678923E+03  0.37146429178E+03  0.77563205892E+02 0.  0.
         -6    2    1    2    0  502  0.53868000253E+02  0.92528325116E+01 -0.61448281977E+03  0.64103224238E+03  0.17420052701E+03 0.  0.
        -24    2    5    5    0    0  0.23851049569E+02  0.72494238155E+02 -0.29587640816E+03  0.31479210347E+03  0.75676498123E+02 0.  0.
          5    1    3    3  501    0  0.38757513270E+02 -0.21756239038E+02 -0.33223609779E+03  0.33522886727E+03  0.47000000000E+01 0. -1.
        -11    1    4    4    0    0 -0.45133572256E+02 -0.28781246065E+02 -0.10991603129E+03  0.12225765172E+03  0.00000000000E+00 0.  1.
         12    1    4    4    0    0 -0.47491941267E+02  0.41284652591E+02 -0.24113075793E+03  0.24920664005E+03  0.00000000000E+00 0. -1.
         -5    1    5    5    0  502  0.30016950684E+02 -0.63241405644E+02 -0.31860641161E+03  0.32624013891E+03  0.47000000000E+01 0.  1.
         13    1    6    6    0    0 -0.16963924317E+02  0.58873065604E+02 -0.13484800179E+03  0.14811413224E+03  0.00000000000E+00 0. -1.
        -14    1    6    6    0    0  0.40814973885E+02  0.13621172552E+02 -0.16102840637E+03  0.16667797123E+03  0.00000000000E+00 0.  1.
</event>
<event>
12    1  0.8798177E-003  0.1867828E+03  0.7818608E-02  0.1161420E+00
         21   -1    0    0  503  502  0.00000000000E+00  0.00000000000E+00  0.49075957403E+03  0.49075957403E+03  0.00000000000E+00 0.  1.
         21   -1    0    0  501  503 -0.00000000000E+00 -0.00000000000E+00 -0.11657131966E+03  0.11657131966E+03  0.00000000000E+00 0. -1.
          6    2    1    2  501    0  0.70697611736E+02  0.13226330549E+02 -0.26376557384E+01  0.18680139549E+03  0.17237956957E+03 0.  0.
         24    2    3    3    0    0  0.11522803845E+02 -0.81643332991E+01 -0.61011320851E+02  0.10084330590E+03  0.79041506345E+02 0.  0.
         -6    2    1    2    0  502 -0.70697611736E+02 -0.13226330549E+02  0.37682591011E+03  0.42052949820E+03  0.17226202191E+03 0.  0.
        -24    2    5    5    0    0 -0.30507665014E+02 -0.29567735043E+02  0.77313187100E+02  0.11785436779E+03  0.78149565114E+02 0.  0.
          5    1    3    3  501    0  0.59174807891E+02  0.21390663848E+02  0.58373665112E+02  0.85958089598E+02  0.47000000000E+01 0. -1.
        -11    1    4    4    0    0 -0.14798057195E+02 -0.18532243583E+02  0.89740527710E+01  0.25356659325E+02  0.00000000000E+00 0.  1.
         12    1    4    4    0    0  0.26320861041E+02  0.10367910284E+02 -0.69985373622E+02  0.75486646571E+02  0.00000000000E+00 0. -1.
         -5    1    5    5    0  502 -0.40189946722E+02  0.16341404495E+02  0.29951272301E+03  0.30267513040E+03  0.47000000000E+01 0.  1.
         11    1    6    6    0    0 -0.50728852244E+02 -0.35547057655E+02  0.36452521333E+02  0.71873472641E+02  0.00000000000E+00 0. -1.
        -12    1    6    6    0    0  0.20221187230E+02  0.59793226116E+01  0.40860665767E+02  0.45980895150E+02  0.00000000000E+00 0.  1.
</event>
<event>
12    1  0.8798177E-003  0.1915331E+03  0.7818608E-02  0.1157803E+00
         21   -1    0    0  501  502  0.00000000000E+00  0.00000000000E+00  0.20429974905E+04  0.20429974905E+04  0.00000000000E+00 0. -1.
         21   -1    0    0  502  503 -0.00000000000E+00 -0.00000000000E+00 -0.21544700124E+02  0.21544700124E+02  0.00000000000E+00 0. -1.
          6    2    1    2  501    0 -0.29273520233E+02  0.72095623320E+02  0.14421513960E+04  0.14543987386E+04  0.17152353752E+03 0.  0.
         24    2    3    3    0    0 -0.49807777169E+02  0.10942758508E+03  0.10369673607E+04  0.10469536214E+04  0.79720556362E+02 0.  0.
         -6    2    1    2    0  503  0.29273520233E+02 -0.72095623320E+02  0.57930139440E+03  0.61014345207E+03  0.17501488124E+03 0.  0.
        -24    2    5    5    0    0 -0.36435899163E+02 -0.87987832544E+02  0.36868287332E+03  0.38889123957E+03  0.78993048503E+02 0.  0.
          5    1    3    3  501    0  0.20534256936E+02 -0.37331961762E+02  0.40518403528E+03  0.40744511720E+03  0.47000000000E+01 0. -1.
        -13    1    4    4    0    0 -0.17985857986E+02  0.30600614788E+02  0.99529264400E+02  0.10566912125E+03  0.00000000000E+00 0.  1.
         14    1    4    4    0    0 -0.31821919183E+02  0.78826970295E+02  0.93743809629E+03  0.94128450011E+03  0.00000000000E+00 0. -1.
         -5    1    5    5    0  503  0.65709419396E+02  0.15892209223E+02  0.21061852109E+03  0.22125221250E+03  0.47000000000E+01 0.  1.
         13    1    6    6    0    0 -0.20849876449E+02 -0.10118216299E+03  0.30863871732E+03  0.32546951514E+03  0.00000000000E+00 0. -1.
        -14    1    6    6    0    0 -0.15586022715E+02  0.13194330450E+02  0.60044156001E+02  0.63421724432E+02  0.00000000000E+00 0.  1.
</event>
<event>
12    1  0.8798177E-003  0.1920759E+03  0.7818608E-02  0.1157038E+00
         21   -1    0    0  501  502  0.00000000000E+00  0.00000000000E+00  0.24421408755E+04  0.24421408755E+04  0.00000000000E+00 0.  1.
         21   -1    0    0  502  503 -0.00000000000E+00 -0.00000000000E+00 -0.17782378610E+02  0.17782378610E+02  0.00000000000E+00 0. -1.
          6    2    1    2  501    0  0.42659122757E+02  0.75424709033E+02  0.72684633652E+03  0.75179700441E+03  0.17141893548E+03 0.  0.
         24    2    3    3    0    0 -0.40046120447E+02  0.58664810324E+02  0.36821819827E+03  0.38334445251E+03  0.79517771591E+02 0.  0.
         -6    2    1    2    0  503 -0.42659122757E+02 -0.75424709033E+02  0.16975121604E+04  0.17081262497E+04  0.16923079750E+03 0.  0.
        -24    2    5    5    0    0  0.35948863639E+02 -0.50861521183E+02  0.73969150681E+03  0.74676000310E+03  0.81411067083E+02 0.  0.
          5    1    3    3  501    0  0.82705243203E+02  0.16759898709E+02  0.35862813825E+03  0.36845255190E+03  0.47000000000E+01 0. -1.
        -11    1    4    4    0    0 -0.36770767159E+01  0.68301850737E+02  0.21755516617E+03  0.22805462950E+03  0.00000000000E+00 0.  1.
         12    1    4    4    0    0 -0.36369043731E+02 -0.96370404128E+01  0.15066303210E+03  0.15528982301E+03  0.00000000000E+00 0. -1.
         -5    1    5    5    0  503 -0.78607986395E+02 -0.24563187851E+02  0.95782065356E+03  0.96136624660E+03  0.47000000000E+01 0.  1.
         11    1    6    6    0    0 -0.16691302721E+02 -0.40560459821E+02  0.45100276902E+03  0.45313049793E+03  0.00000000000E+00 0. -1.
        -12    1    6    6    0    0  0.52640166359E+02 -0.10301061362E+02  0.28868873779E+03  0.29362950517E+03  0.00000000000E+00 0.  1.
</event>
<event>
12    1  0.8798177E-003  0.1753682E+03  0.7818608E-02  0.1172475E+00
         21   -1    0    0  503  502  0.00000000000E+00  0.00000000000E+00  0.55779519830E+03  0.55779519830E+03  0.00000000000E+00 0.  1.
         21   -1    0    0  501  503 -0.00000000000E+00 -0.00000000000E+00 -0.61498015839E+02  0.61498015839E+02  0.00000000000E+00 0.  1.
          6    2    1    2  501    0  0.24351625333E+02  0.20724453110E+02  0.14773372128E+03  0.22930164565E+03  0.17242821022E+03 0.  0.
         24    2    3    3    0    0  0.56316148400E+02 -0.21459186484E+02  0.38183523713E+02  0.10754563565E+03  0.80474076625E+02 0.  0.
         -6    2    1    2    0  502 -0.24351625333E+02 -0.20724453110E+02  0.34856346118E+03  0.38999156849E+03  0.17197218499E+03 0.  0.
        -24    2    5    5    0    0 -0.79422656695E+02 -0.13632062269E+02  0.28229764663E+03  0.30340999608E+03  0.76628146982E+02 0.  0.
          5    1    3    3  501    0 -0.31964523067E+02  0.42183639594E+02  0.10955019757E+03  0.12175601000E+03  0.47000000000E+01 0. -1.
        -13    1    4    4    0    0 -0.66870314328E+01 -0.34410061226E+02  0.57908679859E+01  0.35528901685E+02  0.00000000000E+00 0.  1.
         14    1    4    4    0    0  0.63003179833E+02  0.12950874742E+02  0.32392655727E+02  0.72016733963E+02  0.00000000000E+00 0. -1.
         -5    1    5    5    0  502  0.55071031361E+02 -0.70923908407E+01  0.66265814552E+02  0.86581572411E+02  0.47000000000E+01 0.  1.
         11    1    6    6    0    0 -0.60535091719E+02 -0.36964316784E+02  0.12912207629E+03  0.14732063206E+03  0.00000000000E+00 0. -1.
        -12    1    6    6    0    0 -0.18887564976E+02  0.23332254514E+02  0.15317557034E+03  0.15608936402E+03  0.00000000000E+00 0.  1.
</event>
<event>
12    1  0.8798177E-003  0.2443721E+03  0.7818608E-02  0.1117064E+00
         21   -1    0    0  503  502  0.00000000000E+00  0.00000000000E+00  0.13801823435E+03  0.13801823435E+03  0.00000000000E+00 0.  1.
         21   -1    0    0  501  503 -0.00000000000E+00 -0.00000000000E+00 -0.68526197350E+03  0.68526197350E+03  0.00000000000E+00 0.  1.
          6    2    1    2  501    0 -0.16377530113E+03  0.56300386095E+02 -0.52466700614E+03  0.57878598065E+03  0.17241131440E+03 0.  0.
         24    2    3    3    0    0 -0.18147738678E+03  0.14553190452E+02 -0.40291748183E+03  0.44878125439E+03  0.76917357350E+02 0.  0.
         -6    2    1    2    0  502  0.16377530113E+03 -0.56300386095E+02 -0.22576733005E+02  0.24449422720E+03  0.17110124351E+03 0.  0.
        -24    2    5    5    0    0  0.11749759040E+03 -0.69440113200E+02  0.43287621246E+02  0.16279672358E+03  0.77468328899E+02 0.  0.
          5    1    3    3  501    0  0.17702085655E+02  0.41747195643E+02 -0.12174952432E+03  0.13000472627E+03  0.47000000000E+01 0. -1.
        -13    1    4    4    0    0 -0.88782063151E+02  0.62817355460E+01 -0.28493528351E+03  0.29851269777E+03  0.00000000000E+00 0.  1.
         14    1    4    4    0    0 -0.92695323629E+02  0.82714549062E+01 -0.11798219832E+03  0.15026855662E+03  0.00000000000E+00 0. -1.
         -5    1    5    5    0  502  0.46277710723E+02  0.13139727105E+02 -0.65864354251E+02  0.81697503628E+02  0.47000000000E+01 0.  1.
         13    1    6    6    0    0 -0.10018728327E+02  0.21517243832E+01 -0.13239178683E+00  0.10248041896E+02  0.00000000000E+00 0. -1.
        -14    1    6    6    0    0  0.12751631873E+03 -0.71591837583E+02  0.43420013032E+02  0.15254868168E+03  0.00000000000E+00 0.  1.
</event>
<event>
12    1  0.8798177E-003  0.2048027E+03  0.7818608E-02  0.1145977E+00
         21   -1    0    0  503  502  0.00000000000E+00  0.00000000000E+00  0.97213121315E+02  0.97213121315E+02  0.00000000000E+00 0. -1.
         21   -1    0    0  501  503 -0.00000000000E+00 -0.00000000000E+00 -0.52760183298E+03  0.52760183298E+03  0.00000000000E+00 0. -1.
          6    2    1    2  501    0 -0.45423719285E+02  0.10104263389E+03 -0.34968451508E+03  0.40468472737E+03  0.17093139076E+03 0.  0.
         24    2    3    3    0    0 -0.12358796694E+02  0.97409071381E+02 -0.12556704562E+03  0.17806340887E+03  0.79361373416E+02 0.  0.
         -6    2    1    2    0  502  0.45423719285E+02 -0.10104263389E+03 -0.80704196590E+02  0.22013022692E+03  0.17225336374E+03 0.  0.
        -24    2    5    5    0    0  0.97094241689E+02 -0.80502485997E+02 -0.72541743029E+02  0.16373469333E+03  0.75091965597E+02 0.  0.
          5    1    3    3  501    0 -0.33064922591E+02  0.36335625116E+01 -0.22411746946E+03  0.22662131850E+03  0.47000000000E+01 0. -1.
        -13    1    4    4    0    0 -0.22423067372E+02  0.30064248098E+01 -0.55906266733E+02  0.60310390486E+02  0.00000000000E+00 0.  1.
         14    1    4    4    0    0  0.10064270678E+02  0.94402646571E+02 -0.69660778882E+02  0.11775301838E+03  0.00000000000E+00 0. -1.
         -5    1    5    5    0  502 -0.51670522404E+02 -0.20540147896E+02 -0.81624535608E+01  0.56395533593E+02  0.47000000000E+01 0.  1.
         11    1    6    6    0    0  0.40191108928E+02 -0.74717535752E+02 -0.22591672343E+02  0.87797602729E+02  0.00000000000E+00 0. -1.
        -12    1    6    6    0    0  0.56903132761E+02 -0.57849502449E+01 -0.49950070686E+02  0.75937090601E+02  0.00000000000E+00 0.  1.
</event>
<event>
12    1  0.8798177E-003  0.1804901E+03  0.7818608E-02  0.1167401E+00
         21   -1    0    0  501  502  0.00000000000E+00  0.00000000000E+00  0.22205647572E+03  0.22205647572E+03  0.00000000000E+00 0. -1.
         21   -1    0    0  502  503 -0.00000000000E+00 -0.00000000000E+00 -0.24320067398E+03  0.24320067398E+03  0.00000000000E+00 0. -1.
          6    2    1    2  501    0 -0.88068768757E+01 -0.53681267653E+02  0.13613832993E+03  0.22607591813E+03  0.17209717111E+03 0.  0.
         24    2    3    3    0    0  0.43315487597E+02 -0.21676481755E+02  0.20888392353E+02  0.95516792407E+02  0.79630593176E+02 0.  0.
         -6    2    1    2    0  503  0.88068768757E+01  0.53681267653E+02 -0.15728252818E+03  0.23918123158E+03  0.17178657774E+03 0.  0.
        -24    2    5    5    0    0  0.23761935648E+02  0.27328919149E+02 -0.18055467728E+03  0.20068729727E+03  0.79774058385E+02 0.  0.
          5    1    3    3  501    0 -0.52122364472E+02 -0.32004785898E+02  0.11524993757E+03  0.13055912572E+03  0.47000000000E+01 0. -1.
        -11    1    4    4    0    0  0.26403724552E+02  0.25624677326E+02 -0.78808682477E+01  0.37628298428E+02  0.00000000000E+00 0.  1.
         12    1    4    4    0    0  0.16911763045E+02 -0.47301159080E+02  0.28769260601E+02  0.57888493979E+02  0.00000000000E+00 0. -1.
         -5    1    5    5    0  503 -0.14955058773E+02  0.26352348504E+02  0.23272149098E+02  0.38493934304E+02  0.47000000000E+01 0.  1.
         11    1    6    6    0    0  0.31300579301E+02 -0.21601324621E+02 -0.82463757371E+02  0.90810873632E+02  0.00000000000E+00 0. -1.
        -12    1    6    6    0    0 -0.75386436531E+01  0.48930243770E+02 -0.98090919909E+02  0.10987642364E+03  0.00000000000E+00 0.  1.
</event>
<event>
12    1  0.8798177E-003  0.1736581E+03  0.7818608E-02  0.1174320E+00
         21   -1    0    0  501  502  0.00000000000E+00  0.00000000000E+00  0.19429243460E+02  0.19429243460E+02  0.00000000000E+00 0. -1.
         21   -1    0    0  502  503 -0.00000000000E+00 -0.00000000000E+00 -0.16374074554E+04  0.16374074554E+04  0.00000000000E+00 0. -1.
          6    2    1    2  501    0  0.66090603768E+01 -0.47011396660E+01 -0.60900873254E+03  0.63303177004E+03  0.17254508156E+03 0.  0.
         24    2    3    3    0    0  0.62634129778E+02 -0.28735813108E+02 -0.46254864738E+03  0.47432096235E+03  0.79248614937E+02 0.  0.
         -6    2    1    2    0  503 -0.66090603768E+01  0.47011396660E+01 -0.10089694794E+04  0.10238049288E+04  0.17346856064E+03 0.  0.
        -24    2    5    5    0    0  0.13757129604E+02 -0.30292876637E+02 -0.26589334370E+03  0.27961167683E+03  0.79853006234E+02 0.  0.
          5    1    3    3  501    0 -0.56025069401E+02  0.24034673442E+02 -0.14646008517E+03  0.15871080768E+03  0.47000000000E+01 0. -1.
        -13    1    4    4    0    0  0.17463826738E+02  0.15216814059E+01 -0.13851549880E+02  0.22342027498E+02  0.00000000000E+00 0.  1.
         14    1    4    4    0    0  0.45170303040E+02 -0.30257494514E+02 -0.44869709750E+03  0.45197893486E+03  0.00000000000E+00 0. -1.
         -5    1    5    5    0  503 -0.20366189981E+02  0.34994016303E+02 -0.74307613565E+03  0.74419325195E+03  0.47000000000E+01 0.  1.
         13    1    6    6    0    0 -0.31431189564E+02 -0.99399287532E+01 -0.14976132401E+03  0.15334658793E+03  0.00000000000E+00 0. -1.
        -14    1    6    6    0    0  0.45188319168E+02 -0.20352947884E+02 -0.11613201970E+03  0.12626508890E+03  0.00000000000E+00 0.  1.
</event>
<event>
12    1  0.8798177E-003  0.2123716E+03  0.7818608E-02  0.1139833E+00
         21   -1    0    0  503  502  0.00000000000E+00  0.00000000000E+00  0.20548539067E+03  0.20548539067E+03  0.00000000000E+00 0. -1.
         21   -1    0    0  501  503 -0.00000000000E+00 -0.00000000000E+00 -0.25186407263E+03  0.25186407263E+03  0.00000000000E+00 0. -1.
          6    2    1    2  501    0  0.54688687397E+01 -0.12452965003E+03 -0.10601808721E+03  0.23676265556E+03  0.17111159514E+03 0.  0.
         24    2    3    3    0    0  0.33608371413E+02 -0.67610570600E+02 -0.12942673143E+03  0.16892706138E+03  0.78002316439E+02 0.  0.
         -6    2    1    2    0  502 -0.54688687397E+01  0.12452965003E+03  0.59639405249E+02  0.22058680773E+03  0.17194225433E+03 0.  0.
        -24    2    5    5    0    0  0.59018258272E+02  0.42037293827E+02  0.20011392153E+02  0.10853303580E+03  0.78285855439E+02 0.  0.
          5    1    3    3  501    0 -0.28139502673E+02 -0.56919079432E+02  0.23408644227E+02  0.67835594186E+02  0.47000000000E+01 0. -1.
        -11    1    4    4    0    0 -0.24931346329E+02 -0.24380858597E+02 -0.52573064882E+02  0.63086650305E+02  0.00000000000E+00 0.  1.
         12    1    4    4    0    0  0.58539717742E+02 -0.43229712003E+02 -0.76853666552E+02  0.10584041107E+03  0.00000000000E+00 0. -1.
         -5    1    5    5    0  502 -0.64487127012E+02  0.82492356205E+02  0.39628013096E+02  0.11205377193E+03  0.47000000000E+01 0.  1.
         11    1    6    6    0    0  0.44594144540E+02  0.25716559449E+02  0.49804356076E+02  0.71627180883E+02  0.00000000000E+00 0. -1.
        -12    1    6    6    0    0  0.14424113733E+02  0.16320734378E+02 -0.29792963924E+02  0.36905854914E+02  0.00000000000E+00 0.  1.
</event>
<event>
12    1  0.8798177E-003  0.2341817E+03  0.7818608E-02  0.1126080E+00
         21   -1    0    0  503  502  0.00000000000E+00  0.00000000000E+00  0.18125496163E+03  0.18125496163E+03  0.00000000000E+00 0.  1.
         21   -1    0    0  501  503 -0.00000000000E+00 -0.00000000000E+00 -0.28618883062E+03  0.28618883062E+03  0.00000000000E+00 0.  1.
          6    2    1    2  501    0  0.13576134523E+03 -0.31692054659E+02 -0.41206085004E+02  0.22474582387E+03  0.17139782589E+03 0.  0.
         24    2    3    3    0    0  0.11156160178E+03 -0.75329656394E+02 -0.64967002095E+02  0.16927926593E+03  0.79462005956E+02 0.  0.
         -6    2    1    2    0  502 -0.13576134523E+03  0.31692054659E+02 -0.63727783986E+02  0.24269796838E+03  0.18816361024E+03 0.  0.
        -24    2    5    5    0    0 -0.97760136668E+01 -0.36029530123E+02 -0.12768929834E+02  0.90785455301E+02  0.81763413829E+02 0.  0.
          5    1    3    3  501    0  0.24199743454E+02  0.43637601735E+02  0.23760917091E+02  0.55466557937E+02  0.47000000000E+01 0. -1.
        -13    1    4    4    0    0  0.54854362592E+02  0.80704690089E+01 -0.21801865989E+02  0.59577302104E+02  0.00000000000E+00 0.  1.
         14    1    4    4    0    0  0.56707239186E+02 -0.83400125403E+02 -0.43165136106E+02  0.10970196383E+03  0.00000000000E+00 0. -1.
         -5    1    5    5    0  502 -0.12598533156E+03  0.67721584783E+02 -0.50958854152E+02  0.15191251308E+03  0.47000000000E+01 0.  1.
         11    1    6    6    0    0  0.38928813762E+01  0.25881000472E+02 -0.71739670019E+01  0.27137548035E+02  0.00000000000E+00 0. -1.
        -12    1    6    6    0    0 -0.13668895043E+02 -0.61910530595E+02 -0.55949628323E+01  0.63647907266E+02  0.00000000000E+00 0.  1.
</event>
<event>
12    1  0.8798177E-003  0.1767502E+03  0.7818608E-02  0.1171111E+00
         21   -1    0    0  503  502  0.00000000000E+00  0.00000000000E+00  0.22128671216E+03  0.22128671216E+03  0.00000000000E+00 0.  1.
         21   -1    0    0  501  503 -0.00000000000E+00 -0.00000000000E+00 -0.14189546820E+03  0.14189546820E+03  0.00000000000E+00 0.  1.
          6    2    1    2  501    0 -0.32042949592E+02 -0.17988991595E+02  0.23487948908E+02  0.17780204374E+03  0.17237032394E+03 0.  0.
         24    2    3    3    0    0 -0.26613328952E+02 -0.86326922039E+02 -0.56391446015E+01  0.10316940279E+03  0.49512816266E+02 0.  0.
         -6    2    1    2    0  502  0.32042949592E+02  0.17988991595E+02  0.55903295051E+02  0.18538013662E+03  0.17288800485E+03 0.  0.
        -24    2    5    5    0    0 -0.19683105723E+02 -0.25047892041E+02 -0.13505148711E+02  0.88594909359E+02  0.81558858354E+02 0.  0.
          5    1    3    3  501    0 -0.54296206405E+01  0.68337930444E+02  0.29127093509E+02  0.74632640942E+02  0.47000000000E+01 0. -1.
        -13    1    4    4    0    0 -0.20792678400E+02 -0.13930465936E+02 -0.16144970569E+02  0.29783442228E+02  0.00000000000E+00 0.  1.
         14    1    4    4    0    0 -0.58206505514E+01 -0.72396456102E+02  0.10505825968E+02  0.73385960567E+02  0.00000000000E+00 0. -1.
         -5    1    5    5    0  502  0.51726055315E+02  0.43036883636E+02  0.69408443761E+02  0.96785227266E+02  0.47000000000E+01 0.  1.
         13    1    6    6    0    0 -0.36987522053E+02  0.17803737421E+02 -0.27197877738E+01  0.41139361922E+02  0.00000000000E+00 0. -1.
        -14    1    6    6    0    0  0.17304416330E+02 -0.42851629462E+02 -0.10785360937E+02  0.47455547437E+02  0.00000000000E+00 0.  1.
</event>
<event>
12    1  0.8798177E-003  0.2134960E+03  0.7818608E-02  0.1139385E+00
         21   -1    0    0  501  502  0.00000000000E+00  0.00000000000E+00  0.22034204042E+03  0.22034204042E+03  0.00000000000E+00 0.  1.
         21   -1    0    0  502  503 -0.00000000000E+00 -0.00000000000E+00 -0.26242238284E+03  0.26242238284E+03  0.00000000000E+00 0. -1.
          6    2    1    2  501    0 -0.65940817009E+02 -0.10795491310E+03  0.92860260947E+02  0.23019860178E+03  0.16842183227E+03 0.  0.
         24    2    3    3    0    0 -0.13727976388E+02  0.10216665311E+02  0.43592869677E+02  0.91850965321E+02  0.79015340016E+02 0.  0.
         -6    2    1    2    0  503  0.65940817009E+02  0.10795491310E+03 -0.13494060336E+03  0.25256582148E+03  0.17198276987E+03 0.  0.
        -24    2    5    5    0    0  0.90675929757E+02  0.11491705392E+03 -0.66775330094E+02  0.17956656335E+03  0.79731753055E+02 0.  0.
          5    1    3    3  501    0 -0.52212840621E+02 -0.11817157841E+03  0.49267391271E+02  0.13834763646E+03  0.47000000000E+01 0. -1.
        -11    1    4    4    0    0 -0.23173438777E+02 -0.96726692422E+01  0.59570227758E+02  0.64646584056E+02  0.00000000000E+00 0.  1.
         12    1    4    4    0    0  0.94454623895E+01  0.19889334554E+02 -0.15977358081E+02  0.27204381264E+02  0.00000000000E+00 0. -1.
         -5    1    5    5    0  503 -0.24735112748E+02 -0.69621408189E+01 -0.68165273269E+02  0.72999258128E+02  0.47000000000E+01 0.  1.
         11    1    6    6    0    0  0.56911209848E+02  0.11833524756E+02 -0.26090686826E+02  0.63715320399E+02  0.00000000000E+00 0. -1.
        -12    1    6    6    0    0  0.33764719909E+02  0.10308352917E+03 -0.40684643268E+02  0.11585124295E+03  0.00000000000E+00 0.  1.
</event>
<event>
12    1  0.8798177E-003  0.2690812E+03  0.7818608E-02  0.1101831E+00
         21   -1    0    0  501  502  0.00000000000E+00  0.00000000000E+00  0.56719058686E+03  0.56719058686E+03  0.00000000000E+00 0.  1.
         21   -1    0    0  502  503 -0.00000000000E+00 -0.00000000000E+00 -0.13470444652E+03  0.13470444652E+03  0.00000000000E+00 0. -1.
          6    2    1    2  501    0  0.18393332927E+03 -0.94346721900E+02  0.29705751228E+03  0.40080902142E+03  0.17225542809E+03 0.  0.
         24    2    3    3    0    0  0.10368865006E+03 -0.16627333132E+02  0.75026608552E+02  0.15221432289E+03  0.80699465563E+02 0.  0.
         -6    2    1    2    0  503 -0.18393332927E+03  0.94346721900E+02  0.13542862805E+03  0.30108601196E+03  0.17198575450E+03 0.  0.
        -24    2    5    5    0    0 -0.67965692909E+02  0.51374951991E+02  0.13389972392E+03  0.17731407152E+03  0.79072263075E+02 0.  0.
          5    1    3    3  501    0  0.80244679203E+02 -0.77719388769E+02  0.22203090373E+03  0.24859469854E+03  0.47000000000E+01 0. -1.
        -11    1    4    4    0    0  0.10707845807E+03 -0.32298546314E+02  0.77389058559E+02  0.13600756840E+03  0.00000000000E+00 0.  1.
         12    1    4    4    0    0 -0.33898080103E+01  0.15671213183E+02 -0.23624500073E+01  0.16206754487E+02  0.00000000000E+00 0. -1.
         -5    1    5    5    0  503 -0.11596763636E+03  0.42971769909E+02  0.15289041304E+01  0.12377194044E+03  0.47000000000E+01 0.  1.
         13    1    6    6    0    0 -0.65960809850E+02  0.58730980748E+02  0.69288122405E+02  0.11225417784E+03  0.00000000000E+00 0. -1.
        -14    1    6    6    0    0 -0.20048830589E+01 -0.73560287571E+01  0.64611601519E+02  0.65059893683E+02  0.00000000000E+00 0.  1.
</event>
<event>
12    1  0.8798177E-003  0.2243024E+03  0.7818608E-02  0.1131645E+00
         21   -1    0    0  503  502  0.00000000000E+00  0.00000000000E+00  0.11292691255E+03  0.11292691255E+03  0.00000000000E+00 0.  1.
         21   -1    0    0  501  503 -0.00000000000E+00 -0.00000000000E+00 -0.64552131078E+03  0.64552131078E+03  0.00000000000E+00 0.  1.
          6    2    1    2  501    0  0.34126730612E+02  0.13174905874E+03 -0.48052615496E+03  0.52818169122E+03  0.17189550639E+03 0.  0.
         24    2    3    3    0    0  0.64398369337E+02  0.13396104018E+03 -0.46348587775E+03  0.49305725499E+03  0.78699349180E+02 0.  0.
         -6    2    1    2    0  502 -0.34126730612E+02 -0.13174905874E+03 -0.52068243270E+02  0.23026653212E+03  0.17829505220E+03 0.  0.
        -24    2    5    5    0    0  0.45747758638E+02 -0.54907593625E+02  0.70357252501E+01  0.10456882375E+03  0.76009448187E+02 0.  0.
          5    1    3    3  501    0 -0.30271638725E+02 -0.22119814444E+01 -0.17040277202E+02  0.35124436225E+02  0.47000000000E+01 0. -1.
        -11    1    4    4    0    0 -0.15544761667E+02  0.37549025950E+02 -0.15188684754E+03  0.15722971545E+03  0.00000000000E+00 0.  1.
         12    1    4    4    0    0  0.79943131004E+02  0.96412014231E+02 -0.31159903022E+03  0.33582753954E+03  0.00000000000E+00 0. -1.
         -5    1    5    5    0  502 -0.79874489250E+02 -0.76841465112E+02 -0.59103968520E+02  0.12569770837E+03  0.47000000000E+01 0.  1.
         11    1    6    6    0    0  0.47232946054E+02 -0.63187273659E+02 -0.15602945848E+02  0.80417875280E+02  0.00000000000E+00 0. -1.
        -12    1    6    6    0    0 -0.14851874161E+01  0.82796800345E+01  0.22638671098E+02  0.24150948475E+02  0.00000000000E+00 0.  1.
</event>
<event>
12    1  0.8798177E-003  0.1727537E+03  0.7818608E-02  0.1175028E+00
         21   -1    0    0  501  502  0.00000000000E+00  0.00000000000E+00  0.12750964445E+03  0.12750964445E+03  0.00000000000E+00 0. -1.
         21   -1    0    0  502  503 -0.00000000000E+00 -0.00000000000E+00 -0.23515158991E+03  0.23515158991E+03  0.00000000000E+00 0. -1.
          6    2    1    2  501    0 -0.13880561265E+02  0.75132952682E+01 -0.40776244206E+02  0.17741855493E+03  0.17194627636E+03 0.  0.
         24    2    3    3    0    0  0.47815060693E+02  0.64720934956E+01  0.14448930024E+02  0.94476745572E+02  0.79930694052E+02 0.  0.
         -6    2    1    2    0  503  0.13880561265E+02 -0.75132952682E+01 -0.66865701258E+02  0.18524267943E+03  0.17203112710E+03 0.  0.
        -24    2    5    5    0    0  0.58614789790E+00 -0.34662782094E+02 -0.10665654877E+03  0.13505067203E+03  0.75241029955E+02 0.  0.
          5    1    3    3  501    0 -0.61695621958E+02  0.10412017727E+01 -0.55225174230E+02  0.82941809353E+02  0.47000000000E+01 0. -1.
        -11    1    4    4    0    0  0.34614909514E+02 -0.14185605415E+02 -0.27128472064E+02  0.46210143456E+02  0.00000000000E+00 0.  1.
         12    1    4    4    0    0  0.13200151179E+02  0.20657698911E+02  0.41577402088E+02  0.48266602116E+02  0.00000000000E+00 0. -1.
         -5    1    5    5    0  503  0.13294413367E+02  0.27149486826E+02  0.39790847508E+02  0.50192007403E+02  0.47000000000E+01 0.  1.
         13    1    6    6    0    0  0.17597279250E+02 -0.48896580131E+02 -0.98592520812E+02  0.11144965207E+03  0.00000000000E+00 0. -1.
        -14    1    6    6    0    0 -0.17011131352E+02  0.14233798037E+02 -0.80640279545E+01  0.23601019963E+02  0.00000000000E+00 0.  1.
</event>
<event>
12    1  0.8798177E-003  0.2288623E+03  0.7818608E-02  0.1128072E+00
         21   -1    0    0  501  502  0.00000000000E+00  0.00000000000E+00  0.16537221434E+04  0.16537221434E+04  0.00000000000E+00 0.  1.
         21   -1    0    0  502  503 -0.00000000000E+00 -0.00000000000E+00 -0.34624460546E+02  0.34624460546E+02  0.00000000000E+00 0.  1.
          6    2    1    2  501    0 -0.82954550840E+01  0.14714110258E+03  0.10698651955E+04  0.10933388147E+04  0.17046673757E+03 0.  0.
         24    2    3    3    0    0 -0.15368238835E+02  0.47824923058E+01  0.38658162391E+03  0.39533127366E+03  0.81132046643E+02 0.  0.
         -6    2    1    2    0  503  0.82954550840E+01 -0.14714110258E+03  0.54923248739E+03  0.59500778925E+03  0.17509604627E+03 0.  0.
        -24    2    5    5    0    0 -0.38681490548E+02 -0.56428173073E+02  0.15591454650E+03  0.18861295461E+03  0.81148656224E+02 0.  0.
          5    1    3    3  501    0  0.70727837511E+01  0.14235861027E+03  0.68328357160E+03  0.69800754108E+03  0.47000000000E+01 0. -1.
        -11    1    4    4    0    0 -0.13748927807E+02  0.29239258157E+02  0.34881493126E+03  0.35030818361E+03  0.00000000000E+00 0.  1.
         12    1    4    4    0    0 -0.16193110286E+01 -0.24456765851E+02  0.37766692643E+02  0.45023090046E+02  0.00000000000E+00 0. -1.
         -5    1    5    5    0  503  0.46976945632E+02 -0.90712929504E+02  0.39331794089E+03  0.40639483464E+03  0.47000000000E+01 0.  1.
         11    1    6    6    0    0 -0.18284932334E+02 -0.71607558135E+02  0.14084495831E+03  0.15905748462E+03  0.00000000000E+00 0. -1.
        -12    1    6    6    0    0 -0.20396558214E+02  0.15179385062E+02  0.15069588195E+02  0.29555469988E+02  0.00000000000E+00 0.  1.
</event>
<event>
12    1  0.8798177E-003  0.2204420E+03  0.7818608E-02  0.1134266E+00
         21   -1    0    0  501  502  0.00000000000E+00  0.00000000000E+00  0.38368804158E+03  0.38368804158E+03  0.00000000000E+00 0.  1.
         21   -1    0    0  502  503 -0.00000000000E+00 -0.00000000000E+00 -0.13972006406E+03  0.13972006406E+03  0.00000000000E+00 0.  1.
          6    2    1    2  501    0 -0.13249738959E+03 -0.17243128313E+02  0.20746943174E+03  0.29996501615E+03  0.17053610200E+03 0.  0.
         24    2    3    3    0    0 -0.10967972205E+03 -0.54005944266E+02  0.88740958737E+02  0.17351071258E+03  0.85350607379E+02 0.  0.
         -6    2    1    2    0  503  0.13249738959E+03  0.17243128313E+02  0.36498545773E+02  0.22344308949E+03  0.17533335870E+03 0.  0.
        -24    2    5    5    0    0  0.16398000881E+03  0.28403790523E+02  0.45880481186E+02  0.18843128568E+03  0.75532193570E+02 0.  0.
          5    1    3    3  501    0 -0.22817667548E+02  0.36762815953E+02  0.11872847300E+03  0.12645430357E+03  0.47000000000E+01 0. -1.
        -11    1    4    4    0    0 -0.48381092421E+02 -0.66714808708E+02  0.30108526530E+02  0.87738926222E+02  0.00000000000E+00 0.  1.
         12    1    4    4    0    0 -0.61298629625E+02  0.12708864442E+02  0.58632432207E+02  0.85771786362E+02  0.00000000000E+00 0. -1.
         -5    1    5    5    0  503 -0.31482619215E+02 -0.11160662210E+02 -0.93819354131E+01  0.35011803805E+02  0.47000000000E+01 0.  1.
         13    1    6    6    0    0 -0.33977825406E+01  0.72939838857E+01  0.14860842816E+02  0.16899460829E+02  0.00000000000E+00 0. -1.
        -14    1    6    6    0    0  0.16737779135E+03  0.21109806637E+02  0.31019638370E+02  0.17153182485E+03  0.00000000000E+00 0.  1.
</event>
<event>
12    1  0.8798177E-003  0.2698372E+03  0.7818608E-02  0.1101422E+00
         21   -1    0    0  503  502  0.00000000000E+00  0.00000000000E+00  0.13048246146E+03  0.13048246146E+03  0.00000000000E+00 0. -1.
         21   -1    0    0  501  503 -0.00000000000E+00 -0.00000000000E+00 -0.57199803336E+03  0.57199803336E+03  0.00000000000E+00 0.  1.
          6    2    1    2  501    0 -0.12323789650E+03 -0.16783506280E+03 -0.16462277297E+03  0.31608981196E+03  0.17162728340E+03 0.  0.
         24    2    3    3    0    0 -0.63734912053E+02 -0.98034996960E+02 -0.17314974989E+03  0.22385395297E+03  0.80353946554E+02 0.  0.
         -6    2    1    2    0  502  0.12323789650E+03  0.16783506280E+03 -0.27689279894E+03  0.38639068286E+03  0.17109047391E+03 0.  0.
        -24    2    5    5    0    0 -0.56419652147E+01  0.78662607297E+02 -0.10481953054E+03  0.15359668537E+03  0.79907260084E+02 0.  0.
          5    1    3    3  501    0 -0.59502984444E+02 -0.69800065835E+02  0.85269769252E+01  0.92235858991E+02  0.47000000000E+01 0. -1.
        -13    1    4    4    0    0 -0.57789252054E+01 -0.53179914246E+02 -0.26027252781E+02  0.59488798467E+02  0.00000000000E+00 0.  1.
         14    1    4    4    0    0 -0.57955986847E+02 -0.44855082715E+02 -0.14712249711E+03  0.16436515450E+03  0.00000000000E+00 0. -1.
         -5    1    5    5    0  502  0.12887986171E+03  0.89172455498E+02 -0.17207326839E+03  0.23279399750E+03  0.47000000000E+01 0.  1.
         13    1    6    6    0    0  0.34458602214E+02  0.53848622769E+02 -0.49158575802E+02  0.80645117742E+02  0.00000000000E+00 0. -1.
        -14    1    6    6    0    0 -0.40100567429E+02  0.24813984528E+02 -0.55660954741E+02  0.72951567625E+02  0.00000000000E+00 0.  1.
</event>
<event>
12    1  0.8798177E-003  0.2326437E+03  0.7818608E-02  0.1125036E+00
         21   -1    0    0  501  502  0.00000000000E+00  0.00000000000E+00  0.12726618821E+04  0.12726618821E+04  0.00000000000E+00 0.  1.
         21   -1    0    0  502  503 -0.00000000000E+00 -0.00000000000E+00 -0.60141340468E+02  0.60141340468E+02  0.00000000000E+00 0.  1.
          6    2    1    2  501    0  0.11244163320E+03  0.10648573043E+03  0.96822309480E+03  0.99545421205E+03  0.17172884239E+03 0.  0.
         24    2    3    3    0    0  0.10778169309E+02  0.47366611996E+02  0.64005658361E+03  0.64681990633E+03  0.79647951222E+02 0.  0.
         -6    2    1    2    0  503 -0.11244163320E+03 -0.10648573043E+03  0.24429744684E+03  0.33734901053E+03  0.17361100401E+03 0.  0.
        -24    2    5    5    0    0 -0.16950570337E+02 -0.42871080419E+02  0.18763978945E+03  0.20929610379E+03  0.80442010841E+02 0.  0.
          5    1    3    3  501    0  0.10166346389E+03  0.59119118439E+02  0.32816651119E+03  0.34863430571E+03  0.47000000000E+01 0. -1.
        -11    1    4    4    0    0  0.27769354567E+02  0.45372796672E+02  0.60936331451E+03  0.61168086189E+03  0.00000000000E+00 0.  1.
         12    1    4    4    0    0 -0.16991185259E+02  0.19938153231E+01  0.30693269104E+02  0.35139044442E+02  0.00000000000E+00 0. -1.
         -5    1    5    5    0  503 -0.95491062863E+02 -0.63614650015E+02  0.56657657395E+02  0.12805290674E+03  0.47000000000E+01 0.  1.
         13    1    6    6    0    0  0.56113435608E+01 -0.92516511267E+01 -0.53740223136E+01  0.12081404759E+02  0.00000000000E+00 0. -1.
        -14    1    6    6    0    0 -0.22561913898E+02 -0.33619429292E+02  0.19301381176E+03  0.19721469903E+03  0.00000000000E+00 0.  1.
</event>
<event>
12    1  0.8798177E-003  0.2148764E+03  0.7818608E-02  0.1138985E+00
         21   -1    0    0  501  502  0.00000000000E+00  0.00000000000E+00  0.53871823014E+02  0.53871823014E+02  0.00000000000E+00 0. -1.
         21   -1    0    0  502  503 -0.00000000000E+00 -0.00000000000E+00 -0.89512934566E+03  0.89512934566E+03  0.00000000000E+00 0.  1.
          6    2    1    2  501    0  0.11373277278E+03  0.41197326412E+02 -0.28910702246E+03  0.35651315366E+03  0.16995998055E+03 0.  0.
         24    2    3    3    0    0  0.37265522276E+02  0.82365286310E+02 -0.15796026311E+03  0.19914859663E+03  0.80845279876E+02 0.  0.
         -6    2    1    2    0  503 -0.11373277278E+03 -0.41197326412E+02 -0.55215050019E+03  0.59248801501E+03  0.17759366479E+03 0.  0.
        -24    2    5    5    0    0 -0.41825254394E+02  0.21794487155E+02 -0.41477506143E+03  0.42505814626E+03  0.80073244877E+02 0.  0.
          5    1    3    3  501    0  0.76467250500E+02 -0.41167959898E+02 -0.13114675935E+03  0.15736455703E+03  0.47000000000E+01 0. -1.
        -13    1    4    4    0    0  0.62946723341E+02  0.58920123139E+02 -0.11859380015E+03  0.14662319163E+03  0.00000000000E+00 0.  1.
         14    1    4    4    0    0 -0.25681201065E+02  0.23445163171E+02 -0.39366462955E+02  0.52525404994E+02  0.00000000000E+00 0. -1.
         -5    1    5    5    0  503 -0.71907518383E+02 -0.62991813567E+02 -0.13737543876E+03  0.16742986875E+03  0.47000000000E+01 0.  1.
         13    1    6    6    0    0 -0.46104649819E+02  0.77254537132E+01 -0.10502257673E+03  0.11495678750E+03  0.00000000000E+00 0. -1.
        -14    1    6    6    0    0  0.42793954256E+01  0.14069033442E+02 -0.30975248470E+03  0.31010135876E+03  0.00000000000E+00 0.  1.
</event>
<event>
12    1  0.8798177E-003  0.1791849E+03  0.7818608E-02  0.1169382E+00
         21   -1    0    0  501  502  0.00000000000E+00  0.00000000000E+00  0.15768340559E+03  0.15768340559E+03  0.00000000000E+00 0.  1.
         21   -1    0    0  502  503 -0.00000000000E+00 -0.00000000000E+00 -0.20025575258E+03  0.20025575258E+03  0.00000000000E+00 0.  1.
          6    2    1    2  501    0  0.17124380164E+02  0.40906460362E+02 -0.14602002131E+02  0.17658432500E+03  0.17030038894E+03 0.  0.
         24    2    3    3    0    0 -0.24486634258E+02  0.49090300916E+02 -0.59850236868E+02  0.11439152386E+03  0.80584843337E+02 0.  0.
         -6    2    1    2    0  503 -0.17124380164E+02 -0.40906460362E+02 -0.27970344853E+02  0.18135483317E+03  0.17361063454E+03 0.  0.
        -24    2    5    5    0    0 -0.65481092249E+02  0.12452353059E+02 -0.33027246589E+02  0.10901399526E+03  0.79689507510E+02 0.  0.
          5    1    3    3  501    0  0.41611014422E+02 -0.81838405540E+01  0.45248234737E+02  0.62192801145E+02  0.47000000000E+01 0. -1.
        -11    1    4    4    0    0 -0.12609429839E+02  0.60163891147E+02 -0.71585273972E+02  0.94356467549E+02  0.00000000000E+00 0.  1.
         12    1    4    4    0    0 -0.11877204419E+02 -0.11073590230E+02  0.11735037104E+02  0.20035056307E+02  0.00000000000E+00 0. -1.
         -5    1    5    5    0  503  0.48356712086E+02 -0.53358813421E+02  0.50569017366E+01  0.72340837904E+02  0.47000000000E+01 0.  1.
         13    1    6    6    0    0 -0.45605548857E+02 -0.14320089702E+02 -0.52014641929E+02  0.70643145673E+02  0.00000000000E+00 0. -1.
        -14    1    6    6    0    0 -0.19875543392E+02  0.26772442761E+02  0.18987395340E+02  0.38370849591E+02  0.00000000000E+00 0.  1.
</event>
<event>
12    1  0.8798177E-003  0.2274900E+03  0.7818608E-02  0.1129635E+00
         21   -1    0    0  503  502  0.00000000000E+00  0.00000000000E+00  0.47506939746E+02  0.47506939746E+02  0.00000000000E+00 0.  1.
         21   -1    0    0  501  503 -0.00000000000E+00 -0.00000000000E+00 -0.26702628179E+04  0.26702628179E+04  0.00000000000E+00 0. -1.
          6    2    1    2  501    0 -0.13248309056E+03 -0.28279751050E+02 -0.23751651262E+04  0.23860345913E+04  0.18275716276E+03 0.  0.
         24    2    3    3    0    0 -0.10591157060E+03 -0.40542360906E+02 -0.89420873239E+03  0.90478162585E+03  0.78483052820E+02 0.  0.
         -6    2    1    2    0  502  0.13248309056E+03  0.28279751050E+02 -0.24759075200E+03  0.33173516639E+03  0.17434312875E+03 0.  0.
        -24    2    5    5    0    0  0.88934755623E+02  0.91206596533E+01 -0.25647480380E+03  0.28310858276E+03  0.79865934295E+02 0.  0.
          5    1    3    3  501    0 -0.26571519961E+02  0.12262609856E+02 -0.14809563938E+04  0.14812529654E+04  0.47000000000E+01 0. -1.
        -13    1    4    4    0    0 -0.40397919367E+02 -0.39591143465E+02 -0.63140099405E+03  0.63392954326E+03  0.00000000000E+00 0.  1.
         14    1    4    4    0    0 -0.65513651233E+02 -0.95121744090E+00 -0.26280773833E+03  0.27085208259E+03  0.00000000000E+00 0. -1.
         -5    1    5    5    0  502  0.43548334938E+02  0.19159091396E+02  0.88840518007E+01  0.48626583629E+02  0.47000000000E+01 0.  1.
         13    1    6    6    0    0  0.23529550684E+00  0.14927501155E+02 -0.11542281180E+03  0.11638432514E+03  0.00000000000E+00 0. -1.
        -14    1    6    6    0    0  0.88699460116E+02 -0.58068415020E+01 -0.14105199200E+03  0.16672425762E+03  0.00000000000E+00 0.  1.
</event>
<event>
12    1  0.8798177E-003  0.2862488E+03  0.7818608E-02  0.1092535E+00
         21   -1    0    0  501  502  0.00000000000E+00  0.00000000000E+00  0.35285667369E+03  0.35285667369E+03  0.00000000000E+00 0. -1.
         21   -1    0    0  502  503 -0.00000000000E+00 -0.00000000000E+00 -0.29479929522E+03  0.29479929522E+03  0.00000000000E+00 0.  1.
          6    2    1    2  501    0  0.27145857877E+02 -0.22649101387E+03  0.17969261835E+03  0.33663584185E+03  0.17029144419E+03 0.  0.
         24    2    3    3    0    0 -0.42555826598E+02 -0.89435346595E+02  0.10151472010E+03  0.16407728795E+03  0.82501141958E+02 0.  0.
         -6    2    1    2    0  503 -0.27145857877E+02  0.22649101387E+03 -0.12163523988E+03  0.31102012707E+03  0.17292573811E+03 0.  0.
        -24    2    5    5    0    0  0.44047742392E+01  0.17592273141E+03 -0.22084438920E+02  0.19489499823E+03  0.80796834273E+02 0.  0.
          5    1    3    3  501    0  0.69701684475E+02 -0.13705566727E+03  0.78177898246E+02  0.17255855390E+03  0.47000000000E+01 0. -1.
        -11    1    4    4    0    0 -0.56021846812E+02 -0.46496899931E+02  0.28243070922E+02  0.78090204754E+02  0.00000000000E+00 0.  1.
         12    1    4    4    0    0  0.13466020214E+02 -0.42938446664E+02  0.73271649181E+02  0.85987083193E+02  0.00000000000E+00 0. -1.
         -5    1    5    5    0  503 -0.31550632116E+02  0.50568282453E+02 -0.99550800960E+02  0.11612512884E+03  0.47000000000E+01 0.  1.
         11    1    6    6    0    0  0.26111412273E+02  0.14608145108E+02  0.35151118644E+01  0.30125732619E+02  0.00000000000E+00 0. -1.
        -12    1    6    6    0    0 -0.21706638034E+02  0.16131458630E+03 -0.25599550784E+02  0.16476926561E+03  0.00000000000E+00 0.  1.
</event>
<event>
12    1  0.8798177E-003  0.3023854E+03  0.7818608E-02  0.1084109E+00
         21   -1    0    0  501  502  0.00000000000E+00  0.00000000000E+00  0.68844970872E+03  0.68844970872E+03  0.00000000000E+00 0.  1.
         21   -1    0    0  502  503 -0.00000000000E+00 -0.00000000000E+00 -0.14107553414E+03  0.14107553414E+03  0.00000000000E+00 0.  1.
          6    2    1    2  501    0  0.22186517470E+03  0.11251414980E+03  0.17196092695E+03  0.34747541581E+03  0.17112864910E+03 0.  0.
         24    2    3    3    0    0  0.19934004135E+03  0.85854521634E+02  0.19682303539E+03  0.30436704258E+03  0.82416857370E+02 0.  0.
         -6    2    1    2    0  503 -0.22186517470E+03 -0.11251414980E+03  0.37541324763E+03  0.48204982705E+03  0.17191084785E+03 0.  0.
        -24    2    5    5    0    0 -0.21500998428E+03 -0.70109768023E+02  0.36445198229E+03  0.43746995976E+03  0.86081620458E+02 0.  0.
          5    1    3    3  501    0  0.22525133354E+02  0.26659628168E+02 -0.24862108439E+02  0.43108373232E+02  0.47000000000E+01 0. -1.
        -13    1    4    4    0    0  0.94772946776E+02 -0.19050324222E+01  0.93648959108E+02  0.13325039636E+03  0.00000000000E+00 0.  1.
         14    1    4    4    0    0  0.10456709457E+03  0.87759554056E+02  0.10317407628E+03  0.17111664621E+03  0.00000000000E+00 0. -1.
         -5    1    5    5    0  503 -0.68551904211E+01 -0.42404381779E+02  0.10961265336E+02  0.44579867289E+02  0.47000000000E+01 0.  1.
         13    1    6    6    0    0 -0.10257537073E+02  0.46972488952E+01 -0.16308857178E+01  0.11399166733E+02  0.00000000000E+00 0. -1.
        -14    1    6    6    0    0 -0.20475244721E+03 -0.74807016918E+02  0.36608286801E+03  0.42607079303E+03  0.00000000000E+00 0.  1.
</event>
<event>
12    1  0.8798177E-003  0.1748519E+03  0.7818608E-02  0.1173256E+00
         21   -1    0    0  503  502  0.00000000000E+00  0.00000000000E+00  0.12528002138E+03  0.12528002138E+03  0.00000000000E+00 0. -1.
         21   -1    0    0  501  503 -0.00000000000E+00 -0.00000000000E+00 -0.28382724309E+03  0.28382724309E+03  0.00000000000E+00 0. -1.
          6    2    1    2  501    0 -0.22069884487E+02 -0.10379994123E+02 -0.15811912437E+03  0.23574316518E+03  0.17314259545E+03 0.  0.
         24    2    3    3    0    0 -0.39082993854E+02 -0.26670592749E+02 -0.18148788943E+03  0.20223169439E+03  0.75637314086E+02 0.  0.
         -6    2    1    2    0  502  0.22069884487E+02  0.10379994123E+02 -0.42809734771E+00  0.17336409929E+03  0.17163945810E+03 0.  0.
        -24    2    5    5    0    0 -0.38705442730E+02  0.78349747718E+00 -0.43925369048E+02  0.97866842446E+02  0.78420377703E+02 0.  0.
          5    1    3    3  501    0  0.17013109367E+02  0.16290598626E+02  0.23368765059E+02  0.33511470787E+02  0.47000000000E+01 0. -1.
        -11    1    4    4    0    0 -0.23611803564E+02  0.84036443781E+01 -0.15150529184E+03  0.15356429260E+03  0.00000000000E+00 0.  1.
         12    1    4    4    0    0 -0.15471190290E+02 -0.35074237127E+02 -0.29982597584E+02  0.48667401789E+02  0.00000000000E+00 0. -1.
         -5    1    5    5    0  502  0.60775327218E+02  0.95964966456E+01  0.43497271700E+02  0.75497256848E+02  0.47000000000E+01 0.  1.
         13    1    6    6    0    0 -0.64307997653E+01 -0.20775541376E+02 -0.53619008569E+02  0.57861700502E+02  0.00000000000E+00 0. -1.
        -14    1    6    6    0    0 -0.32274642965E+02  0.21559038853E+02  0.96936395211E+01  0.40005141944E+02  0.00000000000E+00 0.  1.
</event>
<event>
12    1  0.8798177E-003  0.2929836E+03  0.7818608E-02  0.1088931E+00
         21   -1    0    0  503  502  0.00000000000E+00  0.00000000000E+00  0.14153333506E+03  0.14153333506E+03  0.00000000000E+00 0.  1.
         21   -1    0    0  501  503 -0.00000000000E+00 -0.00000000000E+00 -0.84537362198E+03  0.84537362198E+03  0.00000000000E+00 0. -1.
          6    2    1    2  501    0 -0.92814396918E+02 -0.21675755425E+03 -0.61578889884E+03  0.68193499018E+03  0.17389943444E+03 0.  0.
         24    2    3    3    0    0  0.12546964109E+02 -0.89602397434E+02 -0.18739383211E+03  0.22279027062E+03  0.79580402336E+02 0.  0.
         -6    2    1    2    0  502  0.92814396918E+02  0.21675755425E+03 -0.88051388086E+02  0.30497196686E+03  0.17221063855E+03 0.  0.
        -24    2    5    5    0    0  0.87999414025E+02  0.96061702698E+02  0.10192560310E+02  0.14920086544E+03  0.72008765915E+02 0.  0.
          5    1    3    3  501    0 -0.10536136103E+03 -0.12715515681E+03 -0.42839506672E+03  0.45914471956E+03  0.47000000000E+01 0. -1.
        -11    1    4    4    0    0 -0.12171684988E+02  0.11185843177E+02 -0.30263222229E+02  0.34483845822E+02  0.00000000000E+00 0.  1.
         12    1    4    4    0    0  0.24718649097E+02 -0.10078824061E+03 -0.15713060988E+03  0.18830642480E+03  0.00000000000E+00 0. -1.
         -5    1    5    5    0  502  0.48149828926E+01  0.12069585155E+03 -0.98243948396E+02  0.15577110142E+03  0.47000000000E+01 0.  1.
         11    1    6    6    0    0  0.55442121366E+02  0.10282356560E+02 -0.32011894817E+01  0.56478343567E+02  0.00000000000E+00 0. -1.
        -12    1    6    6    0    0  0.32557292659E+02  0.85779346138E+02  0.13393749792E+02  0.92722521874E+02  0.00000000000E+00 0.  1.
</event>
<event>
12    1  0.8798177E-003  0.3045042E+03  0.7818608E-02  0.1083118E+00
         21   -1    0    0  501  502  0.00000000000E+00  0.00000000000E+00  0.40147223328E+03  0.40147223328E+03  0.00000000000E+00 0.  1.
         21   -1    0    0  502  503 -0.00000000000E+00 -0.00000000000E+00 -0.24558808801E+03  0.24558808801E+03  0.00000000000E+00 0. -1.
          6    2    1    2  501    0 -0.79161790718E+02  0.23853244521E+03 -0.26968248673E+01  0.30451615911E+03  0.17192586125E+03 0.  0.
         24    2    3    3    0    0 -0.92986502155E+02  0.23166420707E+03  0.35134108798E+02  0.26338752087E+03  0.76313734857E+02 0.  0.
         -6    2    1    2    0  503  0.79161790718E+02 -0.23853244521E+03  0.15858097014E+03  0.34254416219E+03  0.17036508573E+03 0.  0.
        -24    2    5    5    0    0 -0.72959130204E+00 -0.19343957567E+03  0.90510439316E+02  0.22821268371E+03  0.80433125298E+02 0.  0.
          5    1    3    3  501    0  0.13824711437E+02  0.68682381383E+01 -0.37830933665E+02  0.41128638239E+02  0.47000000000E+01 0. -1.
        -11    1    4    4    0    0 -0.40405152156E+02  0.18402356863E+03  0.38714217187E+02  0.19234354875E+03  0.00000000000E+00 0.  1.
         12    1    4    4    0    0 -0.52581349999E+02  0.47640638438E+02 -0.35801083888E+01  0.71043972120E+02  0.00000000000E+00 0. -1.
         -5    1    5    5    0  503  0.79891382020E+02 -0.45092869542E+02  0.68070530819E+02  0.11433147848E+03  0.47000000000E+01 0.  1.
         13    1    6    6    0    0 -0.23661709038E+02 -0.13133384534E+03  0.91836654791E+02  0.16199514366E+03  0.00000000000E+00 0. -1.
        -14    1    6    6    0    0  0.22932117736E+02 -0.62105730322E+02 -0.13262154752E+01  0.66217540049E+02  0.00000000000E+00 0.  1.
</event>
<event>
12    1  0.8798177E-003  0.1909455E+03  0.7818608E-02  0.1158763E+00
         21   -1    0    0  501  502  0.00000000000E+00  0.00000000000E+00  0.31550608456E+02  0.31550608456E+02  0.00000000000E+00 0.  1.
         21   -1    0    0  502  503 -0.00000000000E+00 -0.00000000000E+00 -0.11393479213E+04  0.11393479213E+04  0.00000000000E+00 0. -1.
          6    2    1    2  501    0 -0.69529574060E+02  0.14652154277E+02 -0.48120683480E+03  0.51585973293E+03  0.17176204152E+03 0.  0.
         24    2    3    3    0    0  0.17743442147E+02  0.26153672070E+02 -0.14996825207E+03  0.17309165834E+03  0.80445020085E+02 0.  0.
         -6    2    1    2    0  503  0.69529574060E+02 -0.14652154277E+02 -0.62659047804E+03  0.65503879682E+03  0.17723191269E+03 0.  0.
        -24    2    5    5    0    0 -0.26118624974E+02 -0.12405826704E+02 -0.19738396532E+03  0.21527301311E+03  0.80907065816E+02 0.  0.
          5    1    3    3  501    0 -0.87273016208E+02 -0.11501517793E+02 -0.33123858273E+03  0.34276807459E+03  0.47000000000E+01 0. -1.
        -11    1    4    4    0    0 -0.24045199375E+02  0.20727694364E+02 -0.22695743652E+02  0.39024424487E+02  0.00000000000E+00 0.  1.
         12    1    4    4    0    0  0.41788641522E+02  0.54259777058E+01 -0.12727250842E+03  0.13406723385E+03  0.00000000000E+00 0. -1.
         -5    1    5    5    0  503  0.95648199034E+02 -0.22463275726E+01 -0.42920651272E+03  0.43976578372E+03  0.47000000000E+01 0.  1.
         11    1    6    6    0    0 -0.32598736755E+01 -0.34142714312E+02 -0.17023201388E+03  0.17365278652E+03  0.00000000000E+00 0. -1.
        -12    1    6    6    0    0 -0.22858751299E+02  0.21736887608E+02 -0.27151951439E+02  0.41620226582E+02  0.00000000000E+00 0.  1.
</event>
<event>
12    1  0.8798177E-003  0.2464154E+03  0.7818608E-02  0.1115652E+00
         21   -1    0    0  503  502  0.00000000000E+00  0.00000000000E+00  0.12179443340E+03  0.12179443340E+03  0.00000000000E+00 0. -1.
         21   -1    0    0  501  503 -0.00000000000E+00 -0.00000000000E+00 -0.10716607451E+04  0.10716607451E+04  0.00000000000E+00 0. -1.
          6    2    1    2  501    0 -0.10757493909E+03 -0.14003762441E+03 -0.91143548715E+03  0.94406091609E+03  0.17132852148E+03 0.  0.
         24    2    3    3    0    0 -0.23583665344E+02 -0.38787626813E+02 -0.18437694415E+03  0.20518182515E+03  0.77743517870E+02 0.  0.
         -6    2    1    2    0  502  0.10757493909E+03  0.14003762441E+03 -0.38430824513E+02  0.24939426238E+03  0.17186525555E+03 0.  0.
        -24    2    5    5    0    0  0.11718372670E+03  0.15072800457E+03 -0.58354135131E+02  0.22438143900E+03  0.10242493796E+03 0.  0.
          5    1    3    3  501    0 -0.83991273742E+02 -0.10124999759E+03 -0.72705854300E+03  0.73887909094E+03  0.47000000000E+01 0. -1.
        -13    1    4    4    0    0  0.16367438575E+02 -0.46311342262E+02 -0.93161075447E+02  0.10531675767E+03  0.00000000000E+00 0.  1.
         14    1    4    4    0    0 -0.39951103919E+02  0.75237154493E+01 -0.91215868706E+02  0.99865067478E+02  0.00000000000E+00 0. -1.
         -5    1    5    5    0  502 -0.96087876161E+01 -0.10690380164E+02  0.19923310618E+02  0.25012823381E+02  0.47000000000E+01 0.  1.
         11    1    6    6    0    0  0.71859022641E+02  0.21828929961E+02  0.17235178723E+01  0.75121180981E+02  0.00000000000E+00 0. -1.
        -12    1    6    6    0    0  0.45324704062E+02  0.12889907461E+03 -0.60077653004E+02  0.14926025802E+03  0.00000000000E+00 0.  1.
</event>
<event>
12    1  0.8798177E-003  0.2045349E+03  0.7818608E-02  0.1146558E+00
         21   -1    0    0  501  502  0.00000000000E+00  0.00000000000E+00  0.93692578970E+02  0.93692578970E+02  0.00000000000E+00 0. -1.
         21   -1    0    0  502  503 -0.00000000000E+00 -0.00000000000E+00 -0.48204247561E+03  0.48204247561E+03  0.00000000000E+00 0. -1.
          6    2    1    2  501    0 -0.10347550100E+03  0.23473323006E+02 -0.11071053655E+03  0.23257546762E+03  0.17486094199E+03 0.  0.
         24    2    3    3    0    0 -0.62112657191E+02  0.50335271710E+02 -0.23249315337E+01  0.11340341338E+03  0.80394695710E+02 0.  0.
         -6    2    1    2    0  503  0.10347550100E+03 -0.23473323006E+02 -0.27763936009E+03  0.34315958696E+03  0.17151300724E+03 0.  0.
        -24    2    5    5    0    0  0.67734910625E+02 -0.15962818047E+02 -0.28483001679E+03  0.30564168419E+03  0.86289460379E+02 0.  0.
          5    1    3    3  501    0 -0.41362843807E+02 -0.26861948705E+02 -0.10838560502E+03  0.11917205424E+03  0.47000000000E+01 0. -1.
        -13    1    4    4    0    0 -0.31847687178E+02  0.28040250985E+02 -0.41329110973E+02  0.59233658233E+02  0.00000000000E+00 0.  1.
         14    1    4    4    0    0 -0.30264970013E+02  0.22295020726E+02  0.39004179439E+02  0.54169755148E+02  0.00000000000E+00 0. -1.
         -5    1    5    5    0  503  0.35740590373E+02 -0.75105049589E+01  0.71906566976E+01  0.37517902776E+02  0.47000000000E+01 0.  1.
         11    1    6    6    0    0  0.10815856091E+02 -0.42569899025E+02 -0.78442386081E+02  0.89902096638E+02  0.00000000000E+00 0. -1.
        -12    1    6    6    0    0  0.56919054534E+02  0.26607080978E+02 -0.20638763071E+03  0.21573958755E+03  0.00000000000E+00 0.  1.
</event>
<event>
12    1  0.8798177E-003  0.2502152E+03  0.7818608E-02  0.1113790E+00
         21   -1    0    0  501  502  0.00000000000E+00  0.00000000000E+00  0.64739811138E+03  0.64739811138E+03  0.00000000000E+00 0. -1.
         21   -1    0    0  502  503 -0.00000000000E+00 -0.00000000000E+00 -0.12900881086E+03  0.12900881086E+03  0.00000000000E+00 0.  1.
          6    2    1    2  501    0  0.12108803309E+03 -0.12870592350E+03  0.45640697365E+03  0.51862904399E+03  0.17158447822E+03 0.  0.
         24    2    3    3    0    0  0.65822949401E+02 -0.15254011141E+03  0.31885241585E+03  0.36841038881E+03  0.80362959359E+02 0.  0.
         -6    2    1    2    0  503 -0.12108803309E+03  0.12870592350E+03  0.61982326866E+02  0.25777787826E+03  0.17714428914E+03 0.  0.
        -24    2    5    5    0    0 -0.19755713568E+02  0.64867442489E+02 -0.28755269468E+02  0.10744826699E+03  0.78231651154E+02 0.  0.
          5    1    3    3  501    0  0.55265083689E+02  0.23834187914E+02  0.13755455781E+03  0.15021865517E+03  0.47000000000E+01 0. -1.
        -11    1    4    4    0    0 -0.48958490299E+01 -0.78533697018E+02  0.17478599725E+03  0.19168113037E+03  0.00000000000E+00 0.  1.
         12    1    4    4    0    0  0.70718798431E+02 -0.74006414392E+02  0.14406641860E+03  0.17672925845E+03  0.00000000000E+00 0. -1.
         -5    1    5    5    0  503 -0.10133231952E+03  0.63838481007E+02  0.90737596335E+02  0.15032961127E+03  0.47000000000E+01 0.  1.
         13    1    6    6    0    0  0.50577310409E+01  0.38068887887E+02  0.22502113411E+02  0.44510290677E+02  0.00000000000E+00 0. -1.
        -14    1    6    6    0    0 -0.24813444609E+02  0.26798554602E+02 -0.51257382879E+02  0.62937976308E+02  0.00000000000E+00 0.  1.
</event>
<event>
12    1  0.8798177E-003  0.3514040E+03  0.7818608E-02  0.1062423E+00
         21   -1    0    0  501  502  0.00000000000E+00  0.00000000000E+00  0.46322746493E+03  0.46322746493E+03  0.00000000000E+00 0.  1.
         21   -1    0    0  502  503 -0.00000000000E+00 -0.00000000000E+00 -0.30142917601E+03  0.30142917601E+03  0.00000000000E+00 0. -1.
          6    2    1    2  501    0  0.25032070165E+03 -0.17639834941E+03 -0.54642672061E+02  0.35194430805E+03  0.16462728514E+03 0.  0.
         24    2    3    3    0    0  0.20587644881E+03 -0.71255233769E+02 -0.53129132660E+02  0.23768693552E+03  0.78803261766E+02 0.  0.
         -6    2    1    2    0  503 -0.25032070165E+03  0.17639834941E+03  0.21644096098E+03  0.41271233289E+03  0.17235993959E+03 0.  0.
        -24    2    5    5    0    0 -0.27034760326E+03  0.15913949612E+03  0.20221282977E+03  0.38232360928E+03  0.82874048226E+02 0.  0.
          5    1    3    3  501    0  0.44444252844E+02 -0.10514311564E+03 -0.15135394015E+01  0.11425737254E+03  0.47000000000E+01 0. -1.
        -13    1    4    4    0    0  0.11333700536E+03 -0.76512739939E+02 -0.15388217873E+02  0.13760913271E+03  0.00000000000E+00 0.  1.
         14    1    4    4    0    0  0.92539443450E+02  0.52575061708E+01 -0.37740914787E+02  0.10007780280E+03  0.00000000000E+00 0. -1.
         -5    1    5    5    0  503  0.20026901611E+02  0.17258853288E+02  0.14228131209E+02  0.30388723611E+02  0.47000000000E+01 0.  1.
         11    1    6    6    0    0 -0.15952780834E+03  0.83547732346E+02  0.67794733487E+02  0.19242003820E+03  0.00000000000E+00 0. -1.
        -12    1    6    6    0    0 -0.11081979493E+03  0.75591763776E+02  0.13441809628E+03  0.18990357107E+03  0.00000000000E+00 0.  1.
</event>
<event>
12    1  0.8798177E-003  0.2052925E+03  0.7818608E-02  0.1145435E+00
         21   -1    0    0  503  502  0.00000000000E+00  0.00000000000E+00  0.50796589847E+03  0.50796589847E+03  0.00000000000E+00 0. -1.
         21   -1    0    0  501  503 -0.00000000000E+00 -0.00000000000E+00 -0.83477724103E+02  0.83477724103E+02  0.00000000000E+00 0. -1.
          6    2    1    2  501    0 -0.10965711868E+03  0.17669891520E+02  0.23873080862E+03  0.31458476859E+03  0.17214606851E+03 0.  0.
         24    2    3    3    0    0 -0.12901997714E+03  0.53938166534E+02  0.19529724233E+03  0.25459416315E+03  0.84390134136E+02 0.  0.
         -6    2    1    2    0  502  0.10965711868E+03 -0.17669891520E+02  0.18575736575E+03  0.27685885399E+03  0.17265027471E+03 0.  0.
        -24    2    5    5    0    0  0.13135822717E+03 -0.47941675346E+02  0.11851078229E+03  0.19984254407E+03  0.79616887779E+02 0.  0.
          5    1    3    3  501    0  0.19362858464E+02 -0.36268275014E+02  0.43433566286E+02  0.59990605437E+02  0.47000000000E+01 0. -1.
        -13    1    4    4    0    0 -0.10405729501E+02  0.42250977173E+02  0.42686519654E+02  0.60955420093E+02  0.00000000000E+00 0.  1.
         14    1    4    4    0    0 -0.11861424764E+03  0.11687189361E+02  0.15261072268E+03  0.19363874306E+03  0.00000000000E+00 0. -1.
         -5    1    5    5    0  502 -0.21701108497E+02  0.30271783826E+02  0.67246583462E+02  0.77016309918E+02  0.47000000000E+01 0.  1.
         11    1    6    6    0    0  0.80174682134E+02 -0.11310200229E+02  0.20771698136E+02  0.83590452373E+02  0.00000000000E+00 0. -1.
        -12    1    6    6    0    0  0.51183545039E+02 -0.36631475117E+02  0.97739084157E+02  0.11625209170E+03  0.00000000000E+00 0.  1.
</event>
<event>
12    1  0.8798177E-003  0.2840562E+03  0.7818608E-02  0.1093502E+00
         21   -1    0    0  501  502  0.00000000000E+00  0.00000000000E+00  0.24635017128E+03  0.24635017128E+03  0.00000000000E+00 0.  1.
         21   -1    0    0  502  503 -0.00000000000E+00 -0.00000000000E+00 -0.33605431331E+03  0.33605431331E+03  0.00000000000E+00 0.  1.
          6    2    1    2  501    0 -0.19389148994E+03  0.11636749912E+03 -0.91397232254E+02  0.29834319306E+03  0.17181356773E+03 0.  0.
         24    2    3    3    0    0 -0.83233506878E+02 -0.97609548508E+01 -0.40245116510E+02  0.12286611460E+03  0.80332557585E+02 0.  0.
         -6    2    1    2    0  503  0.19389148994E+03 -0.11636749912E+03  0.16930902196E+01  0.28406129153E+03  0.17190883068E+03 0.  0.
        -24    2    5    5    0    0  0.67580279127E+02  0.13463117052E+02  0.33530475369E+01  0.10285600371E+03  0.76287383783E+02 0.  0.
          5    1    3    3  501    0 -0.11065798306E+03  0.12612845397E+03 -0.51152115744E+02  0.17547707845E+03  0.47000000000E+01 0. -1.
        -11    1    4    4    0    0 -0.78453328633E+02  0.13063072868E+02 -0.38315392454E+01  0.79625682662E+02  0.00000000000E+00 0.  1.
         12    1    4    4    0    0 -0.47801782451E+01 -0.22824027719E+02 -0.36413577264E+02  0.43240431942E+02  0.00000000000E+00 0. -1.
         -5    1    5    5    0  503  0.12631121081E+03 -0.12983061618E+03 -0.16599573173E+01  0.18120528781E+03  0.47000000000E+01 0.  1.
         11    1    6    6    0    0  0.47817396093E+02 -0.22169965520E+02 -0.19427940641E+02  0.56173442282E+02  0.00000000000E+00 0. -1.
        -12    1    6    6    0    0  0.19762883034E+02  0.35633082572E+02  0.22780988178E+02  0.46682561431E+02  0.00000000000E+00 0.  1.
</event>
<event>
12    1  0.8798177E-003  0.1807476E+03  0.7818608E-02  0.1167193E+00
         21   -1    0    0  503  502  0.00000000000E+00  0.00000000000E+00  0.56084597750E+02  0.56084597750E+02  0.00000000000E+00 0. -1.
         21   -1    0    0  501  503 -0.00000000000E+00 -0.00000000000E+00 -0.59093674109E+03  0.59093674109E+03  0.00000000000E+00 0.  1.
          6    2    1    2  501    0  0.42556926898E+02 -0.29079485177E+02 -0.30901147075E+03  0.35775728220E+03  0.17275843085E+03 0.  0.
         24    2    3    3    0    0  0.65254458774E+02  0.33843636588E+02 -0.15099102692E+03  0.18609759598E+03  0.80190329171E+02 0.  0.
         -6    2    1    2    0  502 -0.42556926898E+02  0.29079485177E+02 -0.22584067259E+03  0.28926405664E+03  0.17324253687E+03 0.  0.
        -24    2    5    5    0    0  0.19834366630E+02  0.67540840509E+02 -0.12099919801E+03  0.16125712653E+03  0.80049282959E+02 0.  0.
          5    1    3    3  501    0 -0.22697531876E+02 -0.62923121765E+02 -0.15802044383E+03  0.17165968622E+03  0.47000000000E+01 0. -1.
        -13    1    4    4    0    0  0.61761906451E+00  0.66837816965E+01 -0.97959000098E+02  0.98188696352E+02  0.00000000000E+00 0.  1.
         14    1    4    4    0    0  0.64636839710E+02  0.27159854892E+02 -0.53032026824E+02  0.87908899632E+02  0.00000000000E+00 0. -1.
         -5    1    5    5    0  502 -0.62391293528E+02 -0.38461355332E+02 -0.10484147459E+03  0.12800693011E+03  0.47000000000E+01 0.  1.
         13    1    6    6    0    0 -0.22459945549E+02  0.19699951350E+01 -0.79748062286E+01  0.23915007198E+02  0.00000000000E+00 0. -1.
        -14    1    6    6    0    0  0.42294312179E+02  0.65570845374E+02 -0.11302439178E+03  0.13734211933E+03  0.00000000000E+00 0.  1.
</event>
<event>
12    1  0.8798177E-003  0.2293227E+03  0.7818608E-02  0.1127166E+00
         21   -1    0    0  503  502  0.00000000000E+00  0.00000000000E+00  0.44914723658E+03  0.44914723658E+03  0.00000000000E+00 0. -1.
         21   -1    0    0  501  503 -0.00000000000E+00 -0.00000000000E+00 -0.11847864126E+03  0.11847864126E+03  0.00000000000E+00 0. -1.
          6    2    1    2  501    0 -0.46199097386E+02  0.14465827681E+03  0.13315148642E+03  0.26517580008E+03  0.17183862477E+03 0.  0.
         24    2    3    3    0    0 -0.96605787844E+02  0.11386539109E+03  0.11004181527E+03  0.20157404574E+03  0.78897967502E+02 0.  0.
         -6    2    1    2    0  502  0.46199097386E+02 -0.14465827681E+03  0.19751710890E+03  0.30245007776E+03  0.17147206064E+03 0.  0.
        -24    2    5    5    0    0  0.96605593962E+02 -0.99465313246E+02  0.12225065791E+03  0.20110735479E+03  0.79201991575E+02 0.  0.
          5    1    3    3  501    0  0.50406690458E+02  0.30792885729E+02  0.23109671146E+02  0.63601754338E+02  0.47000000000E+01 0. -1.
        -11    1    4    4    0    0 -0.62624385260E+02  0.10062992148E+03  0.11454453955E+03  0.16482914265E+03  0.00000000000E+00 0.  1.
         12    1    4    4    0    0 -0.33981402584E+02  0.13235469611E+02 -0.45027242779E+01  0.36744903093E+02  0.00000000000E+00 0. -1.
         -5    1    5    5    0  502 -0.50406496576E+02 -0.45192963569E+02  0.75266450992E+02  0.10134272297E+03  0.47000000000E+01 0.  1.
         13    1    6    6    0    0  0.79914511522E+01 -0.31720624996E+02  0.71366605350E+02  0.78506392739E+02  0.00000000000E+00 0. -1.
        -14    1    6    6    0    0  0.88614142810E+02 -0.67744688249E+02  0.50884052555E+02  0.12260096205E+03  0.00000000000E+00 0.  1.
</event>
<event>
12    1  0.8798177E-003  0.1855289E+03  0.7818608E-02  0.1162824E+00
         21   -1    0    0  501  502  0.00000000000E+00  0.00000000000E+00  0.36943291171E+03  0.36943291171E+03  0.00000000000E+00 0.  1.
         21   -1    0    0  502  503 -0.00000000000E+00 -0.00000000000E+00 -0.99816520602E+02  0.99816520602E+02  0.00000000000E+00 0. -1.
          6    2    1    2  501    0 -0.18004068142E+00  0.68677881280E+02  0.72104361064E+02  0.19904779928E+03  0.17234936531E+03 0.  0.
         24    2    3    3    0    0 -0.54532005060E+02  0.23148207770E+02  0.34464002311E+01  0.10023943532E+03  0.80786679722E+02 0.  0.
         -6    2    1    2    0  503  0.18004068142E+00 -0.68677881280E+02  0.19751203004E+03  0.27020163303E+03  0.17111761069E+03 0.  0.
        -24    2    5    5    0    0  0.45866479877E+02  0.42711691398E+01  0.13648267306E+03  0.16458209366E+03  0.79610103915E+02 0.  0.
          5    1    3    3  501    0  0.54351964378E+02  0.45529673510E+02  0.68657960833E+02  0.98808363955E+02  0.47000000000E+01 0. -1.
        -11    1    4    4    0    0 -0.33817415879E+02  0.39150048076E+02 -0.28400139305E+02  0.59016199417E+02  0.00000000000E+00 0.  1.
         12    1    4    4    0    0 -0.20714589181E+02 -0.16001840306E+02  0.31846539536E+02  0.41223235906E+02  0.00000000000E+00 0. -1.
         -5    1    5    5    0  503 -0.45686439196E+02 -0.72949050420E+02  0.61029356978E+02  0.10561953937E+03  0.47000000000E+01 0.  1.
         13    1    6    6    0    0  0.63877703654E+01  0.36186425219E+02  0.33311458632E+02  0.49597522685E+02  0.00000000000E+00 0. -1.
        -14    1    6    6    0    0  0.39478709512E+02 -0.31915256079E+02  0.10317121443E+03  0.11498457098E+03  0.00000000000E+00 0.  1.
</event>
<event>
12    1  0.8798177E-003  0.1869565E+03  0.7818608E-02  0.1162290E+00
         21   -1    0    0  501  502  0.00000000000E+00  0.00000000000E+00  0.12244155297E+03  0.12244155297E+03  0.00000000000E+00 0.  1.
         21   -1    0    0  502  503 -0.00000000000E+00 -0.00000000000E+00 -0.27993795759E+03  0.27993795759E+03  0.00000000000E+00 0.  1.
          6    2    1    2  501    0 -0.38839788596E+02  0.45466937813E+02 -0.63900421937E+02  0.19330309319E+03  0.17235733318E+03 0.  0.
         24    2    3    3    0    0 -0.27174820009E+02  0.46536853962E+02  0.28577449877E+02  0.99967874826E+02  0.79200730657E+02 0.  0.
         -6    2    1    2    0  503  0.38839788596E+02 -0.45466937813E+02 -0.93595982685E+02  0.20907641737E+03  0.17713545301E+03 0.  0.
        -24    2    5    5    0    0  0.63474329836E+02 -0.85449481852E+02 -0.44423172443E+02  0.14091836783E+03  0.80956554055E+02 0.  0.
          5    1    3    3  501    0 -0.11664968587E+02 -0.10699161484E+01 -0.92477871813E+02  0.93335218368E+02  0.47000000000E+01 0. -1.
        -11    1    4    4    0    0 -0.28519606121E+02 -0.10224069543E+02  0.30725522752E+02  0.43150403007E+02  0.00000000000E+00 0.  1.
         12    1    4    4    0    0  0.13447861120E+01  0.56760923505E+02 -0.21480728748E+01  0.56817471819E+02  0.00000000000E+00 0. -1.
         -5    1    5    5    0  503 -0.24634541240E+02  0.39982544038E+02 -0.49172810242E+02  0.68158049539E+02  0.47000000000E+01 0.  1.
         13    1    6    6    0    0  0.24476868561E+02 -0.91087393333E+02 -0.30487956555E+02  0.99123891236E+02  0.00000000000E+00 0. -1.
        -14    1    6    6    0    0  0.38997461275E+02  0.56379114816E+01 -0.13935215888E+02  0.41794476592E+02  0.00000000000E+00 0.  1.
</event>
<event>
12    1  0.8798177E-003  0.1765072E+03  0.7818608E-02  0.1171393E+00
         21   -1    0    0  503  502  0.00000000000E+00  0.00000000000E+00  0.13284122967E+03  0.13284122967E+03  0.00000000000E+00 0. -1.
         21   -1    0    0  501  503 -0.00000000000E+00 -0.00000000000E+00 -0.30644809971E+03  0.30644809971E+03  0.00000000000E+00 0. -1.
          6    2    1    2  501    0  0.14533263397E+02  0.31887530318E+02 -0.19373888990E+03  0.26163773592E+03  0.17231226614E+03 0.  0.
         24    2    3    3    0    0  0.63871193110E+02 -0.65491591300E+01 -0.11222236291E+03  0.15878519790E+03  0.92176241738E+02 0.  0.
         -6    2    1    2    0  502 -0.14533263397E+02 -0.31887530318E+02  0.20132019861E+02  0.17765159347E+03  0.17299352619E+03 0.  0.
        -24    2    5    5    0    0 -0.35448713660E+02  0.40561657762E+02 -0.84789690089E+01  0.96861621333E+02  0.80052616392E+02 0.  0.
          5    1    3    3  501    0 -0.49337929714E+02  0.38436689448E+02 -0.81516526984E+02  0.10285253801E+03  0.47000000000E+01 0. -1.
        -11    1    4    4    0    0  0.10311905824E+02  0.15848916229E+02  0.11492097826E+02  0.22126722753E+02  0.00000000000E+00 0.  1.
         12    1    4    4    0    0  0.53559287286E+02 -0.22398075359E+02 -0.12371446074E+03  0.13665847515E+03  0.00000000000E+00 0. -1.
         -5    1    5    5    0  502  0.20915450263E+02 -0.72449188080E+02  0.28610988870E+02  0.80789972133E+02  0.47000000000E+01 0.  1.
         13    1    6    6    0    0 -0.73223240267E+01  0.44807594323E+02  0.25876819092E+02  0.52258460602E+02  0.00000000000E+00 0. -1.
        -14    1    6    6    0    0 -0.28126389633E+02 -0.42459365612E+01 -0.34355788101E+02  0.44603160730E+02  0.00000000000E+00 0.  1.
</event>
<event>
12    1  0.8798177E-003  0.2654669E+03  0.7818608E-02  0.1104169E+00
         21   -1    0    0  503  502  0.00000000000E+00  0.00000000000E+00  0.71294062080E+02  0.71294062080E+02  0.00000000000E+00 0. -1.
         21   -1    0    0  501  503 -0.00000000000E+00 -0.00000000000E+00 -0.13446950136E+04  0.13446950136E+04  0.00000000000E+00 0.  1.
          6    2    1    2  501    0 -0.16590416810E+03  0.10983386333E+03 -0.10061367658E+04  0.10405690103E+04  0.17574129636E+03 0.  0.
         24    2    3    3    0    0 -0.16985480212E+03  0.93745453325E+02 -0.62908035225E+03  0.66311957870E+03  0.79665690497E+02 0.  0.
         -6    2    1    2    0  502  0.16590416810E+03 -0.10983386333E+03 -0.26726418573E+03  0.37542006535E+03  0.17298095262E+03 0.  0.
        -24    2    5    5    0    0  0.16714685793E+03 -0.59450446067E+02 -0.25897967564E+03  0.32412916830E+03  0.80726809013E+02 0.  0.
          5    1    3    3  501    0  0.39506340177E+01  0.16088410005E+02 -0.37705641352E+03  0.37744943161E+03  0.47000000000E+01 0. -1.
        -13    1    4    4    0    0 -0.97826481767E+02  0.22042272485E+02 -0.40224512302E+03  0.41455641510E+03  0.00000000000E+00 0.  1.
         14    1    4    4    0    0 -0.72028320350E+02  0.71703180840E+02 -0.22683522924E+03  0.24856316360E+03  0.00000000000E+00 0. -1.
         -5    1    5    5    0  502 -0.12426898306E+01 -0.50383417262E+02 -0.82845100841E+01  0.51290897052E+02  0.47000000000E+01 0.  1.
         13    1    6    6    0    0  0.12454187735E+03 -0.78841174230E+02 -0.20782156477E+03  0.25478699487E+03  0.00000000000E+00 0. -1.
        -14    1    6    6    0    0  0.42604980579E+02  0.19390728163E+02 -0.51158110871E+02  0.69342173435E+02  0.00000000000E+00 0.  1.
</event>
<event>
12    1  0.8798177E-003  0.2216915E+03  0.7818608E-02  0.1134609E+00
         21   -1    0    0  503  502  0.00000000000E+00  0.00000000000E+00  0.12112646799E+04  0.12112646799E+04  0.00000000000E+00 0.  1.
         21   -1    0    0  501  503 -0.00000000000E+00 -0.00000000000E+00 -0.50515744670E+02  0.50515744670E+02  0.00000000000E+00 0.  1.
          6    2    1    2  501    0  0.11217761035E+03  0.85710435875E+02  0.89637971194E+03  0.92338708810E+03  0.17092990207E+03 0.  0.
         24    2    3    3    0    0  0.38227861441E+02  0.10501236926E+03  0.44721199576E+03  0.46773935438E+03  0.79325704473E+02 0.  0.
         -6    2    1    2    0  502 -0.11217761035E+03 -0.85710435875E+02  0.26436922328E+03  0.33839333645E+03  0.15712691959E+03 0.  0.
        -24    2    5    5    0    0 -0.59523822174E+02 -0.29301748498E+02  0.60824766136E+02  0.12066231557E+03  0.80362082805E+02 0.  0.
          5    1    3    3  501    0  0.73949748905E+02 -0.19301933389E+02  0.44916771617E+03  0.45564773372E+03  0.47000000000E+01 0. -1.
        -11    1    4    4    0    0  0.52891240810E+02  0.10074675610E+03  0.42967014165E+03  0.44448152138E+03  0.00000000000E+00 0.  1.
         12    1    4    4    0    0 -0.14663379369E+02  0.42656131661E+01  0.17541854112E+02  0.23257833001E+02  0.00000000000E+00 0. -1.
         -5    1    5    5    0  502 -0.52653788172E+02 -0.56408687376E+02  0.20354445714E+03  0.21773102088E+03  0.47000000000E+01 0.  1.
         13    1    6    6    0    0  0.71683107045E+01 -0.70904692444E+00  0.46050616654E+02  0.46610585924E+02  0.00000000000E+00 0. -1.
        -14    1    6    6    0    0 -0.66692132878E+02 -0.28592701574E+02  0.14774149481E+02  0.74051729649E+02  0.00000000000E+00 0.  1.
</event>
<event>
12    1  0.8798177E-003  0.1879351E+03  0.7818608E-02  0.1161835E+00
         21   -1    0    0  501  502  0.00000000000E+00  0.00000000000E+00  0.96986780400E+02  0.96986780400E+02  0.00000000000E+00 0.  1.
         21   -1    0    0  502  503 -0.00000000000E+00 -0.00000000000E+00 -0.35272713743E+03  0.35272713743E+03  0.00000000000E+00 0.  1.
          6    2    1    2  501    0 -0.34870366249E+02 -0.60398815598E+02 -0.11425336987E+03  0.21447327649E+03  0.16757384770E+03 0.  0.
         24    2    3    3    0    0  0.15665751399E+02 -0.59466466215E+02 -0.13579809136E+02  0.10172566324E+03  0.79887564576E+02 0.  0.
         -6    2    1    2    0  503  0.34870366249E+02  0.60398815598E+02 -0.14148698716E+03  0.23524064134E+03  0.17451542177E+03 0.  0.
        -24    2    5    5    0    0 -0.40235197372E+01  0.55580474158E+02 -0.10521445379E+02  0.98456088434E+02  0.80483058578E+02 0.  0.
          5    1    3    3  501    0 -0.50536117647E+02 -0.93234938303E+00 -0.10067356074E+03  0.11274761325E+03  0.47000000000E+01 0. -1.
        -11    1    4    4    0    0 -0.11934841002E+02 -0.12313437613E+01  0.24208774538E+02  0.27018908228E+02  0.00000000000E+00 0.  1.
         12    1    4    4    0    0  0.27600592400E+02 -0.58235122454E+02 -0.37788583673E+02  0.74706755010E+02  0.00000000000E+00 0. -1.
         -5    1    5    5    0  503  0.38893885986E+02  0.48183414399E+01 -0.13096554178E+03  0.13678455291E+03  0.47000000000E+01 0.  1.
         11    1    6    6    0    0  0.66077746922E+01  0.49524703339E+01  0.31025574957E+02  0.32105699653E+02  0.00000000000E+00 0. -1.
        -12    1    6    6    0    0 -0.10631294429E+02  0.50628003825E+02 -0.41547020336E+02  0.66350388781E+02  0.00000000000E+00 0.  1.
</event>
<event>
12    1  0.8798177E-003  0.1799643E+03  0.7818608E-02  0.1168196E+00
         21   -1    0    0  501  502  0.00000000000E+00  0.00000000000E+00  0.21085634701E+03  0.21085634701E+03  0.00000000000E+00 0. -1.
         21   -1    0    0  502  503 -0.00000000000E+00 -0.00000000000E+00 -0.15773370821E+03  0.15773370821E+03  0.00000000000E+00 0. -1.
          6    2    1    2  501    0 -0.25555063234E+02  0.49570319614E+02  0.60530143392E+02  0.18847339486E+03  0.16955248293E+03 0.  0.
         24    2    3    3    0    0 -0.45839172644E+02  0.67729363254E+02 -0.80189679860E+01  0.11456624615E+03  0.79828719854E+02 0.  0.
         -6    2    1    2    0  503  0.25555063234E+02 -0.49570319614E+02 -0.74075045926E+01  0.18011666036E+03  0.17110482861E+03 0.  0.
        -24    2    5    5    0    0 -0.39262907699E+02  0.12633921334E+02  0.73922366085E-01  0.89845963585E+02  0.79819169495E+02 0.  0.
          5    1    3    3  501    0  0.20284109409E+02 -0.18159043640E+02  0.68549111378E+02  0.73907148715E+02  0.47000000000E+01 0. -1.
        -11    1    4    4    0    0  0.71034832484E+00 -0.50889208861E+01 -0.25820243511E+02  0.26326539565E+02  0.00000000000E+00 0.  1.
         12    1    4    4    0    0 -0.46549520968E+02  0.72818284140E+02  0.17801275525E+02  0.88239706583E+02  0.00000000000E+00 0. -1.
         -5    1    5    5    0  503  0.64817970933E+02 -0.62204240948E+02 -0.74814269587E+01  0.90270696780E+02  0.47000000000E+01 0.  1.
         13    1    6    6    0    0 -0.16988406846E+02  0.45349687490E+02 -0.89603759818E+01  0.49249248323E+02  0.00000000000E+00 0. -1.
        -14    1    6    6    0    0 -0.22274500853E+02 -0.32715766157E+02  0.90342983479E+01  0.40596715262E+02  0.00000000000E+00 0.  1.
</event>
<event>
12    1  0.8798177E-003  0.1741830E+03  0.7818608E-02  0.1174131E+00
         21   -1    0    0  501  502  0.00000000000E+00  0.00000000000E+00  0.28055735840E+03  0.28055735840E+03  0.00000000000E+00 0.  1.
         21   -1    0    0  502  503 -0.00000000000E+00 -0.00000000000E+00 -0.13958887205E+03  0.13958887205E+03  0.00000000000E+00 0.  1.
          6    2    1    2  501    0  0.51232200746E+01  0.11476015732E+02  0.17203940130E+03  0.24321369355E+03  0.17145669660E+03 0.  0.
         24    2    3    3    0    0 -0.37017440195E+02  0.52035093162E+02  0.14863146067E+03  0.18004015720E+03  0.79026611373E+02 0.  0.
         -6    2    1    2    0  503 -0.51232200746E+01 -0.11476015732E+02 -0.31070914950E+02  0.17693253691E+03  0.17372902619E+03 0.  0.
        -24    2    5    5    0    0  0.37313061660E+02  0.50451809736E+00  0.35764410732E+02  0.96723921678E+02  0.81755151770E+02 0.  0.
          5    1    3    3  501    0  0.42140660269E+02 -0.40559077430E+02  0.23407940627E+02  0.63173536345E+02  0.47000000000E+01 0. -1.
        -11    1    4    4    0    0  0.16358270633E+02  0.40546623367E+02  0.89184907809E+02  0.99325573069E+02  0.00000000000E+00 0.  1.
         12    1    4    4    0    0 -0.53375710827E+02  0.11488469795E+02  0.59446552863E+02  0.80714584133E+02  0.00000000000E+00 0. -1.
         -5    1    5    5    0  503 -0.42436281734E+02 -0.11980533830E+02 -0.66835325682E+02  0.80208615231E+02  0.47000000000E+01 0.  1.
         11    1    6    6    0    0  0.66775052914E+01  0.25065913070E+02  0.48870831408E+02  0.55328539086E+02  0.00000000000E+00 0. -1.
        -12    1    6    6    0    0  0.30635556368E+02 -0.24561394973E+02 -0.13106420676E+02  0.41395382592E+02  0.00000000000E+00 0.  1.
</event>
<event>
12    1  0.8798177E-003  0.2819402E+03  0.7818608E-02  0.1094785E+00
         21   -1    0    0  501  502  0.00000000000E+00  0.00000000000E+00  0.80251090594E+02  0.80251090594E+02  0.00000000000E+00 0. -1.
         21   -1    0    0  502  503 -0.00000000000E+00 -0.00000000000E+00 -0.10239804273E+04  0.10239804273E+04  0.00000000000E+00 0.  1.
          6    2    1    2  501    0 -0.13521012809E+03 -0.17697680019E+03 -0.36728031760E+03  0.46301740307E+03  0.17288064470E+03 0.  0.
         24    2    3    3    0    0 -0.85548602361E+02 -0.12207783234E+03 -0.12362096964E+03  0.20831732130E+03  0.76761980847E+02 0.  0.
         -6    2    1    2    0  503  0.13521012809E+03  0.17697680019E+03 -0.57644901909E+03  0.64121411481E+03  0.17105409340E+03 0.  0.
        -24    2    5    5    0    0  0.37382604552E+02  0.15837430651E+03 -0.35725618188E+03  0.40041571984E+03  0.78872613232E+02 0.  0.
          5    1    3    3  501    0 -0.49661525724E+02 -0.54898967851E+02 -0.24365934796E+03  0.25470008177E+03  0.47000000000E+01 0. -1.
        -13    1    4    4    0    0 -0.37013990585E+02 -0.14647909444E+01 -0.20233797428E+02  0.42208857718E+02  0.00000000000E+00 0.  1.
         14    1    4    4    0    0 -0.48534611775E+02 -0.12061304140E+03 -0.10338717221E+03  0.16610846358E+03  0.00000000000E+00 0. -1.
         -5    1    5    5    0  503  0.97827523533E+02  0.18602493680E+02 -0.21919283721E+03  0.24079839496E+03  0.47000000000E+01 0.  1.
         11    1    6    6    0    0 -0.45144664000E+01  0.80245656039E+02 -0.99898281276E+02  0.12821627167E+03  0.00000000000E+00 0. -1.
        -12    1    6    6    0    0  0.41897070952E+02  0.78128650472E+02 -0.25735790061E+03  0.27219944817E+03  0.00000000000E+00 0.  1.
</event>
<event>
12    1  0.8798177E-003  0.1802863E+03  0.7818608E-02  0.1167878E+00
         21   -1    0    0  501  502  0.00000000000E+00  0.00000000000E+00  0.40428568435E+02  0.40428568435E+02  0.00000000000E+00 0. -1.
         21   -1    0    0  502  503 -0.00000000000E+00 -0.00000000000E+00 -0.80909816442E+03  0.80909816442E+03  0.00000000000E+00 0. -1.
          6    2    1    2  501    0  0.21170358465E+02 -0.43853351717E+02 -0.43671784998E+03  0.47246760839E+03  0.17358531031E+03 0.  0.
         24    2    3    3    0    0  0.53952846348E+02 -0.53100063794E+02 -0.42012847507E+03  0.43429051374E+03  0.79810953873E+02 0.  0.
         -6    2    1    2    0  503 -0.21170358465E+02  0.43853351717E+02 -0.33195174601E+03  0.37705912446E+03  0.17207649790E+03 0.  0.
        -24    2    5    5    0    0  0.44050366528E+02  0.43094829773E+02 -0.25709771370E+03  0.27766327708E+03  0.84853178524E+02 0.  0.
          5    1    3    3  501    0 -0.32782487883E+02  0.92467120770E+01 -0.16589374911E+02  0.38177094650E+02  0.47000000000E+01 0. -1.
        -13    1    4    4    0    0  0.60762324775E+01  0.19297179991E+02 -0.12631487537E+03  0.12792478062E+03  0.00000000000E+00 0.  1.
         14    1    4    4    0    0  0.47876613870E+02 -0.72397243786E+02 -0.29381359970E+03  0.30636573312E+03  0.00000000000E+00 0. -1.
         -5    1    5    5    0  503 -0.65220724994E+02  0.75852194460E+00 -0.74854032307E+02  0.99395847382E+02  0.47000000000E+01 0.  1.
         13    1    6    6    0    0  0.28274388803E+01  0.60174904273E+02 -0.14609044644E+03  0.15802351741E+03  0.00000000000E+00 0. -1.
        -14    1    6    6    0    0  0.41222927648E+02 -0.17080074500E+02 -0.11100726726E+03  0.11963975967E+03  0.00000000000E+00 0.  1.
</event>
<event>
12    1  0.8798177E-003  0.2008759E+03  0.7818608E-02  0.1149673E+00
         21   -1    0    0  501  502  0.00000000000E+00  0.00000000000E+00  0.42177746661E+03  0.42177746661E+03  0.00000000000E+00 0. -1.
         21   -1    0    0  502  503 -0.00000000000E+00 -0.00000000000E+00 -0.10339932977E+03  0.10339932977E+03  0.00000000000E+00 0. -1.
          6    2    1    2  501    0  0.72650476245E+02 -0.77436803295E+02  0.23650480303E+03  0.30825655947E+03  0.16677240297E+03 0.  0.
         24    2    3    3    0    0 -0.74297675206E+01  0.75314451898E+01  0.93858851084E+02  0.12385914544E+03  0.80122904781E+02 0.  0.
         -6    2    1    2    0  503 -0.72650476245E+02  0.77436803295E+02  0.81873333799E+02  0.21692023691E+03  0.17051860952E+03 0.  0.
        -24    2    5    5    0    0 -0.77803434626E+02  0.88841048746E+02  0.11294593498E+03  0.18309411773E+03  0.82586714048E+02 0.  0.
          5    1    3    3  501    0  0.80080243766E+02 -0.84968248485E+02  0.14264595195E+03  0.18439741403E+03  0.47000000000E+01 0. -1.
        -11    1    4    4    0    0  0.38194671499E+01 -0.20826069373E+02 -0.38304483548E+01  0.21517105508E+02  0.00000000000E+00 0.  1.
         12    1    4    4    0    0 -0.11249234670E+02  0.28357514563E+02  0.97689299439E+02  0.10234203993E+03  0.00000000000E+00 0. -1.
         -5    1    5    5    0  503  0.51529583807E+01 -0.11404245450E+02 -0.31072601185E+02  0.33826119180E+02  0.47000000000E+01 0.  1.
         13    1    6    6    0    0 -0.60525371500E+02  0.10246144394E+03  0.10764077956E+03  0.16046247385E+03  0.00000000000E+00 0. -1.
        -14    1    6    6    0    0 -0.17278063126E+02 -0.13620395196E+02  0.53051554195E+01  0.22631643880E+02  0.00000000000E+00 0.  1.
</event>
<event>
12    1  0.8798177E-003  0.2094973E+03  0.7818608E-02  0.1141975E+00
         21   -1    0    0  501  502  0.00000000000E+00  0.00000000000E+00  0.34786127198E+03  0.34786127198E+03  0.00000000000E+00 0.  1.
         21   -1    0    0  502  503 -0.00000000000E+00 -0.00000000000E+00 -0.12821733640E+03  0.12821733640E+03  0.00000000000E+00 0. -1.
          6    2    1    2  501    0 -0.38556156817E+02  0.11320396175E+03  0.14015307680E+03  0.25205554113E+03  0.17200987383E+03 0.  0.
         24    2    3    3    0    0 -0.24175109672E+01  0.38309847269E+02  0.13206878818E+03  0.16837414637E+03  0.97129807964E+02 0.  0.
         -6    2    1    2    0  503  0.38556156817E+02 -0.11320396175E+03  0.79490858782E+02  0.22402306724E+03  0.17194715422E+03 0.  0.
        -24    2    5    5    0    0  0.27111922313E+02 -0.15183033757E+03  0.69090998498E+02  0.18215166284E+03  0.67957004516E+02 0.  0.
          5    1    3    3  501    0 -0.36138645850E+02  0.74894114479E+02  0.80842886175E+01  0.83681394765E+02  0.47000000000E+01 0. -1.
        -13    1    4    4    0    0 -0.28066825530E+02  0.62182572272E+02  0.74830219655E+02  0.10126194134E+03  0.00000000000E+00 0.  1.
         14    1    4    4    0    0  0.25649314563E+02 -0.23872725002E+02  0.57238568530E+02  0.67112205030E+02  0.00000000000E+00 0. -1.
         -5    1    5    5    0  503  0.11444234504E+02  0.38626375825E+02  0.10399860284E+02  0.41871404404E+02  0.47000000000E+01 0.  1.
         11    1    6    6    0    0  0.27776021229E+02 -0.19817533454E+02  0.27244602297E+02  0.43663604316E+02  0.00000000000E+00 0. -1.
        -12    1    6    6    0    0 -0.66409891580E+00 -0.13201280412E+03  0.41846396200E+02  0.13848805852E+03  0.00000000000E+00 0.  1.
</event>
<event>
12    1  0.8798177E-003  0.2455332E+03  0.7818608E-02  0.1116528E+00
         21   -1    0    0  503  502  0.00000000000E+00  0.00000000000E+00  0.24794682836E+04  0.24794682836E+04  0.00000000000E+00 0. -1.
         21   -1    0    0  501  503 -0.00000000000E+00 -0.00000000000E+00 -0.25106486661E+02  0.25106486661E+02  0.00000000000E+00 0.  1.
          6    2    1    2  501    0 -0.14804166431E+03  0.86846066353E+02  0.14735977538E+04  0.14935432956E+04  0.17240261686E+03 0.  0.
         24    2    3    3    0    0 -0.13340379908E+03  0.12188711789E+03  0.13436475161E+04  0.13580763378E+04  0.79559088641E+02 0.  0.
         -6    2    1    2    0  502  0.14804166431E+03 -0.86846066353E+02  0.98076404314E+03  0.10110314746E+04  0.17557893033E+03 0.  0.
        -24    2    5    5    0    0  0.17655019764E+03 -0.93634231815E+02  0.85024532197E+03  0.87718065380E+03  0.81187746648E+02 0.  0.
          5    1    3    3  501    0 -0.14637865229E+02 -0.35041051540E+02  0.12995023768E+03  0.13546695783E+03  0.47000000000E+01 0. -1.
        -13    1    4    4    0    0  0.88814239583E+00 -0.60926534475E+01  0.11230966485E+02  0.12807959679E+02  0.00000000000E+00 0.  1.
         14    1    4    4    0    0 -0.13429194147E+03  0.12797977134E+03  0.13324165496E+04  0.13452683781E+04  0.00000000000E+00 0. -1.
         -5    1    5    5    0  502 -0.28508533339E+02  0.67881654615E+01  0.13051872116E+03  0.13385082083E+03  0.47000000000E+01 0.  1.
         13    1    6    6    0    0  0.91283640552E+02 -0.98403031512E+01  0.28470543533E+03  0.29914330931E+03  0.00000000000E+00 0. -1.
        -14    1    6    6    0    0  0.85266557092E+02 -0.83793928664E+02  0.56553988664E+03  0.57803734449E+03  0.00000000000E+00 0.  1.
</event>
<event>
12    1  0.8798177E-003  0.1813926E+03  0.7818608E-02  0.1166475E+00
         21   -1    0    0  503  502  0.00000000000E+00  0.00000000000E+00  0.80597204081E+03  0.80597204081E+03  0.00000000000E+00 0.  1.
         21   -1    0    0  501  503 -0.00000000000E+00 -0.00000000000E+00 -0.64459237337E+02  0.64459237337E+02  0.00000000000E+00 0.  1.
          6    2    1    2  501    0 -0.40984075033E+01 -0.55281503441E+02  0.10711738737E+03  0.21061250957E+03  0.17265761768E+03 0.  0.
         24    2    3    3    0    0 -0.38193432866E+02 -0.10156036998E+02 -0.20496950291E+00  0.89208404367E+02  0.79976333972E+02 0.  0.
         -6    2    1    2    0  502  0.40984075033E+01  0.55281503441E+02  0.63439541611E+03  0.65981876858E+03  0.17271485699E+03 0.  0.
        -24    2    5    5    0    0  0.22276428624E+02  0.10186118320E+03  0.40274764838E+03  0.42278947649E+03  0.75321532350E+02 0.  0.
          5    1    3    3  501    0  0.34095025362E+02 -0.45125466443E+02  0.10732235687E+03  0.12140410520E+03  0.47000000000E+01 0. -1.
        -13    1    4    4    0    0 -0.51431945700E+02 -0.28916760793E+02  0.15964329299E+02  0.61125149514E+02  0.00000000000E+00 0.  1.
         14    1    4    4    0    0  0.13238512834E+02  0.18760723795E+02 -0.16169298802E+02  0.28083254852E+02  0.00000000000E+00 0. -1.
         -5    1    5    5    0  502 -0.18178021120E+02 -0.46579679755E+02  0.23164776773E+03  0.23702929209E+03  0.47000000000E+01 0.  1.
         11    1    6    6    0    0  0.36210667830E+02  0.13853820107E+02  0.14407576994E+03  0.14920110013E+03  0.00000000000E+00 0. -1.
        -12    1    6    6    0    0 -0.13934239206E+02  0.88007363089E+02  0.25867187845E+03  0.27358837636E+03  0.00000000000E+00 0.  1.
</event>
<event>
12    1  0.8798177E-003  0.1843584E+03  0.7818608E-02  0.1163666E+00
         21   -1    0    0  501  502  0.00000000000E+00  0.00000000000E+00  0.13119976318E+04  0.13119976318E+04  0.00000000000E+00 0. -1.
         21   -1    0    0  502  503 -0.00000000000E+00 -0.00000000000E+00 -0.77481282760E+02  0.77481282760E+02  0.00000000000E+00 0. -1.
          6    2    1    2  501    0  0.66327439882E+02 -0.44119082468E+01  0.11841669523E+04  0.11984320484E+04  0.17195699917E+03 0.  0.
         24    2    3    3    0    0  0.80999116581E+02  0.41899006764E+02  0.59844284784E+03  0.61067803909E+03  0.80482554888E+02 0.  0.
         -6    2    1    2    0  503 -0.66327439882E+02  0.44119082468E+01  0.50349396768E+02  0.19104686616E+03  0.17188673334E+03 0.  0.
        -24    2    5    5    0    0 -0.36955568269E+02 -0.64192513925E+02  0.44859633576E+02  0.11607019590E+03  0.77288490614E+02 0.  0.
          5    1    3    3  501    0 -0.14671676699E+02 -0.46310915011E+02  0.58572410447E+03  0.58775400935E+03  0.47000000000E+01 0. -1.
        -11    1    4    4    0    0  0.72520793362E+02  0.21516420606E+02  0.56831940725E+03  0.57333164092E+03  0.00000000000E+00 0.  1.
         12    1    4    4    0    0  0.84783232186E+01  0.20382586159E+02  0.30123440589E+02  0.37346398167E+02  0.00000000000E+00 0. -1.
         -5    1    5    5    0  503 -0.29371871613E+02  0.68604422172E+02  0.54897631922E+01  0.74976670261E+02  0.47000000000E+01 0.  1.
         13    1    6    6    0    0 -0.41403156248E+02 -0.29386400985E+02 -0.92220206466E+01  0.51602592715E+02  0.00000000000E+00 0. -1.
        -14    1    6    6    0    0  0.44475879787E+01 -0.34806112940E+02  0.54081654223E+02  0.64467603184E+02  0.00000000000E+00 0.  1.
</event>
<event>
12    1  0.8798177E-003  0.3186309E+03  0.7818608E-02  0.1076616E+00
         21   -1    0    0  503  502  0.00000000000E+00  0.00000000000E+00  0.77310321100E+03  0.77310321100E+03  0.00000000000E+00 0. -1.
         21   -1    0    0  501  503 -0.00000000000E+00 -0.00000000000E+00 -0.13857758264E+03  0.13857758264E+03  0.00000000000E+00 0.  1.
          6    2    1    2  501    0  0.43726933513E+02 -0.26023934364E+03  0.20612415723E+03  0.37949022815E+03  0.17857520648E+03 0.  0.
         24    2    3    3    0    0  0.83809145191E+02 -0.24250104203E+03  0.13816078710E+03  0.29848195254E+03  0.64593689300E+02 0.  0.
         -6    2    1    2    0  502 -0.43726933513E+02  0.26023934364E+03  0.42840147112E+03  0.53219056549E+03  0.17338516905E+03 0.  0.
        -24    2    5    5    0    0 -0.49799843140E+02  0.10757491815E+03  0.30313074360E+03  0.33455921116E+03  0.77390119943E+02 0.  0.
          5    1    3    3  501    0 -0.40082211678E+02 -0.17738301613E+02  0.67963370132E+02  0.81008275607E+02  0.47000000000E+01 0. -1.
        -13    1    4    4    0    0  0.11784085775E+02 -0.60918506323E+02  0.53777144123E+01  0.62280405445E+02  0.00000000000E+00 0.  1.
         14    1    4    4    0    0  0.72025059416E+02 -0.18158253570E+03  0.13278307269E+03  0.23620154709E+03  0.00000000000E+00 0. -1.
         -5    1    5    5    0  502  0.60729096270E+01  0.15266442549E+03  0.12527072752E+03  0.19763135433E+03  0.47000000000E+01 0.  1.
         13    1    6    6    0    0 -0.22921031982E+02  0.10533359402E+03  0.19189886493E+03  0.22010387116E+03  0.00000000000E+00 0. -1.
        -14    1    6    6    0    0 -0.26878811158E+02  0.22413241324E+01  0.11123187867E+03  0.11445534001E+03  0.00000000000E+00 0.  1.
</event>
<event>
12    1  0.8798177E-003  0.1732534E+03  0.7818608E-02  0.1174531E+00
         21   -1    0    0  503  502  0.00000000000E+00  0.00000000000E+00  0.97210920239E+03  0.97210920239E+03  0.00000000000E+00 0. -1.
         21   -1    0    0  501  503 -0.00000000000E+00 -0.00000000000E+00 -0.37690523075E+02  0.37690523075E+02  0.00000000000E+00 0. -1.
          6    2    1    2  501    0 -0.20815480891E+02  0.32134395990E+00  0.25232788304E+03  0.30608185396E+03  0.17199811993E+03 0.  0.
         24    2    3    3    0    0  0.76841454441E+01  0.14969896269E+01  0.26243482411E+03  0.27545749925E+03  0.83327725998E+02 0.  0.
         -6    2    1    2    0  502  0.20815480891E+02 -0.32134395990E+00  0.68209079627E+03  0.70371787150E+03  0.17186506568E+03 0.  0.
        -24    2    5    5    0    0  0.20541755245E+02 -0.65176324719E+02  0.49968668385E+03  0.51006975330E+03  0.76252568475E+02 0.  0.
          5    1    3    3  501    0 -0.28499626335E+02 -0.11756456670E+01 -0.10106941065E+02  0.30624354714E+02  0.47000000000E+01 0. -1.
        -11    1    4    4    0    0  0.43683762808E+02 -0.81830609064E+01  0.17180401958E+03  0.17745944540E+03  0.00000000000E+00 0.  1.
         12    1    4    4    0    0 -0.35999617364E+02  0.96800505333E+01  0.90630804527E+02  0.97998053847E+02  0.00000000000E+00 0. -1.
         -5    1    5    5    0  502  0.27372564551E+00  0.64854980759E+02  0.18240411242E+03  0.19364811820E+03  0.47000000000E+01 0.  1.
         11    1    6    6    0    0 -0.21936154474E+02 -0.14037148322E+02  0.26105527584E+03  0.26235108814E+03  0.00000000000E+00 0. -1.
        -12    1    6    6    0    0  0.42477909719E+02 -0.51139176397E+02  0.23863140801E+03  0.24771866516E+03  0.00000000000E+00 0.  1.
</event>
<event>
12    1  0.8798177E-003  0.1941604E+03  0.7818608E-02  0.1158951E+00
         21   -1    0    0  503  502  0.00000000000E+00  0.00000000000E+00  0.33297886426E+03  0.33297886426E+03  0.00000000000E+00 0. -1.
         21   -1    0    0  501  503 -0.00000000000E+00 -0.00000000000E+00 -0.14639613296E+03  0.14639613296E+03  0.00000000000E+00 0.  1.
          6    2    1    2  501    0  0.11435333094E+02 -0.46059361406E+02 -0.34054154052E+02  0.19712415814E+03  0.18827112550E+03 0.  0.
         24    2    3    3    0    0 -0.53230045590E+02 -0.49339720801E+02  0.24378224777E+02  0.10978112834E+03  0.78674980108E+02 0.  0.
         -6    2    1    2    0  502 -0.11435333094E+02  0.46059361406E+02  0.22063688535E+03  0.28225083908E+03  0.16950713662E+03 0.  0.
        -24    2    5    5    0    0 -0.48457094814E+02  0.28391841663E+02  0.22097842054E+03  0.24095969304E+03  0.77948217532E+02 0.  0.
          5    1    3    3  501    0  0.64665378683E+02  0.32803593953E+01 -0.58432378829E+02  0.87343029794E+02  0.47000000000E+01 0. -1.
        -13    1    4    4    0    0  0.18163653040E+02 -0.18906621023E+02 -0.51957968628E+01  0.26727792938E+02  0.00000000000E+00 0.  1.
         14    1    4    4    0    0 -0.71393698630E+02 -0.30433099777E+02  0.29574021639E+02  0.83053335406E+02  0.00000000000E+00 0. -1.
         -5    1    5    5    0  502  0.37021761720E+02  0.17667519743E+02 -0.34153518365E+00  0.41291146037E+02  0.47000000000E+01 0.  1.
         13    1    6    6    0    0 -0.27446027186E+00  0.44146026663E+02  0.12225936228E+03  0.12998576331E+03  0.00000000000E+00 0. -1.
        -14    1    6    6    0    0 -0.48182634542E+02 -0.15754185000E+02  0.98719058259E+02  0.11097392973E+03  0.00000000000E+00 0.  1.
</event>
<event>
12    1  0.8798177E-003  0.1905825E+03  0.7818608E-02  0.1157977E+00
         21   -1    0    0  503  502  0.00000000000E+00  0.00000000000E+00  0.18530119485E+03  0.18530119485E+03  0.00000000000E+00 0. -1.
         21   -1    0    0  501  503 -0.00000000000E+00 -0.00000000000E+00 -0.25830093946E+03  0.25830093946E+03  0.00000000000E+00 0.  1.
          6    2    1    2  501    0  0.50473820812E+02 -0.63839252541E+02 -0.14559158623E+03  0.23983035433E+03  0.17233291075E+03 0.  0.
         24    2    3    3    0    0  0.72455264747E+02  0.10751788575E+02 -0.60457088364E+02  0.12443113415E+03  0.80390803368E+02 0.  0.
         -6    2    1    2    0  502 -0.50473820812E+02  0.63839252541E+02  0.72591841620E+02  0.20377177997E+03  0.17213455810E+03 0.  0.
        -24    2    5    5    0    0  0.23487963489E+02 -0.90381993678E+01  0.33095926374E+02  0.92580566944E+02  0.82719088223E+02 0.  0.
          5    1    3    3  501    0 -0.21981443934E+02 -0.74591041116E+02 -0.85134497863E+02  0.11539922018E+03  0.47000000000E+01 0. -1.
        -11    1    4    4    0    0  0.48361013785E+02 -0.33142709227E+02 -0.30607774657E+02  0.66136697065E+02  0.00000000000E+00 0.  1.
         12    1    4    4    0    0  0.24094250962E+02  0.43894497802E+02 -0.29849313707E+02  0.58294437088E+02  0.00000000000E+00 0. -1.
         -5    1    5    5    0  502 -0.73961784301E+02  0.72877451909E+02  0.39495915246E+02  0.11119121303E+03  0.47000000000E+01 0.  1.
         11    1    6    6    0    0 -0.18856768144E+02  0.13812266921E+02 -0.12314017440E+02  0.26419527775E+02  0.00000000000E+00 0. -1.
        -12    1    6    6    0    0  0.42344731633E+02 -0.22850466289E+02  0.45409943814E+02  0.66161039169E+02  0.00000000000E+00 0.  1.
</event>
<event>
12    1  0.8798177E-003  0.1848917E+03  0.7818608E-02  0.1163601E+00
         21   -1    0    0  503  502  0.00000000000E+00  0.00000000000E+00  0.12431152786E+03  0.12431152786E+03  0.00000000000E+00 0.  1.
         21   -1    0    0  501  503 -0.00000000000E+00 -0.00000000000E+00 -0.27831148357E+03  0.27831148357E+03  0.00000000000E+00 0.  1.
          6    2    1    2  501    0  0.30442495751E+02  0.54062007274E+02 -0.10655246822E+03  0.21174034828E+03  0.17213686539E+03 0.  0.
         24    2    3    3    0    0 -0.32587101364E+02  0.32625637846E+01 -0.17182411923E+02  0.91065535106E+02  0.83217383442E+02 0.  0.
         -6    2    1    2    0  502 -0.30442495751E+02 -0.54062007274E+02 -0.47447487491E+02  0.19088266315E+03  0.17417083809E+03 0.  0.
        -24    2    5    5    0    0  0.14843795092E+02 -0.61225411383E+02 -0.84097888627E+02  0.13199714370E+03  0.79886806308E+02 0.  0.
          5    1    3    3  501    0  0.63029597115E+02  0.50799443490E+02 -0.89370056302E+02  0.12067481317E+03  0.47000000000E+01 0. -1.
        -11    1    4    4    0    0 -0.34517390215E+02  0.11315948857E+01 -0.48542250851E+02  0.59574162620E+02  0.00000000000E+00 0.  1.
         12    1    4    4    0    0  0.19302888511E+01  0.21309688989E+01  0.31359838928E+02  0.31491372486E+02  0.00000000000E+00 0. -1.
         -5    1    5    5    0  502 -0.45286290844E+02  0.71634041088E+01  0.36650401136E+02  0.58885519444E+02  0.47000000000E+01 0.  1.
         11    1    6    6    0    0 -0.28193967406E+02 -0.48766338880E+02 -0.53919087891E+02  0.77976430060E+02  0.00000000000E+00 0. -1.
        -12    1    6    6    0    0  0.43037762498E+02 -0.12459072503E+02 -0.30178800736E+02  0.54020713642E+02  0.00000000000E+00 0.  1.
</event>
<event>
12    1  0.8798177E-003  0.2063491E+03  0.7818608E-02  0.1144749E+00
         21   -1    0    0  503  502  0.00000000000E+00  0.00000000000E+00  0.16133799179E+03  0.16133799179E+03  0.00000000000E+00 0. -1.
         21   -1    0    0  501  503 -0.00000000000E+00 -0.00000000000E+00 -0.37612078489E+03  0.37612078489E+03  0.00000000000E+00 0. -1.
          6    2    1    2  501    0  0.40770134871E+02 -0.10527194939E+03 -0.25499324690E+03  0.32722837958E+03  0.17120884678E+03 0.  0.
         24    2    3    3    0    0  0.27015911617E+02 -0.76546509219E+02 -0.60321643775E+02  0.12991276279E+03  0.81543838962E+02 0.  0.
         -6    2    1    2    0  502 -0.40770134871E+02  0.10527194939E+03  0.40210453793E+02  0.21023039710E+03  0.17272970806E+03 0.  0.
        -24    2    5    5    0    0 -0.23723301314E+02  0.10677717022E+03  0.86299931624E+02  0.16084223869E+03  0.80364099220E+02 0.  0.
          5    1    3    3  501    0  0.13754223254E+02 -0.28725440166E+02 -0.19467160312E+03  0.19731561680E+03  0.47000000000E+01 0. -1.
        -11    1    4    4    0    0  0.39140367957E+02 -0.25697688063E+02  0.40406836254E+01  0.46996454119E+02  0.00000000000E+00 0.  1.
         12    1    4    4    0    0 -0.12124456340E+02 -0.50848821156E+02 -0.64362327400E+02  0.82916308667E+02  0.00000000000E+00 0. -1.
         -5    1    5    5    0  502 -0.17046833557E+02 -0.15052208387E+01 -0.46089477831E+02  0.49388158407E+02  0.47000000000E+01 0.  1.
         13    1    6    6    0    0 -0.13795776601E+02  0.21094377511E+02  0.68198755137E+02  0.72707402765E+02  0.00000000000E+00 0. -1.
        -14    1    6    6    0    0 -0.99275247132E+01  0.85682792713E+02  0.18101176487E+02  0.88134835929E+02  0.00000000000E+00 0.  1.
</event>
<event>
12    1  0.8798177E-003  0.1924547E+03  0.7818608E-02  0.1156658E+00
         21   -1    0    0  503  502  0.00000000000E+00  0.00000000000E+00  0.24489120169E+03  0.24489120169E+03  0.00000000000E+00 0.  1.
         21   -1    0    0  501  503 -0.00000000000E+00 -0.00000000000E+00 -0.27149299645E+03  0.27149299645E+03  0.00000000000E+00 0.  1.
          6    2    1    2  501    0  0.53861912707E+02  0.61241561656E+02 -0.18614643073E+03  0.26774856653E+03  0.17431915181E+03 0.  0.
         24    2    3    3    0    0  0.24222172031E+02  0.40751149777E+02 -0.16240132013E+02  0.93999864227E+02  0.79529005783E+02 0.  0.
         -6    2    1    2    0  502 -0.53861912707E+02 -0.61241561656E+02  0.15954463598E+03  0.24863563162E+03  0.17237619304E+03 0.  0.
        -24    2    5    5    0    0 -0.16474457567E+02  0.23286933628E+00  0.15631277033E+03  0.17645902583E+03  0.80203763296E+02 0.  0.
          5    1    3    3  501    0  0.29639740676E+02  0.20490411880E+02 -0.16990629872E+03  0.17374870230E+03  0.47000000000E+01 0. -1.
        -13    1    4    4    0    0  0.20573621965E+02  0.39342469327E+02 -0.46031347792E+02  0.63953020203E+02  0.00000000000E+00 0.  1.
         14    1    4    4    0    0  0.36485500659E+01  0.14086804498E+01  0.29791215779E+02  0.30046844024E+02  0.00000000000E+00 0. -1.
         -5    1    5    5    0  502 -0.37387455140E+02 -0.61474430993E+02  0.32318656423E+01  0.72176605789E+02  0.47000000000E+01 0.  1.
         11    1    6    6    0    0  0.10229343715E+02 -0.29692217573E+02  0.11362680530E+03  0.11788688706E+03  0.00000000000E+00 0. -1.
        -12    1    6    6    0    0 -0.26703801282E+02  0.29925086909E+02  0.42685965031E+02  0.58572138770E+02  0.00000000000E+00 0.  1.
</event>
<event>
12    1  0.8798177E-003  0.2816012E+03  0.7818608E-02  0.1094949E+00
         21   -1    0    0  501  502  0.00000000000E+00  0.00000000000E+00  0.13303902812E+04  0.13303902812E+04  0.00000000000E+00 0.  1.
         21   -1    0    0  502  503 -0.00000000000E+00 -0.00000000000E+00 -0.60018350711E+02  0.60018350711E+02  0.00000000000E+00 0. -1.
          6    2    1    2  501    0 -0.21433266474E+03  0.61259120743E+02  0.70458436902E+03  0.75841592582E+03  0.17048288016E+03 0.  0.
         24    2    3    3    0    0 -0.32516065141E+02 -0.24109978009E+01  0.18783025661E+03  0.20690159004E+03  0.80404945490E+02 0.  0.
         -6    2    1    2    0  503  0.21433266474E+03 -0.61259120743E+02  0.56578756144E+03  0.63199270606E+03  0.17206988342E+03 0.  0.
        -24    2    5    5    0    0  0.75700194686E+02  0.31315904439E+02  0.25196293448E+03  0.27660969644E+03  0.79475772817E+02 0.  0.
          5    1    3    3  501    0 -0.18181659960E+03  0.63670118544E+02  0.51675411241E+03  0.55151433579E+03  0.47000000000E+01 0. -1.
        -11    1    4    4    0    0 -0.48041933271E+02  0.15188895668E+02  0.17032930406E+03  0.17762545348E+03  0.00000000000E+00 0.  1.
         12    1    4    4    0    0  0.15525868129E+02 -0.17599893469E+02  0.17500952547E+02  0.29276136551E+02  0.00000000000E+00 0. -1.
         -5    1    5    5    0  503  0.13863247005E+03 -0.92575025182E+02  0.31382462696E+03  0.35538300962E+03  0.47000000000E+01 0.  1.
         13    1    6    6    0    0  0.91869677983E+02  0.25632499059E+02  0.22802231730E+03  0.24716642152E+03  0.00000000000E+00 0. -1.
        -14    1    6    6    0    0 -0.16169483297E+02  0.56834053798E+01  0.23940617179E+02  0.29443274915E+02  0.00000000000E+00 0.  1.
</event>
<event>
12    1  0.8798177E-003  0.2015993E+03  0.7818608E-02  0.1148909E+00
         21   -1    0    0  501  502  0.00000000000E+00  0.00000000000E+00  0.48099749574E+02  0.48099749574E+02  0.00000000000E+00 0. -1.
         21   -1    0    0  502  503 -0.00000000000E+00 -0.00000000000E+00 -0.11149725001E+04  0.11149725001E+04  0.00000000000E+00 0.  1.
          6    2    1    2  501    0 -0.53139046752E+02 -0.86675668719E+02 -0.24434183086E+03  0.31677309951E+03  0.17408571574E+03 0.  0.
         24    2    3    3    0    0 -0.79443392076E+02 -0.10740808966E+03 -0.23492571730E+03  0.28166604814E+03  0.79359433935E+02 0.  0.
         -6    2    1    2    0  503  0.53139046752E+02  0.86675668719E+02 -0.82253091968E+03  0.84629915019E+03  0.17125626392E+03 0.  0.
        -24    2    5    5    0    0  0.57097032652E+02  0.38493626694E+02 -0.24257362601E+03  0.26431141207E+03  0.79225804407E+02 0.  0.
          5    1    3    3  501    0  0.26304345324E+02  0.20732420945E+02 -0.94161135588E+01  0.35107051368E+02  0.47000000000E+01 0. -1.
        -13    1    4    4    0    0 -0.73655415875E+02 -0.33364121128E+02 -0.11431126105E+03  0.14001910323E+03  0.00000000000E+00 0.  1.
         14    1    4    4    0    0 -0.57879762007E+01 -0.74043968536E+02 -0.12061445625E+03  0.14164694491E+03  0.00000000000E+00 0. -1.
         -5    1    5    5    0  503 -0.39579859001E+01  0.48182042025E+02 -0.57995729368E+03  0.58198773812E+03  0.47000000000E+01 0.  1.
         11    1    6    6    0    0 -0.64837900426E+00 -0.21561879063E+02 -0.54274885895E+02  0.58404608234E+02  0.00000000000E+00 0. -1.
        -12    1    6    6    0    0  0.57745411656E+02  0.60055505757E+02 -0.18829874011E+03  0.20590680384E+03  0.00000000000E+00 0.  1.
</event>
<event>
12    1  0.8798177E-003  0.2296481E+03  0.7818608E-02  0.1126907E+00
         21   -1    0    0  503  502  0.00000000000E+00  0.00000000000E+00  0.20900287656E+03  0.20900287656E+03  0.00000000000E+00 0. -1.
         21   -1    0    0  501  503 -0.00000000000E+00 -0.00000000000E+00 -0.25461971705E+03  0.25461971705E+03  0.00000000000E+00 0.  1.
          6    2    1    2  501    0  0.13543751976E+03 -0.69525653606E+02 -0.45356747596E+02  0.23408439018E+03  0.17193350140E+03 0.  0.
         24    2    3    3    0    0  0.11942963808E+02 -0.61874753931E+02  0.47154727352E+01  0.10052257354E+03  0.78175651892E+02 0.  0.
         -6    2    1    2    0  502 -0.13543751976E+03  0.69525653606E+02 -0.26009288937E+00  0.22953820343E+03  0.17178643986E+03 0.  0.
        -24    2    5    5    0    0 -0.45645681366E+02 -0.56270297250E+01  0.44924816813E+02  0.10394255813E+03  0.81673891386E+02 0.  0.
          5    1    3    3  501    0  0.12349455595E+03 -0.76508996750E+01 -0.50072220331E+02  0.13356181664E+03  0.47000000000E+01 0. -1.
        -11    1    4    4    0    0 -0.76601336555E+01  0.25613381654E+01 -0.25466837128E+02  0.26716996353E+02  0.00000000000E+00 0.  1.
         12    1    4    4    0    0  0.19603097464E+02 -0.64436092096E+02  0.30182309863E+02  0.73805577184E+02  0.00000000000E+00 0. -1.
         -5    1    5    5    0  502 -0.89791838394E+02  0.75152683331E+02 -0.45184909703E+02  0.12559564530E+03  0.47000000000E+01 0.  1.
         11    1    6    6    0    0 -0.36203271972E+02 -0.35904629989E+02  0.26019380577E+01  0.51054769001E+02  0.00000000000E+00 0. -1.
        -12    1    6    6    0    0 -0.94424093940E+01  0.30277600264E+02  0.42322878755E+02  0.52887789130E+02  0.00000000000E+00 0.  1.
</event>
<event>
12    1  0.8798177E-003  0.2564764E+03  0.7818608E-02  0.1109331E+00
         21   -1    0    0  501  502  0.00000000000E+00  0.00000000000E+00  0.34039444007E+03  0.34039444007E+03  0.00000000000E+00 0.  1.
         21   -1    0    0  502  503 -0.00000000000E+00 -0.00000000000E+00 -0.38121078449E+03  0.38121078449E+03  0.00000000000E+00 0.  1.
          6    2    1    2  501    0  0.15097065973E+03 -0.11533286199E+03  0.23310808875E+03  0.34658263729E+03  0.17229722654E+03 0.  0.
         24    2    3    3    0    0  0.79689097065E+02 -0.32022555970E+02  0.19960935916E+03  0.23183978065E+03  0.80808361835E+02 0.  0.
         -6    2    1    2    0  503 -0.15097065973E+03  0.11533286199E+03 -0.27392443317E+03  0.37502258727E+03  0.17179504277E+03 0.  0.
        -24    2    5    5    0    0 -0.18868909190E+02  0.68393142402E+02 -0.54271079055E+02  0.11440045516E+03  0.71473466810E+02 0.  0.
          5    1    3    3  501    0  0.71281562669E+02 -0.83310306022E+02  0.33498729584E+02  0.11474285664E+03  0.47000000000E+01 0. -1.
        -11    1    4    4    0    0 -0.12854583674E+02 -0.42052139864E+01  0.47495641338E+01  0.14334660985E+02  0.00000000000E+00 0.  1.
         12    1    4    4    0    0  0.92543680739E+02 -0.27817341984E+02  0.19485979503E+03  0.21750511966E+03  0.00000000000E+00 0. -1.
         -5    1    5    5    0  503 -0.13210175054E+03  0.46939719590E+02 -0.21965335411E+03  0.26062213211E+03  0.47000000000E+01 0.  1.
         11    1    6    6    0    0 -0.23199378898E+02  0.75085164283E+02 -0.64334695389E+02  0.10156252314E+03  0.00000000000E+00 0. -1.
        -12    1    6    6    0    0  0.43304697080E+01 -0.66920218811E+01  0.10063616334E+02  0.12837932017E+02  0.00000000000E+00 0.  1.
</event>
<event>
12    1  0.8798177E-003  0.2516825E+03  0.7818608E-02  0.1112316E+00
         21   -1    0    0  501  502  0.00000000000E+00  0.00000000000E+00  0.11988209561E+04  0.11988209561E+04  0.00000000000E+00 0. -1.
         21   -1    0    0  502  503 -0.00000000000E+00 -0.00000000000E+00 -0.53214431134E+02  0.53214431134E+02  0.00000000000E+00 0. -1.
          6    2    1    2  501    0 -0.16116273169E+03  0.91885370540E+02  0.63207991119E+03  0.68034484856E+03  0.17008160227E+03 0.  0.
         24    2    3    3    0    0 -0.52461688885E+02  0.57306763594E+02  0.16238075848E+03  0.19697027246E+03  0.79959261844E+02 0.  0.
         -6    2    1    2    0  503  0.16116273169E+03 -0.91885370540E+02  0.51352661379E+03  0.57169053869E+03  0.16942296641E+03 0.  0.
        -24    2    5    5    0    0  0.23346096055E+02 -0.68173383485E+02  0.26844732944E+03  0.28948205369E+03  0.80890297981E+02 0.  0.
          5    1    3    3  501    0 -0.10870104280E+03  0.34578606946E+02  0.46969915271E+03  0.48337457610E+03  0.47000000000E+01 0. -1.
        -11    1    4    4    0    0 -0.29854815782E+02  0.62712263364E+02  0.15896531905E+03  0.17347654211E+03  0.00000000000E+00 0.  1.
         12    1    4    4    0    0 -0.22606873103E+02 -0.54054997700E+01  0.34154394280E+01  0.23493730349E+02  0.00000000000E+00 0. -1.
         -5    1    5    5    0  503  0.13781663563E+03 -0.23711987055E+02  0.24507928435E+03  0.28220848500E+03  0.47000000000E+01 0.  1.
         11    1    6    6    0    0  0.50312383741E+01  0.99061551069E+01  0.20803665165E+01  0.11303680525E+02  0.00000000000E+00 0. -1.
        -12    1    6    6    0    0  0.18314857681E+02 -0.78079538592E+02  0.26636696292E+03  0.27817837316E+03  0.00000000000E+00 0.  1.
</event>
<event>
12    1  0.8798177E-003  0.1794513E+03  0.7818608E-02  0.1168659E+00
         21   -1    0    0  501  502  0.00000000000E+00  0.00000000000E+00  0.29208588887E+02  0.29208588887E+02  0.00000000000E+00 0.  1.
         21   -1    0    0  502  503 -0.00000000000E+00 -0.00000000000E+00 -0.15828101866E+04  0.15828101866E+04  0.00000000000E+00 0. -1.
          6    2    1    2  501    0 -0.53797594052E+02  0.68908836858E+01 -0.12225510961E+04  0.12354590576E+04  0.16966506734E+03 0.  0.
         24    2    3    3    0    0 -0.61095179361E+02  0.53286290367E+02 -0.10623919946E+04  0.10684895505E+04  0.80131889228E+02 0.  0.
         -6    2    1    2    0  503  0.53797594052E+02 -0.68908836858E+01 -0.33105050162E+03  0.37655971788E+03  0.17105882351E+03 0.  0.
        -24    2    5    5    0    0  0.25428384166E+02 -0.44689050431E+02 -0.92172301248E+02  0.13300603161E+03  0.80939220274E+02 0.  0.
          5    1    3    3  501    0  0.72975853089E+01 -0.46395406681E+02 -0.16015910155E+03  0.16696950716E+03  0.47000000000E+01 0. -1.
        -13    1    4    4    0    0 -0.26496445556E+02  0.70502070293E+02 -0.71278025921E+03  0.71674842271E+03  0.00000000000E+00 0.  1.
         14    1    4    4    0    0 -0.34598733805E+02 -0.17215779927E+02 -0.34961173535E+03  0.35174112775E+03  0.00000000000E+00 0. -1.
         -5    1    5    5    0  503  0.28369209886E+02  0.37798166746E+02 -0.23887820038E+03  0.24355368627E+03  0.47000000000E+01 0.  1.
         13    1    6    6    0    0  0.12099108445E+02 -0.14553379201E+02 -0.97767477521E+02  0.99582473017E+02  0.00000000000E+00 0. -1.
        -14    1    6    6    0    0  0.13329275721E+02 -0.30135671230E+02  0.55951762735E+01  0.33423558597E+02  0.00000000000E+00 0.  1.
</event>
<event>
12    1  0.8798177E-003  0.2240124E+03  0.7818608E-02  0.1131973E+00
         21   -1    0    0  503  502  0.00000000000E+00  0.00000000000E+00  0.48098354479E+03  0.48098354479E+03  0.00000000000E+00 0.  1.
         21   -1    0    0  501  503 -0.00000000000E+00 -0.00000000000E+00 -0.10436036526E+03  0.10436036526E+03  0.00000000000E+00 0.  1.
          6    2    1    2  501    0 -0.13453322832E+03 -0.79553273073E+01  0.23262297170E+03  0.31904030886E+03  0.17178706283E+03 0.  0.
         24    2    3    3    0    0 -0.35687327215E+02  0.39774891689E+01  0.19361923588E+03  0.21200626903E+03  0.78541987880E+02 0.  0.
         -6    2    1    2    0  502  0.13453322832E+03  0.79553273073E+01  0.14400020784E+03  0.26630360119E+03  0.17893873643E+03 0.  0.
        -24    2    5    5    0    0  0.20371356600E+02  0.66094317560E+01  0.70929218093E+01  0.87976824299E+02  0.85034906457E+02 0.  0.
          5    1    3    3  501    0 -0.98845901105E+02 -0.11932816476E+02  0.39003735822E+02  0.10703403983E+03  0.47000000000E+01 0. -1.
        -13    1    4    4    0    0 -0.32049626205E+02 -0.27590633849E+02  0.16102338736E+03  0.16648409201E+03  0.00000000000E+00 0.  1.
         14    1    4    4    0    0 -0.36377010104E+01  0.31568123018E+02  0.32595848523E+02  0.45522177018E+02  0.00000000000E+00 0. -1.
         -5    1    5    5    0  502  0.11416187172E+03  0.13458955513E+01  0.13690728603E+03  0.17832677689E+03  0.47000000000E+01 0.  1.
         13    1    6    6    0    0 -0.23860325247E+02  0.14342515042E+02  0.27070324924E+02  0.38830726882E+02  0.00000000000E+00 0. -1.
        -14    1    6    6    0    0  0.44231681847E+02 -0.77330832863E+01 -0.19977403115E+02  0.49146097418E+02  0.00000000000E+00 0.  1.
</event>
<event>
12    1  0.8798177E-003  0.2281092E+03  0.7818608E-02  0.1128024E+00
         21   -1    0    0  501  502  0.00000000000E+00  0.00000000000E+00  0.57823725766E+03  0.57823725766E+03  0.00000000000E+00 0. -1.
         21   -1    0    0  502  503 -0.00000000000E+00 -0.00000000000E+00 -0.90698121616E+02  0.90698121616E+02  0.00000000000E+00 0.  1.
          6    2    1    2  501    0  0.73091023084E+01 -0.14921597727E+03  0.21194285059E+03  0.31118252566E+03  0.17203476832E+03 0.  0.
         24    2    3    3    0    0  0.60020252534E+02 -0.74246704450E+02  0.17134739101E+03  0.21083842487E+03  0.77316939670E+02 0.  0.
         -6    2    1    2    0  503 -0.73091023084E+01  0.14921597727E+03  0.27559628546E+03  0.35775285362E+03  0.17238027980E+03 0.  0.
        -24    2    5    5    0    0  0.54282415128E+02  0.13194732203E+03  0.20816048283E+03  0.26468621647E+03  0.79820612587E+02 0.  0.
          5    1    3    3  501    0 -0.52711150226E+02 -0.74969272819E+02  0.40595459580E+02  0.10034410079E+03  0.47000000000E+01 0. -1.
        -13    1    4    4    0    0  0.14650250490E+02  0.13567230277E+02  0.53045965761E+02  0.56679573572E+02  0.00000000000E+00 0.  1.
         14    1    4    4    0    0  0.45370002044E+02 -0.87813934727E+02  0.11830142525E+03  0.15415885130E+03  0.00000000000E+00 0. -1.
         -5    1    5    5    0  503 -0.61591517437E+02  0.17268655238E+02  0.67435802624E+02  0.93066637145E+02  0.47000000000E+01 0.  1.
         13    1    6    6    0    0  0.23902343234E+02  0.15727957255E+02  0.96599557905E+02  0.10074802846E+03  0.00000000000E+00 0. -1.
        -14    1    6    6    0    0  0.30380071894E+02  0.11621936478E+03  0.11156092493E+03  0.16393818801E+03  0.00000000000E+00 0.  1.
</event>
<event>
12    1  0.8798177E-003  0.1807740E+03  0.7818608E-02  0.1167589E+00
         21   -1    0    0  503  502  0.00000000000E+00  0.00000000000E+00  0.12830250782E+03  0.12830250782E+03  0.00000000000E+00 0.  1.
         21   -1    0    0  501  503 -0.00000000000E+00 -0.00000000000E+00 -0.27209315950E+03  0.27209315950E+03  0.00000000000E+00 0. -1.
          6    2    1    2  501    0 -0.28442789314E+02  0.45367769593E+02 -0.17377474167E+02  0.18160731219E+03  0.17266155464E+03 0.  0.
         24    2    3    3    0    0 -0.51310880688E+02 -0.18573583149E+02  0.25390676048E+02  0.10121669790E+03  0.81377816606E+02 0.  0.
         -6    2    1    2    0  502  0.28442789314E+02 -0.45367769593E+02 -0.12641317751E+03  0.21878835513E+03  0.17035500025E+03 0.  0.
        -24    2    5    5    0    0  0.31131672994E+01  0.11973961145E+02 -0.41028516855E+01  0.81269012347E+02  0.80216902332E+02 0.  0.
          5    1    3    3  501    0  0.22868091373E+02  0.63941352741E+02 -0.42768150215E+02  0.80390614292E+02  0.47000000000E+01 0. -1.
        -11    1    4    4    0    0  0.19905076169E+02  0.86494232302E+01  0.67616823612E+01  0.22732024280E+02  0.00000000000E+00 0.  1.
         12    1    4    4    0    0 -0.71215956857E+02 -0.27223006379E+02  0.18628993687E+02  0.78484673620E+02  0.00000000000E+00 0. -1.
         -5    1    5    5    0  502  0.25329622015E+02 -0.57341730738E+02 -0.12231032583E+03  0.13751934278E+03  0.47000000000E+01 0.  1.
         13    1    6    6    0    0  0.72042965653E+01 -0.21573409160E+02 -0.30738656589E+02  0.38238447676E+02  0.00000000000E+00 0. -1.
        -14    1    6    6    0    0 -0.40911292659E+01  0.33547370305E+02  0.26635804903E+02  0.43030564671E+02  0.00000000000E+00 0.  1.
</event>
<event>
12    1  0.8798177E-003  0.2113107E+03  0.7818608E-02  0.1141056E+00
         21   -1    0    0  501  502  0.00000000000E+00  0.00000000000E+00  0.61340193904E+02  0.61340193904E+02  0.00000000000E+00 0.  1.
         21   -1    0    0  502  503 -0.00000000000E+00 -0.00000000000E+00 -0.90369168845E+03  0.90369168845E+03  0.00000000000E+00 0.  1.
          6    2    1    2  501    0 -0.11878869584E+03  0.27997690249E+01 -0.20084288768E+03  0.28961682289E+03  0.17152680724E+03 0.  0.
         24    2    3    3    0    0  0.59630976541E+01  0.13246368295E+02 -0.66539906332E+02  0.10595538922E+03  0.81166252620E+02 0.  0.
         -6    2    1    2    0  503  0.11878869584E+03 -0.27997690249E+01 -0.64150860687E+03  0.67541505947E+03  0.17473871037E+03 0.  0.
        -24    2    5    5    0    0  0.35001940538E+02  0.73921531546E+01 -0.51511258454E+03  0.52335539978E+03  0.85323619009E+02 0.  0.
          5    1    3    3  501    0 -0.12475179350E+03 -0.10446599270E+02 -0.13430298135E+03  0.18366143367E+03  0.47000000000E+01 0. -1.
        -11    1    4    4    0    0 -0.26238864104E+02  0.15245409466E+02  0.17818637103E+01  0.30398610783E+02  0.00000000000E+00 0.  1.
         12    1    4    4    0    0  0.32201961758E+02 -0.19990411707E+01 -0.68321770043E+02  0.75556778442E+02  0.00000000000E+00 0. -1.
         -5    1    5    5    0  503  0.83786755307E+02 -0.10191922180E+02 -0.12639602233E+03  0.15205965968E+03  0.47000000000E+01 0.  1.
         11    1    6    6    0    0  0.14054250056E+02 -0.11758340226E+02 -0.18874809546E+02  0.26306633097E+02  0.00000000000E+00 0. -1.
        -12    1    6    6    0    0  0.20947690482E+02  0.19150493380E+02 -0.49623777499E+03  0.49704876669E+03  0.00000000000E+00 0.  1.
</event>
<event>
12    1  0.8798177E-003  0.2212579E+03  0.7818608E-02  0.1133023E+00
         21   -1    0    0  503  502  0.00000000000E+00  0.00000000000E+00  0.12724215544E+04  0.12724215544E+04  0.00000000000E+00 0.  1.
         21   -1    0    0  501  503 -0.00000000000E+00 -0.00000000000E+00 -0.38405347199E+02  0.38405347199E+02  0.00000000000E+00 0. -1.
          6    2    1    2  501    0 -0.11021625901E+03  0.85369287102E+02  0.62167288485E+03  0.65987287760E+03  0.17181239739E+03 0.  0.
         24    2    3    3    0    0 -0.11616677867E+03  0.58072583016E+02  0.29638561591E+03  0.33335424708E+03  0.80084176740E+02 0.  0.
         -6    2    1    2    0  502  0.11021625901E+03 -0.85369287102E+02  0.61234332240E+03  0.65095402405E+03  0.17129290122E+03 0.  0.
        -24    2    5    5    0    0  0.74198617959E+01 -0.18460465199E+02  0.12857953820E+03  0.15186146887E+03  0.78315802751E+02 0.  0.
          5    1    3    3  501    0  0.59505196581E+01  0.27296704087E+02  0.32528726894E+03  0.32651863051E+03  0.47000000000E+01 0. -1.
        -11    1    4    4    0    0  0.51945973634E+01 -0.77909812812E+01  0.50403851318E+02  0.51266279939E+02  0.00000000000E+00 0.  1.
         12    1    4    4    0    0 -0.12136137604E+03  0.65863564297E+02  0.24598176459E+03  0.28208796714E+03  0.00000000000E+00 0. -1.
         -5    1    5    5    0  502  0.10279639722E+03 -0.66908821903E+02  0.48376378421E+03  0.49909255518E+03  0.47000000000E+01 0.  1.
         13    1    6    6    0    0 -0.14129645781E+02 -0.99372498393E+01 -0.36173183369E+01  0.17648819117E+02  0.00000000000E+00 0. -1.
        -14    1    6    6    0    0  0.21549507577E+02 -0.85232153597E+01  0.13219685653E+03  0.13421264975E+03  0.00000000000E+00 0.  1.
</event>
<event>
12    1  0.8798177E-003  0.1859390E+03  0.7818608E-02  0.1162571E+00
         21   -1    0    0  503  502  0.00000000000E+00  0.00000000000E+00  0.16962781288E+03  0.16962781288E+03  0.00000000000E+00 0.  1.
         21   -1    0    0  501  503 -0.00000000000E+00 -0.00000000000E+00 -0.22211053972E+03  0.22211053972E+03  0.00000000000E+00 0.  1.
          6    2    1    2  501    0 -0.40917671783E+02 -0.57913326050E+02 -0.85341796301E+02  0.20458869450E+03  0.17188688874E+03 0.  0.
         24    2    3    3    0    0 -0.65750080770E+02 -0.28108476774E+02 -0.11419097900E+03  0.15601562666E+03  0.78664709302E+02 0.  0.
         -6    2    1    2    0  502  0.40917671783E+02  0.57913326050E+02  0.32859069466E+02  0.18714965811E+03  0.17005018931E+03 0.  0.
        -24    2    5    5    0    0  0.65405490304E+02 -0.37047081246E+01 -0.15735936496E+02  0.10480890273E+03  0.80285013360E+02 0.  0.
          5    1    3    3  501    0  0.24832408987E+02 -0.29804849276E+02  0.28849182699E+02  0.48573067835E+02  0.47000000000E+01 0. -1.
        -13    1    4    4    0    0 -0.40077058426E+02 -0.46020749337E+02 -0.10808318957E+03  0.12412113378E+03  0.00000000000E+00 0.  1.
         14    1    4    4    0    0 -0.25673022345E+02  0.17912272563E+02 -0.61077894266E+01  0.31894492884E+02  0.00000000000E+00 0. -1.
         -5    1    5    5    0  502 -0.24487818521E+02  0.61618034175E+02  0.48595005962E+02  0.82340755377E+02  0.47000000000E+01 0.  1.
         13    1    6    6    0    0  0.13841588493E+02 -0.88447392061E+01 -0.43159985520E+02  0.46180118382E+02  0.00000000000E+00 0. -1.
        -14    1    6    6    0    0  0.51563901811E+02  0.51400310815E+01  0.27424049024E+02  0.58628784350E+02  0.00000000000E+00 0.  1.
</event>
<event>
12    1  0.8798177E-003  0.1949834E+03  0.7818608E-02  0.1154181E+00
         21   -1    0    0  501  502  0.00000000000E+00  0.00000000000E+00  0.59086687345E+03  0.59086687345E+03  0.00000000000E+00 0.  1.
         21   -1    0    0  502  503 -0.00000000000E+00 -0.00000000000E+00 -0.79313165567E+02  0.79313165567E+02  0.00000000000E+00 0.  1.
          6    2    1    2  501    0 -0.40885427895E+02 -0.83100073487E+02  0.10884308024E+03  0.22274916241E+03  0.17085998013E+03 0.  0.
         24    2    3    3    0    0 -0.92790667758E+02 -0.59238950763E+02  0.68585428750E+02  0.15270435099E+03  0.80593402114E+02 0.  0.
         -6    2    1    2    0  503  0.40885427895E+02  0.83100073487E+02  0.40271062763E+03  0.44743087660E+03  0.17158467093E+03 0.  0.
        -24    2    5    5    0    0  0.17646717027E+02 -0.10789399795E+02  0.27449195644E+03  0.28675297358E+03  0.80334400718E+02 0.  0.
          5    1    3    3  501    0  0.51905239863E+02 -0.23861122724E+02  0.40257651494E+02  0.70044811419E+02  0.47000000000E+01 0. -1.
        -11    1    4    4    0    0 -0.23594541440E+02 -0.16323068245E+02 -0.17982639223E+02  0.33860305022E+02  0.00000000000E+00 0.  1.
         12    1    4    4    0    0 -0.69196126318E+02 -0.42915882518E+02  0.86568067974E+02  0.11884404597E+03  0.00000000000E+00 0. -1.
         -5    1    5    5    0  503  0.23238710869E+02  0.93889473282E+02  0.12821867120E+03  0.16067790302E+03  0.47000000000E+01 0.  1.
         13    1    6    6    0    0 -0.63327551723E+01 -0.41415615197E+02  0.10959314928E+03  0.11732866376E+03  0.00000000000E+00 0. -1.
        -14    1    6    6    0    0  0.23979472199E+02  0.30626215402E+02  0.16489880716E+03  0.16942430982E+03  0.00000000000E+00 0.  1.
</event>
<event>
12    1  0.8798177E-003  0.1858856E+03  0.7818608E-02  0.1162376E+00
         21   -1    0    0  501  502  0.00000000000E+00  0.00000000000E+00  0.32512403492E+03  0.32512403492E+03  0.00000000000E+00 0.  1.
         21   -1    0    0  502  503 -0.00000000000E+00 -0.00000000000E+00 -0.13488829317E+03  0.13488829317E+03  0.00000000000E+00 0.  1.
          6    2    1    2  501    0  0.68021577569E+02 -0.13668881521E+02 -0.11623759003E+02  0.18560254041E+03  0.17175394579E+03 0.  0.
         24    2    3    3    0    0  0.77363717206E+02 -0.17654006189E+02 -0.65523484601E+02  0.13055322424E+03  0.80336844906E+02 0.  0.
         -6    2    1    2    0  503 -0.68021577569E+02  0.13668881521E+02  0.20185950075E+03  0.27440978768E+03  0.17245202287E+03 0.  0.
        -24    2    5    5    0    0  0.23305362091E+02  0.29793995385E+02  0.69123761726E+02  0.11241751743E+03  0.80179684001E+02 0.  0.
          5    1    3    3  501    0 -0.93421396371E+01  0.39851246686E+01  0.53899725598E+02  0.55049316173E+02  0.47000000000E+01 0. -1.
        -13    1    4    4    0    0  0.80474122822E+02  0.10798804931E+02 -0.34148669547E+02  0.88084222559E+02  0.00000000000E+00 0.  1.
         14    1    4    4    0    0 -0.31104056160E+01 -0.28452811120E+02 -0.31374815054E+02  0.42469001677E+02  0.00000000000E+00 0. -1.
         -5    1    5    5    0  503 -0.91326939660E+02 -0.16125113864E+02  0.13273573903E+03  0.16199227025E+03  0.47000000000E+01 0.  1.
         13    1    6    6    0    0 -0.10375744510E+02 -0.15134501632E+02 -0.53812056701E+01  0.19122410629E+02  0.00000000000E+00 0. -1.
        -14    1    6    6    0    0  0.33681106601E+02  0.44928497017E+02  0.74504967396E+02  0.93295106800E+02  0.00000000000E+00 0.  1.
</event>
<event>
12    1  0.8798177E-003  0.2033059E+03  0.7818608E-02  0.1147369E+00
         21   -1    0    0  503  502  0.00000000000E+00  0.00000000000E+00  0.54528805066E+02  0.54528805066E+02  0.00000000000E+00 0.  1.
         21   -1    0    0  501  503 -0.00000000000E+00 -0.00000000000E+00 -0.81863637943E+03  0.81863637943E+03  0.00000000000E+00 0.  1.
          6    2    1    2  501    0  0.79762607309E+02 -0.71451026637E+02 -0.25821374280E+03  0.32864513748E+03  0.17281772677E+03 0.  0.
         24    2    3    3    0    0  0.69465713954E+02 -0.91547754020E+02 -0.26877080883E+03  0.30327889796E+03  0.80832330078E+02 0.  0.
         -6    2    1    2    0  502 -0.79762607309E+02  0.71451026637E+02 -0.50589383157E+03  0.54452004702E+03  0.17060536350E+03 0.  0.
        -24    2    5    5    0    0 -0.45596909531E+02 -0.43065692102E+01 -0.39100733613E+03  0.40264860850E+03  0.84507634700E+02 0.  0.
          5    1    3    3  501    0  0.10296893355E+02  0.20096727383E+02  0.10557066031E+02  0.25366239522E+02  0.47000000000E+01 0. -1.
        -13    1    4    4    0    0  0.17820346753E+02  0.28223058430E+01 -0.11015704501E+03  0.11162483924E+03  0.00000000000E+00 0.  1.
         14    1    4    4    0    0  0.51645367201E+02 -0.94370059863E+02 -0.15861376382E+03  0.19165405872E+03  0.00000000000E+00 0. -1.
         -5    1    5    5    0  502 -0.34165697778E+02  0.75757595847E+02 -0.11488649543E+03  0.14187143852E+03  0.47000000000E+01 0.  1.
         11    1    6    6    0    0  0.17040024469E+02  0.13745065524E+02 -0.39622060401E+02  0.45268056404E+02  0.00000000000E+00 0. -1.
        -12    1    6    6    0    0 -0.62636934000E+02 -0.18051634735E+02 -0.35138527573E+03  0.35738055210E+03  0.00000000000E+00 0.  1.
</event>
<event>
12    1  0.8798177E-003  0.3124802E+03  0.7818608E-02  0.1079486E+00
         21   -1    0    0  503  502  0.00000000000E+00  0.00000000000E+00  0.10464138100E+04  0.10464138100E+04  0.00000000000E+00 0.  1.
         21   -1    0    0  501  503 -0.00000000000E+00 -0.00000000000E+00 -0.15082003294E+03  0.15082003294E+03  0.00000000000E+00 0. -1.
          6    2    1    2  501    0 -0.25528878067E+03 -0.49277999700E+02  0.82122316786E+03  0.87866452631E+03  0.17332967311E+03 0.  0.
         24    2    3    3    0    0 -0.21941105823E+03 -0.53646721227E+02  0.80290878099E+03  0.83787477930E+03  0.79702271163E+02 0.  0.
         -6    2    1    2    0  502  0.25528878067E+03  0.49277999700E+02  0.74370609159E+02  0.31856931658E+03  0.16838865512E+03 0.  0.
        -24    2    5    5    0    0  0.26270351538E+03  0.69026757648E+02  0.82935001596E+02  0.29532215441E+03  0.80988456786E+02 0.  0.
          5    1    3    3  501    0 -0.35877722432E+02  0.43687215271E+01  0.18314386872E+02  0.40789747011E+02  0.47000000000E+01 0. -1.
        -11    1    4    4    0    0 -0.33846067862E+02  0.61649953358E+01  0.23330886292E+03  0.23583169633E+03  0.00000000000E+00 0.  1.
         12    1    4    4    0    0 -0.18556499037E+03 -0.59811716563E+02  0.56959991806E+03  0.60204308297E+03  0.00000000000E+00 0. -1.
         -5    1    5    5    0  502 -0.74147347092E+01 -0.19748757948E+02 -0.85643924364E+01  0.23247162173E+02  0.47000000000E+01 0.  1.
         13    1    6    6    0    0  0.71829229482E+02 -0.17378153175E+02  0.20258255436E+02  0.76627901766E+02  0.00000000000E+00 0. -1.
        -14    1    6    6    0    0  0.19087428589E+03  0.86404910822E+02  0.62676746160E+02  0.21869425264E+03  0.00000000000E+00 0.  1.
</event>
<event>
12    1  0.8798177E-003  0.1963925E+03  0.7818608E-02  0.1152969E+00
         21   -1    0    0  501  502  0.00000000000E+00  0.00000000000E+00  0.14278631499E+03  0.14278631499E+03  0.00000000000E+00 0.  1.
         21   -1    0    0  502  503 -0.00000000000E+00 -0.00000000000E+00 -0.28043779016E+03  0.28043779016E+03  0.00000000000E+00 0.  1.
          6    2    1    2  501    0  0.82095642503E+02 -0.45790554068E+02 -0.11112417872E+03  0.22504809702E+03  0.17164379836E+03 0.  0.
         24    2    3    3    0    0  0.72451112910E+02 -0.43140346455E+02 -0.25131167565E+01  0.11587624473E+03  0.79440135211E+02 0.  0.
         -6    2    1    2    0  503 -0.82095642503E+02  0.45790554068E+02 -0.26527296452E+02  0.19817600813E+03  0.17243422914E+03 0.  0.
        -24    2    5    5    0    0 -0.57558391964E+02  0.25223395257E+02  0.51537140243E+02  0.11367020382E+03  0.79471065539E+02 0.  0.
          5    1    3    3  501    0  0.96445295929E+01 -0.26502076127E+01 -0.10861106196E+03  0.10917185229E+03  0.47000000000E+01 0. -1.
        -13    1    4    4    0    0  0.88241007345E+02 -0.34647557071E+02 -0.12060767071E+02  0.95563542685E+02  0.00000000000E+00 0.  1.
         14    1    4    4    0    0 -0.15789894435E+02 -0.84927893835E+01  0.95476503141E+01  0.20312702043E+02  0.00000000000E+00 0. -1.
         -5    1    5    5    0  503 -0.24537250538E+02  0.20567158811E+02 -0.78064436694E+02  0.84505804309E+02  0.47000000000E+01 0.  1.
         11    1    6    6    0    0  0.15038977739E+02 -0.77887667547E+01  0.23846789559E+02  0.29249018980E+02  0.00000000000E+00 0. -1.
        -12    1    6    6    0    0 -0.72597369704E+02  0.33012162012E+02  0.27690350684E+02  0.84421184839E+02  0.00000000000E+00 0.  1.
</event>
<event>
12    1  0.8798177E-003  0.1866642E+03  0.7818608E-02  0.1162233E+00
         21   -1    0    0  501  502  0.00000000000E+00  0.00000000000E+00  0.18540005785E+03  0.18540005785E+03  0.00000000000E+00 0. -1.
         21   -1    0    0  502  503 -0.00000000000E+00 -0.00000000000E+00 -0.19690668153E+03  0.19690668153E+03  0.00000000000E+00 0. -1.
          6    2    1    2  501    0 -0.53975933508E+02  0.30333532168E+02  0.41688693032E+02  0.18821074324E+03  0.17277676977E+03 0.  0.
         24    2    3    3    0    0 -0.99993996009E+02  0.14620278265E+02  0.50918642667E+02  0.13849303618E+03  0.79843979892E+02 0.  0.
         -6    2    1    2    0  503  0.53975933508E+02 -0.30333532168E+02 -0.53195316714E+02  0.19409599614E+03  0.17609653439E+03 0.  0.
        -24    2    5    5    0    0  0.82677724964E+02  0.19748906907E+02 -0.23418211643E+01  0.11702322828E+03  0.80394815136E+02 0.  0.
          5    1    3    3  501    0  0.46018062501E+02  0.15713253903E+02 -0.92299496353E+01  0.49717707055E+02  0.47000000000E+01 0. -1.
        -13    1    4    4    0    0 -0.35903201080E+02 -0.11075468097E+02 -0.17356597050E+02  0.41387888355E+02  0.00000000000E+00 0.  1.
         14    1    4    4    0    0 -0.64090794929E+02  0.25695746362E+02  0.68275239717E+02  0.97105147825E+02  0.00000000000E+00 0. -1.
         -5    1    5    5    0  503 -0.28701791456E+02 -0.50082439075E+02 -0.50853495549E+02  0.77072767863E+02  0.47000000000E+01 0.  1.
         11    1    6    6    0    0  0.46201339365E+02 -0.23345610707E+02  0.21088025980E+02  0.55895314098E+02  0.00000000000E+00 0. -1.
        -12    1    6    6    0    0  0.36476385599E+02  0.43094517614E+02 -0.23429847144E+02  0.61127914179E+02  0.00000000000E+00 0.  1.
</event>
<event>
12    1  0.8798177E-003  0.2840185E+03  0.7818608E-02  0.1093523E+00
         21   -1    0    0  501  502  0.00000000000E+00  0.00000000000E+00  0.75819324805E+02  0.75819324805E+02  0.00000000000E+00 0. -1.
         21   -1    0    0  502  503 -0.00000000000E+00 -0.00000000000E+00 -0.13643639094E+04  0.13643639094E+04  0.00000000000E+00 0.  1.
          6    2    1    2  501    0 -0.11424289582E+03 -0.19481923054E+03 -0.30628317669E+03  0.41770310260E+03  0.17222231496E+03 0.  0.
         24    2    3    3    0    0  0.13543642309E+02 -0.76624375164E+02 -0.13858896023E+03  0.17595351440E+03  0.75485192026E+02 0.  0.
         -6    2    1    2    0  503  0.11424289582E+03  0.19481923054E+03 -0.98226140792E+03  0.10224801316E+04  0.17211093579E+03 0.  0.
        -24    2    5    5    0    0  0.10363560584E+02  0.47270540603E+02 -0.21996428469E+03  0.23910249198E+03  0.80273331407E+02 0.  0.
          5    1    3    3  501    0 -0.12778653813E+03 -0.11819485538E+03 -0.16769421646E+03  0.24174958820E+03  0.47000000000E+01 0. -1.
        -11    1    4    4    0    0 -0.34149069582E+01 -0.62778429685E+02 -0.14055179053E+03  0.15397272046E+03  0.00000000000E+00 0.  1.
         12    1    4    4    0    0  0.16958549267E+02 -0.13845945479E+02  0.19628303026E+01  0.21980793940E+02  0.00000000000E+00 0. -1.
         -5    1    5    5    0  503  0.10387933524E+03  0.14754868994E+03 -0.76229712323E+03  0.78337763963E+03  0.47000000000E+01 0.  1.
         13    1    6    6    0    0 -0.27462658275E+02  0.40572097581E+02 -0.78661586977E+02  0.92671128014E+02  0.00000000000E+00 0. -1.
        -14    1    6    6    0    0  0.37826218859E+02  0.66984430221E+01 -0.14130269772E+03  0.14643136397E+03  0.00000000000E+00 0.  1.
</event>
<event>
12    1  0.8798177E-003  0.1875069E+03  0.7818608E-02  0.1161190E+00
         21   -1    0    0  503  502  0.00000000000E+00  0.00000000000E+00  0.29404208862E+03  0.29404208862E+03  0.00000000000E+00 0. -1.
         21   -1    0    0  501  503 -0.00000000000E+00 -0.00000000000E+00 -0.12670890315E+03  0.12670890315E+03  0.00000000000E+00 0. -1.
          6    2    1    2  501    0  0.59024468501E+02 -0.35388186011E+02  0.29057325581E+02  0.18777230731E+03  0.17227274779E+03 0.  0.
         24    2    3    3    0    0  0.67036485806E+02  0.34743042933E+02  0.28376745774E+02  0.11702532940E+03  0.84786311155E+02 0.  0.
         -6    2    1    2    0  502 -0.59024468501E+02  0.35388186011E+02  0.13827585989E+03  0.23297868446E+03  0.17442087718E+03 0.  0.
        -24    2    5    5    0    0 -0.10238154651E+03  0.30648731394E+02  0.13344573892E+03  0.18884571819E+03  0.80209813866E+02 0.  0.
          5    1    3    3  501    0 -0.80120173056E+01 -0.70131228944E+02  0.68057980714E+00  0.70746977910E+02  0.47000000000E+01 0. -1.
        -11    1    4    4    0    0  0.29608364089E+02  0.43353279393E+02 -0.19183716885E+02  0.55894338279E+02  0.00000000000E+00 0.  1.
         12    1    4    4    0    0  0.37428121717E+02 -0.86102364598E+01  0.47560462659E+02  0.61130991122E+02  0.00000000000E+00 0. -1.
         -5    1    5    5    0  502  0.43357078010E+02  0.47394546174E+01  0.48301209724E+01  0.44132966275E+02  0.47000000000E+01 0.  1.
         13    1    6    6    0    0 -0.22543395392E+02  0.32819242963E+02  0.88867932278E+02  0.97379755452E+02  0.00000000000E+00 0. -1.
        -14    1    6    6    0    0 -0.79838151118E+02 -0.21705115695E+01  0.44577806643E+02  0.91465962738E+02  0.00000000000E+00 0.  1.
</event>
<event>
12    1  0.8798177E-003  0.2046142E+03  0.7818608E-02  0.1146253E+00
         21   -1    0    0  503  502  0.00000000000E+00  0.00000000000E+00  0.10320234543E+03  0.10320234543E+03  0.00000000000E+00 0.  1.
         21   -1    0    0  501  503 -0.00000000000E+00 -0.00000000000E+00 -0.40598294773E+03  0.40598294773E+03  0.00000000000E+00 0.  1.
          6    2    1    2  501    0 -0.51539725848E+01 -0.11049695790E+03 -0.12780730638E+03  0.24125026817E+03  0.17213611820E+03 0.  0.
         24    2    3    3    0    0  0.19496651968E+02  0.67470285458E+01 -0.70567339871E+02  0.10838827430E+03  0.79640609727E+02 0.  0.
         -6    2    1    2    0  502  0.51539725848E+01  0.11049695790E+03 -0.17497329592E+03  0.26793502499E+03  0.17010991210E+03 0.  0.
        -24    2    5    5    0    0 -0.18295262723E+01  0.10755323444E+03 -0.49556391793E+02  0.14220147893E+03  0.78704378781E+02 0.  0.
          5    1    3    3  501    0 -0.24650624553E+02 -0.11724398645E+03 -0.57239966511E+02  0.13286199387E+03  0.47000000000E+01 0. -1.
        -11    1    4    4    0    0 -0.15654228505E+02 -0.26810145306E+02 -0.14724334058E+02  0.34360511854E+02  0.00000000000E+00 0.  1.
         12    1    4    4    0    0  0.35150880472E+02  0.33557173852E+02 -0.55843005813E+02  0.74027762449E+02  0.00000000000E+00 0. -1.
         -5    1    5    5    0  502  0.69834988571E+01  0.29437234615E+01 -0.12541690412E+03  0.12573354606E+03  0.47000000000E+01 0.  1.
         13    1    6    6    0    0 -0.28559502160E+02  0.83729347100E+02 -0.10292566075E+02  0.89062818537E+02  0.00000000000E+00 0. -1.
        -14    1    6    6    0    0  0.26729975887E+02  0.23823887338E+02 -0.39263825719E+02  0.53138660398E+02  0.00000000000E+00 0.  1.
</event>
<event>
12    1  0.8798177E-003  0.1972626E+03  0.7818608E-02  0.1152309E+00
         21   -1    0    0  501  502  0.00000000000E+00  0.00000000000E+00  0.25135279417E+03  0.25135279417E+03  0.00000000000E+00 0.  1.
         21   -1    0    0  502  503 -0.00000000000E+00 -0.00000000000E+00 -0.15873889835E+03  0.15873889835E+03  0.00000000000E+00 0.  1.
          6    2    1    2  501    0  0.36936013754E+02  0.89594155559E+02  0.10786844584E+02  0.19755732494E+03  0.17181722497E+03 0.  0.
         24    2    3    3    0    0  0.16208329453E+02 -0.11426157258E+02 -0.17924449386E+02  0.90407108419E+02  0.86364879167E+02 0.  0.
         -6    2    1    2    0  503 -0.36936013754E+02 -0.89594155559E+02  0.81827051242E+02  0.21253436758E+03  0.17053975861E+03 0.  0.
        -24    2    5    5    0    0 -0.72649343642E+01  0.15179053527E+02  0.58808668566E+02  0.10113538089E+03  0.80540193894E+02 0.  0.
          5    1    3    3  501    0  0.20727684301E+02  0.10102031282E+03  0.28711293970E+02  0.10715021652E+03  0.47000000000E+01 0. -1.
        -13    1    4    4    0    0 -0.26454119459E+02  0.20288210528E+02 -0.16574330991E+02  0.37230906121E+02  0.00000000000E+00 0.  1.
         14    1    4    4    0    0  0.42662448912E+02 -0.31714367786E+02 -0.13501183950E+01  0.53176202298E+02  0.00000000000E+00 0. -1.
         -5    1    5    5    0  503 -0.29671079390E+02 -0.10477320909E+03  0.23018382676E+02  0.11139898669E+03  0.47000000000E+01 0.  1.
         11    1    6    6    0    0  0.16040943097E+02  0.10812019022E+02 -0.14443068520E+02  0.24141537628E+02  0.00000000000E+00 0. -1.
        -12    1    6    6    0    0 -0.23305877462E+02  0.43670345048E+01  0.73251737085E+02  0.76993843264E+02  0.00000000000E+00 0.  1.
</event>
<event>
12    1  0.8798177E-003  0.1943950E+03  0.7818608E-02  0.1155372E+00
         21   -1    0    0  503  502  0.00000000000E+00  0.00000000000E+00  0.12588336193E+04  0.12588336193E+04  0.00000000000E+00 0. -1.
         21   -1    0    0  501  503 -0.00000000000E+00 -0.00000000000E+00 -0.45620740778E+02  0.45620740778E+02  0.00000000000E+00 0. -1.
          6    2    1    2  501    0 -0.80227433118E+02 -0.39230055388E+02  0.22208215421E+03  0.29514384199E+03  0.17266721165E+03 0.  0.
         24    2    3    3    0    0 -0.63265716825E+02 -0.88587320774E+01  0.23571225429E+03  0.25748767746E+03  0.81600301252E+02 0.  0.
         -6    2    1    2    0  502  0.80227433118E+02  0.39230055388E+02  0.99113072435E+03  0.10093105181E+04  0.16849976548E+03 0.  0.
        -24    2    5    5    0    0 -0.11836347890E+02  0.50272568490E+02  0.41039164015E+03  0.42119688047E+03  0.79486373309E+02 0.  0.
          5    1    3    3  501    0 -0.16961716293E+02 -0.30371323311E+02 -0.13630100077E+02  0.37656164533E+02  0.47000000000E+01 0. -1.
        -11    1    4    4    0    0 -0.79158366951E+02 -0.20130381293E+02  0.16454921193E+03  0.18370553192E+03  0.00000000000E+00 0.  1.
         12    1    4    4    0    0  0.15892650126E+02  0.11271649216E+02  0.71163042354E+02  0.73782145544E+02  0.00000000000E+00 0. -1.
         -5    1    5    5    0  502  0.92063781008E+02 -0.11042513101E+02  0.58073908421E+03  0.58811363765E+03  0.47000000000E+01 0.  1.
         13    1    6    6    0    0  0.30436792330E+02  0.37060993921E+02  0.26135819200E+03  0.26572169675E+03  0.00000000000E+00 0. -1.
        -14    1    6    6    0    0 -0.42273140220E+02  0.13211574569E+02  0.14903344815E+03  0.15547518372E+03  0.00000000000E+00 0.  1.
</event>
<event>
12    1  0.8798177E-003  0.2123084E+03  0.7818608E-02  0.1142336E+00
         21   -1    0    0  503  502  0.00000000000E+00  0.00000000000E+00  0.10991905267E+03  0.10991905267E+03  0.00000000000E+00 0.  1.
         21   -1    0    0  501  503 -0.00000000000E+00 -0.00000000000E+00 -0.43713322840E+03  0.43713322840E+03  0.00000000000E+00 0.  1.
          6    2    1    2  501    0 -0.39716249479E+02  0.95043986542E+02 -0.25289840757E+03  0.32211297966E+03  0.17084620940E+03 0.  0.
         24    2    3    3    0    0  0.20457913399E+02  0.11204350971E+03 -0.16110270958E+03  0.21094439672E+03  0.74640345536E+02 0.  0.
         -6    2    1    2    0  502  0.39716249479E+02 -0.95043986542E+02 -0.74315768167E+02  0.22493930140E+03  0.18564513478E+03 0.  0.
        -24    2    5    5    0    0 -0.20320024660E+02 -0.72865772486E+02 -0.10482817549E+03  0.15388070311E+03  0.83474548273E+02 0.  0.
          5    1    3    3  501    0 -0.60174162878E+02 -0.16999523171E+02 -0.91795697982E+02  0.11116858295E+03  0.47000000000E+01 0. -1.
        -11    1    4    4    0    0 -0.66674516513E+01  0.57899474072E+02 -0.27887818753E+02  0.64610637237E+02  0.00000000000E+00 0.  1.
         12    1    4    4    0    0  0.27125365050E+02  0.54144035641E+02 -0.13321489083E+03  0.14633375948E+03  0.00000000000E+00 0. -1.
         -5    1    5    5    0  502  0.60036274138E+02 -0.22178214056E+02  0.30512407324E+02  0.71058598296E+02  0.47000000000E+01 0.  1.
         11    1    6    6    0    0  0.69436017461E+01 -0.82713070074E+02 -0.84696635639E+02  0.11858830320E+03  0.00000000000E+00 0. -1.
        -12    1    6    6    0    0 -0.27263626406E+02  0.98472975884E+01 -0.20131539852E+02  0.35292399910E+02  0.00000000000E+00 0.  1.
</event>
<event>
12    1  0.8798177E-003  0.2152592E+03  0.7818608E-02  0.1137550E+00
         21   -1    0    0  503  502  0.00000000000E+00  0.00000000000E+00  0.30915805300E+03  0.30915805300E+03  0.00000000000E+00 0. -1.
         21   -1    0    0  501  503 -0.00000000000E+00 -0.00000000000E+00 -0.20995459022E+03  0.20995459022E+03  0.00000000000E+00 0.  1.
          6    2    1    2  501    0 -0.92565439579E+02  0.90305465848E+02 -0.89618379012E+02  0.23277331080E+03  0.17154743541E+03 0.  0.
         24    2    3    3    0    0 -0.84636627707E+01  0.59891117989E+02 -0.10134926992E+03  0.14245252017E+03  0.79765069978E+02 0.  0.
         -6    2    1    2    0  502  0.92565439579E+02 -0.90305465848E+02  0.18882184179E+03  0.28633933242E+03  0.17208453617E+03 0.  0.
        -24    2    5    5    0    0  0.19620849448E+02 -0.11047703366E+03  0.10959633195E+03  0.17667358213E+03  0.81314487934E+02 0.  0.
          5    1    3    3  501    0 -0.84101776808E+02  0.30414347859E+02  0.11730890906E+02  0.90320790627E+02  0.47000000000E+01 0. -1.
        -11    1    4    4    0    0  0.35061418493E+02  0.36814088285E+02 -0.51021484984E+02  0.72026190327E+02  0.00000000000E+00 0.  1.
         12    1    4    4    0    0 -0.43525081264E+02  0.23077029705E+02 -0.50327784933E+02  0.70426329844E+02  0.00000000000E+00 0. -1.
         -5    1    5    5    0  502  0.72944590131E+02  0.20171567807E+02  0.79225509834E+02  0.10966575029E+03  0.47000000000E+01 0.  1.
         13    1    6    6    0    0 -0.28518744910E+02 -0.62983291845E+02  0.69613122752E+02  0.98113203608E+02  0.00000000000E+00 0. -1.
        -14    1    6    6    0    0  0.48139594358E+02 -0.47493741810E+02  0.39983209202E+02  0.78560378526E+02  0.00000000000E+00 0.  1.
</event>
<event>
12    1  0.8798177E-003  0.1775105E+03  0.7818608E-02  0.1170689E+00
         21   -1    0    0  501  502  0.00000000000E+00  0.00000000000E+00  0.27034943977E+03  0.27034943977E+03  0.00000000000E+00 0. -1.
         21   -1    0    0  502  503 -0.00000000000E+00 -0.00000000000E+00 -0.11720677326E+03  0.11720677326E+03  0.00000000000E+00 0.  1.
          6    2    1    2  501    0  0.38612547564E+02  0.92952599420E+01  0.51802057499E+02  0.18315493642E+03  0.17112845142E+03 0.  0.
         24    2    3    3    0    0  0.34708185832E+02  0.24641097975E+02 -0.34062806138E+02  0.95715794193E+02  0.78672718415E+02 0.  0.
         -6    2    1    2    0  503 -0.38612547564E+02 -0.92952599420E+01  0.10134060901E+03  0.20440127662E+03  0.17301049726E+03 0.  0.
        -24    2    5    5    0    0  0.43209153433E+02 -0.17975398759E+02  0.76100773426E+02  0.11820803521E+03  0.77405852303E+02 0.  0.
          5    1    3    3  501    0  0.39043617327E+01 -0.15345838033E+02  0.85864863637E+02  0.87439142224E+02  0.47000000000E+01 0. -1.
        -11    1    4    4    0    0  0.28701929735E+02 -0.17631609916E+02 -0.40345395277E+02  0.52558780035E+02  0.00000000000E+00 0.  1.
         12    1    4    4    0    0  0.60062560966E+01  0.42272707891E+02  0.62825891387E+01  0.43157014158E+02  0.00000000000E+00 0. -1.
         -5    1    5    5    0  503 -0.81821700998E+02  0.86801388167E+01  0.25239835586E+02  0.86193241408E+02  0.47000000000E+01 0.  1.
         13    1    6    6    0    0  0.35515587604E+02  0.27047074268E+02  0.34372563032E+02  0.56341585696E+02  0.00000000000E+00 0. -1.
        -14    1    6    6    0    0  0.76935658298E+01 -0.45022473027E+02  0.41728210394E+02  0.61866449513E+02  0.00000000000E+00 0.  1.
</event>
<event>
12    1  0.8798177E-003  0.2061402E+03  0.7818608E-02  0.1144744E+00
         21   -1    0    0  503  502  0.00000000000E+00  0.00000000000E+00  0.86294647427E+02  0.86294647427E+02  0.00000000000E+00 0.  1.
         21   -1    0    0  501  503 -0.00000000000E+00 -0.00000000000E+00 -0.49241309213E+03  0.49241309213E+03  0.00000000000E+00 0.  1.
          6    2    1    2  501    0  0.37496631693E+02  0.10763565681E+03 -0.18994888982E+03  0.28000546067E+03  0.17126308784E+03 0.  0.
         24    2    3    3    0    0  0.81455552244E+02  0.73340185587E+02 -0.17618043131E+03  0.22238405413E+03  0.80008332945E+02 0.  0.
         -6    2    1    2    0  502 -0.37496631693E+02 -0.10763565681E+03 -0.21616955489E+03  0.29870227889E+03  0.17176246082E+03 0.  0.
        -24    2    5    5    0    0 -0.60413217125E+02 -0.87658438288E+02 -0.23032879640E+03  0.26483735208E+03  0.75853213511E+02 0.  0.
          5    1    3    3  501    0 -0.43958920551E+02  0.34295471225E+02 -0.13768458512E+02  0.57621406547E+02  0.47000000000E+01 0. -1.
        -11    1    4    4    0    0  0.54302175497E+02  0.40189189988E+02 -0.37569807526E+02  0.77300631906E+02  0.00000000000E+00 0.  1.
         12    1    4    4    0    0  0.27153376747E+02  0.33150995599E+02 -0.13861062378E+03  0.14508342222E+03  0.00000000000E+00 0. -1.
         -5    1    5    5    0  502  0.22916585432E+02 -0.19977218524E+02  0.14159241508E+02  0.33864926811E+02  0.47000000000E+01 0.  1.
         13    1    6    6    0    0 -0.34648243902E+02 -0.14047561786E+02 -0.14275752625E+03  0.14757217251E+03  0.00000000000E+00 0. -1.
        -14    1    6    6    0    0 -0.25764973223E+02 -0.73610876502E+02 -0.87571270145E+02  0.11726517957E+03  0.00000000000E+00 0.  1.
</event>
<event>
12    1  0.8798177E-003  0.3294148E+03  0.7818608E-02  0.1071436E+00
         21   -1    0    0  503  502  0.00000000000E+00  0.00000000000E+00  0.49700985088E+03  0.49700985088E+03  0.00000000000E+00 0. -1.
         21   -1    0    0  501  503 -0.00000000000E+00 -0.00000000000E+00 -0.25986276261E+03  0.25986276261E+03  0.00000000000E+00 0.  1.
          6    2    1    2  501    0 -0.15234300766E+03  0.23648020553E+03 -0.33198307803E+02  0.33072621734E+03  0.17072323687E+03 0.  0.
         24    2    3    3    0    0 -0.72607756767E+02  0.21793965959E+03 -0.46002792332E+02  0.24773521239E+03  0.80541275066E+02 0.  0.
         -6    2    1    2    0  502  0.15234300766E+03 -0.23648020553E+03  0.27034539607E+03  0.42614639615E+03  0.17141422982E+03 0.  0.
        -24    2    5    5    0    0  0.12676730445E+03 -0.10753496291E+03  0.21536336276E+03  0.28357674239E+03  0.80004206615E+02 0.  0.
          5    1    3    3  501    0 -0.79735250895E+02  0.18540545933E+02  0.12804484530E+02  0.82991004952E+02  0.47000000000E+01 0. -1.
        -11    1    4    4    0    0 -0.70255837463E+01  0.11036707723E+03  0.75289796251E+01  0.11084645279E+03  0.00000000000E+00 0.  1.
         12    1    4    4    0    0 -0.65582173021E+02  0.10757258236E+03 -0.53531771957E+02  0.13688875960E+03  0.00000000000E+00 0. -1.
         -5    1    5    5    0  502  0.25575703215E+02 -0.12894524261E+03  0.54982033305E+02  0.14256965376E+03  0.47000000000E+01 0.  1.
         13    1    6    6    0    0  0.41037292648E+02 -0.64668806191E+02  0.47058394601E+02  0.89892193123E+02  0.00000000000E+00 0. -1.
        -14    1    6    6    0    0  0.85730011799E+02 -0.42866156723E+02  0.16830496816E+03  0.19368454926E+03  0.00000000000E+00 0.  1.
</event>
<event>
12    1  0.8798177E-003  0.1811809E+03  0.7818608E-02  0.1166768E+00
         21   -1    0    0  503  502  0.00000000000E+00  0.00000000000E+00  0.66829190311E+02  0.66829190311E+02  0.00000000000E+00 0.  1.
         21   -1    0    0  501  503 -0.00000000000E+00 -0.00000000000E+00 -0.49220378867E+03  0.49220378867E+03  0.00000000000E+00 0.  1.
          6    2    1    2  501    0 -0.55055167244E+02 -0.40022349424E+01 -0.19387838945E+03  0.26506528719E+03  0.17211533125E+03 0.  0.
         24    2    3    3    0    0 -0.33008015240E+02 -0.29036153473E+02 -0.27603202628E+02  0.95411811713E+02  0.80055291770E+02 0.  0.
         -6    2    1    2    0  502  0.55055167244E+02  0.40022349424E+01 -0.23149620891E+03  0.29396769179E+03  0.17256714564E+03 0.  0.
        -24    2    5    5    0    0 -0.22643058850E+02  0.43315388035E+02 -0.11345867099E+03  0.14721112907E+03  0.80058200983E+02 0.  0.
          5    1    3    3  501    0 -0.22047152003E+02  0.25033918531E+02 -0.16627518682E+03  0.16965347548E+03  0.47000000000E+01 0. -1.
        -11    1    4    4    0    0 -0.40089343814E+02  0.15168771655E+02 -0.87116477893E-01  0.42863209286E+02  0.00000000000E+00 0.  1.
         12    1    4    4    0    0  0.70813285740E+01 -0.44204925129E+02 -0.27516086150E+02  0.52548602427E+02  0.00000000000E+00 0. -1.
         -5    1    5    5    0  502  0.77698226093E+02 -0.39313153093E+02 -0.11803753792E+03  0.14675656272E+03  0.47000000000E+01 0.  1.
         11    1    6    6    0    0 -0.16551063207E+02 -0.45306767430E+01  0.61618355052E+01  0.18232743672E+02  0.00000000000E+00 0. -1.
        -12    1    6    6    0    0 -0.60919956430E+01  0.47846064778E+02 -0.11962050650E+03  0.12897838540E+03  0.00000000000E+00 0.  1.
</event>
<event>
12    1  0.8798177E-003  0.1813085E+03  0.7818608E-02  0.1167315E+00
         21   -1    0    0  501  502  0.00000000000E+00  0.00000000000E+00  0.54943270070E+02  0.54943270070E+02  0.00000000000E+00 0. -1.
         21   -1    0    0  502  503 -0.00000000000E+00 -0.00000000000E+00 -0.58921651116E+03  0.58921651116E+03  0.00000000000E+00 0. -1.
          6    2    1    2  501    0 -0.57435846854E+02  0.81449109556E+01 -0.25381798742E+03  0.31192361285E+03  0.17177762787E+03 0.  0.
         24    2    3    3    0    0 -0.39772743125E+02 -0.34350967025E+02 -0.64609802955E+02  0.11714242293E+03  0.82377549005E+02 0.  0.
         -6    2    1    2    0  503  0.57435846854E+02 -0.81449109556E+01 -0.28045525367E+03  0.33223616838E+03  0.16840577838E+03 0.  0.
        -24    2    5    5    0    0  0.50195645030E+02 -0.53533310124E+02 -0.10911433477E+03  0.15477539021E+03  0.81633726414E+02 0.  0.
          5    1    3    3  501    0 -0.17663103729E+02  0.42495877981E+02 -0.18920818446E+03  0.19478118992E+03  0.47000000000E+01 0. -1.
        -11    1    4    4    0    0  0.53519593613E+01 -0.42774466137E+02 -0.55614367296E+02  0.70365163768E+02  0.00000000000E+00 0.  1.
         12    1    4    4    0    0 -0.45124702486E+02  0.84234991119E+01 -0.89954356588E+01  0.46777259159E+02  0.00000000000E+00 0. -1.
         -5    1    5    5    0  503  0.72402018250E+01  0.45388399168E+02 -0.17134091890E+03  0.17746077817E+03  0.47000000000E+01 0.  1.
         13    1    6    6    0    0 -0.93012185077E+01 -0.19852964038E+02 -0.75445247871E+02  0.78566139482E+02  0.00000000000E+00 0. -1.
        -14    1    6    6    0    0  0.59496863537E+02 -0.33680346086E+02 -0.33669086900E+02  0.76209250724E+02  0.00000000000E+00 0.  1.
</event>
<event>
12    1  0.8798177E-003  0.3000101E+03  0.7818608E-02  0.1085319E+00
         21   -1    0    0  501  502  0.00000000000E+00  0.00000000000E+00  0.15768127548E+03  0.15768127548E+03  0.00000000000E+00 0.  1.
         21   -1    0    0  502  503 -0.00000000000E+00 -0.00000000000E+00 -0.59815682540E+03  0.59815682540E+03  0.00000000000E+00 0. -1.
          6    2    1    2  501    0  0.24476670743E+03 -0.83915853274E+01 -0.13781532057E+03  0.33015015906E+03  0.17327696089E+03 0.  0.
         24    2    3    3    0    0  0.18879123933E+03  0.81967401458E+01 -0.29374629075E+02  0.20690285020E+03  0.78972159578E+02 0.  0.
         -6    2    1    2    0  503 -0.24476670743E+03  0.83915853274E+01 -0.30266022935E+03  0.42568794183E+03  0.17212161286E+03 0.  0.
        -24    2    5    5    0    0 -0.24660330919E+03  0.39847624067E+02 -0.28805761236E+03  0.39064251556E+03  0.84990362238E+02 0.  0.
          5    1    3    3  501    0  0.55975468094E+02 -0.16588325473E+02 -0.10844069149E+03  0.12324730886E+03  0.47000000000E+01 0. -1.
        -13    1    4    4    0    0  0.16374248966E+03 -0.19405884599E+02 -0.36682025942E+02  0.16891939588E+03  0.00000000000E+00 0.  1.
         14    1    4    4    0    0  0.25048749676E+02  0.27602624745E+02  0.73073968667E+01  0.37983454321E+02  0.00000000000E+00 0. -1.
         -5    1    5    5    0  503  0.18366017680E+01 -0.31456038739E+02 -0.14602616995E+02  0.35045426268E+02  0.47000000000E+01 0.  1.
         13    1    6    6    0    0 -0.79822049619E+02  0.51717870277E+02 -0.84579266676E+02  0.12727902444E+03  0.00000000000E+00 0. -1.
        -14    1    6    6    0    0 -0.16678125958E+03 -0.11870246210E+02 -0.20347834568E+03  0.26336349112E+03  0.00000000000E+00 0.  1.
</event>
<event>
12    1  0.8798177E-003  0.1917213E+03  0.7818608E-02  0.1157078E+00
         21   -1    0    0  501  502  0.00000000000E+00  0.00000000000E+00  0.25292198953E+03  0.25292198953E+03  0.00000000000E+00 0.  1.
         21   -1    0    0  502  503 -0.00000000000E+00 -0.00000000000E+00 -0.23323568406E+03  0.23323568406E+03  0.00000000000E+00 0. -1.
          6    2    1    2  501    0 -0.47986053010E+02  0.66888532501E+02  0.15954498996E+03  0.24942265046E+03  0.17314825346E+03 0.  0.
         24    2    3    3    0    0  0.42248768986E+02  0.37341337523E+02  0.76713233171E+02  0.12333319901E+03  0.78401682806E+02 0.  0.
         -6    2    1    2    0  503  0.47986053010E+02 -0.66888532501E+02 -0.13985868449E+03  0.23673502314E+03  0.17235510578E+03 0.  0.
        -24    2    5    5    0    0 -0.16479540480E+02 -0.53936244202E+02 -0.26747802919E+02  0.10581620842E+03  0.85445487364E+02 0.  0.
          5    1    3    3  501    0 -0.90234821996E+02  0.29547194978E+02  0.82831756792E+02  0.12608945144E+03  0.47000000000E+01 0. -1.
        -11    1    4    4    0    0  0.25908522653E+02  0.42077635341E+02  0.50425537442E+01  0.49670980363E+02  0.00000000000E+00 0.  1.
         12    1    4    4    0    0  0.16340246333E+02 -0.47362978175E+01  0.71670679427E+02  0.73662218652E+02  0.00000000000E+00 0. -1.
         -5    1    5    5    0  503  0.64465593490E+02 -0.12952288299E+02 -0.11311088157E+03  0.13091881472E+03  0.47000000000E+01 0.  1.
         13    1    6    6    0    0 -0.45958061648E+01 -0.67894284733E+02 -0.43679218682E+02  0.80861792451E+02  0.00000000000E+00 0. -1.
        -14    1    6    6    0    0 -0.11883734315E+02  0.13958040531E+02  0.16931415763E+02  0.24954415972E+02  0.00000000000E+00 0.  1.
</event>
<event>
12    1  0.8798177E-003  0.1899215E+03  0.7818608E-02  0.1158534E+00
         21   -1    0    0  501  502  0.00000000000E+00  0.00000000000E+00  0.11921921429E+03  0.11921921429E+03  0.00000000000E+00 0.  1.
         21   -1    0    0  502  503 -0.00000000000E+00 -0.00000000000E+00 -0.34046419469E+03  0.34046419469E+03  0.00000000000E+00 0.  1.
          6    2    1    2  501    0  0.70673582687E+02  0.37108252432E+02 -0.33912353137E+02  0.19292544788E+03  0.17233224612E+03 0.  0.
         24    2    3    3    0    0  0.45441680840E+02  0.72722218088E+02  0.25372648944E+02  0.11915685773E+03  0.78747178161E+02 0.  0.
         -6    2    1    2    0  503 -0.70673582687E+02 -0.37108252432E+02 -0.18733262726E+03  0.26675796111E+03  0.17232097635E+03 0.  0.
        -24    2    5    5    0    0 -0.11040632217E+03 -0.52970158565E+01 -0.15555116269E+03  0.20656828716E+03  0.79099169993E+02 0.  0.
          5    1    3    3  501    0  0.25231901847E+02 -0.35613965656E+02 -0.59285002080E+02  0.73768590146E+02  0.47000000000E+01 0. -1.
        -13    1    4    4    0    0  0.37875410425E+02  0.13192414208E+02  0.40784071898E+02  0.57200760730E+02  0.00000000000E+00 0.  1.
         14    1    4    4    0    0  0.75662704155E+01  0.59529803880E+02 -0.15411422954E+02  0.61956097000E+02  0.00000000000E+00 0. -1.
         -5    1    5    5    0  503  0.39732739487E+02 -0.31811236576E+02 -0.31781464566E+02  0.60189673945E+02  0.47000000000E+01 0.  1.
         11    1    6    6    0    0 -0.43919591779E+02 -0.39230994746E+02 -0.49785748640E+02  0.77114345348E+02  0.00000000000E+00 0. -1.
        -12    1    6    6    0    0 -0.66486730395E+02  0.33933978889E+02 -0.10576541405E+03  0.12945394182E+03  0.00000000000E+00 0.  1.
</event>
<event>
12    1  0.8798177E-003  0.2138659E+03  0.7818608E-02  0.1139245E+00
         21   -1    0    0  501  502  0.00000000000E+00  0.00000000000E+00  0.62264535538E+02  0.62264535538E+02  0.00000000000E+00 0. -1.
         21   -1    0    0  502  503 -0.00000000000E+00 -0.00000000000E+00 -0.10202125007E+04  0.10202125007E+04  0.00000000000E+00 0.  1.
          6    2    1    2  501    0 -0.68470523203E+02 -0.99777362798E+02 -0.18936464225E+03  0.28565290666E+03  0.17633740578E+03 0.  0.
         24    2    3    3    0    0 -0.90848841900E+01 -0.61723859544E+02 -0.20628333758E+02  0.10270822914E+03  0.78937204295E+02 0.  0.
         -6    2    1    2    0  503  0.68470523203E+02  0.99777362798E+02 -0.76858332291E+03  0.79682412957E+03  0.17194369583E+03 0.  0.
        -24    2    5    5    0    0 -0.11706855210E+02  0.82500815959E+02 -0.58299889295E+03  0.59386954912E+03  0.76484620053E+02 0.  0.
          5    1    3    3  501    0 -0.59385639013E+02 -0.38053503253E+02 -0.16873630849E+03  0.18294467752E+03  0.47000000000E+01 0. -1.
        -11    1    4    4    0    0  0.34848034281E+02 -0.23523150344E+02 -0.12901273866E+02  0.43979165098E+02  0.00000000000E+00 0.  1.
         12    1    4    4    0    0 -0.43932918471E+02 -0.38200709201E+02 -0.77270598923E+01  0.58729064043E+02  0.00000000000E+00 0. -1.
         -5    1    5    5    0  503  0.80177378413E+02  0.17276546839E+02 -0.18558442996E+03  0.20295458044E+03  0.47000000000E+01 0.  1.
         13    1    6    6    0    0 -0.14891214476E+01 -0.10795191962E+02 -0.17358245608E+02  0.20495422484E+02  0.00000000000E+00 0. -1.
        -14    1    6    6    0    0 -0.10217733762E+02  0.93296007921E+02 -0.56564064734E+03  0.57337412664E+03  0.00000000000E+00 0.  1.
</event>
<event>
12    1  0.8798177E-003  0.1748462E+03  0.7818608E-02  0.1173863E+00
         21   -1    0    0  501  502  0.00000000000E+00  0.00000000000E+00  0.17822791828E+02  0.17822791828E+02  0.00000000000E+00 0.  1.
         21   -1    0    0  502  503 -0.00000000000E+00 -0.00000000000E+00 -0.17035199396E+04  0.17035199396E+04  0.00000000000E+00 0.  1.
          6    2    1    2  501    0  0.19402845791E+02  0.22432893319E+02 -0.74637248407E+03  0.76657882086E+03  0.17231221225E+03 0.  0.
         24    2    3    3    0    0 -0.38971623553E+02 -0.32326843806E+02 -0.32958718566E+03  0.34215181600E+03  0.76657289100E+02 0.  0.
         -6    2    1    2    0  503 -0.19402845791E+02 -0.22432893319E+02 -0.93932466367E+03  0.95476391053E+03  0.16841495168E+03 0.  0.
        -24    2    5    5    0    0 -0.68150351850E+01 -0.23028771758E+02 -0.21351098491E+03  0.22882562506E+03  0.78723928838E+02 0.  0.
          5    1    3    3  501    0  0.58374469345E+02  0.54759737126E+02 -0.41678529841E+03  0.42442700486E+03  0.47000000000E+01 0. -1.
        -11    1    4    4    0    0 -0.19603236818E+02  0.23378243302E+02 -0.78237598957E+02  0.83975895615E+02  0.00000000000E+00 0.  1.
         12    1    4    4    0    0 -0.19368386735E+02 -0.55705087109E+02 -0.25134958670E+03  0.25817592039E+03  0.00000000000E+00 0. -1.
         -5    1    5    5    0  503 -0.12587810606E+02  0.59587843868E+00 -0.72581367875E+03  0.72593828547E+03  0.47000000000E+01 0.  1.
         13    1    6    6    0    0  0.81076957009E+00 -0.92522306166E+01 -0.21286349313E+03  0.21306601753E+03  0.00000000000E+00 0. -1.
        -14    1    6    6    0    0 -0.76258047551E+01 -0.13776541141E+02 -0.64749178785E+00  0.15759607533E+02  0.00000000000E+00 0.  1.
</event>
<event>
12    1  0.8798177E-003  0.1803975E+03  0.7818608E-02  0.1167489E+00
         21   -1    0    0  501  502  0.00000000000E+00  0.00000000000E+00  0.19920974109E+03  0.19920974109E+03  0.00000000000E+00 0.  1.
         21   -1    0    0  502  503 -0.00000000000E+00 -0.00000000000E+00 -0.20890988335E+03  0.20890988335E+03  0.00000000000E+00 0.  1.
          6    2    1    2  501    0  0.52489966755E+02 -0.62112988726E+01  0.90703909627E+02  0.20191697010E+03  0.17248039526E+03 0.  0.
         24    2    3    3    0    0 -0.95782031702E+01 -0.52364549414E+02  0.20462645768E+02  0.97329660151E+02  0.78870494242E+02 0.  0.
         -6    2    1    2    0  503 -0.52489966755E+02  0.62112988726E+01 -0.10040405189E+03  0.20620265434E+03  0.17217660752E+03 0.  0.
        -24    2    5    5    0    0  0.14257335537E+02 -0.31253363282E+02 -0.10449053347E+02  0.87996076534E+02  0.80337304140E+02 0.  0.
          5    1    3    3  501    0  0.62068169925E+02  0.46153250541E+02  0.70241263859E+02  0.10458730995E+03  0.47000000000E+01 0. -1.
        -11    1    4    4    0    0  0.33689329908E+02 -0.12059150708E+02  0.11072981737E+02  0.37456708210E+02  0.00000000000E+00 0.  1.
         12    1    4    4    0    0 -0.43267533078E+02 -0.40305398706E+02  0.93896640306E+01  0.59872951941E+02  0.00000000000E+00 0. -1.
         -5    1    5    5    0  503 -0.66747302293E+02  0.37464662155E+02 -0.89954998542E+02  0.11820657781E+03  0.47000000000E+01 0.  1.
         11    1    6    6    0    0 -0.16020218435E+02  0.19900575373E+02  0.61533541241E+01  0.26278205149E+02  0.00000000000E+00 0. -1.
        -12    1    6    6    0    0  0.30277553972E+02 -0.51153938655E+02 -0.16602407471E+02  0.61717871385E+02  0.00000000000E+00 0.  1.
</event>
<event>
12    1  0.8798177E-003  0.1995521E+03  0.7818608E-02  0.1152700E+00
         21   -1    0    0  503  502  0.00000000000E+00  0.00000000000E+00  0.44431301720E+03  0.44431301720E+03  0.00000000000E+00 0. -1.
         21   -1    0    0  501  503 -0.00000000000E+00 -0.00000000000E+00 -0.10674638884E+03  0.10674638884E+03  0.00000000000E+00 0.  1.
          6    2    1    2  501    0  0.72135999358E+02 -0.69999876145E+02  0.46822582097E+02  0.20497165720E+03  0.17238747344E+03 0.  0.
         24    2    3    3    0    0  0.17698571161E+01 -0.49447836957E+02  0.78312344532E+02  0.12504997412E+03  0.84002688928E+02 0.  0.
         -6    2    1    2    0  502 -0.72135999358E+02  0.69999876145E+02  0.29074404626E+03  0.34608774884E+03  0.15855927723E+03 0.  0.
        -24    2    5    5    0    0 -0.12232287696E+02  0.77804301824E+02  0.24705693577E+03  0.27138823509E+03  0.80070633758E+02 0.  0.
          5    1    3    3  501    0  0.70366142242E+02 -0.20552039189E+02 -0.31489762436E+02  0.79921683085E+02  0.47000000000E+01 0. -1.
        -11    1    4    4    0    0  0.32321538596E+02 -0.17066987366E+02  0.18819541898E+01  0.36599257732E+02  0.00000000000E+00 0.  1.
         12    1    4    4    0    0 -0.30551681480E+02 -0.32380849591E+02  0.76430390343E+02  0.88450716387E+02  0.00000000000E+00 0. -1.
         -5    1    5    5    0  502 -0.59903711662E+02 -0.78044256785E+01  0.43687110499E+02  0.74699513752E+02  0.47000000000E+01 0.  1.
         11    1    6    6    0    0 -0.42422200977E+02  0.20224384281E+02  0.11359856627E+03  0.12293617496E+03  0.00000000000E+00 0. -1.
        -12    1    6    6    0    0  0.30189913281E+02  0.57579917543E+02  0.13345836950E+03  0.14845206013E+03  0.00000000000E+00 0.  1.
</event>
<event>
12    1  0.8798177E-003  0.1778055E+03  0.7818608E-02  0.1171466E+00
         21   -1    0    0  503  502  0.00000000000E+00  0.00000000000E+00  0.88645017542E+03  0.88645017542E+03  0.00000000000E+00 0. -1.
         21   -1    0    0  501  503 -0.00000000000E+00 -0.00000000000E+00 -0.41617723185E+02  0.41617723185E+02  0.00000000000E+00 0. -1.
          6    2    1    2  501    0  0.72271598604E+01 -0.19459523896E+02  0.22386352714E+03  0.28214436448E+03  0.17046893768E+03 0.  0.
         24    2    3    3    0    0 -0.18839847121E+02  0.18188112116E+02  0.22247830980E+03  0.23609176220E+03  0.74545117769E+02 0.  0.
         -6    2    1    2    0  502 -0.72271598604E+01  0.19459523896E+02  0.62096892509E+03  0.64592353412E+03  0.17658964039E+03 0.  0.
        -24    2    5    5    0    0 -0.40271610356E+02 -0.35689715527E+02  0.51107017188E+03  0.51851395726E+03  0.69053927468E+02 0.  0.
          5    1    3    3  501    0  0.26067006981E+02 -0.37647636012E+02  0.13852173406E+01  0.46052602286E+02  0.47000000000E+01 0. -1.
        -11    1    4    4    0    0 -0.22343845862E+02  0.45396077138E+02  0.12571534242E+03  0.13551530758E+03  0.00000000000E+00 0.  1.
         12    1    4    4    0    0  0.35039987415E+01 -0.27207965021E+02  0.96762967380E+02  0.10057645462E+03  0.00000000000E+00 0. -1.
         -5    1    5    5    0  502  0.33044450495E+02  0.55149239422E+02  0.10989875322E+03  0.12740957686E+03  0.47000000000E+01 0.  1.
         13    1    6    6    0    0 -0.19390090365E+02 -0.38288492502E+02  0.47359030757E+03  0.47553103336E+03  0.00000000000E+00 0. -1.
        -14    1    6    6    0    0 -0.20881519990E+02  0.25987769758E+01  0.37479864305E+02  0.42982923902E+02  0.00000000000E+00 0.  1.
</event>
<event>
12    1  0.8798177E-003  0.2251181E+03  0.7818608E-02  0.1130201E+00
         21   -1    0    0  501  502  0.00000000000E+00  0.00000000000E+00  0.44663657214E+03  0.44663657214E+03  0.00000000000E+00 0. -1.
         21   -1    0    0  502  503 -0.00000000000E+00 -0.00000000000E+00 -0.11486499423E+03  0.11486499423E+03  0.00000000000E+00 0. -1.
          6    2    1    2  501    0  0.14504022313E+03  0.73936261069E+01  0.13277337734E+03  0.26135594851E+03  0.17200822671E+03 0.  0.
         24    2    3    3    0    0  0.36508360395E+02  0.76262012096E+01  0.12473617590E+03  0.15242520938E+03  0.79267342273E+02 0.  0.
         -6    2    1    2    0  503 -0.14504022313E+03 -0.73936261069E+01  0.19899820057E+03  0.30014561786E+03  0.17145196429E+03 0.  0.
        -24    2    5    5    0    0 -0.63818102310E+02  0.58836824290E+02  0.85659298456E+02  0.14570694977E+03  0.79740063484E+02 0.  0.
          5    1    3    3  501    0  0.10853186274E+03 -0.23257510272E+00  0.80372014351E+01  0.10893073913E+03  0.47000000000E+01 0. -1.
        -11    1    4    4    0    0 -0.13294013869E+02 -0.23434260495E+02  0.25304698243E+02  0.36962455584E+02  0.00000000000E+00 0.  1.
         12    1    4    4    0    0  0.49802374264E+02  0.31060461704E+02  0.99431477661E+02  0.11546275379E+03  0.00000000000E+00 0. -1.
         -5    1    5    5    0  503 -0.81222120822E+02 -0.66230450397E+02  0.11333890211E+03  0.15443866809E+03  0.47000000000E+01 0.  1.
         11    1    6    6    0    0 -0.78135132626E+02  0.48118787625E+02  0.88630969371E+02  0.12757729188E+03  0.00000000000E+00 0. -1.
        -12    1    6    6    0    0  0.14317030316E+02  0.10718036665E+02 -0.29716709153E+01  0.18129657885E+02  0.00000000000E+00 0.  1.
</event>
<event>
12    1  0.8798177E-003  0.2399494E+03  0.7818608E-02  0.1119833E+00
         21   -1    0    0  503  502  0.00000000000E+00  0.00000000000E+00  0.55385894408E+02  0.55385894408E+02  0.00000000000E+00 0. -1.
         21   -1    0    0  501  503 -0.00000000000E+00 -0.00000000000E+00 -0.11632032040E+04  0.11632032040E+04  0.00000000000E+00 0. -1.
          6    2    1    2  501    0  0.12681559288E+03  0.10830877330E+03 -0.75266542385E+03  0.78997670314E+03  0.17246729045E+03 0.  0.
         24    2    3    3    0    0  0.12000992933E+03  0.39978909425E+02 -0.33060098980E+03  0.36233694371E+03  0.77397351290E+02 0.  0.
         -6    2    1    2    0  502 -0.12681559288E+03 -0.10830877330E+03 -0.35515188573E+03  0.42861239525E+03  0.17251880610E+03 0.  0.
        -24    2    5    5    0    0 -0.27766895824E+02 -0.10741328016E+03 -0.24144689746E+03  0.27774039436E+03  0.80836310588E+02 0.  0.
          5    1    3    3  501    0  0.68056635503E+01  0.68329863876E+02 -0.42206443405E+03  0.42763975943E+03  0.47000000000E+01 0. -1.
        -13    1    4    4    0    0  0.53267835832E+02 -0.20851938897E+02 -0.11044569776E+03  0.12438053643E+03  0.00000000000E+00 0.  1.
         14    1    4    4    0    0  0.66742093495E+02  0.60830848323E+02 -0.22015529204E+03  0.23795640728E+03  0.00000000000E+00 0. -1.
         -5    1    5    5    0  502 -0.99048697053E+02 -0.89549314535E+00 -0.11370498827E+03  0.15087200089E+03  0.47000000000E+01 0.  1.
         11    1    6    6    0    0  0.51437716550E+01 -0.33155012039E+02 -0.15710057773E+03  0.16064340862E+03  0.00000000000E+00 0. -1.
        -12    1    6    6    0    0 -0.32910667479E+02 -0.74258268117E+02 -0.84346319731E+02  0.11709698574E+03  0.00000000000E+00 0.  1.
</event>
<event>
12    1  0.8798177E-003  0.2012560E+03  0.7818608E-02  0.1148960E+00
         21   -1    0    0  501  502  0.00000000000E+00  0.00000000000E+00  0.30638753712E+03  0.30638753712E+03  0.00000000000E+00 0. -1.
         21   -1    0    0  502  503 -0.00000000000E+00 -0.00000000000E+00 -0.26921455784E+03  0.26921455784E+03  0.00000000000E+00 0.  1.
          6    2    1    2  501    0  0.98791848720E+02  0.27544535019E+02  0.22452181614E+03  0.30064104244E+03  0.17162884283E+03 0.  0.
         24    2    3    3    0    0 -0.16845307357E+02  0.22894532126E+01  0.98373467393E+02  0.12759403462E+03  0.79460006341E+02 0.  0.
         -6    2    1    2    0  503 -0.98791848720E+02 -0.27544535019E+02 -0.18734883686E+03  0.27496105253E+03  0.17316311082E+03 0.  0.
        -24    2    5    5    0    0 -0.25421747603E+02 -0.78626509949E+02 -0.11324248175E+03  0.15874409263E+03  0.74481097954E+02 0.  0.
          5    1    3    3  501    0  0.11563715608E+03  0.25255081807E+02  0.12614834874E+03  0.17304700781E+03  0.47000000000E+01 0. -1.
        -11    1    4    4    0    0 -0.21156126688E+02 -0.11626098797E+02 -0.37561498405E+01  0.24430647378E+02  0.00000000000E+00 0.  1.
         12    1    4    4    0    0  0.43108193309E+01  0.13915552010E+02  0.10212961723E+03  0.10316338724E+03  0.00000000000E+00 0. -1.
         -5    1    5    5    0  503 -0.73370101118E+02  0.51081974930E+02 -0.74106355109E+02  0.11621695990E+03  0.47000000000E+01 0.  1.
         13    1    6    6    0    0  0.67849730810E+01  0.81803052732E+00  0.78317185972E+01  0.10394270048E+02  0.00000000000E+00 0. -1.
        -14    1    6    6    0    0 -0.32206720684E+02 -0.79444540477E+02 -0.12107420035E+03  0.14834982258E+03  0.00000000000E+00 0.  1.
</event>
<event>
12    1  0.8798177E-003  0.1732983E+03  0.7818608E-02  0.1174777E+00
         21   -1    0    0  501  502  0.00000000000E+00  0.00000000000E+00  0.32335227460E+03  0.32335227460E+03  0.00000000000E+00 0.  1.
         21   -1    0    0  502  503 -0.00000000000E+00 -0.00000000000E+00 -0.92201559858E+02  0.92201559858E+02  0.00000000000E+00 0.  1.
          6    2    1    2  501    0  0.18372106414E+02 -0.84614479957E+01  0.11773552010E+03  0.20950885606E+03  0.17211385092E+03 0.  0.
         24    2    3    3    0    0  0.81200265257E+02 -0.34691615561E+00  0.60958580672E+02  0.12430947800E+03  0.71716764675E+02 0.  0.
         -6    2    1    2    0  503 -0.18372106414E+02  0.84614479957E+01  0.11341519464E+03  0.20604497839E+03  0.17082855835E+03 0.  0.
        -24    2    5    5    0    0 -0.47051845282E+02 -0.48024371034E+02  0.92356346989E+02  0.13912158758E+03  0.79403431569E+02 0.  0.
          5    1    3    3  501    0 -0.62828158844E+02 -0.81145318401E+01  0.56776939426E+02  0.85199378057E+02  0.47000000000E+01 0. -1.
        -13    1    4    4    0    0  0.26029121406E+02  0.27701079089E+02  0.47736281240E+02  0.61021451069E+02  0.00000000000E+00 0.  1.
         14    1    4    4    0    0  0.55171143852E+02 -0.28047995245E+02  0.13222299431E+02  0.63288026936E+02  0.00000000000E+00 0. -1.
         -5    1    5    5    0  503  0.28679738868E+02  0.56485819030E+02  0.21058847651E+02  0.66923390809E+02  0.47000000000E+01 0.  1.
         13    1    6    6    0    0  0.14181207851E+02 -0.37241767583E+02  0.23144847935E+02  0.46084052499E+02  0.00000000000E+00 0. -1.
        -14    1    6    6    0    0 -0.61233053133E+02 -0.10782603451E+02  0.69211499054E+02  0.93037535084E+02  0.00000000000E+00 0.  1.
</event>
<event>
12    1  0.8798177E-003  0.1974585E+03  0.7818608E-02  0.1152624E+00
         21   -1    0    0  503  502  0.00000000000E+00  0.00000000000E+00  0.26780807641E+03  0.26780807641E+03  0.00000000000E+00 0.  1.
         21   -1    0    0  501  503 -0.00000000000E+00 -0.00000000000E+00 -0.23375825264E+03  0.23375825264E+03  0.00000000000E+00 0.  1.
          6    2    1    2  501    0 -0.79553639945E+02 -0.43859133666E+02  0.17325765650E+03  0.26269385565E+03  0.17532096574E+03 0.  0.
         24    2    3    3    0    0 -0.85118518280E+02  0.21023282896E+02  0.15412639402E+03  0.19465863644E+03  0.80311262146E+02 0.  0.
         -6    2    1    2    0  502  0.79553639945E+02  0.43859133666E+02 -0.13920783273E+03  0.23887247339E+03  0.17154833901E+03 0.  0.
        -24    2    5    5    0    0  0.64348825734E+02  0.93753223465E+02 -0.77107747387E+02  0.15763752296E+03  0.77288716222E+02 0.  0.
          5    1    3    3  501    0  0.55648783343E+01 -0.64882416562E+02  0.19131262481E+02  0.68035219217E+02  0.47000000000E+01 0. -1.
        -13    1    4    4    0    0 -0.50671348597E+01 -0.23576377613E+02  0.52768724740E+02  0.58017753729E+02  0.00000000000E+00 0.  1.
         14    1    4    4    0    0 -0.80051383420E+02  0.44599660509E+02  0.10135766928E+03  0.13664088271E+03  0.00000000000E+00 0. -1.
         -5    1    5    5    0  502  0.15204814211E+02 -0.49894089800E+02 -0.62100085341E+02  0.81234950431E+02  0.47000000000E+01 0.  1.
         11    1    6    6    0    0 -0.16422940546E+02  0.30502887037E+02 -0.15334159979E+02  0.37885030765E+02  0.00000000000E+00 0. -1.
        -12    1    6    6    0    0  0.80771766281E+02  0.63250336428E+02 -0.61773587408E+02  0.11975249220E+03  0.00000000000E+00 0.  1.
</event>
<event>
12    1  0.8798177E-003  0.1854389E+03  0.7818608E-02  0.1162764E+00
         21   -1    0    0  503  502  0.00000000000E+00  0.00000000000E+00  0.63569212864E+03  0.63569212864E+03  0.00000000000E+00 0. -1.
         21   -1    0    0  501  503 -0.00000000000E+00 -0.00000000000E+00 -0.66881919226E+02  0.66881919226E+02  0.00000000000E+00 0. -1.
          6    2    1    2  501    0 -0.38229135475E+02 -0.55666561984E+02  0.12955618665E+03  0.22578092879E+03  0.17213944749E+03 0.  0.
         24    2    3    3    0    0 -0.88626251992E+01 -0.68456564385E+01  0.14603830699E+03  0.16628619763E+03  0.78730573960E+02 0.  0.
         -6    2    1    2    0  502  0.38229135475E+02  0.55666561984E+02  0.43925402276E+03  0.47679311908E+03  0.17270596101E+03 0.  0.
        -24    2    5    5    0    0  0.72267472070E+02 -0.11533286847E+02  0.29159074459E+03  0.31095897977E+03  0.79465215934E+02 0.  0.
          5    1    3    3  501    0 -0.29366510276E+02 -0.48820905546E+02 -0.16482120340E+02  0.59494731153E+02  0.47000000000E+01 0. -1.
        -13    1    4    4    0    0 -0.23343365173E+01  0.31875140909E+02  0.10382585819E+03  0.10863370823E+03  0.00000000000E+00 0.  1.
         14    1    4    4    0    0 -0.65282886819E+01 -0.38720797348E+02  0.42212448806E+02  0.57652489404E+02  0.00000000000E+00 0. -1.
         -5    1    5    5    0  502 -0.34038336595E+02  0.67199848831E+02  0.14766327817E+03  0.16583413931E+03  0.47000000000E+01 0.  1.
         11    1    6    6    0    0  0.84696654265E+02  0.72442182927E+01  0.21748512978E+03  0.23350756651E+03  0.00000000000E+00 0. -1.
        -12    1    6    6    0    0 -0.12429182195E+02 -0.18777505140E+02  0.74105614809E+02  0.77451413257E+02  0.00000000000E+00 0.  1.
</event>
<event>
12    1  0.8798177E-003  0.1771127E+03  0.7818608E-02  0.1171108E+00
         21   -1    0    0  501  502  0.00000000000E+00  0.00000000000E+00  0.94052953447E+03  0.94052953447E+03  0.00000000000E+00 0. -1.
         21   -1    0    0  502  503 -0.00000000000E+00 -0.00000000000E+00 -0.33072885348E+02  0.33072885348E+02  0.00000000000E+00 0. -1.
          6    2    1    2  501    0 -0.27709901434E+02  0.21369373850E+02  0.42672689481E+03  0.46128414052E+03  0.17164709948E+03 0.  0.
         24    2    3    3    0    0  0.89171554520E+01 -0.32354793579E+02  0.35338783374E+03  0.36315904006E+03  0.76649716292E+02 0.  0.
         -6    2    1    2    0  503  0.27709901434E+02 -0.21369373850E+02  0.48072975431E+03  0.51231827930E+03  0.17362152474E+03 0.  0.
        -24    2    5    5    0    0  0.44838989575E+02  0.72096870869E+01  0.46650749180E+03  0.47578704423E+03  0.81740791436E+02 0.  0.
          5    1    3    3  501    0 -0.36627056886E+02  0.53724167429E+02  0.73339061071E+02  0.98125100463E+02  0.47000000000E+01 0. -1.
        -11    1    4    4    0    0 -0.26672684132E+02 -0.32143344009E+02  0.11973772640E+03  0.12681383902E+03  0.00000000000E+00 0.  1.
         12    1    4    4    0    0  0.35589839584E+02 -0.21144957004E+00  0.23365010734E+03  0.23634520104E+03  0.00000000000E+00 0. -1.
         -5    1    5    5    0  503 -0.17129088142E+02 -0.28579060937E+02  0.14222262515E+02  0.36531235069E+02  0.47000000000E+01 0.  1.
         11    1    6    6    0    0  0.40299714166E+02 -0.33313427400E+02  0.23877207787E+03  0.24442986024E+03  0.00000000000E+00 0. -1.
        -12    1    6    6    0    0  0.45392754094E+01  0.40523114487E+02  0.22773541393E+03  0.23135718399E+03  0.00000000000E+00 0.  1.
</event>
<event>
12    1  0.8798177E-003  0.1941039E+03  0.7818608E-02  0.1155206E+00
         21   -1    0    0  503  502  0.00000000000E+00  0.00000000000E+00  0.17505254833E+03  0.17505254833E+03  0.00000000000E+00 0. -1.
         21   -1    0    0  501  503 -0.00000000000E+00 -0.00000000000E+00 -0.22447661157E+03  0.22447661157E+03  0.00000000000E+00 0.  1.
          6    2    1    2  501    0  0.87563182108E+02 -0.16495721803E+02 -0.69286938680E+02  0.20441163922E+03  0.17042305794E+03 0.  0.
         24    2    3    3    0    0  0.11262118916E+02  0.10305033818E+02 -0.88484207413E+02  0.12116046581E+03  0.81347246238E+02 0.  0.
         -6    2    1    2    0  502 -0.87563182108E+02  0.16495721803E+02  0.19862875436E+02  0.19511752068E+03  0.17244388467E+03 0.  0.
        -24    2    5    5    0    0  0.45425965694E+01  0.48474358546E+02  0.25181834214E+02  0.97360224302E+02  0.80464214913E+02 0.  0.
          5    1    3    3  501    0  0.76301063192E+02 -0.26800755621E+02  0.19197268732E+02  0.83251173402E+02  0.47000000000E+01 0. -1.
        -11    1    4    4    0    0  0.41870065795E+02 -0.49978685891E+01 -0.71377670009E+02  0.82902671103E+02  0.00000000000E+00 0.  1.
         12    1    4    4    0    0 -0.30607946879E+02  0.15302902407E+02 -0.17106537403E+02  0.38257794711E+02  0.00000000000E+00 0. -1.
         -5    1    5    5    0  502 -0.92105778677E+02 -0.31978636743E+02 -0.53189587779E+01  0.97757296383E+02  0.47000000000E+01 0.  1.
         13    1    6    6    0    0  0.24664989483E+02 -0.42553307614E+01 -0.13976614594E+02  0.28667321145E+02  0.00000000000E+00 0. -1.
        -14    1    6    6    0    0 -0.20122392914E+02  0.52729689308E+02  0.39158448808E+02  0.68692903157E+02  0.00000000000E+00 0.  1.
</event>
<event>
12    1  0.8798177E-003  0.2017557E+03  0.7818608E-02  0.1148336E+00
         21   -1    0    0  501  502  0.00000000000E+00  0.00000000000E+00  0.12650638541E+04  0.12650638541E+04  0.00000000000E+00 0. -1.
         21   -1    0    0  502  503 -0.00000000000E+00 -0.00000000000E+00 -0.53373685838E+02  0.53373685838E+02  0.00000000000E+00 0. -1.
          6    2    1    2  501    0  0.56364445964E+01 -0.10456523518E+03  0.10215007796E+04  0.10411698725E+04  0.17206162509E+03 0.  0.
         24    2    3    3    0    0  0.91118663734E+01  0.14424916768E+02  0.42233695134E+03  0.43027698674E+03  0.80490251067E+02 0.  0.
         -6    2    1    2    0  503 -0.56364445964E+01  0.10456523518E+03  0.19018938867E+03  0.27726766741E+03  0.17245201627E+03 0.  0.
        -24    2    5    5    0    0  0.48194826489E+02  0.10020504734E+03  0.17315867679E+03  0.22044379803E+03  0.79042696880E+02 0.  0.
          5    1    3    3  501    0 -0.34754217770E+01 -0.11899015195E+03  0.59916382827E+03  0.61089288580E+03  0.47000000000E+01 0. -1.
        -13    1    4    4    0    0 -0.30889591851E+01 -0.24717198696E+02  0.51793061233E+02  0.57471756299E+02  0.00000000000E+00 0.  1.
         14    1    4    4    0    0  0.12200825559E+02  0.39142115464E+02  0.37054389011E+03  0.37280523044E+03  0.00000000000E+00 0. -1.
         -5    1    5    5    0  503 -0.53831271085E+02  0.43601878359E+01  0.17030711884E+02  0.56823869385E+02  0.47000000000E+01 0.  1.
         11    1    6    6    0    0  0.39915822414E+02  0.81791005460E+02  0.68641008045E+02  0.11399398861E+03  0.00000000000E+00 0. -1.
        -12    1    6    6    0    0  0.82790040748E+01  0.18414041883E+02  0.10451766874E+03  0.10644980942E+03  0.00000000000E+00 0.  1.
</event>
<event>
12    1  0.8798177E-003  0.2818221E+03  0.7818608E-02  0.1094835E+00
         21   -1    0    0  503  502  0.00000000000E+00  0.00000000000E+00  0.18284161665E+03  0.18284161665E+03  0.00000000000E+00 0. -1.
         21   -1    0    0  501  503 -0.00000000000E+00 -0.00000000000E+00 -0.44708609902E+03  0.44708609902E+03  0.00000000000E+00 0.  1.
          6    2    1    2  501    0  0.18643498871E+03 -0.12313024116E+03 -0.18858541574E+03  0.33909906006E+03  0.17176918290E+03 0.  0.
         24    2    3    3    0    0  0.96574569941E+02 -0.58990069674E+02 -0.23049997915E+02  0.14006911001E+03  0.79256402236E+02 0.  0.
         -6    2    1    2    0  502 -0.18643498871E+03  0.12313024116E+03 -0.75659066626E+02  0.29082865561E+03  0.17011158472E+03 0.  0.
        -24    2    5    5    0    0 -0.73583564250E+02  0.87385715364E+02  0.15968568638E+02  0.14105940419E+03  0.81190862466E+02 0.  0.
          5    1    3    3  501    0  0.89860418770E+02 -0.64140171489E+02 -0.16553541783E+03  0.19902995005E+03  0.47000000000E+01 0. -1.
        -11    1    4    4    0    0  0.62148113000E+02  0.77688134061E+01 -0.50853521474E+01  0.62837912264E+02  0.00000000000E+00 0.  1.
         12    1    4    4    0    0  0.34426456940E+02 -0.66758883080E+02 -0.17964645767E+02  0.77231197745E+02  0.00000000000E+00 0. -1.
         -5    1    5    5    0  502 -0.11285142446E+03  0.35744525798E+02 -0.91627635264E+02  0.14976925142E+03  0.47000000000E+01 0.  1.
         13    1    6    6    0    0 -0.15886686985E+02  0.77056685870E+02  0.23136391485E+02  0.82008610959E+02  0.00000000000E+00 0. -1.
        -14    1    6    6    0    0 -0.57696877266E+02  0.10329029495E+02 -0.71678228472E+01  0.59050793228E+02  0.00000000000E+00 0.  1.
</event>
<event>
12    1  0.8798177E-003  0.2322155E+03  0.7818608E-02  0.1125239E+00
         21   -1    0    0  503  502  0.00000000000E+00  0.00000000000E+00  0.42685673643E+03  0.42685673643E+03  0.00000000000E+00 0. -1.
         21   -1    0    0  501  503 -0.00000000000E+00 -0.00000000000E+00 -0.21472056041E+03  0.21472056041E+03  0.00000000000E+00 0. -1.
          6    2    1    2  501    0 -0.37091940625E+02  0.15122360678E+03 -0.10040738923E+03  0.25220918222E+03  0.17112403828E+03 0.  0.
         24    2    3    3    0    0 -0.32723117616E+02  0.17673436446E+03 -0.62379219812E+02  0.20596940453E+03  0.78907480833E+02 0.  0.
         -6    2    1    2    0  502  0.37091940625E+02 -0.15122360678E+03  0.31254356525E+03  0.38936811462E+03  0.17227784883E+03 0.  0.
        -24    2    5    5    0    0  0.47169919145E+02 -0.73661417680E+02  0.28223060779E+03  0.30535368598E+03  0.77043830666E+02 0.  0.
          5    1    3    3  501    0 -0.43688230092E+01 -0.25510757674E+02 -0.38028169421E+02  0.46239777693E+02  0.47000000000E+01 0. -1.
        -11    1    4    4    0    0 -0.61663802047E+01  0.97683451356E+02  0.60936707661E+01  0.98067393853E+02  0.00000000000E+00 0.  1.
         12    1    4    4    0    0 -0.26556737411E+02  0.79050913102E+02 -0.68472890578E+02  0.10790201068E+03  0.00000000000E+00 0. -1.
         -5    1    5    5    0  502 -0.10077978520E+02 -0.77562189103E+02  0.30312957464E+02  0.84014428640E+02  0.47000000000E+01 0.  1.
         13    1    6    6    0    0 -0.76372901385E+01  0.12379446009E+02  0.34566971359E+02  0.37502725142E+02  0.00000000000E+00 0. -1.
        -14    1    6    6    0    0  0.54807209284E+02 -0.86040863689E+02  0.24766363643E+03  0.26785096084E+03  0.00000000000E+00 0.  1.
</event>
<event>
12    1  0.8798177E-003  0.2663520E+03  0.7818608E-02  0.1104432E+00
         21   -1    0    0  503  502  0.00000000000E+00  0.00000000000E+00  0.12808818029E+03  0.12808818029E+03  0.00000000000E+00 0. -1.
         21   -1    0    0  501  503 -0.00000000000E+00 -0.00000000000E+00 -0.57605999433E+03  0.57605999433E+03  0.00000000000E+00 0. -1.
          6    2    1    2  501    0  0.13814610401E+03  0.14909698090E+03 -0.31017099598E+03  0.40426081011E+03  0.16095496289E+03 0.  0.
         24    2    3    3    0    0  0.52069288676E+02  0.28532881237E+02 -0.12528958519E+03  0.16730480930E+03  0.93638042073E+02 0.  0.
         -6    2    1    2    0  502 -0.13814610401E+03 -0.14909698090E+03 -0.13780081806E+03  0.29988736451E+03  0.17213108424E+03 0.  0.
        -24    2    5    5    0    0 -0.42025930744E+02 -0.46178148354E+02  0.13840238119E+00  0.10270548821E+03  0.81546293068E+02 0.  0.
          5    1    3    3  501    0  0.86076815339E+02  0.12056409967E+03 -0.18488141078E+03  0.23695600081E+03  0.47000000000E+01 0. -1.
        -13    1    4    4    0    0 -0.63418175938E+01 -0.27587888895E+02 -0.45618248106E+02  0.53687380494E+02  0.00000000000E+00 0.  1.
         14    1    4    4    0    0  0.58411106270E+02  0.56120770132E+02 -0.79671337086E+02  0.11361742881E+03  0.00000000000E+00 0. -1.
         -5    1    5    5    0  502 -0.96120173271E+02 -0.10291883255E+03 -0.13793922044E+03  0.19718187630E+03  0.47000000000E+01 0.  1.
         11    1    6    6    0    0  0.15157870624E+02 -0.38965344603E+02 -0.12620941859E+02  0.43673187372E+02  0.00000000000E+00 0. -1.
        -12    1    6    6    0    0 -0.57183801368E+02 -0.72128037510E+01  0.12759344240E+02  0.59032300838E+02  0.00000000000E+00 0.  1.
</event>
<event>
12    1  0.8798177E-003  0.1867869E+03  0.7818608E-02  0.1161394E+00
         21   -1    0    0  501  502  0.00000000000E+00  0.00000000000E+00  0.12741955548E+02  0.12741955548E+02  0.00000000000E+00 0. -1.
         21   -1    0    0  502  503 -0.00000000000E+00 -0.00000000000E+00 -0.27385367685E+04  0.27385367685E+04  0.00000000000E+00 0. -1.
          6    2    1    2  501    0  0.63201503143E+02 -0.36589208009E+02 -0.13823293012E+04  0.13948905380E+04  0.17190728866E+03 0.  0.
         24    2    3    3    0    0  0.42153152858E+02  0.44225727234E+02 -0.87307985474E+03  0.87881769864E+03  0.79494096851E+02 0.  0.
         -6    2    1    2    0  503 -0.63201503143E+02  0.36589208009E+02 -0.13434655118E+04  0.13563881861E+04  0.17191896303E+03 0.  0.
        -24    2    5    5    0    0 -0.77746112115E+02 -0.43530869422E+01 -0.12244319520E+04  0.12295856012E+04  0.81140239122E+02 0.  0.
          5    1    3    3  501    0  0.21048350285E+02 -0.80814935243E+02 -0.50924944642E+03  0.51607283932E+03  0.47000000000E+01 0. -1.
        -13    1    4    4    0    0 -0.18521961786E+02  0.55829433147E+01 -0.38281287565E+03  0.38330135675E+03  0.00000000000E+00 0.  1.
         14    1    4    4    0    0  0.60675114644E+02  0.38642783919E+02 -0.49026697909E+03  0.49551634189E+03  0.00000000000E+00 0. -1.
         -5    1    5    5    0  503  0.14544608972E+02  0.40942294951E+02 -0.11903355981E+03  0.12680258486E+03  0.47000000000E+01 0.  1.
         11    1    6    6    0    0 -0.57034884647E+02 -0.79321267833E+01 -0.33554616748E+03  0.34045135808E+03  0.00000000000E+00 0. -1.
        -12    1    6    6    0    0 -0.20711227468E+02  0.35790398411E+01 -0.88888578449E+03  0.88913424315E+03  0.00000000000E+00 0.  1.
</event>
<event>
12    1  0.8798177E-003  0.1789607E+03  0.7818608E-02  0.1168982E+00
         21   -1    0    0  503  502  0.00000000000E+00  0.00000000000E+00  0.19958145427E+04  0.19958145427E+04  0.00000000000E+00 0.  1.
         21   -1    0    0  501  503 -0.00000000000E+00 -0.00000000000E+00 -0.22794937216E+02  0.22794937216E+02  0.00000000000E+00 0.  1.
          6    2    1    2  501    0  0.25074776097E+02 -0.38011300412E+02  0.43618708442E+03  0.47147227662E+03  0.17307030840E+03 0.  0.
         24    2    3    3    0    0  0.79526614579E+02 -0.18634829426E+01  0.29362574459E+03  0.31457264935E+03  0.80074458096E+02 0.  0.
         -6    2    1    2    0  502 -0.25074776097E+02  0.38011300412E+02  0.15368325210E+04  0.15471372033E+04  0.17235348756E+03 0.  0.
        -24    2    5    5    0    0 -0.25932050585E+02  0.34508493711E+02  0.36661586473E+03  0.37690555215E+03  0.76074276785E+02 0.  0.
          5    1    3    3  501    0 -0.54451838483E+02 -0.36147817469E+02  0.14256133983E+03  0.15689962726E+03  0.47000000000E+01 0. -1.
        -11    1    4    4    0    0  0.14670810392E+02 -0.34150391229E+02  0.66627322239E+02  0.76293393996E+02  0.00000000000E+00 0.  1.
         12    1    4    4    0    0  0.64855804187E+02  0.32286908286E+02  0.22699842235E+03  0.23827925536E+03  0.00000000000E+00 0. -1.
         -5    1    5    5    0  502  0.85727448827E+00  0.35028067009E+01  0.11702166563E+04  0.11702316511E+04  0.47000000000E+01 0.  1.
         11    1    6    6    0    0  0.13564328221E+01  0.29495952395E+01 -0.33088653799E+01  0.46355811049E+01  0.00000000000E+00 0. -1.
        -12    1    6    6    0    0 -0.27288483407E+02  0.31558898471E+02  0.36992473011E+03  0.37226997105E+03  0.00000000000E+00 0.  1.
</event>
<event>
12    1  0.8798177E-003  0.2192212E+03  0.7818608E-02  0.1135489E+00
         21   -1    0    0  501  502  0.00000000000E+00  0.00000000000E+00  0.10252277883E+03  0.10252277883E+03  0.00000000000E+00 0. -1.
         21   -1    0    0  502  503 -0.00000000000E+00 -0.00000000000E+00 -0.82661443487E+03  0.82661443487E+03  0.00000000000E+00 0. -1.
          6    2    1    2  501    0  0.34336740222E+02  0.12935118246E+03 -0.54024102768E+02  0.22577980087E+03  0.17362941764E+03 0.  0.
         24    2    3    3    0    0 -0.38525167493E+02  0.33026210613E+02 -0.68346754917E+02  0.10406461627E+03  0.59860223308E+02 0.  0.
         -6    2    1    2    0  503 -0.34336740222E+02 -0.12935118246E+03 -0.67006755327E+03  0.70335741282E+03  0.16676445693E+03 0.  0.
        -24    2    5    5    0    0  0.32610160813E+01 -0.12941497997E+03 -0.41621030592E+03  0.44668800019E+03  0.97674354330E+02 0.  0.
          5    1    3    3  501    0  0.72861907716E+02  0.96324971850E+02  0.14322652149E+02  0.12171518460E+03  0.47000000000E+01 0. -1.
        -11    1    4    4    0    0  0.14519546802E+02  0.14826605971E+02 -0.96562364217E+01  0.22888608210E+02  0.00000000000E+00 0.  1.
         12    1    4    4    0    0 -0.53044714295E+02  0.18199604642E+02 -0.58690518495E+02  0.81176008063E+02  0.00000000000E+00 0. -1.
         -5    1    5    5    0  503 -0.37597756304E+02  0.63797506946E-01 -0.25385724735E+03  0.25666941264E+03  0.47000000000E+01 0.  1.
         11    1    6    6    0    0 -0.34485644833E+02 -0.78419527587E+02 -0.32129941906E+03  0.33252398214E+03  0.00000000000E+00 0. -1.
        -12    1    6    6    0    0  0.37746660915E+02 -0.50995452382E+02 -0.94910886854E+02  0.11416401805E+03  0.00000000000E+00 0.  1.
</event>
<event>
12    1  0.8798177E-003  0.1794351E+03  0.7818608E-02  0.1171153E+00
         21   -1    0    0  501  502  0.00000000000E+00  0.00000000000E+00  0.98432335196E+02  0.98432335196E+02  0.00000000000E+00 0.  1.
         21   -1    0    0  502  503 -0.00000000000E+00 -0.00000000000E+00 -0.33201700081E+03  0.33201700081E+03  0.00000000000E+00 0.  1.
          6    2    1    2  501    0 -0.94116029569E+01  0.51458546797E+02 -0.61319343526E+02  0.18962338435E+03  0.17164033819E+03 0.  0.
         24    2    3    3    0    0 -0.89816404571E+01  0.35457799925E+02 -0.10827134396E+03  0.13979579045E+03  0.80512444160E+02 0.  0.
         -6    2    1    2    0  503  0.94116029569E+01 -0.51458546797E+02 -0.17226532209E+03  0.24082595166E+03  0.15995386050E+03 0.  0.
        -24    2    5    5    0    0 -0.25275786653E+02  0.16928860758E+02 -0.58354258172E+02  0.10342917952E+03  0.79793007292E+02 0.  0.
          5    1    3    3  501    0 -0.42996249982E+00  0.16000746872E+02  0.46952000437E+02  0.49827593894E+02  0.47000000000E+01 0. -1.
        -11    1    4    4    0    0 -0.27468152225E+02  0.72209274409E+00 -0.32795579586E+01  0.27672663496E+02  0.00000000000E+00 0.  1.
         12    1    4    4    0    0  0.18486511768E+02  0.34735707180E+02 -0.10499178600E+03  0.11212312696E+03  0.00000000000E+00 0. -1.
         -5    1    5    5    0  503  0.34687389609E+02 -0.68387407555E+02 -0.11391106392E+03  0.13739677214E+03  0.47000000000E+01 0.  1.
         11    1    6    6    0    0 -0.46508044272E+02  0.67368407330E+01 -0.77708178522E+01  0.47631594716E+02  0.00000000000E+00 0. -1.
        -12    1    6    6    0    0  0.21232257620E+02  0.10192020025E+02 -0.50583440320E+02  0.55797584808E+02  0.00000000000E+00 0.  1.
</event>
<event>
12    1  0.8798177E-003  0.2338817E+03  0.7818608E-02  0.1123988E+00
         21   -1    0    0  501  502  0.00000000000E+00  0.00000000000E+00  0.84703266204E+02  0.84703266204E+02  0.00000000000E+00 0.  1.
         21   -1    0    0  502  503 -0.00000000000E+00 -0.00000000000E+00 -0.78205312051E+03  0.78205312051E+03  0.00000000000E+00 0. -1.
          6    2    1    2  501    0 -0.15322197165E+03 -0.33865008975E+02 -0.16705244299E+03  0.28717379538E+03  0.17302733488E+03 0.  0.
         24    2    3    3    0    0 -0.72403754572E+02  0.39255095112E+02 -0.43731899559E+02  0.12252817513E+03  0.79482126885E+02 0.  0.
         -6    2    1    2    0  503  0.15322197165E+03  0.33865008975E+02 -0.53029741131E+03  0.57958259133E+03  0.17342671162E+03 0.  0.
        -24    2    5    5    0    0  0.12436075787E+01  0.14906139960E+02 -0.17911700466E+03  0.19642905830E+03  0.79232152678E+02 0.  0.
          5    1    3    3  501    0 -0.80818217077E+02 -0.73120104087E+02 -0.12332054344E+03  0.16464562025E+03  0.47000000000E+01 0. -1.
        -13    1    4    4    0    0  0.69689109403E+01 -0.65774316827E+01  0.11924796621E+02  0.15298009730E+02  0.00000000000E+00 0.  1.
         14    1    4    4    0    0 -0.79372665513E+02  0.45832526795E+02 -0.55656696180E+02  0.10723016540E+03  0.00000000000E+00 0. -1.
         -5    1    5    5    0  503  0.15197836407E+03  0.18958869015E+02 -0.35118040665E+03  0.38315353304E+03  0.47000000000E+01 0.  1.
         11    1    6    6    0    0 -0.24008027954E+02 -0.22019814668E+02 -0.49036051564E+02  0.58870977547E+02  0.00000000000E+00 0. -1.
        -12    1    6    6    0    0  0.25251635533E+02  0.36925954628E+02 -0.13008095309E+03  0.13755808075E+03  0.00000000000E+00 0.  1.
</event>
<event>
12    1  0.8798177E-003  0.1785333E+03  0.7818608E-02  0.1169633E+00
         21   -1    0    0  503  502  0.00000000000E+00  0.00000000000E+00  0.18513406287E+03  0.18513406287E+03  0.00000000000E+00 0. -1.
         21   -1    0    0  501  503 -0.00000000000E+00 -0.00000000000E+00 -0.21002879045E+03  0.21002879045E+03  0.00000000000E+00 0. -1.
          6    2    1    2  501    0  0.44923049344E+02 -0.10083639714E+02 -0.98016511434E+02  0.20223560897E+03  0.17079884330E+03 0.  0.
         24    2    3    3    0    0  0.29721834926E+02  0.61760602102E+02 -0.71718302971E+02  0.12409242136E+03  0.74549678839E+02 0.  0.
         -6    2    1    2    0  502 -0.44923049344E+02  0.10083639714E+02  0.73121783850E+02  0.19292724434E+03  0.17249453958E+03 0.  0.
        -24    2    5    5    0    0 -0.55046850322E+02 -0.14191195105E+00  0.11384582201E+03  0.14948083440E+03  0.79708674514E+02 0.  0.
          5    1    3    3  501    0  0.15201214418E+02 -0.71844241816E+02 -0.26298208462E+02  0.78143187613E+02  0.47000000000E+01 0. -1.
        -13    1    4    4    0    0  0.28797886992E+02 -0.55893075940E+00  0.35813208491E+00  0.28805536922E+02  0.00000000000E+00 0.  1.
         14    1    4    4    0    0  0.92394793436E+00  0.62319532861E+02 -0.72076435056E+02  0.95286884440E+02  0.00000000000E+00 0. -1.
         -5    1    5    5    0  502  0.10123800978E+02  0.10225551665E+02 -0.40724038162E+02  0.43446409948E+02  0.47000000000E+01 0.  1.
         11    1    6    6    0    0 -0.59087637065E+02 -0.34232190901E+01  0.31645009925E+02  0.67115377790E+02  0.00000000000E+00 0. -1.
        -12    1    6    6    0    0  0.40407867422E+01  0.32813071390E+01  0.82200812087E+02  0.82365456606E+02  0.00000000000E+00 0.  1.
</event>
<event>
12    1  0.8798177E-003  0.2952558E+03  0.7818608E-02  0.1087648E+00
         21   -1    0    0  503  502  0.00000000000E+00  0.00000000000E+00  0.46391384723E+02  0.46391384723E+02  0.00000000000E+00 0.  1.
         21   -1    0    0  501  503 -0.00000000000E+00 -0.00000000000E+00 -0.19297291217E+04  0.19297291217E+04  0.00000000000E+00 0.  1.
          6    2    1    2  501    0  0.23930023532E+03 -0.16903970699E+02 -0.11024157074E+04  0.11412461477E+04  0.17196520280E+03 0.  0.
         24    2    3    3    0    0  0.20982053438E+03 -0.26330596730E+02 -0.65960998119E+03  0.69733521613E+03  0.80455698334E+02 0.  0.
         -6    2    1    2    0  502 -0.23930023532E+03  0.16903970699E+02 -0.78092202963E+03  0.83487435873E+03  0.17212097970E+03 0.  0.
        -24    2    5    5    0    0 -0.14391364008E+03  0.74705563142E+02 -0.42489702105E+03  0.46175839368E+03  0.79945473115E+02 0.  0.
          5    1    3    3  501    0  0.29479700933E+02  0.94266260318E+01 -0.44280572616E+03  0.44391093157E+03  0.47000000000E+01 0. -1.
        -13    1    4    4    0    0  0.11806354377E+03 -0.14266346221E+02 -0.24261086045E+03  0.27018985661E+03  0.00000000000E+00 0.  1.
         14    1    4    4    0    0  0.91756990610E+02 -0.12064250510E+02 -0.41699912074E+03  0.42714535953E+03  0.00000000000E+00 0. -1.
         -5    1    5    5    0  502 -0.95386595236E+02 -0.57801592443E+02 -0.35602500858E+03  0.37311596505E+03  0.47000000000E+01 0.  1.
         13    1    6    6    0    0 -0.49722953638E+02 -0.39595401459E+01 -0.67863548518E+02  0.84222985545E+02  0.00000000000E+00 0. -1.
        -14    1    6    6    0    0 -0.94190686444E+02  0.78665103288E+02 -0.35703347253E+03  0.37753540814E+03  0.00000000000E+00 0.  1.
</event>
<event>
12    1  0.8798177E-003  0.1747698E+03  0.7818608E-02  0.1173116E+00
         21   -1    0    0  503  502  0.00000000000E+00  0.00000000000E+00  0.16691592855E+03  0.16691592855E+03  0.00000000000E+00 0.  1.
         21   -1    0    0  501  503 -0.00000000000E+00 -0.00000000000E+00 -0.18670408437E+03  0.18670408437E+03  0.00000000000E+00 0.  1.
          6    2    1    2  501    0 -0.10129193342E+02 -0.28319071405E+02  0.17101299100E+02  0.17499944365E+03  0.17154527240E+03 0.  0.
         24    2    3    3    0    0 -0.73364160948E+02 -0.23417023924E+02  0.15269989780E+02  0.11137448871E+03  0.78996500084E+02 0.  0.
         -6    2    1    2    0  502  0.10129193342E+02  0.28319071405E+02 -0.36889454921E+02  0.17862056926E+03  0.17216243933E+03 0.  0.
        -24    2    5    5    0    0  0.11571250854E+02  0.18285874443E+01  0.42547530030E+02  0.94738808145E+02  0.83832642083E+02 0.  0.
          5    1    3    3  501    0  0.63234967606E+02 -0.49020474813E+01  0.18313093204E+01  0.63624954943E+02  0.47000000000E+01 0. -1.
        -11    1    4    4    0    0 -0.61249607674E+02 -0.38947901296E+02  0.37479061484E+02  0.81689249631E+02  0.00000000000E+00 0.  1.
         12    1    4    4    0    0 -0.12114553274E+02  0.15530877372E+02 -0.22209071704E+02  0.29685239075E+02  0.00000000000E+00 0. -1.
         -5    1    5    5    0  502 -0.14420575117E+01  0.26490483961E+02 -0.79436984951E+02  0.83881761119E+02  0.47000000000E+01 0.  1.
         11    1    6    6    0    0  0.36110439621E+02  0.25219949964E+02  0.52841783549E+01  0.44361382606E+02  0.00000000000E+00 0. -1.
        -12    1    6    6    0    0 -0.24539188767E+02 -0.23391362520E+02  0.37263351675E+02  0.50377425539E+02  0.00000000000E+00 0.  1.
</event>
<event>
12    1  0.8798177E-003  0.1924714E+03  0.7818608E-02  0.1156802E+00
         21   -1    0    0  503  502  0.00000000000E+00  0.00000000000E+00  0.97064466722E+03  0.97064466722E+03  0.00000000000E+00 0.  1.
         21   -1    0    0  501  503 -0.00000000000E+00 -0.00000000000E+00 -0.47965442797E+02  0.47965442797E+02  0.00000000000E+00 0.  1.
          6    2    1    2  501    0  0.71582460874E+02  0.47927603814E+02  0.22313128752E+03  0.29306715912E+03  0.16935077316E+03 0.  0.
         24    2    3    3    0    0  0.72910202973E+02  0.39458819251E+02  0.47777273385E+02  0.11744084137E+03  0.68093959028E+02 0.  0.
         -6    2    1    2    0  502 -0.71582460874E+02 -0.47927603814E+02  0.69954793690E+03  0.72554295090E+03  0.17211668618E+03 0.  0.
        -24    2    5    5    0    0 -0.86284187521E+02  0.18806338553E+02  0.35306155418E+03  0.37235112874E+03  0.78703638072E+02 0.  0.
          5    1    3    3  501    0 -0.13277420990E+01  0.84687845628E+01  0.17535401413E+03  0.17562631774E+03  0.47000000000E+01 0. -1.
        -11    1    4    4    0    0  0.13516426297E+02 -0.11922901449E+02 -0.93708313734E+01  0.20314079832E+02  0.00000000000E+00 0.  1.
         12    1    4    4    0    0  0.59393776676E+02  0.51381720700E+02  0.57148104758E+02  0.97126761541E+02  0.00000000000E+00 0. -1.
         -5    1    5    5    0  502  0.14701726647E+02 -0.66733942367E+02  0.34648638272E+03  0.35319182216E+03  0.47000000000E+01 0.  1.
         13    1    6    6    0    0  0.14424042027E+02  0.30885790771E+01  0.68920477136E+02  0.70481376815E+02  0.00000000000E+00 0. -1.
        -14    1    6    6    0    0 -0.10070822955E+03  0.15717759476E+02  0.28414107704E+03  0.30186975192E+03  0.00000000000E+00 0.  1.
</event>
<event>
12    1  0.8798177E-003  0.2067805E+03  0.7818608E-02  0.1144352E+00
         21   -1    0    0  503  502  0.00000000000E+00  0.00000000000E+00  0.77174474923E+02  0.77174474923E+02  0.00000000000E+00 0.  1.
         21   -1    0    0  501  503 -0.00000000000E+00 -0.00000000000E+00 -0.69964586425E+03  0.69964586425E+03  0.00000000000E+00 0. -1.
          6    2    1    2  501    0 -0.99257681310E+00 -0.11444764219E+03 -0.48948894913E+03  0.53096978711E+03  0.17096852193E+03 0.  0.
         24    2    3    3    0    0  0.53560403481E+02 -0.48213653775E+02 -0.25870701843E+03  0.28470700385E+03  0.94527686022E+02 0.  0.
         -6    2    1    2    0  502  0.99257681310E+00  0.11444764219E+03 -0.13298244020E+03  0.24585055206E+03  0.17221764293E+03 0.  0.
        -24    2    5    5    0    0 -0.66626078481E+02  0.74711285760E+02 -0.87890625020E+02  0.15526014218E+03  0.79750481070E+02 0.  0.
          5    1    3    3  501    0 -0.54552980294E+02 -0.66233988416E+02 -0.23078193070E+03  0.24626278326E+03  0.47000000000E+01 0. -1.
        -13    1    4    4    0    0  0.63872364028E+02 -0.47298636348E+02 -0.11036766048E+03  0.13600683941E+03  0.00000000000E+00 0.  1.
         14    1    4    4    0    0 -0.10311960547E+02 -0.91501742759E+00 -0.14833935794E+03  0.14870016443E+03  0.00000000000E+00 0. -1.
         -5    1    5    5    0  502  0.67618655294E+02  0.39736356432E+02 -0.45091815176E+02  0.90590409879E+02  0.47000000000E+01 0.  1.
         11    1    6    6    0    0 -0.60091233194E+02  0.90431164707E+02 -0.64363326251E+02  0.12621960871E+03  0.00000000000E+00 0. -1.
        -12    1    6    6    0    0 -0.65348452871E+01 -0.15719878947E+02 -0.23527298768E+02  0.29040533473E+02  0.00000000000E+00 0.  1.
</event>
<event>
12    1  0.8798177E-003  0.1983217E+03  0.7818608E-02  0.1151644E+00
         21   -1    0    0  501  502  0.00000000000E+00  0.00000000000E+00  0.48302404101E+02  0.48302404101E+02  0.00000000000E+00 0. -1.
         21   -1    0    0  502  503 -0.00000000000E+00 -0.00000000000E+00 -0.82660287205E+03  0.82660287205E+03  0.00000000000E+00 0. -1.
          6    2    1    2  501    0  0.96143757048E+02  0.16774959071E+02 -0.46188154223E+03  0.50265897975E+03  0.17264550270E+03 0.  0.
         24    2    3    3    0    0 -0.56177302695E+01 -0.33986853868E+02 -0.19627041206E+03  0.21368921589E+03  0.77164377857E+02 0.  0.
         -6    2    1    2    0  503 -0.96143757048E+02 -0.16774959071E+02 -0.31641892572E+03  0.37224629640E+03  0.17006277476E+03 0.  0.
        -24    2    5    5    0    0 -0.86968525884E+01  0.33007627146E+02 -0.92162918985E+02  0.12640465317E+03  0.79492100312E+02 0.  0.
          5    1    3    3  501    0  0.10176148732E+03  0.50761812939E+02 -0.26561113017E+03  0.28896976386E+03  0.47000000000E+01 0. -1.
        -13    1    4    4    0    0 -0.28963466101E+00 -0.58559296523E+02 -0.12309411872E+03  0.13631374531E+03  0.00000000000E+00 0.  1.
         14    1    4    4    0    0 -0.53280956085E+01  0.24572442655E+02 -0.73176293342E+02  0.77375470584E+02  0.00000000000E+00 0. -1.
         -5    1    5    5    0  503 -0.87446904460E+02 -0.49782586217E+02 -0.22425600673E+03  0.24584164323E+03  0.47000000000E+01 0.  1.
         11    1    6    6    0    0 -0.27489459621E+02  0.52552467788E+02 -0.60551475274E+02  0.84757969648E+02  0.00000000000E+00 0. -1.
        -12    1    6    6    0    0  0.18792607033E+02 -0.19544840642E+02 -0.31611443710E+02  0.41646683520E+02  0.00000000000E+00 0.  1.
</event>
<event>
12    1  0.8798177E-003  0.1879333E+03  0.7818608E-02  0.1160467E+00
         21   -1    0    0  501  502  0.00000000000E+00  0.00000000000E+00  0.21300493439E+03  0.21300493439E+03  0.00000000000E+00 0.  1.
         21   -1    0    0  502  503 -0.00000000000E+00 -0.00000000000E+00 -0.17005697078E+03  0.17005697078E+03  0.00000000000E+00 0. -1.
          6    2    1    2  501    0  0.43016670801E+02 -0.58131726916E+02  0.53479974846E+02  0.19539458413E+03  0.17346239984E+03 0.  0.
         24    2    3    3    0    0  0.42963029447E+01 -0.18564147660E+02 -0.35869496344E+02  0.90179194494E+02  0.80514474191E+02 0.  0.
         -6    2    1    2    0  503 -0.43016670801E+02  0.58131726916E+02 -0.10532011241E+02  0.18766732103E+03  0.17285360419E+03 0.  0.
        -24    2    5    5    0    0 -0.78054437102E+02  0.59719522987E+02  0.34488033630E+02  0.13040423865E+03  0.78466071756E+02 0.  0.
          5    1    3    3  501    0  0.38720367857E+02 -0.39567579257E+02  0.89349471190E+02  0.10521538964E+03  0.47000000000E+01 0. -1.
        -13    1    4    4    0    0 -0.25385124492E+02  0.89190879857E+01  0.10286631098E+02  0.28805719143E+02  0.00000000000E+00 0.  1.
         14    1    4    4    0    0  0.29681427437E+02 -0.27483235645E+02 -0.46156127442E+02  0.61373475351E+02  0.00000000000E+00 0. -1.
         -5    1    5    5    0  503  0.35037766301E+02 -0.15877960707E+01 -0.45020044871E+02  0.57263082382E+02  0.47000000000E+01 0.  1.
         13    1    6    6    0    0 -0.89733593842E+01 -0.16886549334E+02 -0.52992154955E+01  0.19843346792E+02  0.00000000000E+00 0. -1.
        -14    1    6    6    0    0 -0.69081077718E+02  0.76606072321E+02  0.39787249126E+02  0.11056089186E+03  0.00000000000E+00 0.  1.
</event>
<event>
12    1  0.8798177E-003  0.6994849E+03  0.7818608E-02  0.9718353E-01
         21   -1    0    0  503  502  0.00000000000E+00  0.00000000000E+00  0.23549754363E+04  0.23549754363E+04  0.00000000000E+00 0.  1.
         21   -1    0    0  501  503 -0.00000000000E+00 -0.00000000000E+00 -0.20854968750E+03  0.20854968750E+03  0.00000000000E+00 0. -1.
          6    2    1    2  501    0  0.28320499856E+03 -0.61571735516E+03  0.98703901355E+03  0.12097624577E+04  0.17310764642E+03 0.  0.
         24    2    3    3    0    0  0.22029202280E+03 -0.48115318890E+03  0.65285450070E+03  0.84402083312E+03  0.78199751582E+02 0.  0.
         -6    2    1    2    0  502 -0.28320499856E+03  0.61571735516E+03  0.11593867352E+04  0.13537626660E+04  0.17082980259E+03 0.  0.
        -24    2    5    5    0    0 -0.15334878002E+03  0.32104289687E+03  0.48890919695E+03  0.60994958924E+03  0.80136811698E+02 0.  0.
          5    1    3    3  501    0  0.62912975761E+02 -0.13456416625E+03  0.33418451285E+03  0.36574162463E+03  0.47000000000E+01 0. -1.
        -13    1    4    4    0    0  0.15542050228E+03 -0.27751293548E+03  0.43449460770E+03  0.53847425751E+03  0.00000000000E+00 0.  1.
         14    1    4    4    0    0  0.64871520519E+02 -0.20364025343E+03  0.21835989300E+03  0.30554657560E+03  0.00000000000E+00 0. -1.
         -5    1    5    5    0  502 -0.12985621854E+03  0.29467445828E+03  0.67047753826E+03  0.74381307677E+03  0.47000000000E+01 0.  1.
         13    1    6    6    0    0 -0.62901557010E+02  0.21866571433E+03  0.32165411940E+03  0.39399577792E+03  0.00000000000E+00 0. -1.
        -14    1    6    6    0    0 -0.90447223009E+02  0.10237718255E+03  0.16725507755E+03  0.21595381132E+03  0.00000000000E+00 0.  1.
</event>
<event>
12    1  0.8798177E-003  0.2128875E+03  0.7818608E-02  0.1139471E+00
         21   -1    0    0  503  502  0.00000000000E+00  0.00000000000E+00  0.21933094110E+03  0.21933094110E+03  0.00000000000E+00 0. -1.
         21   -1    0    0  501  503 -0.00000000000E+00 -0.00000000000E+00 -0.24872521025E+03  0.24872521025E+03  0.00000000000E+00 0.  1.
          6    2    1    2  501    0 -0.34471082132E+02  0.11916219081E+03 -0.11191800729E+03  0.23973346293E+03  0.17192617506E+03 0.  0.
         24    2    3    3    0    0  0.22526488559E+02  0.27262141395E+02 -0.96180304169E+02  0.13035290045E+03  0.80564016200E+02 0.  0.
         -6    2    1    2    0  502  0.34471082132E+02 -0.11916219081E+03  0.82523738139E+02  0.22832268843E+03  0.17301213678E+03 0.  0.
        -24    2    5    5    0    0 -0.14472945867E+02 -0.63090365655E+02  0.10825709837E+03  0.14943122323E+03  0.80126342280E+02 0.  0.
          5    1    3    3  501    0 -0.56997570691E+02  0.91900049417E+02 -0.15737703117E+02  0.10938056247E+03  0.47000000000E+01 0. -1.
        -13    1    4    4    0    0 -0.16215664165E+02 -0.14293704482E+02 -0.58011760850E+02  0.61908175139E+02  0.00000000000E+00 0.  1.
         14    1    4    4    0    0  0.38742152724E+02  0.41555845877E+02 -0.38168543318E+02  0.68444725314E+02  0.00000000000E+00 0. -1.
         -5    1    5    5    0  502  0.48944028000E+02 -0.56071825156E+02 -0.25733360228E+02  0.78891465202E+02  0.47000000000E+01 0.  1.
         13    1    6    6    0    0  0.10873002089E+02 -0.30842198589E+02  0.10301471432E+03  0.10808096389E+03  0.00000000000E+00 0. -1.
        -14    1    6    6    0    0 -0.25345947956E+02 -0.32248167066E+02  0.52423840473E+01  0.41350259339E+02  0.00000000000E+00 0.  1.
</event>
<event>
12    1  0.8798177E-003  0.2198790E+03  0.7818608E-02  0.1134469E+00
         21   -1    0    0  503  502  0.00000000000E+00  0.00000000000E+00  0.14795299709E+03  0.14795299709E+03  0.00000000000E+00 0.  1.
         21   -1    0    0  501  503 -0.00000000000E+00 -0.00000000000E+00 -0.40693856559E+03  0.40693856559E+03  0.00000000000E+00 0.  1.
          6    2    1    2  501    0  0.81283956214E+02  0.11310286370E+03 -0.25622562498E+03  0.33763638075E+03  0.17013939988E+03 0.  0.
         24    2    3    3    0    0  0.79012896268E+02  0.13984417605E+03 -0.25303204049E+03  0.31020383655E+03  0.80011095149E+02 0.  0.
         -6    2    1    2    0  502 -0.81283956214E+02 -0.11310286370E+03 -0.27599435218E+01  0.21725518193E+03  0.16671189961E+03 0.  0.
        -24    2    5    5    0    0 -0.17200006282E+02 -0.79194189383E+02 -0.57967313108E+02  0.12600555459E+03  0.77133848275E+02 0.  0.
          5    1    3    3  501    0  0.22710599452E+01 -0.26741312345E+02 -0.31935844952E+01  0.27432544197E+02  0.47000000000E+01 0. -1.
        -11    1    4    4    0    0  0.56064674514E+01  0.34019206465E+02 -0.11264796525E+02  0.36271676643E+02  0.00000000000E+00 0.  1.
         12    1    4    4    0    0  0.73406428817E+02  0.10582496958E+03 -0.24176724396E+03  0.27393215991E+03  0.00000000000E+00 0. -1.
         -5    1    5    5    0  502 -0.64083949932E+02 -0.33908674318E+02  0.55207369587E+02  0.91249627339E+02  0.47000000000E+01 0.  1.
         11    1    6    6    0    0 -0.15564889930E+02 -0.92373238172E+02 -0.36037712696E+02  0.10036831006E+03  0.00000000000E+00 0. -1.
        -12    1    6    6    0    0 -0.16351163521E+01  0.13179048789E+02 -0.21929600412E+02  0.25637244523E+02  0.00000000000E+00 0.  1.
</event>
<event>
12    1  0.8798177E-003  0.1859827E+03  0.7818608E-02  0.1162327E+00
         21   -1    0    0  501  502  0.00000000000E+00  0.00000000000E+00  0.33972257775E+03  0.33972257775E+03  0.00000000000E+00 0. -1.
         21   -1    0    0  502  503 -0.00000000000E+00 -0.00000000000E+00 -0.14412938158E+03  0.14412938158E+03  0.00000000000E+00 0. -1.
          6    2    1    2  501    0 -0.82888357481E+01  0.64952994648E+02  0.22972594383E+03  0.29557331368E+03  0.17407463394E+03 0.  0.
         24    2    3    3    0    0  0.20936402407E+02  0.74536959643E+02  0.69501440487E+02  0.13235582564E+03  0.81813953905E+02 0.  0.
         -6    2    1    2    0  503  0.82888357481E+01 -0.64952994648E+02 -0.34132747651E+02  0.18827864565E+03  0.17319413279E+03 0.  0.
        -24    2    5    5    0    0  0.53562802715E+02 -0.90442961796E+02 -0.16672508204E+02  0.13326573378E+03  0.80205237347E+02 0.  0.
          5    1    3    3  501    0 -0.29225238155E+02 -0.95839649953E+01  0.16022450334E+03  0.16321748804E+03  0.47000000000E+01 0. -1.
        -13    1    4    4    0    0  0.12490228363E+02  0.88620450573E+02  0.73085948742E+02  0.11554715906E+03  0.00000000000E+00 0.  1.
         14    1    4    4    0    0  0.84461740437E+01 -0.14083490930E+02 -0.35845082551E+01  0.16808666580E+02  0.00000000000E+00 0. -1.
         -5    1    5    5    0  503 -0.45273966967E+02  0.25489967149E+02 -0.17460239446E+02  0.55012911863E+02  0.47000000000E+01 0.  1.
         13    1    6    6    0    0 -0.15407821680E+02 -0.48254127385E+02  0.28811815501E+00  0.50655155618E+02  0.00000000000E+00 0. -1.
        -14    1    6    6    0    0  0.68970624395E+02 -0.42188834411E+02 -0.16960626360E+02  0.82610578166E+02  0.00000000000E+00 0.  1.
</event>
<event>
12    1  0.8798177E-003  0.2025898E+03  0.7818608E-02  0.1148639E+00
         21   -1    0    0  501  502  0.00000000000E+00  0.00000000000E+00  0.23445812082E+03  0.23445812082E+03  0.00000000000E+00 0.  1.
         21   -1    0    0  502  503 -0.00000000000E+00 -0.00000000000E+00 -0.17390281964E+03  0.17390281964E+03  0.00000000000E+00 0. -1.
          6    2    1    2  501    0 -0.10226069581E+03  0.33170083960E+02  0.57615114237E+02  0.20574977408E+03  0.16569841209E+03 0.  0.
         24    2    3    3    0    0 -0.67479477228E+02  0.85131067028E+02  0.45269407850E+02  0.14184215800E+03  0.79177648850E+02 0.  0.
         -6    2    1    2    0  503  0.10226069581E+03 -0.33170083960E+02  0.29401869444E+01  0.20261116639E+03  0.17171236317E+03 0.  0.
        -24    2    5    5    0    0 -0.13004427554E+02 -0.28511687939E+02  0.18222613323E+02  0.86149190297E+02  0.78151058006E+02 0.  0.
          5    1    3    3  501    0 -0.34781218585E+02 -0.51960983068E+02  0.12345706387E+02  0.63907616086E+02  0.47000000000E+01 0. -1.
        -13    1    4    4    0    0 -0.59850991919E+02  0.12704680764E+02  0.15148321967E+02  0.63031911009E+02  0.00000000000E+00 0.  1.
         14    1    4    4    0    0 -0.76284853091E+01  0.72426386264E+02  0.30121085883E+02  0.78810246987E+02  0.00000000000E+00 0. -1.
         -5    1    5    5    0  503  0.11526512337E+03 -0.46583960217E+01 -0.15282426379E+02  0.11646197609E+03  0.47000000000E+01 0.  1.
         13    1    6    6    0    0 -0.25837290399E+01 -0.52175955929E+02 -0.35302270567E+01  0.52359034902E+02  0.00000000000E+00 0. -1.
        -14    1    6    6    0    0 -0.10420698514E+02  0.23664267990E+02  0.21752840380E+02  0.33790155395E+02  0.00000000000E+00 0.  1.
</event>
<event>
12    1  0.8798177E-003  0.1986504E+03  0.7818608E-02  0.1151270E+00
         21   -1    0    0  503  502  0.00000000000E+00  0.00000000000E+00  0.62188653694E+03  0.62188653694E+03  0.00000000000E+00 0.  1.
         21   -1    0    0  501  503 -0.00000000000E+00 -0.00000000000E+00 -0.68191395781E+02  0.68191395781E+02  0.00000000000E+00 0.  1.
          6    2    1    2  501    0 -0.22207197710E+02 -0.95950375337E+02  0.18170879557E+03  0.26922123575E+03  0.17251768963E+03 0.  0.
         24    2    3    3    0    0  0.65268851757E+01 -0.12869217949E+03  0.15667578388E+03  0.21875922100E+03  0.81878069269E+02 0.  0.
         -6    2    1    2    0  502  0.22207197710E+02  0.95950375337E+02  0.37198634559E+03  0.42085669697E+03  0.17043146401E+03 0.  0.
        -24    2    5    5    0    0 -0.12980966160E+02 -0.84699803367E+01  0.19946793796E+03  0.21609706099E+03  0.81671509389E+02 0.  0.
          5    1    3    3  501    0 -0.28734082886E+02  0.32741804149E+02  0.25033011688E+02  0.50462014748E+02  0.47000000000E+01 0. -1.
        -11    1    4    4    0    0 -0.29115352464E+02 -0.22153657630E+02  0.61316867212E+02  0.71402006275E+02  0.00000000000E+00 0.  1.
         12    1    4    4    0    0  0.35642237639E+02 -0.10653852186E+03  0.95358916667E+02  0.14735721472E+03  0.00000000000E+00 0. -1.
         -5    1    5    5    0  502  0.35188163870E+02  0.10442035567E+03  0.17251840763E+03  0.20475963598E+03  0.47000000000E+01 0.  1.
         13    1    6    6    0    0  0.29404547963E+02 -0.19205810818E+02  0.12399986666E+03  0.12887768442E+03  0.00000000000E+00 0. -1.
        -14    1    6    6    0    0 -0.42385514123E+02  0.10735830481E+02  0.75468071304E+02  0.87219376574E+02  0.00000000000E+00 0.  1.
</event>
<event>
12    1  0.8798177E-003  0.3002587E+03  0.7818608E-02  0.1085181E+00
         21   -1    0    0  503  502  0.00000000000E+00  0.00000000000E+00  0.60999298306E+03  0.60999298306E+03  0.00000000000E+00 0.  1.
         21   -1    0    0  501  503 -0.00000000000E+00 -0.00000000000E+00 -0.15860839717E+03  0.15860839717E+03  0.00000000000E+00 0. -1.
          6    2    1    2  501    0  0.23947958605E+03  0.54507162862E+02  0.12390119263E+03  0.32430342775E+03  0.17175478094E+03 0.  0.
         24    2    3    3    0    0  0.39933255234E+02  0.28004507013E+02  0.75468045924E+02  0.11720685943E+03  0.75253602276E+02 0.  0.
         -6    2    1    2    0  502 -0.23947958605E+03 -0.54507162862E+02  0.32748339326E+03  0.44429795248E+03  0.17272462124E+03 0.  0.
        -24    2    5    5    0    0 -0.58114411346E+02 -0.15161390051E+02  0.18701104710E+03  0.21149763790E+03  0.78428097938E+02 0.  0.
          5    1    3    3  501    0  0.19954633081E+03  0.26502655849E+02  0.48433146704E+02  0.20709656832E+03  0.47000000000E+01 0. -1.
        -13    1    4    4    0    0  0.22546359409E+01 -0.23734849717E+02  0.31712367989E+02  0.39674938662E+02  0.00000000000E+00 0.  1.
         14    1    4    4    0    0  0.37678619293E+02  0.51739356730E+02  0.43755677935E+02  0.77531920769E+02  0.00000000000E+00 0. -1.
         -5    1    5    5    0  502 -0.18136517470E+03 -0.39345772810E+02  0.14047234616E+03  0.23280031458E+03  0.47000000000E+01 0.  1.
         11    1    6    6    0    0 -0.67254200066E+02  0.51433529037E+00  0.17980776248E+03  0.19197453845E+03  0.00000000000E+00 0. -1.
        -12    1    6    6    0    0  0.91397887192E+01 -0.15675725342E+02  0.72032846274E+01  0.19523099453E+02  0.00000000000E+00 0.  1.
</event>
<event>
12    1  0.8798177E-003  0.1829878E+03  0.7818608E-02  0.1165339E+00
         21   -1    0    0  503  502  0.00000000000E+00  0.00000000000E+00  0.11359464263E+04  0.11359464263E+04  0.00000000000E+00 0. -1.
         21   -1    0    0  501  503 -0.00000000000E+00 -0.00000000000E+00 -0.30785367924E+02  0.30785367924E+02  0.00000000000E+00 0. -1.
          6    2    1    2  501    0  0.30029861746E+02 -0.48444155370E+02  0.41817713158E+03  0.45579475961E+03  0.17212821013E+03 0.  0.
         24    2    3    3    0    0 -0.34062386013E+02 -0.77547301451E+02  0.26888303718E+03  0.29067169654E+03  0.70838671516E+02 0.  0.
         -6    2    1    2    0  502 -0.30029861746E+02  0.48444155370E+02  0.68698392684E+03  0.71093703466E+03  0.17388479730E+03 0.  0.
        -24    2    5    5    0    0 -0.31796449102E+01  0.59718711781E+02  0.21369175809E+03  0.23672651520E+03  0.82455083805E+02 0.  0.
          5    1    3    3  501    0  0.64092247758E+02  0.29103146081E+02  0.14929409440E+03  0.16512306307E+03  0.47000000000E+01 0. -1.
        -13    1    4    4    0    0 -0.27113355115E+01  0.12101575152E+02  0.14179115138E+02  0.18837376875E+02  0.00000000000E+00 0.  1.
         14    1    4    4    0    0 -0.31351050501E+02 -0.89648876603E+02  0.25470392205E+03  0.27183431967E+03  0.00000000000E+00 0. -1.
         -5    1    5    5    0  502 -0.26850216836E+02 -0.11274556411E+02  0.47329216875E+03  0.47421051946E+03  0.47000000000E+01 0.  1.
         13    1    6    6    0    0 -0.41334868527E+02  0.31078736911E+02  0.85238642091E+02  0.99699976678E+02  0.00000000000E+00 0. -1.
        -14    1    6    6    0    0  0.38155223617E+02  0.28639974870E+02  0.12845311600E+03  0.13702653852E+03  0.00000000000E+00 0.  1.
</event>
<event>
12    1  0.8798177E-003  0.1922466E+03  0.7818608E-02  0.1157672E+00
         21   -1    0    0  503  502  0.00000000000E+00  0.00000000000E+00  0.76703951615E+03  0.76703951615E+03  0.00000000000E+00 0. -1.
         21   -1    0    0  501  503 -0.00000000000E+00 -0.00000000000E+00 -0.47222133380E+02  0.47222133380E+02  0.00000000000E+00 0. -1.
          6    2    1    2  501    0  0.78269498713E+02 -0.42508409524E+02  0.39165308966E+03  0.43393208601E+03  0.16423103639E+03 0.  0.
         24    2    3    3    0    0  0.67765282138E+02 -0.77996597977E+02  0.20095886670E+03  0.23962272762E+03  0.79743229978E+02 0.  0.
         -6    2    1    2    0  502 -0.78269498713E+02  0.42508409524E+02  0.32816429311E+03  0.38032956353E+03  0.17036928805E+03 0.  0.
        -24    2    5    5    0    0 -0.10441328556E+03  0.43065483907E+02  0.32471112290E+03  0.35353735744E+03  0.82429240327E+02 0.  0.
          5    1    3    3  501    0  0.10504216575E+02  0.35488188453E+02  0.19069422296E+03  0.19430935838E+03  0.47000000000E+01 0. -1.
        -13    1    4    4    0    0  0.68247816914E+02 -0.20716515367E+02  0.90817716292E+02  0.11547638769E+03  0.00000000000E+00 0.  1.
         14    1    4    4    0    0 -0.48253477604E+00 -0.57280082609E+02  0.11014115041E+03  0.12414633993E+03  0.00000000000E+00 0. -1.
         -5    1    5    5    0  502  0.26143786849E+02 -0.55707438388E+00  0.34531702082E+01  0.26792206090E+02  0.47000000000E+01 0.  1.
         13    1    6    6    0    0  0.22484092837E+00 -0.18104292012E+02  0.32849467701E+02  0.37508711934E+02  0.00000000000E+00 0. -1.
        -14    1    6    6    0    0 -0.10463812649E+03  0.61169775920E+02  0.29186165520E+03  0.31602864550E+03  0.00000000000E+00 0.  1.
</event>
<event>
12    1  0.8798177E-003  0.3114891E+03  0.7818608E-02  0.1079771E+00
         21   -1    0    0  501  502  0.00000000000E+00  0.00000000000E+00  0.18256922461E+03  0.18256922461E+03  0.00000000000E+00 0.  1.
         21   -1    0    0  502  503 -0.00000000000E+00 -0.00000000000E+00 -0.57011313173E+03  0.57011313173E+03  0.00000000000E+00 0. -1.
          6    2    1    2  501    0 -0.24629238137E+02 -0.25752007150E+03 -0.93647628298E+02  0.32526199050E+03  0.17350013712E+03 0.  0.
         24    2    3    3    0    0 -0.33425755328E+01 -0.19734176634E+03 -0.87568517629E+00  0.21255318939E+03  0.78886918704E+02 0.  0.
         -6    2    1    2    0  503  0.24629238137E+02  0.25752007150E+03 -0.29389627883E+03  0.42742036584E+03  0.17143500176E+03 0.  0.
        -24    2    5    5    0    0 -0.50927854356E+02  0.14724975179E+03 -0.15309293380E+03  0.23321405902E+03  0.81701990156E+02 0.  0.
          5    1    3    3  501    0 -0.21286662604E+02 -0.60178305165E+02 -0.92771943121E+02  0.11270880111E+03  0.47000000000E+01 0. -1.
        -11    1    4    4    0    0 -0.34077734667E+02 -0.41561764345E+02 -0.15495669667E+01  0.53768702916E+02  0.00000000000E+00 0.  1.
         12    1    4    4    0    0  0.30735159134E+02 -0.15578000199E+03  0.67388179039E+00  0.15878448647E+03  0.00000000000E+00 0. -1.
         -5    1    5    5    0  503  0.75557092493E+02  0.11027031971E+03 -0.14080334503E+03  0.19420630682E+03  0.47000000000E+01 0.  1.
         13    1    6    6    0    0 -0.74542727179E+01  0.20049331740E+01 -0.48295679715E+02  0.48908676305E+02  0.00000000000E+00 0. -1.
        -14    1    6    6    0    0 -0.43473581638E+02  0.14524481862E+03 -0.10479725408E+03  0.18430538272E+03  0.00000000000E+00 0.  1.
</event>
<event>
12    1  0.8798177E-003  0.1971432E+03  0.7818608E-02  0.1152489E+00
         21   -1    0    0  501  502  0.00000000000E+00  0.00000000000E+00  0.35928894226E+03  0.35928894226E+03  0.00000000000E+00 0.  1.
         21   -1    0    0  502  503 -0.00000000000E+00 -0.00000000000E+00 -0.13263652823E+03  0.13263652823E+03  0.00000000000E+00 0. -1.
          6    2    1    2  501    0  0.12764738788E+02  0.91845457844E+02  0.22102412633E+03  0.29617076290E+03  0.17397393395E+03 0.  0.
         24    2    3    3    0    0 -0.14118177977E+01 -0.24646879538E+01  0.17038209486E+03  0.18808707446E+03  0.79615459622E+02 0.  0.
         -6    2    1    2    0  503 -0.12764738788E+02 -0.91845457844E+02  0.56282876952E+01  0.19575470759E+03  0.17230699707E+03 0.  0.
        -24    2    5    5    0    0 -0.42747515796E+02 -0.32142064014E+01  0.31510168281E+02  0.98561974362E+02  0.82969216313E+02 0.  0.
          5    1    3    3  501    0  0.14176556586E+02  0.94310145798E+02  0.50642031463E+02  0.10808368844E+03  0.47000000000E+01 0. -1.
        -11    1    4    4    0    0  0.28948443432E+02  0.33853904368E+01  0.21996956381E+02  0.36514919356E+02  0.00000000000E+00 0.  1.
         12    1    4    4    0    0 -0.30360261229E+02 -0.58500783906E+01  0.14838513848E+03  0.15157215510E+03  0.00000000000E+00 0. -1.
         -5    1    5    5    0  503  0.29982777007E+02 -0.88631251443E+02 -0.25881880586E+02  0.97192733226E+02  0.47000000000E+01 0.  1.
         13    1    6    6    0    0 -0.36821958863E+02 -0.23527300658E+02 -0.16015174990E+02  0.46538976791E+02  0.00000000000E+00 0. -1.
        -14    1    6    6    0    0 -0.59255569324E+01  0.20313094257E+02  0.47525343271E+02  0.52022997571E+02  0.00000000000E+00 0.  1.
</event>
<event>
12    1  0.8798177E-003  0.1870945E+03  0.7818608E-02  0.1161569E+00
         21   -1    0    0  501  502  0.00000000000E+00  0.00000000000E+00  0.25228487473E+04  0.25228487473E+04  0.00000000000E+00 0. -1.
         21   -1    0    0  502  503 -0.00000000000E+00 -0.00000000000E+00 -0.16262825935E+02  0.16262825935E+02  0.00000000000E+00 0. -1.
          6    2    1    2  501    0 -0.13172487247E+02 -0.65732131309E+02  0.17601968976E+04  0.17701122810E+04  0.17467152489E+03 0.  0.
         24    2    3    3    0    0  0.34591910467E+02 -0.15122493893E+02  0.14245546309E+04  0.14272995124E+04  0.80016946898E+02 0.  0.
         -6    2    1    2    0  503  0.13172487247E+02  0.65732131309E+02  0.74638902373E+03  0.76899929218E+03  0.17253726878E+03 0.  0.
        -24    2    5    5    0    0  0.29373786009E+02  0.15885323362E+02  0.17805737771E+03  0.19823652516E+03  0.80486814746E+02 0.  0.
          5    1    3    3  501    0 -0.47764397714E+02 -0.50609637416E+02  0.33564226675E+03  0.34281276860E+03  0.47000000000E+01 0. -1.
        -13    1    4    4    0    0  0.69396526132E+01  0.22206795394E+02  0.14116890551E+03  0.14307326942E+03  0.00000000000E+00 0.  1.
         14    1    4    4    0    0  0.27652257854E+02 -0.37329289287E+02  0.12833857254E+04  0.12842262430E+04  0.00000000000E+00 0. -1.
         -5    1    5    5    0  503 -0.16201298762E+02  0.49846807946E+02  0.56833164602E+03  0.57076276702E+03  0.47000000000E+01 0.  1.
         13    1    6    6    0    0 -0.12876254257E+00 -0.24170597118E+01 -0.83138680110E+01  0.86590506840E+01  0.00000000000E+00 0. -1.
        -14    1    6    6    0    0  0.29502548551E+02  0.18302383074E+02  0.18637124572E+03  0.18957747448E+03  0.00000000000E+00 0.  1.
</event>
<event>
12    1  0.8798177E-003  0.1774481E+03  0.7818608E-02  0.1170986E+00
         21   -1    0    0  501  502  0.00000000000E+00  0.00000000000E+00  0.39861146948E+03  0.39861146948E+03  0.00000000000E+00 0.  1.
         21   -1    0    0  502  503 -0.00000000000E+00 -0.00000000000E+00 -0.77993357268E+02  0.77993357268E+02  0.00000000000E+00 0.  1.
          6    2    1    2  501    0 -0.97305667455E+01 -0.34649603734E+02  0.14863623058E+03  0.23147474485E+03  0.17376003422E+03 0.  0.
         24    2    3    3    0    0 -0.70115764741E+02 -0.32034648501E+02  0.63512556495E+02  0.12696952958E+03  0.78389906493E+02 0.  0.
         -6    2    1    2    0  503  0.97305667455E+01  0.34649603734E+02  0.17198188163E+03  0.24513008190E+03  0.17092603802E+03 0.  0.
        -24    2    5    5    0    0  0.19143655717E+02 -0.17496533302E+01  0.15412295488E+02  0.84041170227E+02  0.80348233335E+02 0.  0.
          5    1    3    3  501    0  0.60385197995E+02 -0.26149552334E+01  0.85123674084E+02  0.10450521526E+03  0.47000000000E+01 0. -1.
        -13    1    4    4    0    0 -0.62945768571E+02 -0.52998024442E+02  0.64857147562E+02  0.10477313571E+03  0.00000000000E+00 0.  1.
         14    1    4    4    0    0 -0.71699961693E+01  0.20963375942E+02 -0.13445910669E+01  0.22196393876E+02  0.00000000000E+00 0. -1.
         -5    1    5    5    0  503 -0.94130889719E+01  0.36399257064E+02  0.15656958614E+03  0.16108891167E+03  0.47000000000E+01 0.  1.
         11    1    6    6    0    0  0.20707528903E+02 -0.34222461389E+02  0.28374701786E+02  0.49041842525E+02  0.00000000000E+00 0. -1.
        -12    1    6    6    0    0 -0.15638731852E+01  0.32472808059E+02 -0.12962406298E+02  0.34999327702E+02  0.00000000000E+00 0.  1.
</event>
<event>
12    1  0.8798177E-003  0.1739234E+03  0.7818608E-02  0.1173867E+00
         21   -1    0    0  501  502  0.00000000000E+00  0.00000000000E+00  0.50779314947E+03  0.50779314947E+03  0.00000000000E+00 0. -1.
         21   -1    0    0  502  503 -0.00000000000E+00 -0.00000000000E+00 -0.62323895979E+02  0.62323895979E+02  0.00000000000E+00 0. -1.
          6    2    1    2  501    0  0.21200509219E+02  0.69230769125E+01  0.28351220870E+03  0.33260863590E+03  0.17248751146E+03 0.  0.
         24    2    3    3    0    0 -0.35470023419E+01  0.68407122151E+02  0.14297275114E+03  0.17715395994E+03  0.79058221376E+02 0.  0.
         -6    2    1    2    0  503 -0.21200509219E+02 -0.69230769125E+01  0.16195704479E+03  0.23750840955E+03  0.17228688186E+03 0.  0.
        -24    2    5    5    0    0  0.46805610659E+02 -0.32446817315E+02  0.12292270461E+03  0.15491262649E+03  0.75129018324E+02 0.  0.
          5    1    3    3  501    0  0.24747511561E+02 -0.61484045239E+02  0.14053945756E+03  0.15545467596E+03  0.47000000000E+01 0. -1.
        -11    1    4    4    0    0 -0.14010063938E+02  0.77619887633E+02  0.14288900734E+03  0.16321273622E+03  0.00000000000E+00 0.  1.
         12    1    4    4    0    0  0.10463061596E+02 -0.92127654816E+01  0.83743807410E-01  0.13941223720E+02  0.00000000000E+00 0. -1.
         -5    1    5    5    0  503 -0.68006119878E+02  0.25523740403E+02  0.39034340175E+02  0.82595783052E+02  0.47000000000E+01 0.  1.
         13    1    6    6    0    0  0.10959592279E+02  0.14754429825E+02 -0.74692084102E-01  0.18379647474E+02  0.00000000000E+00 0. -1.
        -14    1    6    6    0    0  0.35846018380E+02 -0.47201247140E+02  0.12299739670E+03  0.13653297902E+03  0.00000000000E+00 0.  1.
</event>
<event>
12    1  0.8798177E-003  0.2485948E+03  0.7818608E-02  0.1115037E+00
         21   -1    0    0  501  502  0.00000000000E+00  0.00000000000E+00  0.78774472346E+03  0.78774472346E+03  0.00000000000E+00 0. -1.
         21   -1    0    0  502  503 -0.00000000000E+00 -0.00000000000E+00 -0.78876182908E+02  0.78876182908E+02  0.00000000000E+00 0.  1.
          6    2    1    2  501    0 -0.10516442205E+03  0.14508771933E+03  0.28799605370E+03  0.38044852050E+03  0.17230597157E+03 0.  0.
         24    2    3    3    0    0 -0.31621481031E+02  0.14370754997E+03  0.22378988600E+03  0.28269888617E+03  0.90470819528E+02 0.  0.
         -6    2    1    2    0  503  0.10516442205E+03 -0.14508771933E+03  0.42087248686E+03  0.48617238587E+03  0.16468131839E+03 0.  0.
        -24    2    5    5    0    0  0.10966683151E+03 -0.50581089318E+02  0.30020222163E+03  0.33276059455E+03  0.77607853224E+02 0.  0.
          5    1    3    3  501    0 -0.73542941015E+02  0.13801693595E+01  0.64206167693E+02  0.97749634324E+02  0.47000000000E+01 0. -1.
        -11    1    4    4    0    0 -0.35788202683E+02  0.69158348520E+02  0.47411688597E+02  0.91167652360E+02  0.00000000000E+00 0.  1.
         12    1    4    4    0    0  0.41667216519E+01  0.74549201449E+02  0.17637819741E+03  0.19153123381E+03  0.00000000000E+00 0. -1.
         -5    1    5    5    0  503 -0.45024094643E+01 -0.94506630009E+02  0.12067026522E+03  0.15341179132E+03  0.47000000000E+01 0.  1.
         13    1    6    6    0    0  0.67011402376E+02 -0.36348714876E+02  0.90682258280E+02  0.11846952810E+03  0.00000000000E+00 0. -1.
        -14    1    6    6    0    0  0.42655429135E+02 -0.14232374442E+02  0.20951996335E+03  0.21429106645E+03  0.00000000000E+00 0.  1.
</event>
<event>
12    1  0.8798177E-003  0.3793014E+03  0.7818608E-02  0.1051195E+00
         21   -1    0    0  503  502  0.00000000000E+00  0.00000000000E+00  0.14794626778E+03  0.14794626778E+03  0.00000000000E+00 0.  1.
         21   -1    0    0  501  503 -0.00000000000E+00 -0.00000000000E+00 -0.13386908479E+04  0.13386908479E+04  0.00000000000E+00 0.  1.
          6    2    1    2  501    0  0.12636219312E+03 -0.31350721724E+03 -0.98422354127E+03  0.10547822134E+04  0.17209113717E+03 0.  0.
         24    2    3    3    0    0  0.65216522497E+02 -0.28750765650E+03 -0.87184564607E+03  0.92414664583E+03  0.83775563766E+02 0.  0.
         -6    2    1    2    0  502 -0.12636219312E+03  0.31350721724E+03 -0.20652103883E+03  0.43185490221E+03  0.17202772444E+03 0.  0.
        -24    2    5    5    0    0 -0.65338973184E+02  0.26599599303E+03 -0.10431053565E+03  0.30359646484E+03  0.79164865251E+02 0.  0.
          5    1    3    3  501    0  0.61145670618E+02 -0.25999560736E+02 -0.11237789520E+03  0.13063556760E+03  0.47000000000E+01 0. -1.
        -11    1    4    4    0    0  0.25615448522E+02 -0.19673739371E+03 -0.46762359565E+03  0.50797005866E+03  0.00000000000E+00 0.  1.
         12    1    4    4    0    0  0.39601073975E+02 -0.90770262793E+02 -0.40422205042E+03  0.41617658717E+03  0.00000000000E+00 0. -1.
         -5    1    5    5    0  502 -0.61023219932E+02  0.47511224212E+02 -0.10221050319E+03  0.12825843738E+03  0.47000000000E+01 0.  1.
         11    1    6    6    0    0 -0.68481943020E+01  0.11291225844E+03 -0.78523429332E+02  0.13770259556E+03  0.00000000000E+00 0. -1.
        -12    1    6    6    0    0 -0.58490778882E+02  0.15308373459E+03 -0.25787106316E+02  0.16589386927E+03  0.00000000000E+00 0.  1.
</event>
<event>
12    1  0.8798177E-003  0.1915691E+03  0.7818608E-02  0.1157991E+00
         21   -1    0    0  503  502  0.00000000000E+00  0.00000000000E+00  0.92061706323E+02  0.92061706323E+02  0.00000000000E+00 0.  1.
         21   -1    0    0  501  503 -0.00000000000E+00 -0.00000000000E+00 -0.39708567031E+03  0.39708567031E+03  0.00000000000E+00 0.  1.
          6    2    1    2  501    0  0.19980638643E+02  0.67747354099E+02 -0.12157499139E+03  0.22689030002E+03  0.17807245661E+03 0.  0.
         24    2    3    3    0    0 -0.23262112196E+02  0.62039316761E+02 -0.14713465812E+03  0.17611723873E+03  0.70559701452E+02 0.  0.
         -6    2    1    2    0  502 -0.19980638643E+02 -0.67747354099E+02 -0.18344897260E+03  0.26225707661E+03  0.17359815315E+03 0.  0.
        -24    2    5    5    0    0  0.10512355530E+02 -0.70421955547E+02 -0.37637055191E+02  0.11319272325E+03  0.79537935795E+02 0.  0.
          5    1    3    3  501    0  0.43242750839E+02  0.57080373382E+01  0.25559666726E+02  0.50773061298E+02  0.47000000000E+01 0. -1.
        -11    1    4    4    0    0 -0.19426938999E+02  0.14894825634E+02 -0.32956280358E+01  0.24700667070E+02  0.00000000000E+00 0.  1.
         12    1    4    4    0    0 -0.38351731961E+01  0.47144491127E+02 -0.14383903008E+03  0.15141657166E+03  0.00000000000E+00 0. -1.
         -5    1    5    5    0  502 -0.30492994173E+02  0.26746014481E+01 -0.14581191740E+03  0.14906435336E+03  0.47000000000E+01 0.  1.
         13    1    6    6    0    0 -0.19796587990E+02 -0.31832491089E+00  0.10996412448E+02  0.22647898655E+02  0.00000000000E+00 0. -1.
        -14    1    6    6    0    0  0.30308943519E+02 -0.70103630636E+02 -0.48633467639E+02  0.90544824591E+02  0.00000000000E+00 0.  1.
</event>
<event>
12    1  0.8798177E-003  0.1806960E+03  0.7818608E-02  0.1168215E+00
         21   -1    0    0  503  502  0.00000000000E+00  0.00000000000E+00  0.45564214184E+03  0.45564214184E+03  0.00000000000E+00 0. -1.
         21   -1    0    0  501  503 -0.00000000000E+00 -0.00000000000E+00 -0.10353082080E+03  0.10353082080E+03  0.00000000000E+00 0. -1.
          6    2    1    2  501    0 -0.52488725346E+01  0.55009074230E+02  0.18213835401E+02  0.18161159336E+03  0.17203917615E+03 0.  0.
         24    2    3    3    0    0 -0.48309083757E+01  0.14436690107E+02  0.76662022091E+02  0.11030539745E+03  0.77836105876E+02 0.  0.
         -6    2    1    2    0  502  0.52488725346E+01 -0.55009074230E+02  0.33389748564E+03  0.37756136928E+03  0.16736638775E+03 0.  0.
        -24    2    5    5    0    0 -0.95699081186E+00  0.17466662466E+02  0.81060063561E+02  0.11442623831E+03  0.78845608500E+02 0.  0.
          5    1    3    3  501    0 -0.41796415888E+00  0.40572384123E+02 -0.58448186690E+02  0.71306195908E+02  0.47000000000E+01 0. -1.
        -13    1    4    4    0    0 -0.32643794199E+01 -0.25143681909E+02  0.15664163797E+01  0.25403042597E+02  0.00000000000E+00 0.  1.
         14    1    4    4    0    0 -0.15665289559E+01  0.39580372016E+02  0.75095605711E+02  0.84902354850E+02  0.00000000000E+00 0. -1.
         -5    1    5    5    0  502  0.62058633465E+01 -0.72475736696E+02  0.25283742208E+03  0.26313513098E+03  0.47000000000E+01 0.  1.
         13    1    6    6    0    0  0.28508868088E+02 -0.10059381495E+02  0.63730440019E+02  0.70537335509E+02  0.00000000000E+00 0. -1.
        -14    1    6    6    0    0 -0.29465858899E+02  0.27526043961E+02  0.17329623542E+02  0.43888902799E+02  0.00000000000E+00 0.  1.
</event>
<event>
12    1  0.8798177E-003  0.1945690E+03  0.7818608E-02  0.1154614E+00
         21   -1    0    0  501  502  0.00000000000E+00  0.00000000000E+00  0.59852519312E+03  0.59852519312E+03  0.00000000000E+00 0. -1.
         21   -1    0    0  502  503 -0.00000000000E+00 -0.00000000000E+00 -0.64421112566E+02  0.64421112566E+02  0.00000000000E+00 0.  1.
          6    2    1    2  501    0  0.57741074709E+02 -0.67099881436E+02  0.21612618208E+03  0.29016347407E+03  0.17218562457E+03 0.  0.
         24    2    3    3    0    0  0.86633089701E+02 -0.77737290525E+02  0.21721495575E+03  0.25899973825E+03  0.79687821162E+02 0.  0.
         -6    2    1    2    0  503 -0.57741074709E+02  0.67099881436E+02  0.31797789848E+03  0.37278283161E+03  0.17326473913E+03 0.  0.
        -24    2    5    5    0    0 -0.45108837326E+02  0.11286269702E+03  0.24302678053E+03  0.28393707317E+03  0.82373842219E+02 0.  0.
          5    1    3    3  501    0 -0.28892014993E+02  0.10637409089E+02 -0.10887736740E+01  0.31163735825E+02  0.47000000000E+01 0. -1.
        -11    1    4    4    0    0  0.19517016848E+02 -0.51896200988E+02  0.41868251693E+02  0.69477191390E+02  0.00000000000E+00 0.  1.
         12    1    4    4    0    0  0.67116072854E+02 -0.25841089536E+02  0.17534670406E+03  0.18952254686E+03  0.00000000000E+00 0. -1.
         -5    1    5    5    0  503 -0.12632237383E+02 -0.45762815584E+02  0.74951117949E+02  0.88845758443E+02  0.47000000000E+01 0.  1.
         13    1    6    6    0    0  0.86748060900E+01  0.69014916072E+02  0.16751806010E+03  0.18138525673E+03  0.00000000000E+00 0. -1.
        -14    1    6    6    0    0 -0.53783643416E+02  0.43847780948E+02  0.75508720429E+02  0.10255181643E+03  0.00000000000E+00 0.  1.
</event>
<event>
12    1  0.8798177E-003  0.2580761E+03  0.7818608E-02  0.1108378E+00
         21   -1    0    0  501  502  0.00000000000E+00  0.00000000000E+00  0.95033847043E+02  0.95033847043E+02  0.00000000000E+00 0. -1.
         21   -1    0    0  502  503 -0.00000000000E+00 -0.00000000000E+00 -0.69996300690E+03  0.69996300690E+03  0.00000000000E+00 0. -1.
          6    2    1    2  501    0  0.54316687598E+02  0.18338336426E+03 -0.31262030488E+03  0.40538216874E+03  0.17327286826E+03 0.  0.
         24    2    3    3    0    0  0.29999074921E+02  0.11914671702E+03 -0.30090569540E+03  0.33554653880E+03  0.83374801375E+02 0.  0.
         -6    2    1    2    0  503 -0.54316687598E+02 -0.18338336426E+03 -0.29230885498E+03  0.38961468520E+03  0.17255542699E+03 0.  0.
        -24    2    5    5    0    0 -0.26559742993E+02 -0.32575057385E+02 -0.17501046833E+03  0.19649659981E+03  0.78839681620E+02 0.  0.
          5    1    3    3  501    0  0.24317612677E+02  0.64236647236E+02 -0.11714609479E+02  0.69835629944E+02  0.47000000000E+01 0. -1.
        -11    1    4    4    0    0 -0.73755086559E+01 -0.10523633639E+02 -0.36451825487E+02  0.38650751277E+02  0.00000000000E+00 0.  1.
         12    1    4    4    0    0  0.37374583577E+02  0.12967035066E+03 -0.26445386991E+03  0.29689578752E+03  0.00000000000E+00 0. -1.
         -5    1    5    5    0  503 -0.27756944605E+02 -0.15080830687E+03 -0.11729838665E+03  0.19311808539E+03  0.47000000000E+01 0.  1.
         13    1    6    6    0    0 -0.32158360961E+02 -0.52879140581E+02 -0.15709202414E+03  0.16884391531E+03  0.00000000000E+00 0. -1.
        -14    1    6    6    0    0  0.55986179673E+01  0.20304083196E+02 -0.17918444188E+02  0.27652684494E+02  0.00000000000E+00 0.  1.
</event>
<event>
12    1  0.8798177E-003  0.2009758E+03  0.7818608E-02  0.1149001E+00
         21   -1    0    0  501  502  0.00000000000E+00  0.00000000000E+00  0.23549552514E+03  0.23549552514E+03  0.00000000000E+00 0. -1.
         21   -1    0    0  502  503 -0.00000000000E+00 -0.00000000000E+00 -0.18692006564E+03  0.18692006564E+03  0.00000000000E+00 0. -1.
          6    2    1    2  501    0 -0.49734434146E+02 -0.91681726139E+02  0.85552421149E+02  0.21806649005E+03  0.17133220501E+03 0.  0.
         24    2    3    3    0    0  0.36621259740E+02 -0.54145795198E+02  0.64465393509E+02  0.12145901253E+03  0.79521198198E+02 0.  0.
         -6    2    1    2    0  503  0.49734434146E+02  0.91681726139E+02 -0.36976961653E+02  0.20434910073E+03  0.17179117098E+03 0.  0.
        -24    2    5    5    0    0  0.48346979288E+02  0.12435703705E+03 -0.10471912362E+01  0.15553681358E+03  0.79928097072E+02 0.  0.
          5    1    3    3  501    0 -0.86355693886E+02 -0.37535930941E+02  0.21087027640E+02  0.96607477520E+02  0.47000000000E+01 0. -1.
        -13    1    4    4    0    0  0.15442154165E+02 -0.19700977487E+02 -0.17172587410E+02  0.30355994425E+02  0.00000000000E+00 0.  1.
         14    1    4    4    0    0  0.21179105574E+02 -0.34444817712E+02  0.81637980918E+02  0.91103018109E+02  0.00000000000E+00 0. -1.
         -5    1    5    5    0  503  0.13874548586E+01 -0.32675310906E+02 -0.35929770417E+02  0.48812287142E+02  0.47000000000E+01 0.  1.
         13    1    6    6    0    0  0.63387285380E+02  0.62033784654E+02 -0.14928544699E+02  0.89938867199E+02  0.00000000000E+00 0. -1.
        -14    1    6    6    0    0 -0.15040306092E+02  0.62323252392E+02  0.13881353462E+02  0.65597946385E+02  0.00000000000E+00 0.  1.
</event>
<event>
12    1  0.8798177E-003  0.1801449E+03  0.7818608E-02  0.1167737E+00
         21   -1    0    0  501  502  0.00000000000E+00  0.00000000000E+00  0.30752117389E+02  0.30752117389E+02  0.00000000000E+00 0.  1.
         21   -1    0    0  502  503 -0.00000000000E+00 -0.00000000000E+00 -0.11430275509E+04  0.11430275509E+04  0.00000000000E+00 0.  1.
          6    2    1    2  501    0  0.44180558995E+02 -0.28082801136E+02 -0.39231524587E+03  0.43169832345E+03  0.17237060310E+03 0.  0.
         24    2    3    3    0    0 -0.34535899089E+02 -0.38597235932E+02 -0.16314201448E+03  0.18910958897E+03  0.80403014885E+02 0.  0.
         -6    2    1    2    0  503 -0.44180558995E+02  0.28082801136E+02 -0.71996018761E+03  0.74208134481E+03  0.17205082115E+03 0.  0.
        -24    2    5    5    0    0 -0.78712308762E+02  0.25889821782E+02 -0.31873931394E+03  0.33934379954E+03  0.81814140666E+02 0.  0.
          5    1    3    3  501    0  0.78716458084E+02  0.10514434796E+02 -0.22917323139E+03  0.24258873448E+03  0.47000000000E+01 0. -1.
        -11    1    4    4    0    0  0.15360161879E+02 -0.26594618019E+02 -0.19022764983E+02  0.36125806124E+02  0.00000000000E+00 0.  1.
         12    1    4    4    0    0 -0.49896060968E+02 -0.12002617913E+02 -0.14411924950E+03  0.15298378285E+03  0.00000000000E+00 0. -1.
         -5    1    5    5    0  503  0.34531749767E+02  0.21929793544E+01 -0.40122087368E+03  0.40273754528E+03  0.47000000000E+01 0.  1.
         13    1    6    6    0    0  0.14471155796E+02 -0.10523403830E+01 -0.16760355335E+02  0.22168249397E+02  0.00000000000E+00 0. -1.
        -14    1    6    6    0    0 -0.93183464558E+02  0.26942162165E+02 -0.30197895860E+03  0.31717555014E+03  0.00000000000E+00 0.  1.
</event>
<event>
12    1  0.8798177E-003  0.3705350E+03  0.7818608E-02  0.1054626E+00
         21   -1    0    0  501  502  0.00000000000E+00  0.00000000000E+00  0.25722045757E+03  0.25722045757E+03  0.00000000000E+00 0. -1.
         21   -1    0    0  502  503 -0.00000000000E+00 -0.00000000000E+00 -0.57340459774E+03  0.57340459774E+03  0.00000000000E+00 0. -1.
          6    2    1    2  501    0  0.32622640022E+03 -0.10481007332E+02 -0.46369099518E+02  0.37342501627E+03  0.17539279823E+03 0.  0.
         24    2    3    3    0    0  0.68771034260E+02 -0.34237887591E+02  0.21203168740E+01  0.11032623573E+03  0.79156139665E+02 0.  0.
         -6    2    1    2    0  503 -0.32622640022E+03  0.10481007332E+02 -0.26981504066E+03  0.45720003904E+03  0.17233166807E+03 0.  0.
        -24    2    5    5    0    0 -0.31618876954E+03  0.61776408832E+01 -0.19184822079E+03  0.37833187060E+03  0.79471776515E+02 0.  0.
          5    1    3    3  501    0  0.25745536596E+03  0.23756880260E+02 -0.48489416392E+02  0.26309878054E+03  0.47000000000E+01 0. -1.
        -11    1    4    4    0    0  0.24918777502E+02  0.17577620469E+02  0.24215181416E+02  0.38939609969E+02  0.00000000000E+00 0.  1.
         12    1    4    4    0    0  0.43852256758E+02 -0.51815508060E+02 -0.22094864542E+02  0.71386625760E+02  0.00000000000E+00 0. -1.
         -5    1    5    5    0  503 -0.10037630676E+02  0.43033664484E+01 -0.77966819870E+02  0.78868168439E+02  0.47000000000E+01 0.  1.
         13    1    6    6    0    0 -0.25217654970E+03 -0.12608283687E+02 -0.11766010531E+03  0.27856037302E+03  0.00000000000E+00 0. -1.
        -14    1    6    6    0    0 -0.64012219838E+02  0.18785924571E+02 -0.74188115479E+02  0.99771497578E+02  0.00000000000E+00 0.  1.
</event>
<event>
12    1  0.8798177E-003  0.3534453E+03  0.7818608E-02  0.1061481E+00
         21   -1    0    0  503  502  0.00000000000E+00  0.00000000000E+00  0.23862928453E+03  0.23862928453E+03  0.00000000000E+00 0.  1.
         21   -1    0    0  501  503 -0.00000000000E+00 -0.00000000000E+00 -0.68458308308E+03  0.68458308308E+03  0.00000000000E+00 0. -1.
          6    2    1    2  501    0 -0.28285901211E+03  0.12188325056E+03 -0.44896719196E+03  0.56975422536E+03  0.16787969015E+03 0.  0.
         24    2    3    3    0    0 -0.25586792628E+03  0.80235118970E+02 -0.43748578858E+03  0.51859762068E+03  0.75123943894E+02 0.  0.
         -6    2    1    2    0  502  0.28285901211E+03 -0.12188325056E+03  0.30133934078E+01  0.35345814224E+03  0.17337482597E+03 0.  0.
        -24    2    5    5    0    0  0.30005697184E+03 -0.12574727533E+03  0.12342121250E+02  0.33296873841E+03  0.69780292334E+02 0.  0.
          5    1    3    3  501    0 -0.26991085826E+02  0.41648131592E+02 -0.11481403377E+02  0.51156604683E+02  0.47000000000E+01 0. -1.
        -13    1    4    4    0    0 -0.25371469210E+01  0.17222584696E+02 -0.25908164139E+02  0.31213578890E+02  0.00000000000E+00 0.  1.
         14    1    4    4    0    0 -0.25333077936E+03  0.63012534274E+02 -0.41157762445E+03  0.48738404179E+03  0.00000000000E+00 0. -1.
         -5    1    5    5    0  502 -0.17197959730E+02  0.38640247715E+01 -0.93287278421E+01  0.20489403834E+02  0.47000000000E+01 0.  1.
         13    1    6    6    0    0  0.26558700261E+02 -0.40393977229E+01 -0.17604341262E+02  0.32118439015E+02  0.00000000000E+00 0. -1.
        -14    1    6    6    0    0  0.27349827158E+03 -0.12170787761E+03  0.29946462512E+02  0.30085029939E+03  0.00000000000E+00 0.  1.
</event>
<event>
12    1  0.8798177E-003  0.1997062E+03  0.7818608E-02  0.1150699E+00
         21   -1    0    0  501  502  0.00000000000E+00  0.00000000000E+00  0.51012081899E+02  0.51012081899E+02  0.00000000000E+00 0.  1.
         21   -1    0    0  502  503 -0.00000000000E+00 -0.00000000000E+00 -0.76993427134E+03  0.76993427134E+03  0.00000000000E+00 0.  1.
          6    2    1    2  501    0  0.89575627588E+02 -0.47318803361E+02 -0.34076950216E+03  0.39329926074E+03  0.16821888326E+03 0.  0.
         24    2    3    3    0    0  0.99495974845E+02 -0.84517501199E+02 -0.22920937718E+03  0.27518953254E+03  0.78419915910E+02 0.  0.
         -6    2    1    2    0  503 -0.89575627588E+02  0.47318803361E+02 -0.37815268728E+03  0.42764709250E+03  0.17210380187E+03 0.  0.
        -24    2    5    5    0    0 -0.93726860508E+02 -0.48763638905E+00 -0.34779177782E+03  0.37066847160E+03  0.87470183200E+02 0.  0.
          5    1    3    3  501    0 -0.99203472571E+01  0.37198697837E+02 -0.11156012497E+03  0.11810972820E+03  0.47000000000E+01 0. -1.
        -13    1    4    4    0    0  0.48171077525E+02 -0.87074077093E+02 -0.13288223340E+03  0.16601215487E+03  0.00000000000E+00 0.  1.
         14    1    4    4    0    0  0.51324897320E+02  0.25565758943E+01 -0.96327143780E+02  0.10917737767E+03  0.00000000000E+00 0. -1.
         -5    1    5    5    0  503  0.41512329203E+01  0.47806439750E+02 -0.30360909460E+02  0.56978620900E+02  0.47000000000E+01 0.  1.
         11    1    6    6    0    0  0.15266151580E+02 -0.10832447204E+02 -0.50216333017E+02  0.53591766142E+02  0.00000000000E+00 0. -1.
        -12    1    6    6    0    0 -0.10899301209E+03  0.10344810815E+02 -0.29757544480E+03  0.31707670546E+03  0.00000000000E+00 0.  1.
</event>
<event>
12    1  0.8798177E-003  0.1840853E+03  0.7818608E-02  0.1164625E+00
         21   -1    0    0  501  502  0.00000000000E+00  0.00000000000E+00  0.20991471705E+03  0.20991471705E+03  0.00000000000E+00 0. -1.
         21   -1    0    0  502  503 -0.00000000000E+00 -0.00000000000E+00 -0.16238272597E+03  0.16238272597E+03  0.00000000000E+00 0. -1.
          6    2    1    2  501    0 -0.17364312193E+02  0.60237900993E+02  0.51646722885E+02  0.19119308448E+03  0.17308173651E+03 0.  0.
         24    2    3    3    0    0 -0.51384837448E+02 -0.13394642324E+02 -0.24925936952E+02  0.79548067534E+02  0.53728714418E+02 0.  0.
         -6    2    1    2    0  503  0.17364312193E+02 -0.60237900993E+02 -0.41147318046E+01  0.18110435854E+03  0.16985798071E+03 0.  0.
        -24    2    5    5    0    0 -0.12388539862E+02 -0.72594236124E+02 -0.54724540490E+02  0.12092667199E+03  0.78772365896E+02 0.  0.
          5    1    3    3  501    0  0.34020525255E+02  0.73632543317E+02  0.76572659837E+02  0.11164501694E+03  0.47000000000E+01 0. -1.
        -11    1    4    4    0    0 -0.15350310571E+02 -0.12993934592E+02 -0.36520518894E+02  0.41691997686E+02  0.00000000000E+00 0.  1.
         12    1    4    4    0    0 -0.36034526877E+02 -0.40070773187E+00  0.11594581942E+02  0.37856069848E+02  0.00000000000E+00 0. -1.
         -5    1    5    5    0  503  0.29752852055E+02  0.12356335131E+02  0.50609808686E+02  0.60177686550E+02  0.47000000000E+01 0.  1.
         13    1    6    6    0    0  0.28453250455E+02 -0.57085160821E+02 -0.27561586075E+02  0.69483408626E+02  0.00000000000E+00 0. -1.
        -14    1    6    6    0    0 -0.40841790317E+02 -0.15509075303E+02 -0.27162954416E+02  0.51443263365E+02  0.00000000000E+00 0.  1.
</event>
<event>
12    1  0.8798177E-003  0.1988543E+03  0.7818608E-02  0.1151262E+00
         21   -1    0    0  501  502  0.00000000000E+00  0.00000000000E+00  0.30665052012E+03  0.30665052012E+03  0.00000000000E+00 0. -1.
         21   -1    0    0  502  503 -0.00000000000E+00 -0.00000000000E+00 -0.14471920477E+03  0.14471920477E+03  0.00000000000E+00 0.  1.
          6    2    1    2  501    0 -0.23795789546E+01  0.99984834494E+02  0.15976741138E+03  0.25508557581E+03  0.17187319664E+03 0.  0.
         24    2    3    3    0    0 -0.43057015162E+01 -0.16191866710E+02  0.70051586017E+02  0.10821231353E+03  0.80758680548E+02 0.  0.
         -6    2    1    2    0  503  0.23795789546E+01 -0.99984834494E+02  0.21639039645E+01  0.19628414907E+03  0.16887911408E+03 0.  0.
        -24    2    5    5    0    0  0.46502388194E+02 -0.10220760121E+03 -0.30767642730E+02  0.14098189094E+03  0.79500816860E+02 0.  0.
          5    1    3    3  501    0  0.19261225616E+01  0.11617670120E+03  0.89715825367E+02  0.14687326228E+03  0.47000000000E+01 0. -1.
        -11    1    4    4    0    0 -0.36992306934E+02 -0.37268971282E+01  0.96498497952E+01  0.38411458389E+02  0.00000000000E+00 0.  1.
         12    1    4    4    0    0  0.32686605418E+02 -0.12464969582E+02  0.60401736222E+02  0.69800855146E+02  0.00000000000E+00 0. -1.
         -5    1    5    5    0  503 -0.44122809239E+02  0.22227667146E+01  0.32931546695E+02  0.55302258134E+02  0.47000000000E+01 0.  1.
         13    1    6    6    0    0  0.46266857486E+02 -0.44957517577E+02  0.16670744608E+02  0.66631180495E+02  0.00000000000E+00 0. -1.
        -14    1    6    6    0    0  0.23553070805E+00 -0.57250083631E+02 -0.47438387339E+02  0.74350710445E+02  0.00000000000E+00 0.  1.
</event>
<event>
12    1  0.8798177E-003  0.1874670E+03  0.7818608E-02  0.1160937E+00
         21   -1    0    0  503  502  0.00000000000E+00  0.00000000000E+00  0.86118144969E+03  0.86118144969E+03  0.00000000000E+00 0. -1.
         21   -1    0    0  501  503 -0.00000000000E+00 -0.00000000000E+00 -0.46553031982E+02  0.46553031982E+02  0.00000000000E+00 0. -1.
          6    2    1    2  501    0  0.61611964167E+02  0.37214383918E+02  0.24636239073E+03  0.30957764443E+03  0.17309808163E+03 0.  0.
         24    2    3    3    0    0  0.78804560366E+01  0.82658027354E+02  0.14418442641E+03  0.18542199177E+03  0.81839569522E+02 0.  0.
         -6    2    1    2    0  502 -0.61611964167E+02 -0.37214383918E+02  0.56826602698E+03  0.59815683724E+03  0.17229155529E+03 0.  0.
        -24    2    5    5    0    0 -0.11450617605E+02  0.34551894617E+02  0.37618461245E+03  0.38700779218E+03  0.83277959264E+02 0.  0.
          5    1    3    3  501    0  0.53731508131E+02 -0.45443643435E+02  0.10217796432E+03  0.12415565266E+03  0.47000000000E+01 0. -1.
        -11    1    4    4    0    0 -0.35425295562E+02  0.46428981279E+02  0.89152690495E+02  0.10657769040E+03  0.00000000000E+00 0.  1.
         12    1    4    4    0    0  0.43305751598E+02  0.36229046075E+02  0.55031735918E+02  0.78844301374E+02  0.00000000000E+00 0. -1.
         -5    1    5    5    0  502 -0.50161346563E+02 -0.71766278535E+02  0.19208141453E+03  0.21114904506E+03  0.47000000000E+01 0.  1.
         13    1    6    6    0    0  0.20178571483E+02 -0.89841956719E+00  0.26910345138E+03  0.26986042586E+03  0.00000000000E+00 0. -1.
        -14    1    6    6    0    0 -0.31629189087E+02  0.35450314184E+02  0.10708116107E+03  0.11714736632E+03  0.00000000000E+00 0.  1.
</event>
<event>
12    1  0.8798177E-003  0.1734780E+03  0.7818608E-02  0.1174304E+00
         21   -1    0    0  503  502  0.00000000000E+00  0.00000000000E+00  0.78726888733E+02  0.78726888733E+02  0.00000000000E+00 0. -1.
         21   -1    0    0  501  503 -0.00000000000E+00 -0.00000000000E+00 -0.38196508976E+03  0.38196508976E+03  0.00000000000E+00 0. -1.
          6    2    1    2  501    0  0.18306965107E+02 -0.25183385089E+01 -0.15285087456E+03  0.23120988340E+03  0.17249096593E+03 0.  0.
         24    2    3    3    0    0  0.68878179642E+02  0.25604065512E+02 -0.12590452038E+03  0.16720587297E+03  0.81890682629E+02 0.  0.
         -6    2    1    2    0  502 -0.18306965107E+02  0.25183385089E+01 -0.15038732647E+03  0.22948209510E+03  0.17234905572E+03 0.  0.
        -24    2    5    5    0    0 -0.66892531745E+02 -0.14458145028E+02 -0.14408972274E+03  0.17741955490E+03  0.77667248586E+02 0.  0.
          5    1    3    3  501    0 -0.50571214536E+02 -0.28122404021E+02 -0.26946354179E+02  0.64004010429E+02  0.47000000000E+01 0. -1.
        -11    1    4    4    0    0  0.38598037912E+02  0.18422819560E+02 -0.12902585107E+03  0.13592968423E+03  0.00000000000E+00 0.  1.
         12    1    4    4    0    0  0.30280141731E+02  0.71812459517E+01  0.31213306893E+01  0.31276188737E+02  0.00000000000E+00 0. -1.
         -5    1    5    5    0  502  0.48585566638E+02  0.16976483537E+02 -0.62976037373E+01  0.52062540196E+02  0.47000000000E+01 0.  1.
         13    1    6    6    0    0 -0.75727969908E+02  0.10678440717E+02 -0.99799305502E+02  0.12573247751E+03  0.00000000000E+00 0. -1.
        -14    1    6    6    0    0  0.88354381636E+01 -0.25136585745E+02 -0.44290417234E+02  0.51687077391E+02  0.00000000000E+00 0.  1.
</event>
<event>
12    1  0.8798177E-003  0.2550156E+03  0.7818608E-02  0.1110267E+00
         21   -1    0    0  503  502  0.00000000000E+00  0.00000000000E+00  0.11431660958E+04  0.11431660958E+04  0.00000000000E+00 0. -1.
         21   -1    0    0  501  503 -0.00000000000E+00 -0.00000000000E+00 -0.78409377500E+02  0.78409377500E+02  0.00000000000E+00 0. -1.
          6    2    1    2  501    0 -0.18686762980E+03  0.12971973067E+02  0.21096331884E+03  0.33051087145E+03  0.17217471097E+03 0.  0.
         24    2    3    3    0    0 -0.60965091727E+02 -0.15066355297E+02  0.16511376817E+03  0.19353690222E+03  0.79058450593E+02 0.  0.
         -6    2    1    2    0  502  0.18686762980E+03 -0.12971973067E+02  0.85379339946E+03  0.89106460186E+03  0.17304673519E+03 0.  0.
        -24    2    5    5    0    0  0.95898939256E+02  0.44891724617E+02  0.32058141090E+03  0.34704196913E+03  0.80335632408E+02 0.  0.
          5    1    3    3  501    0 -0.12590253807E+03  0.28038328365E+02  0.45849550677E+02  0.13697396923E+03  0.47000000000E+01 0. -1.
        -11    1    4    4    0    0 -0.74052983020E+02 -0.12715722531E+02  0.16375542069E+03  0.18017039629E+03  0.00000000000E+00 0.  1.
         12    1    4    4    0    0  0.13087891293E+02 -0.23506327662E+01  0.13583474793E+01  0.13366505930E+02  0.00000000000E+00 0. -1.
         -5    1    5    5    0  502  0.90968690543E+02 -0.57863697684E+02  0.53321198856E+03  0.54402263273E+03  0.47000000000E+01 0.  1.
         13    1    6    6    0    0  0.49275302679E+02 -0.92878541532E+01  0.20582592338E+03  0.21184577037E+03  0.00000000000E+00 0. -1.
        -14    1    6    6    0    0  0.46623636578E+02  0.54179578770E+02  0.11475548752E+03  0.13519619876E+03  0.00000000000E+00 0.  1.
</event>
<event>
12    1  0.8798177E-003  0.1798840E+03  0.7818608E-02  0.1167916E+00
         21   -1    0    0  501  502  0.00000000000E+00  0.00000000000E+00  0.28030065407E+03  0.28030065407E+03  0.00000000000E+00 0. -1.
         21   -1    0    0  502  503 -0.00000000000E+00 -0.00000000000E+00 -0.15508522917E+03  0.15508522917E+03  0.00000000000E+00 0. -1.
          6    2    1    2  501    0 -0.51896106943E+02  0.10047481963E+02  0.17267412488E+03  0.24934839227E+03  0.17194216909E+03 0.  0.
         24    2    3    3    0    0 -0.67430400818E+02 -0.51480048568E+02  0.11880444245E+03  0.16597583092E+03  0.78971048804E+02 0.  0.
         -6    2    1    2    0  503  0.51896106943E+02 -0.10047481963E+02 -0.47458699990E+02  0.18603749097E+03  0.17194028624E+03 0.  0.
        -24    2    5    5    0    0 -0.44556279688E+01 -0.14866591234E+02 -0.85398721685E+02  0.11777126881E+03  0.79600640302E+02 0.  0.
          5    1    3    3  501    0  0.15534293875E+02  0.61527530532E+02  0.53869682432E+02  0.83372561343E+02  0.47000000000E+01 0. -1.
        -11    1    4    4    0    0  0.90101005750E+01 -0.37024766326E+02  0.39551784132E+02  0.54921388019E+02  0.00000000000E+00 0.  1.
         12    1    4    4    0    0 -0.76440501393E+02 -0.14455282242E+02  0.79252658320E+02  0.11105444290E+03  0.00000000000E+00 0. -1.
         -5    1    5    5    0  503  0.56351734912E+02  0.48191092707E+01  0.37940021695E+02  0.68266222159E+02  0.47000000000E+01 0.  1.
         11    1    6    6    0    0 -0.16738946270E+02 -0.18007201518E+02  0.61546033675E+01  0.25344245330E+02  0.00000000000E+00 0. -1.
        -12    1    6    6    0    0  0.12283318301E+02  0.31406102837E+01 -0.91553325052E+02  0.92427023481E+02  0.00000000000E+00 0.  1.
</event>
<event>
12    1  0.8798177E-003  0.2317682E+03  0.7818608E-02  0.1126257E+00
         21   -1    0    0  503  502  0.00000000000E+00  0.00000000000E+00  0.22086744999E+03  0.22086744999E+03  0.00000000000E+00 0. -1.
         21   -1    0    0  501  503 -0.00000000000E+00 -0.00000000000E+00 -0.23999263278E+03  0.23999263278E+03  0.00000000000E+00 0. -1.
          6    2    1    2  501    0 -0.86719132581E+02 -0.12066379245E+03  0.10793786169E+02  0.22716876628E+03  0.17149106038E+03 0.  0.
         24    2    3    3    0    0  0.20456025007E+02 -0.40497958469E+02  0.17151005645E+02  0.93095728050E+02  0.79461462278E+02 0.  0.
         -6    2    1    2    0  502  0.86719132581E+02  0.12066379245E+03 -0.29918968954E+02  0.23369131648E+03  0.17786660151E+03 0.  0.
        -24    2    5    5    0    0  0.12921289885E+03  0.10293896042E+03 -0.37803022429E+02  0.18674306688E+03  0.78431509742E+02 0.  0.
          5    1    3    3  501    0 -0.10717515759E+03 -0.80165833978E+02 -0.63572194758E+01  0.13407303823E+03  0.47000000000E+01 0. -1.
        -11    1    4    4    0    0 -0.11793138612E+02 -0.34765464088E+01 -0.25339458485E+02  0.28164741248E+02  0.00000000000E+00 0.  1.
         12    1    4    4    0    0  0.32249163619E+02 -0.37021412060E+02  0.42490464130E+02  0.64930986802E+02  0.00000000000E+00 0. -1.
         -5    1    5    5    0  502 -0.42493766267E+02  0.17724832023E+02  0.78840534746E+01  0.46948249605E+02  0.47000000000E+01 0.  1.
         11    1    6    6    0    0  0.30221746795E+02  0.69678010903E+02 -0.31188484678E+02  0.82104206709E+02  0.00000000000E+00 0. -1.
        -12    1    6    6    0    0  0.98991152054E+02  0.33260949521E+02 -0.66145377510E+01  0.10463886017E+03  0.00000000000E+00 0.  1.
</event>
<event>
12    1  0.8798177E-003  0.4159590E+03  0.7818608E-02  0.1038433E+00
         21   -1    0    0  501  502  0.00000000000E+00  0.00000000000E+00  0.67040594692E+03  0.67040594692E+03  0.00000000000E+00 0. -1.
         21   -1    0    0  502  503 -0.00000000000E+00 -0.00000000000E+00 -0.39696928607E+03  0.39696928607E+03  0.00000000000E+00 0. -1.
          6    2    1    2  501    0 -0.33179358107E+03  0.18160304531E+03  0.45281779706E+03  0.61487059740E+03  0.17307584381E+03 0.  0.
         24    2    3    3    0    0 -0.28042153519E+03  0.96179540466E+02  0.28007136141E+03  0.41537201769E+03  0.78785812140E+02 0.  0.
         -6    2    1    2    0  503  0.33179358107E+03 -0.18160304531E+03 -0.17938113622E+03  0.45250463558E+03  0.17180281339E+03 0.  0.
        -24    2    5    5    0    0  0.13609751828E+03 -0.19173144715E+02 -0.46345572050E+02  0.16544893901E+03  0.79594568987E+02 0.  0.
          5    1    3    3  501    0 -0.51372045880E+02  0.85423504846E+02  0.17274643565E+03  0.19949857972E+03  0.47000000000E+01 0. -1.
        -13    1    4    4    0    0 -0.14775923900E+03  0.56834046689E+02  0.96196992370E+02  0.18524784186E+03  0.00000000000E+00 0.  1.
         14    1    4    4    0    0 -0.13266229619E+03  0.39345493778E+02  0.18387436904E+03  0.23012417583E+03  0.00000000000E+00 0. -1.
         -5    1    5    5    0  503  0.19569606279E+03 -0.16242990060E+03 -0.13303556417E+03  0.28705569657E+03  0.47000000000E+01 0.  1.
         11    1    6    6    0    0  0.26698830828E+02  0.13290008905E+02 -0.41665554238E+02  0.51239343421E+02  0.00000000000E+00 0. -1.
        -12    1    6    6    0    0  0.10939868745E+03 -0.32463153620E+02 -0.46800178125E+01  0.11420959559E+03  0.00000000000E+00 0.  1.
</event>
<event>
12    1  0.8798177E-003  0.2596279E+03  0.7818608E-02  0.1107433E+00
         21   -1    0    0  503  502  0.00000000000E+00  0.00000000000E+00  0.12608366682E+04  0.12608366682E+04  0.00000000000E+00 0.  1.
         21   -1    0    0  501  503 -0.00000000000E+00 -0.00000000000E+00 -0.58314340058E+02  0.58314340058E+02  0.00000000000E+00 0. -1.
          6    2    1    2  501    0 -0.16901111091E+03  0.95818395881E+02  0.79375796302E+03  0.83513971845E+03  0.17222289304E+03 0.  0.
         24    2    3    3    0    0 -0.16880500835E+03  0.50397833212E+02  0.73963173178E+03  0.76432440303E+03  0.78112879631E+02 0.  0.
         -6    2    1    2    0  502  0.16901111091E+03 -0.95818395881E+02  0.40876436516E+03  0.48401128984E+03  0.17155961607E+03 0.  0.
        -24    2    5    5    0    0  0.16194906876E+03 -0.86371468911E+02  0.23533604840E+03  0.31011882904E+03  0.84279896382E+02 0.  0.
          5    1    3    3  501    0 -0.20610255447E+00  0.45420562670E+02  0.54126231233E+02  0.70815315427E+02  0.47000000000E+01 0. -1.
        -11    1    4    4    0    0 -0.13225961262E+03  0.39110823397E+02  0.41210675787E+03  0.43457363188E+03  0.00000000000E+00 0.  1.
         12    1    4    4    0    0 -0.36545395734E+02  0.11287009815E+02  0.32752497391E+03  0.32975077115E+03  0.00000000000E+00 0. -1.
         -5    1    5    5    0  502  0.70620421521E+01 -0.94469269700E+01  0.17342831677E+03  0.17389246081E+03  0.47000000000E+01 0.  1.
         11    1    6    6    0    0  0.64212082379E+02  0.45686309313E+01  0.10738584865E+03  0.12520297282E+03  0.00000000000E+00 0. -1.
        -12    1    6    6    0    0  0.97736986378E+02 -0.90940099843E+02  0.12795019975E+03  0.18491585622E+03  0.00000000000E+00 0.  1.
</event>
<event>
12    1  0.8798177E-003  0.1742983E+03  0.7818608E-02  0.1173622E+00
         21   -1    0    0  501  502  0.00000000000E+00  0.00000000000E+00  0.11211425039E+03  0.11211425039E+03  0.00000000000E+00 0.  1.
         21   -1    0    0  502  503 -0.00000000000E+00 -0.00000000000E+00 -0.29388538433E+03  0.29388538433E+03  0.00000000000E+00 0.  1.
          6    2    1    2  501    0 -0.26417883592E+02 -0.16761598004E+02 -0.33000396908E+02  0.17739482931E+03  0.17146732496E+03 0.  0.
         24    2    3    3    0    0 -0.33850764468E+02  0.39859732435E+02 -0.59375813169E+02  0.11431570946E+03  0.82510130982E+02 0.  0.
         -6    2    1    2    0  503  0.26417883592E+02  0.16761598004E+02 -0.14877073704E+03  0.22860480541E+03  0.17072952034E+03 0.  0.
        -24    2    5    5    0    0  0.37992508706E+01  0.68734514426E+02 -0.13227591379E+03  0.16938524967E+03  0.80346609485E+02 0.  0.
          5    1    3    3  501    0  0.74328808767E+01 -0.56621330439E+02  0.26375416260E+02  0.63079119855E+02  0.47000000000E+01 0. -1.
        -11    1    4    4    0    0 -0.26894667934E+02 -0.13547258331E+02 -0.51813842169E+02  0.59929338490E+02  0.00000000000E+00 0.  1.
         12    1    4    4    0    0 -0.69560965343E+01  0.53406990766E+02 -0.75619709996E+01  0.54386370968E+02  0.00000000000E+00 0. -1.
         -5    1    5    5    0  503  0.22618632721E+02 -0.51972916423E+02 -0.16494823245E+02  0.59219555736E+02  0.47000000000E+01 0.  1.
         11    1    6    6    0    0 -0.32881813873E+02  0.11796044120E+02 -0.65713103049E+02  0.74421584589E+02  0.00000000000E+00 0. -1.
        -12    1    6    6    0    0  0.36681064744E+02  0.56938470307E+02 -0.66562810745E+02  0.94963665083E+02  0.00000000000E+00 0.  1.
</event>
<event>
12    1  0.8798177E-003  0.1725288E+03  0.7818608E-02  0.1175439E+00
         21   -1    0    0  503  502  0.00000000000E+00  0.00000000000E+00  0.26061423788E+03  0.26061423788E+03  0.00000000000E+00 0.  1.
         21   -1    0    0  501  503 -0.00000000000E+00 -0.00000000000E+00 -0.18697372859E+03  0.18697372859E+03  0.00000000000E+00 0.  1.
          6    2    1    2  501    0  0.11519022190E+02 -0.11516869050E+02 -0.10323262162E+03  0.20105511765E+03  0.17175814398E+03 0.  0.
         24    2    3    3    0    0  0.13379037453E+02 -0.57820782766E+02 -0.11655479305E+03  0.15260842185E+03  0.78626134815E+02 0.  0.
         -6    2    1    2    0  502 -0.11519022190E+02  0.11516869050E+02  0.17687313091E+03  0.24653284881E+03  0.17096495243E+03 0.  0.
        -24    2    5    5    0    0  0.20945248697E+01  0.14467556263E+02  0.20141911774E+03  0.21792112591E+03  0.81891751160E+02 0.  0.
          5    1    3    3  501    0 -0.18600152630E+01  0.46303913716E+02  0.13322171429E+02  0.48446695798E+02  0.47000000000E+01 0. -1.
        -13    1    4    4    0    0  0.43274308980E+02 -0.42016624117E+02 -0.94924589664E+02  0.11246661835E+03  0.00000000000E+00 0.  1.
         14    1    4    4    0    0 -0.29895271528E+02 -0.15804158650E+02 -0.21630203382E+02  0.40141803505E+02  0.00000000000E+00 0. -1.
         -5    1    5    5    0  502 -0.13613547060E+02 -0.29506872126E+01 -0.24545986825E+02  0.28611722908E+02  0.47000000000E+01 0.  1.
         13    1    6    6    0    0 -0.29462152616E+02  0.24796240184E+02  0.51136844707E+02  0.64014442516E+02  0.00000000000E+00 0. -1.
        -14    1    6    6    0    0  0.31556677486E+02 -0.10328683921E+02  0.15028227303E+03  0.15390668339E+03  0.00000000000E+00 0.  1.
</event>
<event>
12    1  0.8798177E-003  0.1998016E+03  0.7818608E-02  0.1150094E+00
         21   -1    0    0  501  502  0.00000000000E+00  0.00000000000E+00  0.17300520725E+03  0.17300520725E+03  0.00000000000E+00 0.  1.
         21   -1    0    0  502  503 -0.00000000000E+00 -0.00000000000E+00 -0.31303286438E+03  0.31303286438E+03  0.00000000000E+00 0. -1.
          6    2    1    2  501    0  0.88272319717E+02  0.50251171655E+02  0.55238598383E+02  0.20729689277E+03  0.17205672414E+03 0.  0.
         24    2    3    3    0    0  0.61239675177E+02  0.24770565189E+02 -0.31656975777E+02  0.11267683155E+03  0.85615568315E+02 0.  0.
         -6    2    1    2    0  503 -0.88272319717E+02 -0.50251171655E+02 -0.19526625551E+03  0.27874117886E+03  0.17102792628E+03 0.  0.
        -24    2    5    5    0    0 -0.60916075111E+02 -0.59317623253E+02 -0.44140471271E+02  0.12482023380E+03  0.80014754436E+02 0.  0.
          5    1    3    3  501    0  0.27032644540E+02  0.25480606466E+02  0.86895574160E+02  0.94620061221E+02  0.47000000000E+01 0. -1.
        -11    1    4    4    0    0  0.62929539610E+02  0.14601449613E+02  0.13805748886E+02  0.66060033217E+02  0.00000000000E+00 0.  1.
         12    1    4    4    0    0 -0.16898644324E+01  0.10169115576E+02 -0.45462724663E+02  0.46616798337E+02  0.00000000000E+00 0. -1.
         -5    1    5    5    0  503 -0.27356244607E+02  0.90664515980E+01 -0.15112578424E+03  0.15392094505E+03  0.47000000000E+01 0.  1.
         11    1    6    6    0    0 -0.35672980523E+02 -0.68830817447E+02 -0.55711301624E+02  0.95467230495E+02  0.00000000000E+00 0. -1.
        -12    1    6    6    0    0 -0.25243094588E+02  0.95131941943E+01  0.11570830353E+02  0.29353003308E+02  0.00000000000E+00 0.  1.
</event>
<event>
12    1  0.8798177E-003  0.2612090E+03  0.7818608E-02  0.1106489E+00
         21   -1    0    0  503  502  0.00000000000E+00  0.00000000000E+00  0.31380246397E+03  0.31380246397E+03  0.00000000000E+00 0. -1.
         21   -1    0    0  501  503 -0.00000000000E+00 -0.00000000000E+00 -0.23156145784E+03  0.23156145784E+03  0.00000000000E+00 0. -1.
          6    2    1    2  501    0 -0.19751151019E+03 -0.15476018660E+02 -0.27197742527E+02  0.26215551518E+03  0.16951546576E+03 0.  0.
         24    2    3    3    0    0 -0.64154536778E+02  0.14594051190E+02 -0.63351724299E+02  0.12067232941E+03  0.78864308752E+02 0.  0.
         -6    2    1    2    0  502  0.19751151019E+03  0.15476018660E+02  0.10943874867E+03  0.28320840663E+03  0.17023471463E+03 0.  0.
        -24    2    5    5    0    0  0.11291239134E+03  0.83437213213E+01  0.13310483208E+03  0.19494712362E+03  0.86421402901E+02 0.  0.
          5    1    3    3  501    0 -0.13335697341E+03 -0.30070069850E+02  0.36153981772E+02  0.14148318577E+03  0.47000000000E+01 0. -1.
        -13    1    4    4    0    0 -0.24012824594E+02  0.53828122752E+01  0.17322001020E+02  0.30093888621E+02  0.00000000000E+00 0.  1.
         14    1    4    4    0    0 -0.40141712184E+02  0.92112389151E+01 -0.80673725319E+02  0.90578440792E+02  0.00000000000E+00 0. -1.
         -5    1    5    5    0  502  0.84599118847E+02  0.71322973383E+01 -0.23666083415E+02  0.88261283014E+02  0.47000000000E+01 0.  1.
         13    1    6    6    0    0  0.13391930224E+02 -0.19667229331E+02 -0.30493377925E+01  0.23988375636E+02  0.00000000000E+00 0. -1.
        -14    1    6    6    0    0  0.99520461116E+02  0.28010950652E+02  0.13615416987E+03  0.17095874798E+03  0.00000000000E+00 0.  1.
</event>
<event>
12    1  0.8798177E-003  0.1764373E+03  0.7818608E-02  0.1171486E+00
         21   -1    0    0  501  502  0.00000000000E+00  0.00000000000E+00  0.83876338436E+03  0.83876338436E+03  0.00000000000E+00 0. -1.
         21   -1    0    0  502  503 -0.00000000000E+00 -0.00000000000E+00 -0.40929347065E+02  0.40929347065E+02  0.00000000000E+00 0. -1.
          6    2    1    2  501    0 -0.14707149040E+02  0.31773508939E+02  0.53677110892E+03  0.56502508638E+03  0.17292850769E+03 0.  0.
         24    2    3    3    0    0 -0.19997759606E+02 -0.15645948904E+02  0.12446710330E+03  0.14994283118E+03  0.79662329304E+02 0.  0.
         -6    2    1    2    0  503  0.14707149040E+02 -0.31773508939E+02  0.26106292837E+03  0.31466764504E+03  0.17215114917E+03 0.  0.
        -24    2    5    5    0    0  0.68730313663E+02 -0.21456708104E+01  0.20966050416E+03  0.23428972317E+03  0.78776185874E+02 0.  0.
          5    1    3    3  501    0  0.52906105666E+01  0.47419457843E+02  0.41230400562E+03  0.41508225521E+03  0.47000000000E+01 0. -1.
        -11    1    4    4    0    0 -0.25161603020E+02  0.13095185904E+02  0.74362457947E+01  0.29323845448E+02  0.00000000000E+00 0.  1.
         12    1    4    4    0    0  0.51638434134E+01 -0.28741134808E+02  0.11703085751E+03  0.12061898573E+03  0.00000000000E+00 0. -1.
         -5    1    5    5    0  503 -0.54023164624E+02 -0.29627838128E+02  0.51402424214E+02  0.80377921864E+02  0.47000000000E+01 0.  1.
         13    1    6    6    0    0  0.40487815725E+02  0.16464273491E+00  0.25253487250E+02  0.47718224482E+02  0.00000000000E+00 0. -1.
        -14    1    6    6    0    0  0.28242497938E+02 -0.23103135453E+01  0.18440701691E+03  0.18657149869E+03  0.00000000000E+00 0.  1.
</event>
<event>
12    1  0.8798177E-003  0.1877954E+03  0.7818608E-02  0.1160705E+00
         21   -1    0    0  503  502  0.00000000000E+00  0.00000000000E+00  0.11515922482E+03  0.11515922482E+03  0.00000000000E+00 0.  1.
         21   -1    0    0  501  503 -0.00000000000E+00 -0.00000000000E+00 -0.45831872596E+03  0.45831872596E+03  0.00000000000E+00 0.  1.
          6    2    1    2  501    0  0.34419461646E+02 -0.63832718405E+02 -0.33735123292E+03  0.38559278743E+03  0.17209482296E+03 0.  0.
         24    2    3    3    0    0  0.11407297593E+02 -0.10947490232E+03 -0.24244795699E+03  0.27769704874E+03  0.78865444612E+02 0.  0.
         -6    2    1    2    0  502 -0.34419461646E+02  0.63832718405E+02 -0.58082682252E+01  0.18788516335E+03  0.17322754789E+03 0.  0.
        -24    2    5    5    0    0 -0.84584056726E+02  0.62544582336E+02  0.49430513120E+01  0.13635044917E+03  0.86606719145E+02 0.  0.
          5    1    3    3  501    0  0.23012164053E+02  0.45642183912E+02 -0.94903275928E+02  0.10789573869E+03  0.47000000000E+01 0. -1.
        -11    1    4    4    0    0  0.64675341425E+01 -0.79926619303E+02 -0.82807911351E+02  0.11527030690E+03  0.00000000000E+00 0.  1.
         12    1    4    4    0    0  0.49397634509E+01 -0.29548283014E+02 -0.15964004564E+03  0.16242674183E+03  0.00000000000E+00 0. -1.
         -5    1    5    5    0  502  0.50164595079E+02  0.12881360689E+01 -0.10751319537E+02  0.51534714182E+02  0.47000000000E+01 0.  1.
         13    1    6    6    0    0 -0.20883141903E+02  0.38593177556E+02 -0.36147775948E+02  0.56852446523E+02  0.00000000000E+00 0. -1.
        -14    1    6    6    0    0 -0.63700914823E+02  0.23951404780E+02  0.41090827260E+02  0.79498002648E+02  0.00000000000E+00 0.  1.
</event>
<event>
12    1  0.8798177E-003  0.1949623E+03  0.7818608E-02  0.1154486E+00
         21   -1    0    0  503  502  0.00000000000E+00  0.00000000000E+00  0.40994457142E+03  0.40994457142E+03  0.00000000000E+00 0.  1.
         21   -1    0    0  501  503 -0.00000000000E+00 -0.00000000000E+00 -0.15295931880E+03  0.15295931880E+03  0.00000000000E+00 0. -1.
          6    2    1    2  501    0 -0.83738256619E+02 -0.29096043707E+02 -0.49091781083E+02  0.20104799981E+03  0.17364221802E+03 0.  0.
         24    2    3    3    0    0 -0.12031497340E+03 -0.22981245501E+02 -0.42142506541E+01  0.14264141025E+03  0.72972471104E+02 0.  0.
         -6    2    1    2    0  502  0.83738256619E+02  0.29096043707E+02  0.30607703371E+03  0.36185589040E+03  0.17145803998E+03 0.  0.
        -24    2    5    5    0    0  0.88310270673E+02 -0.35600818983E+02  0.16512103332E+03  0.20662293191E+03  0.79761883948E+02 0.  0.
          5    1    3    3  501    0  0.36576716781E+02 -0.61147982064E+01 -0.44877530429E+02  0.58406589568E+02  0.47000000000E+01 0. -1.
        -13    1    4    4    0    0 -0.11155607278E+03 -0.43593749895E+02 -0.74973713263E+01  0.12000576228E+03  0.00000000000E+00 0.  1.
         14    1    4    4    0    0 -0.87589006237E+01  0.20612504394E+02  0.32831206723E+01  0.22635647967E+02  0.00000000000E+00 0. -1.
         -5    1    5    5    0  502 -0.45720140538E+01  0.64696862690E+02  0.14095600039E+03  0.15523295849E+03  0.47000000000E+01 0.  1.
         11    1    6    6    0    0  0.22666595908E+02  0.12532090269E+02  0.41356221546E+01  0.26228443095E+02  0.00000000000E+00 0. -1.
        -12    1    6    6    0    0  0.65643674765E+02 -0.48132909252E+02  0.16098541116E+03  0.18039448882E+03  0.00000000000E+00 0.  1.
</event>
<event>
12    1  0.8798177E-003  0.1745459E+03  0.7818608E-02  0.1173620E+00
         21   -1    0    0  503  502  0.00000000000E+00  0.00000000000E+00  0.15112197181E+04  0.15112197181E+04  0.00000000000E+00 0. -1.
         21   -1    0    0  501  503 -0.00000000000E+00 -0.00000000000E+00 -0.22584364186E+02  0.22584364186E+02  0.00000000000E+00 0.  1.
          6    2    1    2  501    0  0.27363521945E+01 -0.29796805670E+02  0.47986087183E+03  0.51004031999E+03  0.17023317670E+03 0.  0.
         24    2    3    3    0    0  0.56766667354E+02 -0.43077427404E+02  0.39037297213E+03  0.40456129808E+03  0.78744315745E+02 0.  0.
         -6    2    1    2    0  502 -0.27363521945E+01  0.29796805670E+02  0.10087744821E+04  0.10237637623E+04  0.17196205407E+03 0.  0.
        -24    2    5    5    0    0 -0.68881054080E+02  0.21576807419E+02  0.66634211826E+03  0.67487308637E+03  0.78941154686E+02 0.  0.
          5    1    3    3  501    0 -0.54030315159E+02  0.13280621734E+02  0.89487899702E+02  0.10547902191E+03  0.47000000000E+01 0. -1.
        -13    1    4    4    0    0  0.26520966689E+02  0.21678251194E+02  0.14502957348E+03  0.14901974847E+03  0.00000000000E+00 0.  1.
         14    1    4    4    0    0  0.30245700665E+02 -0.64755678598E+02  0.24534339864E+03  0.25554154961E+03  0.00000000000E+00 0. -1.
         -5    1    5    5    0  502  0.66144701886E+02  0.82199982510E+01  0.34243236387E+03  0.34889067597E+03  0.47000000000E+01 0.  1.
         11    1    6    6    0    0 -0.38955888133E+02  0.18165492322E+01  0.58093965314E+03  0.58224714826E+03  0.00000000000E+00 0. -1.
        -12    1    6    6    0    0 -0.29925165947E+02  0.19760258187E+02  0.85402465124E+02  0.92625938105E+02  0.00000000000E+00 0.  1.
</event>
<event>
12    1  0.8798177E-003  0.2139259E+03  0.7818608E-02  0.1142052E+00
         21   -1    0    0  503  502  0.00000000000E+00  0.00000000000E+00  0.13892935399E+03  0.13892935399E+03  0.00000000000E+00 0.  1.
         21   -1    0    0  501  503 -0.00000000000E+00 -0.00000000000E+00 -0.44678053920E+03  0.44678053920E+03  0.00000000000E+00 0.  1.
          6    2    1    2  501    0 -0.31109810437E+02  0.90212089430E+02 -0.31554705187E+03  0.37164557926E+03  0.17159386136E+03 0.  0.
         24    2    3    3    0    0 -0.47413411263E+02  0.45606144170E+02 -0.30565959881E+03  0.32290802208E+03  0.80708416058E+02 0.  0.
         -6    2    1    2    0  502  0.31109810437E+02 -0.90212089430E+02  0.76958666664E+01  0.21406431393E+03  0.19146347628E+03 0.  0.
        -24    2    5    5    0    0  0.79121593991E+01 -0.45209620602E+02 -0.75558357459E+02  0.11651069252E+03  0.75889156201E+02 0.  0.
          5    1    3    3  501    0  0.16303600826E+02  0.44605945259E+02 -0.98874530574E+01  0.48737557185E+02  0.47000000000E+01 0. -1.
        -11    1    4    4    0    0 -0.36178480685E+02 -0.16886923597E+02 -0.13671875021E+03  0.14242916595E+03  0.00000000000E+00 0.  1.
         12    1    4    4    0    0 -0.11234930578E+02  0.62493067767E+02 -0.16894084860E+03  0.18047885613E+03  0.00000000000E+00 0. -1.
         -5    1    5    5    0  502  0.23197651038E+02 -0.45002468827E+02  0.83254224126E+02  0.97553621404E+02  0.47000000000E+01 0.  1.
         13    1    6    6    0    0  0.29718622320E+01  0.21449370792E+02 -0.21873630744E+02  0.30779265658E+02  0.00000000000E+00 0. -1.
        -14    1    6    6    0    0  0.49402971671E+01 -0.66658991394E+02 -0.53684726715E+02  0.85731426865E+02  0.00000000000E+00 0.  1.
</event>
<event>
12    1  0.8798177E-003  0.1881491E+03  0.7818608E-02  0.1160682E+00
         21   -1    0    0  501  502  0.00000000000E+00  0.00000000000E+00  0.18797506901E+03  0.18797506901E+03  0.00000000000E+00 0.  1.
         21   -1    0    0  502  503 -0.00000000000E+00 -0.00000000000E+00 -0.18658646504E+03  0.18658646504E+03  0.00000000000E+00 0.  1.
          6    2    1    2  501    0 -0.37673708530E+02 -0.59339726886E+02 -0.99967432632E+01  0.18841444639E+03  0.17452666625E+03 0.  0.
         24    2    3    3    0    0  0.31577810544E+02 -0.15180069670E+01  0.28690103979E+02  0.90139900662E+02  0.79389024186E+02 0.  0.
         -6    2    1    2    0  503  0.37673708530E+02  0.59339726886E+02  0.11385347240E+02  0.18614708766E+03  0.17199011777E+03 0.  0.
        -24    2    5    5    0    0 -0.73970356062E+01  0.90679924545E+02 -0.10440743242E+02  0.12688455150E+03  0.87824344228E+02 0.  0.
          5    1    3    3  501    0 -0.69251519074E+02 -0.57821719919E+02 -0.38686847242E+02  0.98274545727E+02  0.47000000000E+01 0. -1.
        -11    1    4    4    0    0  0.30577138330E+01 -0.37707852605E+02  0.21473514072E+02  0.43501075488E+02  0.00000000000E+00 0.  1.
         12    1    4    4    0    0  0.28520096711E+02  0.36189845638E+02  0.72165899063E+01  0.46638825174E+02  0.00000000000E+00 0. -1.
         -5    1    5    5    0  503  0.45070744136E+02 -0.31340197659E+02  0.21826090483E+02  0.59262536160E+02  0.47000000000E+01 0.  1.
         13    1    6    6    0    0  0.12767255626E+02 -0.31442881293E+01  0.21960322493E+02  0.25595802938E+02  0.00000000000E+00 0. -1.
        -14    1    6    6    0    0 -0.20164291232E+02  0.93824212674E+02 -0.32401065735E+02  0.10128874856E+03  0.00000000000E+00 0.  1.
</event>
<event>
12    1  0.8798177E-003  0.2005676E+03  0.7818608E-02  0.1149482E+00
         21   -1    0    0  503  502  0.00000000000E+00  0.00000000000E+00  0.27945593112E+03  0.27945593112E+03  0.00000000000E+00 0.  1.
         21   -1    0    0  501  503 -0.00000000000E+00 -0.00000000000E+00 -0.14375514722E+03  0.14375514722E+03  0.00000000000E+00 0. -1.
          6    2    1    2  501    0  0.99018723228E+02  0.23719698652E+02  0.54491856691E+02  0.20682660529E+03  0.17158248907E+03 0.  0.
         24    2    3    3    0    0  0.65806916578E+01 -0.23052433205E+02 -0.11017490404E+02  0.84164522492E+02  0.79922222017E+02 0.  0.
         -6    2    1    2    0  502 -0.99018723228E+02 -0.23719698652E+02  0.81208927214E+02  0.21638447305E+03  0.17280051697E+03 0.  0.
        -24    2    5    5    0    0 -0.51102081654E+01  0.34215056959E+02  0.55150632691E+02  0.10291037987E+03  0.79700499680E+02 0.  0.
          5    1    3    3  501    0  0.92438031570E+02  0.46772131857E+02  0.65509347095E+02  0.12266208280E+03  0.47000000000E+01 0. -1.
        -11    1    4    4    0    0  0.86101806201E+01 -0.31863411526E+01 -0.44359588379E+02  0.45299680588E+02  0.00000000000E+00 0.  1.
         12    1    4    4    0    0 -0.20294889623E+01 -0.19866092052E+02  0.33342097974E+02  0.38864841904E+02  0.00000000000E+00 0. -1.
         -5    1    5    5    0  502 -0.93908515063E+02 -0.57934755611E+02  0.26058294523E+02  0.11347409318E+03  0.47000000000E+01 0.  1.
         13    1    6    6    0    0 -0.43255779354E+01  0.60328236242E+02  0.42213541818E+02  0.73757642488E+02  0.00000000000E+00 0. -1.
        -14    1    6    6    0    0 -0.78463023006E+00 -0.26113179283E+02  0.12937090873E+02  0.29152737386E+02  0.00000000000E+00 0.  1.
</event>
<event>
12    1  0.8798177E-003  0.1886321E+03  0.7818608E-02  0.1160077E+00
         21   -1    0    0  501  502  0.00000000000E+00  0.00000000000E+00  0.25097866617E+02  0.25097866617E+02  0.00000000000E+00 0.  1.
         21   -1    0    0  502  503 -0.00000000000E+00 -0.00000000000E+00 -0.14156771766E+04  0.14156771766E+04  0.00000000000E+00 0. -1.
          6    2    1    2  501    0  0.76645286360E+01  0.72906167044E+02 -0.63093617063E+03  0.65806196781E+03  0.17202048677E+03 0.  0.
         24    2    3    3    0    0  0.14751206521E+02 -0.60625164384E+01 -0.15119549928E+03  0.17179097780E+03  0.79985679036E+02 0.  0.
         -6    2    1    2    0  503 -0.76645286360E+01 -0.72906167044E+02 -0.75964313932E+03  0.78271307538E+03  0.17380450243E+03 0.  0.
        -24    2    5    5    0    0  0.31324370287E+02  0.11236263815E+02 -0.24626296520E+03  0.26100302556E+03  0.79810159261E+02 0.  0.
          5    1    3    3  501    0 -0.70866778846E+01  0.78968683482E+02 -0.47974067135E+03  0.48627099000E+03  0.47000000000E+01 0. -1.
        -13    1    4    4    0    0 -0.24475146320E+02 -0.13214709665E+02 -0.18928118384E+02  0.33644241773E+02  0.00000000000E+00 0.  1.
         14    1    4    4    0    0  0.39226352841E+02  0.71521932268E+01 -0.13226738090E+03  0.13814673603E+03  0.00000000000E+00 0. -1.
         -5    1    5    5    0  503 -0.38988898923E+02 -0.84142430859E+02 -0.51338017412E+03  0.52171004982E+03  0.47000000000E+01 0.  1.
         11    1    6    6    0    0  0.26830910582E+02 -0.14839721316E+01 -0.18003879818E+02  0.32345627594E+02  0.00000000000E+00 0. -1.
        -12    1    6    6    0    0  0.44934597047E+01  0.12720235947E+02 -0.22825908538E+03  0.22865739796E+03  0.00000000000E+00 0.  1.
</event>
<event>
12    1  0.8798177E-003  0.1920622E+03  0.7818608E-02  0.1158592E+00
         21   -1    0    0  503  502  0.00000000000E+00  0.00000000000E+00  0.12767093178E+03  0.12767093178E+03  0.00000000000E+00 0.  1.
         21   -1    0    0  501  503 -0.00000000000E+00 -0.00000000000E+00 -0.27614628388E+03  0.27614628388E+03  0.00000000000E+00 0.  1.
          6    2    1    2  501    0 -0.23329294836E+02 -0.55240449974E+02 -0.80157060223E+02  0.20811789854E+03  0.18246134406E+03 0.  0.
         24    2    3    3    0    0 -0.44400273926E+02  0.54676364349E+01 -0.10537970834E+03  0.13892447476E+03  0.78700999900E+02 0.  0.
         -6    2    1    2    0  502  0.23329294836E+02  0.55240449974E+02 -0.68318291874E+02  0.19569931713E+03  0.17330629074E+03 0.  0.
        -24    2    5    5    0    0 -0.51321233956E+02  0.69180594746E+01 -0.48447567885E+02  0.10445957499E+03  0.76700113249E+02 0.  0.
          5    1    3    3  501    0  0.21070979090E+02 -0.60708086409E+02  0.25222648118E+02  0.69193423772E+02  0.47000000000E+01 0. -1.
        -11    1    4    4    0    0 -0.13693560512E+02 -0.16798850881E+02 -0.97891797813E+02  0.10026225147E+03  0.00000000000E+00 0.  1.
         12    1    4    4    0    0 -0.30706713414E+02  0.22266487315E+02 -0.74879105284E+01  0.38662223295E+02  0.00000000000E+00 0. -1.
         -5    1    5    5    0  502  0.74650528792E+02  0.48322390499E+02 -0.19870723989E+02  0.91239742132E+02  0.47000000000E+01 0.  1.
         11    1    6    6    0    0 -0.63630387950E+02  0.22178127058E+02 -0.20715395083E+02  0.70496972871E+02  0.00000000000E+00 0. -1.
        -12    1    6    6    0    0  0.12309153994E+02 -0.15260067583E+02 -0.27732172802E+02  0.33962602124E+02  0.00000000000E+00 0.  1.
</event>
<event>
12    1  0.8798177E-003  0.2359561E+03  0.7818608E-02  0.1122878E+00
         21   -1    0    0  501  502  0.00000000000E+00  0.00000000000E+00  0.72827890964E+03  0.72827890964E+03  0.00000000000E+00 0. -1.
         21   -1    0    0  502  503 -0.00000000000E+00 -0.00000000000E+00 -0.10478636225E+03  0.10478636225E+03  0.00000000000E+00 0. -1.
          6    2    1    2  501    0  0.13614363612E+03 -0.81089612300E+02  0.52994063811E+03  0.57924009030E+03  0.17196333158E+03 0.  0.
         24    2    3    3    0    0  0.16724755557E+03 -0.55728620843E+02  0.44469243516E+03  0.48490038604E+03  0.79370009898E+02 0.  0.
         -6    2    1    2    0  503 -0.13614363612E+03  0.81089612300E+02  0.93551909282E+02  0.25382518160E+03  0.17482748126E+03 0.  0.
        -24    2    5    5    0    0 -0.72027723103E+02  0.61524469229E+02 -0.16163794214E+02  0.12516566691E+03  0.80199268829E+02 0.  0.
          5    1    3    3  501    0 -0.31103919447E+02 -0.25360991457E+02  0.85248202954E+02  0.94339704258E+02  0.47000000000E+01 0. -1.
        -11    1    4    4    0    0  0.64929336250E+02  0.14161195957E+02  0.11688866676E+03  0.13445935666E+03  0.00000000000E+00 0.  1.
         12    1    4    4    0    0  0.10231821932E+03 -0.69889816800E+02  0.32780376839E+03  0.35044102938E+03  0.00000000000E+00 0. -1.
         -5    1    5    5    0  503 -0.64115913017E+02  0.19565143071E+02  0.10971570350E+03  0.12865951468E+03  0.47000000000E+01 0.  1.
         11    1    6    6    0    0 -0.50464184746E+02  0.14554314678E+02 -0.42125806880E+02  0.67327896322E+02  0.00000000000E+00 0. -1.
        -12    1    6    6    0    0 -0.21563538356E+02  0.46970154551E+02  0.25962012666E+02  0.57837770589E+02  0.00000000000E+00 0.  1.
</event>
<event>
12    1  0.8798177E-003  0.2326424E+03  0.7818608E-02  0.1125711E+00
         21   -1    0    0  503  502  0.00000000000E+00  0.00000000000E+00  0.85790145126E+02  0.85790145126E+02  0.00000000000E+00 0.  1.
         21   -1    0    0  501  503 -0.00000000000E+00 -0.00000000000E+00 -0.71222139959E+03  0.71222139959E+03  0.00000000000E+00 0.  1.
          6    2    1    2  501    0  0.57951601867E+02 -0.14531430401E+03 -0.46235492799E+03  0.51758530498E+03  0.17218546219E+03 0.  0.
         24    2    3    3    0    0 -0.14225794968E+02 -0.12296738297E+03 -0.37561432251E+03  0.40245501300E+03  0.74569214112E+02 0.  0.
         -6    2    1    2    0  502 -0.57951601867E+02  0.14531430401E+03 -0.16407632648E+03  0.28042623974E+03  0.16505514204E+03 0.  0.
        -24    2    5    5    0    0 -0.13232642932E+02  0.19453142531E+02 -0.23794072053E+02  0.86668612369E+02  0.79948501623E+02 0.  0.
          5    1    3    3  501    0  0.72177396835E+02 -0.22346921043E+02 -0.86740605473E+02  0.11513029198E+03  0.47000000000E+01 0. -1.
        -13    1    4    4    0    0  0.22916203008E+02 -0.91448783368E+02 -0.27405159693E+03  0.28981426831E+03  0.00000000000E+00 0.  1.
         14    1    4    4    0    0 -0.37141997977E+02 -0.31518599599E+02 -0.10156272559E+03  0.11264074468E+03  0.00000000000E+00 0. -1.
         -5    1    5    5    0  502 -0.44718958936E+02  0.12586116148E+03 -0.14028225443E+03  0.19375762737E+03  0.47000000000E+01 0.  1.
         13    1    6    6    0    0  0.40830406154E+01  0.23789195339E+02  0.24976750421E+02  0.34733774588E+02  0.00000000000E+00 0. -1.
        -14    1    6    6    0    0 -0.17315683547E+02 -0.43360528074E+01 -0.48770822473E+02  0.51934837781E+02  0.00000000000E+00 0.  1.
</event>
<event>
12    1  0.8798177E-003  0.1786371E+03  0.7818608E-02  0.1169171E+00
         21   -1    0    0  501  502  0.00000000000E+00  0.00000000000E+00  0.26912792232E+03  0.26912792232E+03  0.00000000000E+00 0.  1.
         21   -1    0    0  502  503 -0.00000000000E+00 -0.00000000000E+00 -0.13768511846E+03  0.13768511846E+03  0.00000000000E+00 0.  1.
          6    2    1    2  501    0  0.27164104563E+02 -0.36635449073E+02  0.14176345964E+03  0.22805279233E+03  0.17271697338E+03 0.  0.
         24    2    3    3    0    0  0.67892947512E+02  0.10137627787E+02  0.12470902490E+03  0.16355858242E+03  0.80540953388E+02 0.  0.
         -6    2    1    2    0  503 -0.27164104563E+02  0.36635449073E+02 -0.10320655779E+02  0.17876024846E+03  0.17253598404E+03 0.  0.
        -24    2    5    5    0    0 -0.70631582624E+02 -0.44090449183E+01 -0.12443191557E+02  0.11875468794E+03  0.94549366734E+02 0.  0.
          5    1    3    3  501    0 -0.40728842949E+02 -0.46773076860E+02  0.17054434735E+02  0.64494209903E+02  0.47000000000E+01 0. -1.
        -13    1    4    4    0    0 -0.50422311237E+01 -0.24434507568E+02  0.25700740957E+02  0.35818952254E+02  0.00000000000E+00 0.  1.
         14    1    4    4    0    0  0.72935178635E+02  0.34572135355E+02  0.99008283947E+02  0.12773963017E+03  0.00000000000E+00 0. -1.
         -5    1    5    5    0  503  0.43467478061E+02  0.41044493991E+02  0.21225357778E+01  0.60005560527E+02  0.47000000000E+01 0.  1.
         11    1    6    6    0    0 -0.41659703431E+02  0.14825287332E+01  0.40497148562E+02  0.58118394877E+02  0.00000000000E+00 0. -1.
        -12    1    6    6    0    0 -0.28971879192E+02 -0.58915736515E+01 -0.52940340119E+02  0.60636293059E+02  0.00000000000E+00 0.  1.
</event>
<event>
12    1  0.8798177E-003  0.2156632E+03  0.7818608E-02  0.1137524E+00
         21   -1    0    0  501  502  0.00000000000E+00  0.00000000000E+00  0.11434383381E+04  0.11434383381E+04  0.00000000000E+00 0. -1.
         21   -1    0    0  502  503 -0.00000000000E+00 -0.00000000000E+00 -0.45746893098E+02  0.45746893098E+02  0.00000000000E+00 0. -1.
          6    2    1    2  501    0 -0.12384559611E+03  0.39051752417E+02  0.75153652073E+03  0.78134476412E+03  0.16979319003E+03 0.  0.
         24    2    3    3    0    0 -0.20454026730E+02  0.37749303789E+00  0.16665588830E+03  0.18611963096E+03  0.80298332558E+02 0.  0.
         -6    2    1    2    0  503  0.12384559611E+03 -0.39051752417E+02  0.34615492429E+03  0.40784046710E+03  0.17218549286E+03 0.  0.
        -24    2    5    5    0    0  0.24244272835E+01 -0.66684766846E+01  0.94930659610E+02  0.12690008561E+03  0.83913378942E+02 0.  0.
          5    1    3    3  501    0 -0.10339156938E+03  0.38674259379E+02  0.58488063243E+03  0.59522513316E+03  0.47000000000E+01 0. -1.
        -11    1    4    4    0    0 -0.50115785570E+02  0.72060044528E+01  0.12187643415E+03  0.13197493574E+03  0.00000000000E+00 0.  1.
         12    1    4    4    0    0  0.29661758840E+02 -0.68285114150E+01  0.44779454154E+02  0.54144695215E+02  0.00000000000E+00 0. -1.
         -5    1    5    5    0  503  0.12142116882E+03 -0.32383275732E+02  0.25122426468E+03  0.28094038148E+03  0.47000000000E+01 0.  1.
         13    1    6    6    0    0  0.22735656239E+02 -0.31170419540E+02  0.15949815323E+02  0.41748074540E+02  0.00000000000E+00 0. -1.
        -14    1    6    6    0    0 -0.20311228956E+02  0.24501942856E+02  0.78980844287E+02  0.85152011073E+02  0.00000000000E+00 0.  1.
</event>
<event>
12    1  0.8798177E-003  0.1826520E+03  0.7818608E-02  0.1165268E+00
         21   -1    0    0  503  502  0.00000000000E+00  0.00000000000E+00  0.13240586171E+02  0.13240586171E+02  0.00000000000E+00 0.  1.
         21   -1    0    0  501  503 -0.00000000000E+00 -0.00000000000E+00 -0.27087042406E+04  0.27087042406E+04  0.00000000000E+00 0.  1.
          6    2    1    2  501    0 -0.36392179932E+02 -0.48737188381E+02 -0.17077840241E+04  0.17175238041E+04  0.17222671307E+03 0.  0.
         24    2    3    3    0    0  0.21932818859E+02 -0.79287114845E+02 -0.92642753265E+03  0.93338404610E+03  0.78551315280E+02 0.  0.
         -6    2    1    2    0  502  0.36392179932E+02  0.48737188381E+02 -0.98767963039E+03  0.10044210226E+04  0.17219417571E+03 0.  0.
        -24    2    5    5    0    0 -0.37593220497E+02 -0.19576196454E+02 -0.54182724853E+03  0.54731382030E+03  0.64646523079E+02 0.  0.
          5    1    3    3  501    0 -0.58324998791E+02  0.30549926464E+02 -0.78135649140E+03  0.78413975804E+03  0.47000000000E+01 0. -1.
        -13    1    4    4    0    0  0.12881393413E+02  0.12665398814E+02 -0.25349275363E+03  0.25413563065E+03  0.00000000000E+00 0.  1.
         14    1    4    4    0    0  0.90514254459E+01 -0.91952513660E+02 -0.67293477903E+03  0.67924841545E+03  0.00000000000E+00 0. -1.
         -5    1    5    5    0  502  0.73985400429E+02  0.68313384836E+02 -0.44585238185E+03  0.45710720234E+03  0.47000000000E+01 0.  1.
         13    1    6    6    0    0 -0.14209918827E+02 -0.84995312637E+01 -0.48006930750E+03  0.48035476871E+03  0.00000000000E+00 0. -1.
        -14    1    6    6    0    0 -0.23383301670E+02 -0.11076665191E+02 -0.61757941038E+02  0.66959051592E+02  0.00000000000E+00 0.  1.
</event>
<event>
12    1  0.8798177E-003  0.1957502E+03  0.7818608E-02  0.1153709E+00
         21   -1    0    0  503  502  0.00000000000E+00  0.00000000000E+00  0.38098011854E+02  0.38098011854E+02  0.00000000000E+00 0. -1.
         21   -1    0    0  501  503 -0.00000000000E+00 -0.00000000000E+00 -0.99932573989E+03  0.99932573989E+03  0.00000000000E+00 0. -1.
          6    2    1    2  501    0  0.15527753419E+02 -0.93184616439E+02 -0.49828508509E+03  0.53479663539E+03  0.16969069313E+03 0.  0.
         24    2    3    3    0    0  0.54369994842E+02 -0.13998996013E+02 -0.17483946465E+03  0.19950833917E+03  0.77991478836E+02 0.  0.
         -6    2    1    2    0  502 -0.15527753419E+02  0.93184616439E+02 -0.46294264294E+03  0.50262711634E+03  0.17144574526E+03 0.  0.
        -24    2    5    5    0    0 -0.81050544313E+02  0.63919344095E+02 -0.29612647640E+03  0.32096970331E+03  0.68379727514E+02 0.  0.
          5    1    3    3  501    0 -0.38842241423E+02 -0.79185620427E+02 -0.32344562044E+03  0.33528829622E+03  0.47000000000E+01 0. -1.
        -11    1    4    4    0    0  0.15129502118E+00 -0.10617132114E+02  0.49323550161E+01  0.11707882409E+02  0.00000000000E+00 0.  1.
         12    1    4    4    0    0  0.54218699820E+02 -0.33818638989E+01 -0.17977181967E+03  0.18780045676E+03  0.00000000000E+00 0. -1.
         -5    1    5    5    0  502  0.65522790895E+02  0.29265272345E+02 -0.16681616654E+03  0.18165741304E+03  0.47000000000E+01 0.  1.
         13    1    6    6    0    0 -0.37196954928E+02  0.70170980479E+02 -0.18385259584E+03  0.20027320578E+03  0.00000000000E+00 0. -1.
        -14    1    6    6    0    0 -0.43853589385E+02 -0.62516363841E+01 -0.11227388056E+03  0.12069649752E+03  0.00000000000E+00 0.  1.
</event>
<event>
12    1  0.8798177E-003  0.1781954E+03  0.7818608E-02  0.1169618E+00
         21   -1    0    0  501  502  0.00000000000E+00  0.00000000000E+00  0.10290343130E+03  0.10290343130E+03  0.00000000000E+00 0. -1.
         21   -1    0    0  502  503 -0.00000000000E+00 -0.00000000000E+00 -0.32810888469E+03  0.32810888469E+03  0.00000000000E+00 0.  1.
          6    2    1    2  501    0 -0.41173925296E+02 -0.20055867156E+02 -0.16579124562E+03  0.24339341578E+03  0.17220943003E+03 0.  0.
         24    2    3    3    0    0 -0.69922472795E+01 -0.37093088476E+02 -0.19269515793E+02  0.91902949638E+02  0.81547833684E+02 0.  0.
         -6    2    1    2    0  503  0.41173925296E+02  0.20055867156E+02 -0.59414207780E+02  0.18761890021E+03  0.17196881606E+03 0.  0.
        -24    2    5    5    0    0  0.90400356742E+02  0.31475936643E+02 -0.24666271270E+02  0.12611143211E+03  0.78311616529E+02 0.  0.
          5    1    3    3  501    0 -0.34181678016E+02  0.17037221320E+02 -0.14652172983E+03  0.15149046615E+03  0.47000000000E+01 0. -1.
        -13    1    4    4    0    0  0.15074185947E+02 -0.15640131816E+02 -0.46171905384E+02  0.51026362323E+02  0.00000000000E+00 0.  1.
         14    1    4    4    0    0 -0.22066433226E+02 -0.21452956660E+02  0.26902389591E+02  0.40876587314E+02  0.00000000000E+00 0. -1.
         -5    1    5    5    0  503 -0.49226431446E+02 -0.11420069487E+02 -0.34747936510E+02  0.61507468097E+02  0.47000000000E+01 0.  1.
         13    1    6    6    0    0  0.43031118268E+02  0.10888668408E+02 -0.51432938782E+02  0.67938114714E+02  0.00000000000E+00 0. -1.
        -14    1    6    6    0    0  0.47369238474E+02  0.20587268235E+02  0.26766667512E+02  0.58173317394E+02  0.00000000000E+00 0.  1.
</event>
<event>
12    1  0.8798177E-003  0.2229822E+03  0.7818608E-02  0.1131757E+00
         21   -1    0    0  501  502  0.00000000000E+00  0.00000000000E+00  0.34272017183E+02  0.34272017183E+02  0.00000000000E+00 0.  1.
         21   -1    0    0  502  503 -0.00000000000E+00 -0.00000000000E+00 -0.15508627072E+04  0.15508627072E+04  0.00000000000E+00 0.  1.
          6    2    1    2  501    0  0.14012560848E+03 -0.23249572216E+02 -0.96307638559E+03  0.98855307863E+03  0.17188756798E+03 0.  0.
         24    2    3    3    0    0  0.13056388638E+03 -0.37698585445E+02 -0.95608066510E+03  0.96928573273E+03  0.83405525772E+02 0.  0.
         -6    2    1    2    0  503 -0.14012560848E+03  0.23249572216E+02 -0.55351430439E+03  0.59658164572E+03  0.17133547818E+03 0.  0.
        -24    2    5    5    0    0 -0.13776072423E+03 -0.33980088397E+02 -0.44228799830E+03  0.47138496886E+03  0.80327155253E+02 0.  0.
          5    1    3    3  501    0  0.95617221003E+01  0.14449013229E+02 -0.69957204932E+01  0.19267345900E+02  0.47000000000E+01 0. -1.
        -11    1    4    4    0    0  0.13975396444E+03 -0.26418563580E+02 -0.80148970403E+03  0.81401158268E+03  0.00000000000E+00 0.  1.
         12    1    4    4    0    0 -0.91900780683E+01 -0.11280021865E+02 -0.15459096107E+03  0.15527415005E+03  0.00000000000E+00 0. -1.
         -5    1    5    5    0  503 -0.23648842419E+01  0.57229660613E+02 -0.11122630609E+03  0.12519667686E+03  0.47000000000E+01 0.  1.
         11    1    6    6    0    0 -0.36516632948E+02 -0.45540037966E+02 -0.12138313459E+03  0.13468936448E+03  0.00000000000E+00 0. -1.
        -12    1    6    6    0    0 -0.10124409129E+03  0.11559949569E+02 -0.32090486371E+03  0.33669560438E+03  0.00000000000E+00 0.  1.
</event>
<event>
12    1  0.8798177E-003  0.1936369E+03  0.7818608E-02  0.1155351E+00
         21   -1    0    0  503  502  0.00000000000E+00  0.00000000000E+00  0.74336349085E+02  0.74336349085E+02  0.00000000000E+00 0.  1.
         21   -1    0    0  501  503 -0.00000000000E+00 -0.00000000000E+00 -0.51225948864E+03  0.51225948864E+03  0.00000000000E+00 0. -1.
          6    2    1    2  501    0  0.87489050337E+02 -0.11979490372E+02 -0.17958737705E+03  0.26409634045E+03  0.17232936176E+03 0.  0.
         24    2    3    3    0    0  0.40464095541E+02 -0.73977774862E+02 -0.13693119237E+03  0.17523254723E+03  0.69614940668E+02 0.  0.
         -6    2    1    2    0  502 -0.87489050337E+02  0.11979490372E+02 -0.25833576251E+03  0.32249949728E+03  0.17167037437E+03 0.  0.
        -24    2    5    5    0    0 -0.53576063437E+02  0.42225175723E+02 -0.25660786734E+03  0.27678333181E+03  0.78154047565E+02 0.  0.
          5    1    3    3  501    0  0.47024954796E+02  0.61998284490E+02 -0.42656184674E+02  0.88863793213E+02  0.47000000000E+01 0. -1.
        -13    1    4    4    0    0  0.28848387748E+02 -0.30871568192E+01 -0.12579492386E+02  0.31622834180E+02  0.00000000000E+00 0.  1.
         14    1    4    4    0    0  0.11615707793E+02 -0.70890618042E+02 -0.12435169999E+03  0.14360971305E+03  0.00000000000E+00 0. -1.
         -5    1    5    5    0  502 -0.33912986900E+02 -0.30245685352E+02 -0.17278951671E+01  0.45716165463E+02  0.47000000000E+01 0.  1.
         13    1    6    6    0    0 -0.74128546385E+02  0.33921716973E+02 -0.19817523256E+03  0.21428753363E+03  0.00000000000E+00 0. -1.
        -14    1    6    6    0    0  0.20552482948E+02  0.83034587509E+01 -0.58432634781E+02  0.62495798179E+02  0.00000000000E+00 0.  1.
</event>
<event>
12    1  0.8798177E-003  0.2349873E+03  0.7818608E-02  0.1123319E+00
         21   -1    0    0  503  502  0.00000000000E+00  0.00000000000E+00  0.77104505069E+02  0.77104505069E+02  0.00000000000E+00 0. -1.
         21   -1    0    0  501  503 -0.00000000000E+00 -0.00000000000E+00 -0.93155682609E+03  0.93155682609E+03  0.00000000000E+00 0.  1.
          6    2    1    2  501    0  0.25660231153E+02 -0.15545287594E+03 -0.18388565509E+03  0.29838389919E+03  0.17434154137E+03 0.  0.
         24    2    3    3    0    0 -0.10747796158E+02 -0.14456085594E+03 -0.19793899338E+03  0.25759460073E+03  0.78496987400E+02 0.  0.
         -6    2    1    2    0  502 -0.25660231153E+02  0.15545287594E+03 -0.67056666593E+03  0.71027743197E+03  0.17323490643E+03 0.  0.
        -24    2    5    5    0    0  0.31683283384E+02  0.15417260101E+03 -0.48931432658E+03  0.52010798573E+03  0.79440451114E+02 0.  0.
          5    1    3    3  501    0  0.36408027311E+02 -0.10892019994E+02  0.14053338287E+02  0.40789298464E+02  0.47000000000E+01 0. -1.
        -13    1    4    4    0    0  0.34074923319E+02 -0.55806893805E+02 -0.76077682175E+02  0.10031611795E+03  0.00000000000E+00 0.  1.
         14    1    4    4    0    0 -0.44822719477E+02 -0.88753962138E+02 -0.12186131121E+03  0.15727848278E+03  0.00000000000E+00 0. -1.
         -5    1    5    5    0  502 -0.57343514537E+02  0.12802749255E+01 -0.18125233935E+03  0.19016944624E+03  0.47000000000E+01 0.  1.
         13    1    6    6    0    0  0.46009254532E+02  0.90364785111E+02 -0.20946522988E+03  0.23271941994E+03  0.00000000000E+00 0. -1.
        -14    1    6    6    0    0 -0.14325971148E+02  0.63807815901E+02 -0.27984909670E+03  0.28738856578E+03  0.00000000000E+00 0.  1.
</event>
<event>
12    1  0.8798177E-003  0.2229977E+03  0.7818608E-02  0.1131714E+00
         21   -1    0    0  503  502  0.00000000000E+00  0.00000000000E+00  0.20107651073E+03  0.20107651073E+03  0.00000000000E+00 0.  1.
         21   -1    0    0  501  503 -0.00000000000E+00 -0.00000000000E+00 -0.26646352861E+03  0.26646352861E+03  0.00000000000E+00 0. -1.
          6    2    1    2  501    0  0.13353392821E+03  0.48105004485E+02  0.30462558177E+02  0.22481565838E+03  0.17166453146E+03 0.  0.
         24    2    3    3    0    0  0.63303227322E+02  0.74098981817E+00  0.78310187642E+02  0.12741346704E+03  0.78063169538E+02 0.  0.
         -6    2    1    2    0  502 -0.13353392821E+03 -0.48105004485E+02 -0.95849576051E+02  0.24272438096E+03  0.17199587916E+03 0.  0.
        -24    2    5    5    0    0 -0.14507487995E+03 -0.31094871973E+02 -0.12284084620E+03  0.20847300378E+03  0.79733982419E+02 0.  0.
          5    1    3    3  501    0  0.70230700887E+02  0.47364014667E+02 -0.47847629466E+02  0.97402191340E+02  0.47000000000E+01 0. -1.
        -13    1    4    4    0    0  0.46707461907E+02  0.32159649951E+02  0.21992686740E+02  0.60823583854E+02  0.00000000000E+00 0.  1.
         14    1    4    4    0    0  0.16595765414E+02 -0.31418660133E+02  0.56317500903E+02  0.66589883182E+02  0.00000000000E+00 0. -1.
         -5    1    5    5    0  502  0.11540951743E+02 -0.17010132512E+02  0.26991270148E+02  0.34251377190E+02  0.47000000000E+01 0.  1.
         11    1    6    6    0    0 -0.33567885653E+02 -0.44425366385E+01 -0.78603447624E+02  0.85586453702E+02  0.00000000000E+00 0. -1.
        -12    1    6    6    0    0 -0.11150699430E+03 -0.26652335334E+02 -0.44237398575E+02  0.12288655007E+03  0.00000000000E+00 0.  1.
</event>
<event>
12    1  0.8798177E-003  0.1992973E+03  0.7818608E-02  0.1150372E+00
         21   -1    0    0  501  502  0.00000000000E+00  0.00000000000E+00  0.48413055606E+02  0.48413055606E+02  0.00000000000E+00 0.  1.
         21   -1    0    0  502  503 -0.00000000000E+00 -0.00000000000E+00 -0.83929722975E+03  0.83929722975E+03  0.00000000000E+00 0. -1.
          6    2    1    2  501    0  0.68780699084E+02  0.72551097568E+02 -0.32775980696E+03  0.38359600785E+03  0.17240928006E+03 0.  0.
         24    2    3    3    0    0  0.10163398407E+03  0.60165168427E+02 -0.19829710827E+03  0.24937443757E+03  0.94427499990E+02 0.  0.
         -6    2    1    2    0  503 -0.68780699084E+02 -0.72551097568E+02 -0.46312436719E+03  0.50411427751E+03  0.17219924212E+03 0.  0.
        -24    2    5    5    0    0  0.11854998061E+02 -0.84598496982E+02 -0.29160221384E+03  0.31414271497E+03  0.79726705573E+02 0.  0.
          5    1    3    3  501    0 -0.32853284987E+02  0.12385929141E+02 -0.12946269870E+03  0.13422157028E+03  0.47000000000E+01 0. -1.
        -13    1    4    4    0    0  0.56449592908E+02  0.76439111466E+02 -0.16671710452E+03  0.19189603237E+03  0.00000000000E+00 0.  1.
         14    1    4    4    0    0  0.45184391162E+02 -0.16273943040E+02 -0.31580003746E+02  0.57478405191E+02  0.00000000000E+00 0. -1.
         -5    1    5    5    0  503 -0.80635697145E+02  0.12047399414E+02 -0.17152215334E+03  0.18997156254E+03  0.47000000000E+01 0.  1.
         11    1    6    6    0    0 -0.54106322033E+01 -0.18106152059E+02 -0.19326281527E+03  0.19418450877E+03  0.00000000000E+00 0. -1.
        -12    1    6    6    0    0  0.17265630264E+02 -0.66492344923E+02 -0.98339398574E+02  0.11995820620E+03  0.00000000000E+00 0.  1.
</event>
<event>
12    1  0.8798177E-003  0.2364794E+03  0.7818608E-02  0.1122205E+00
         21   -1    0    0  501  502  0.00000000000E+00  0.00000000000E+00  0.25235401582E+03  0.25235401582E+03  0.00000000000E+00 0.  1.
         21   -1    0    0  502  503 -0.00000000000E+00 -0.00000000000E+00 -0.22867809000E+03  0.22867809000E+03  0.00000000000E+00 0.  1.
          6    2    1    2  501    0 -0.97698053348E+02  0.12945057854E+03  0.54863256262E+02  0.24250503436E+03  0.17174502289E+03 0.  0.
         24    2    3    3    0    0 -0.12658706419E+03  0.89070818149E+02  0.73631474689E+02  0.18921867569E+03  0.80151217694E+02 0.  0.
         -6    2    1    2    0  503  0.97698053348E+02 -0.12945057854E+03 -0.31187330437E+02  0.23852707147E+03  0.17210506189E+03 0.  0.
        -24    2    5    5    0    0  0.75982790718E+01 -0.88258222349E+02 -0.59929262855E+02  0.13526542218E+03  0.82812862739E+02 0.  0.
          5    1    3    3  501    0  0.28889010845E+02  0.40379760393E+02 -0.18768218428E+02  0.53286358667E+02  0.47000000000E+01 0. -1.
        -13    1    4    4    0    0 -0.12391364273E+03  0.10234827391E+03  0.66749630210E+02  0.17402664497E+03  0.00000000000E+00 0.  1.
         14    1    4    4    0    0 -0.26734214603E+01 -0.13277455761E+02  0.68818444796E+01  0.15192030715E+02  0.00000000000E+00 0. -1.
         -5    1    5    5    0  503  0.90099774276E+02 -0.41192356193E+02  0.28741932418E+02  0.10326164928E+03  0.47000000000E+01 0.  1.
         11    1    6    6    0    0  0.36556910715E+02 -0.10261938357E+02 -0.21299867344E+02  0.43536185510E+02  0.00000000000E+00 0. -1.
        -12    1    6    6    0    0 -0.28958631643E+02 -0.77996283992E+02 -0.38629395511E+02  0.91729236674E+02  0.00000000000E+00 0.  1.
</event>
<event>
12    1  0.8798177E-003  0.2729928E+03  0.7818608E-02  0.1099774E+00
         21   -1    0    0  501  502  0.00000000000E+00  0.00000000000E+00  0.63938447312E+03  0.63938447312E+03  0.00000000000E+00 0.  1.
         21   -1    0    0  502  503 -0.00000000000E+00 -0.00000000000E+00 -0.13275929798E+03  0.13275929798E+03  0.00000000000E+00 0.  1.
          6    2    1    2  501    0 -0.17438770577E+03  0.11546629801E+03  0.39005076328E+03  0.47530258913E+03  0.17328997489E+03 0.  0.
         24    2    3    3    0    0 -0.13790536225E+03  0.33590941877E+02  0.16211996969E+03  0.23033509741E+03  0.81394915165E+02 0.  0.
         -6    2    1    2    0  503  0.17438770577E+03 -0.11546629801E+03  0.11657441186E+03  0.29684118196E+03  0.17544673240E+03 0.  0.
        -24    2    5    5    0    0  0.12299897745E+03 -0.99241453672E+01  0.23936421706E+02  0.14722890104E+03  0.76656114588E+02 0.  0.
          5    1    3    3  501    0 -0.36482343519E+02  0.81875356131E+02  0.22793079359E+03  0.24496749172E+03  0.47000000000E+01 0. -1.
        -13    1    4    4    0    0 -0.13669105012E+03  0.48041863049E+02  0.15970368546E+03  0.21563332520E+03  0.00000000000E+00 0.  1.
         14    1    4    4    0    0 -0.12143121290E+01 -0.14450921172E+02  0.24162842306E+01  0.14701772211E+02  0.00000000000E+00 0. -1.
         -5    1    5    5    0  503  0.51388728323E+02 -0.10554215264E+03  0.92637990151E+02  0.14961228092E+03  0.47000000000E+01 0.  1.
         11    1    6    6    0    0  0.58215883312E+02  0.33501480471E+02  0.82002530816E+01  0.67665962006E+02  0.00000000000E+00 0. -1.
        -12    1    6    6    0    0  0.64783094137E+02 -0.43425625838E+02  0.15736168624E+02  0.79562939038E+02  0.00000000000E+00 0.  1.
</event>
<event>
12    1  0.8798177E-003  0.1822881E+03  0.7818608E-02  0.1166398E+00
         21   -1    0    0  503  502  0.00000000000E+00  0.00000000000E+00  0.15078116164E+04  0.15078116164E+04  0.00000000000E+00 0.  1.
         21   -1    0    0  501  503 -0.00000000000E+00 -0.00000000000E+00 -0.27332071911E+02  0.27332071911E+02  0.00000000000E+00 0.  1.
          6    2    1    2  501    0  0.50643904944E+02  0.34868287327E+01  0.39536301168E+03  0.43536289194E+03  0.17507705044E+03 0.  0.
         24    2    3    3    0    0 -0.40343579606E+02 -0.11673586797E+02  0.20505908252E+03  0.22382983070E+03  0.79288641954E+02 0.  0.
         -6    2    1    2    0  502 -0.50643904944E+02 -0.34868287327E+01  0.10851165328E+04  0.10997807964E+04  0.17164774164E+03 0.  0.
        -24    2    5    5    0    0  0.46029117854E+02 -0.21588480786E+02  0.60238804864E+03  0.60711232511E+03  0.55939896028E+02 0.  0.
          5    1    3    3  501    0  0.90987484551E+02  0.15160415530E+02  0.19030392916E+03  0.21153306124E+03  0.47000000000E+01 0. -1.
        -13    1    4    4    0    0 -0.16941066371E+02  0.19759965271E+02  0.16763005012E+03  0.16963870331E+03  0.00000000000E+00 0.  1.
         14    1    4    4    0    0 -0.23402513235E+02 -0.31433552069E+02  0.37429032400E+02  0.54191127389E+02  0.00000000000E+00 0. -1.
         -5    1    5    5    0  502 -0.96673022799E+02  0.18101652054E+02  0.48272848420E+03  0.49266847129E+03  0.47000000000E+01 0.  1.
         11    1    6    6    0    0  0.27234379514E+02  0.12225143491E+02  0.39643684129E+03  0.39755922162E+03  0.00000000000E+00 0. -1.
        -12    1    6    6    0    0  0.18794738341E+02 -0.33813624278E+02  0.20595120735E+03  0.20955310349E+03  0.00000000000E+00 0.  1.
</event>
<event>
12    1  0.8798177E-003  0.2420752E+03  0.7818608E-02  0.1118673E+00
         21   -1    0    0  501  502  0.00000000000E+00  0.00000000000E+00  0.16398075825E+03  0.16398075825E+03  0.00000000000E+00 0.  1.
         21   -1    0    0  502  503 -0.00000000000E+00 -0.00000000000E+00 -0.38650242592E+03  0.38650242592E+03  0.00000000000E+00 0. -1.
          6    2    1    2  501    0  0.20761199428E+02 -0.16783083643E+03 -0.33114031619E+02  0.24432955069E+03  0.17321135410E+03 0.  0.
         24    2    3    3    0    0  0.19823577320E+02 -0.11494274654E+03  0.44740309174E+02  0.15008827752E+03  0.83186456739E+02 0.  0.
         -6    2    1    2    0  503 -0.20761199428E+02  0.16783083643E+03 -0.18940763605E+03  0.30615363349E+03  0.17104554261E+03 0.  0.
        -24    2    5    5    0    0  0.24048992994E+02  0.17026462436E+03 -0.17652029666E+03  0.25922762593E+03  0.80443461750E+02 0.  0.
          5    1    3    3  501    0  0.93762210815E+00 -0.52888089891E+02 -0.77854340793E+02  0.94241273165E+02  0.47000000000E+01 0. -1.
        -11    1    4    4    0    0 -0.19324876222E+02 -0.43728162546E+02  0.49327017733E+02  0.68693214506E+02  0.00000000000E+00 0.  1.
         12    1    4    4    0    0  0.39148453543E+02 -0.71214583991E+02 -0.45867085589E+01  0.81395063015E+02  0.00000000000E+00 0. -1.
         -5    1    5    5    0  503 -0.44810192422E+02 -0.24337879365E+01 -0.12887339382E+02  0.46926007554E+02  0.47000000000E+01 0.  1.
         13    1    6    6    0    0  0.49015199650E+02  0.10280968015E+03 -0.13322816665E+03  0.17527710780E+03  0.00000000000E+00 0. -1.
        -14    1    6    6    0    0 -0.24966206656E+02  0.67454944216E+02 -0.43292130012E+02  0.83950518134E+02  0.00000000000E+00 0.  1.
</event>
<event>
12    1  0.8798177E-003  0.2022172E+03  0.7818608E-02  0.1148160E+00
         21   -1    0    0  501  502  0.00000000000E+00  0.00000000000E+00  0.66915292509E+03  0.66915292509E+03  0.00000000000E+00 0.  1.
         21   -1    0    0  502  503 -0.00000000000E+00 -0.00000000000E+00 -0.67716899322E+02  0.67716899322E+02  0.00000000000E+00 0. -1.
          6    2    1    2  501    0  0.10319790015E+03  0.30094903349E+00  0.41836204484E+03  0.46409176171E+03  0.17234983482E+03 0.  0.
         24    2    3    3    0    0  0.13970462001E+03 -0.12544979044E+02  0.32465993098E+03  0.36260316823E+03  0.80013933041E+02 0.  0.
         -6    2    1    2    0  503 -0.10319790015E+03 -0.30094903349E+00  0.18307398092E+03  0.27277806269E+03  0.17390196040E+03 0.  0.
        -24    2    5    5    0    0 -0.12074578804E+03 -0.34472668440E+02  0.10050141652E+03  0.18158621455E+03  0.84291805003E+02 0.  0.
          5    1    3    3  501    0 -0.36506719865E+02  0.12845928078E+02  0.93702113867E+02  0.10148859348E+03  0.47000000000E+01 0. -1.
        -13    1    4    4    0    0  0.45262765124E+02 -0.35428515145E+02  0.17468177214E+03  0.18389567453E+03  0.00000000000E+00 0.  1.
         14    1    4    4    0    0  0.94441854889E+02  0.22883536100E+02  0.14997815883E+03  0.17870749371E+03  0.00000000000E+00 0. -1.
         -5    1    5    5    0  503  0.17547887897E+02  0.34171719406E+02  0.82572564400E+02  0.91191848147E+02  0.47000000000E+01 0.  1.
         11    1    6    6    0    0 -0.82934497963E+02  0.17819619504E+02  0.71054948305E+02  0.11065475801E+03  0.00000000000E+00 0. -1.
        -12    1    6    6    0    0 -0.37811290082E+02 -0.52292287944E+02  0.29446468219E+02  0.70931456538E+02  0.00000000000E+00 0.  1.
</event>
<event>
12    1  0.8798177E-003  0.1835151E+03  0.7818608E-02  0.1164786E+00
         21   -1    0    0  501  502  0.00000000000E+00  0.00000000000E+00  0.25069021032E+03  0.25069021032E+03  0.00000000000E+00 0.  1.
         21   -1    0    0  502  503 -0.00000000000E+00 -0.00000000000E+00 -0.13330253656E+03  0.13330253656E+03  0.00000000000E+00 0.  1.
          6    2    1    2  501    0 -0.26881526843E+02 -0.52969353324E+02  0.56270319389E+02  0.19056798121E+03  0.17210879624E+03 0.  0.
         24    2    3    3    0    0 -0.64532015142E+02 -0.44998685840E+02  0.85956935779E+02  0.14173688454E+03  0.80693784924E+02 0.  0.
         -6    2    1    2    0  503  0.26881526843E+02  0.52969353324E+02  0.61117354372E+02  0.19342476566E+03  0.17363594124E+03 0.  0.
        -24    2    5    5    0    0 -0.11463624993E+02 -0.29952638745E+02  0.63324781294E+01  0.86795125772E+02  0.80403472020E+02 0.  0.
          5    1    3    3  501    0  0.37650488299E+02 -0.79706674834E+01 -0.29686616391E+02  0.48831096670E+02  0.47000000000E+01 0. -1.
        -11    1    4    4    0    0  0.94333898555E+01 -0.31647908154E+02  0.91384305123E+01  0.34264994483E+02  0.00000000000E+00 0.  1.
         12    1    4    4    0    0 -0.73965404998E+02 -0.13350777686E+02  0.76818505267E+02  0.10747189006E+03  0.00000000000E+00 0. -1.
         -5    1    5    5    0  503  0.38345151836E+02  0.82921992068E+02  0.54784876243E+02  0.10662963989E+03  0.47000000000E+01 0.  1.
         13    1    6    6    0    0 -0.25531684676E+02 -0.26249692786E+02  0.37491637182E+02  0.52407405510E+02  0.00000000000E+00 0. -1.
        -14    1    6    6    0    0  0.14068059682E+02 -0.37029459592E+01 -0.31159159052E+02  0.34387720262E+02  0.00000000000E+00 0.  1.
</event>
<event>
12    1  0.8798177E-003  0.1838961E+03  0.7818608E-02  0.1166219E+00
         21   -1    0    0  501  502  0.00000000000E+00  0.00000000000E+00  0.22236472962E+02  0.22236472962E+02  0.00000000000E+00 0.  1.
         21   -1    0    0  502  503 -0.00000000000E+00 -0.00000000000E+00 -0.14757449308E+04  0.14757449308E+04  0.00000000000E+00 0.  1.
          6    2    1    2  501    0 -0.99278464997E+01 -0.29289132787E+02 -0.81068328616E+03  0.82936943825E+03  0.17230745544E+03 0.  0.
         24    2    3    3    0    0 -0.64418381379E+02  0.50180869524E+01 -0.60446518803E+03  0.61328103570E+03  0.80997260161E+02 0.  0.
         -6    2    1    2    0  503  0.99278464997E+01  0.29289132787E+02 -0.64282517164E+03  0.66861196548E+03  0.18127698048E+03 0.  0.
        -24    2    5    5    0    0  0.46618149366E+02 -0.27517922227E+02 -0.51419707475E+03  0.52321424496E+03  0.80150025265E+02 0.  0.
          5    1    3    3  501    0  0.54490534879E+02 -0.34307219739E+02 -0.20621809813E+03  0.21608840254E+03  0.47000000000E+01 0. -1.
        -13    1    4    4    0    0 -0.24606338216E+02 -0.12248332715E+02 -0.49479394201E+02  0.56601271939E+02  0.00000000000E+00 0.  1.
         14    1    4    4    0    0 -0.39812043163E+02  0.17266419667E+02 -0.55498579383E+03  0.55667976376E+03  0.00000000000E+00 0. -1.
         -5    1    5    5    0  503 -0.36690302866E+02  0.56807055014E+02 -0.12862809689E+03  0.14539772052E+03  0.47000000000E+01 0.  1.
         11    1    6    6    0    0  0.21418840025E+02 -0.28644021268E+02 -0.72944641932E+02  0.81241414617E+02  0.00000000000E+00 0. -1.
        -12    1    6    6    0    0  0.25199309341E+02  0.11260990411E+01 -0.44125243282E+03  0.44197283034E+03  0.00000000000E+00 0.  1.
</event>
<event>
12    1  0.8798177E-003  0.2059943E+03  0.7818608E-02  0.1145440E+00
         21   -1    0    0  501  502  0.00000000000E+00  0.00000000000E+00  0.11165566851E+04  0.11165566851E+04  0.00000000000E+00 0.  1.
         21   -1    0    0  502  503 -0.00000000000E+00 -0.00000000000E+00 -0.45704384754E+02  0.45704384754E+02  0.00000000000E+00 0.  1.
          6    2    1    2  501    0 -0.24741725153E+02  0.10346093300E+03  0.78646025835E+03  0.81299039330E+03  0.17640103178E+03 0.  0.
         24    2    3    3    0    0  0.38282847967E+02  0.10516934168E+03  0.61467532052E+03  0.62994075428E+03  0.80457674440E+02 0.  0.
         -6    2    1    2    0  503  0.24741725153E+02 -0.10346093300E+03  0.28439204203E+03  0.34927067659E+03  0.17261186035E+03 0.  0.
        -24    2    5    5    0    0  0.77931899108E+02 -0.38652995372E+02  0.17835847432E+03  0.21401362182E+03  0.80141437540E+02 0.  0.
          5    1    3    3  501    0 -0.63024573121E+02 -0.17084086850E+01  0.17178493784E+03  0.18304963902E+03  0.47000000000E+01 0. -1.
        -13    1    4    4    0    0 -0.87452221556E+01  0.86939220917E+02  0.39526146331E+03  0.40480431250E+03  0.00000000000E+00 0.  1.
         14    1    4    4    0    0  0.47028070123E+02  0.18230120766E+02  0.21941385721E+03  0.22513644178E+03  0.00000000000E+00 0. -1.
         -5    1    5    5    0  503 -0.53190173954E+02 -0.64807937626E+02  0.10603356771E+03  0.13525705477E+03  0.47000000000E+01 0.  1.
         13    1    6    6    0    0  0.71354495237E+02 -0.61321410057E+02  0.13346313889E+03  0.16329172901E+03  0.00000000000E+00 0. -1.
        -14    1    6    6    0    0  0.65774038701E+01  0.22668414685E+02  0.44895335430E+02  0.50721892802E+02  0.00000000000E+00 0.  1.
</event>
<event>
12    1  0.8798177E-003  0.1738320E+03  0.7818608E-02  0.1173937E+00
         21   -1    0    0  501  502  0.00000000000E+00  0.00000000000E+00  0.18929577381E+03  0.18929577381E+03  0.00000000000E+00 0.  1.
         21   -1    0    0  502  503 -0.00000000000E+00 -0.00000000000E+00 -0.21501108368E+03  0.21501108368E+03  0.00000000000E+00 0.  1.
          6    2    1    2  501    0  0.24476596375E+02 -0.12222790981E+02  0.89832791954E+02  0.19557514887E+03  0.17155526211E+03 0.  0.
         24    2    3    3    0    0 -0.53494054394E+02 -0.18548960159E+02  0.34479131433E+02  0.99629536515E+02  0.74374432860E+02 0.  0.
         -6    2    1    2    0  503 -0.24476596375E+02  0.12222790981E+02 -0.11554810182E+03  0.20873170862E+03  0.17166555263E+03 0.  0.
        -24    2    5    5    0    0  0.54200282939E+02  0.11079674467E+02 -0.52207553931E+02  0.10761062743E+03  0.76118253999E+02 0.  0.
          5    1    3    3  501    0  0.77970650769E+02  0.63261691772E+01  0.55353660521E+02  0.95945612359E+02  0.47000000000E+01 0. -1.
        -11    1    4    4    0    0  0.61969212342E+01 -0.31412487770E+02  0.75629372485E+01  0.32899000600E+02  0.00000000000E+00 0.  1.
         12    1    4    4    0    0 -0.59690975628E+02  0.12863527611E+02  0.26916194184E+02  0.66730535915E+02  0.00000000000E+00 0. -1.
         -5    1    5    5    0  503 -0.78676879314E+02  0.11431165139E+01 -0.63340547891E+02  0.10112108119E+03  0.47000000000E+01 0.  1.
         11    1    6    6    0    0  0.43321532122E+02 -0.28401237635E+02 -0.20068745190E+02  0.55553037524E+02  0.00000000000E+00 0. -1.
        -12    1    6    6    0    0  0.10878750818E+02  0.39480912103E+02 -0.32138808741E+02  0.52057589909E+02  0.00000000000E+00 0.  1.
</event>
<event>
12    1  0.8798177E-003  0.2828194E+03  0.7818608E-02  0.1094520E+00
         21   -1    0    0  501  502  0.00000000000E+00  0.00000000000E+00  0.35831677432E+02  0.35831677432E+02  0.00000000000E+00 0. -1.
         21   -1    0    0  502  503 -0.00000000000E+00 -0.00000000000E+00 -0.22115043186E+04  0.22115043186E+04  0.00000000000E+00 0.  1.
          6    2    1    2  501    0  0.22322353751E+03  0.16473136649E+02 -0.10816655398E+04  0.11180282437E+04  0.17287770729E+03 0.  0.
         24    2    3    3    0    0  0.23819171805E+03  0.37658896327E+02 -0.10166541721E+04  0.10478751912E+04  0.79392843560E+02 0.  0.
         -6    2    1    2    0  503 -0.22322353751E+03 -0.16473136649E+02 -0.10940071013E+04  0.11293077523E+04  0.16847655568E+03 0.  0.
        -24    2    5    5    0    0 -0.16410598661E+03 -0.56225242454E+02 -0.59104463916E+03  0.62130337924E+03  0.81191568813E+02 0.  0.
          5    1    3    3  501    0 -0.14968180539E+02 -0.21185759678E+02 -0.65011367738E+02  0.70153052513E+02  0.47000000000E+01 0. -1.
        -13    1    4    4    0    0  0.17311057947E+02  0.70957310707E+01 -0.21420377739E+03  0.21501925582E+03  0.00000000000E+00 0.  1.
         14    1    4    4    0    0  0.22088066010E+03  0.30563165256E+02 -0.80245039471E+03  0.83285593535E+03  0.00000000000E+00 0. -1.
         -5    1    5    5    0  503 -0.59117550905E+02  0.39752105806E+02 -0.50296246215E+03  0.50800437309E+03  0.47000000000E+01 0.  1.
         13    1    6    6    0    0 -0.46245352913E+02 -0.57103797342E+02 -0.24042195215E+03  0.25140046024E+03  0.00000000000E+00 0. -1.
        -14    1    6    6    0    0 -0.11786063369E+03  0.87855488803E+00 -0.35062268702E+03  0.36990291900E+03  0.00000000000E+00 0.  1.
</event>
<event>
12    1  0.8798177E-003  0.2253310E+03  0.7818608E-02  0.1130006E+00
         21   -1    0    0  501  502  0.00000000000E+00  0.00000000000E+00  0.82135484617E+03  0.82135484617E+03  0.00000000000E+00 0.  1.
         21   -1    0    0  502  503 -0.00000000000E+00 -0.00000000000E+00 -0.63095178555E+02  0.63095178555E+02  0.00000000000E+00 0.  1.
          6    2    1    2  501    0  0.11790974123E+03  0.87962083729E+02  0.44355785366E+03  0.49751145101E+03  0.17068696228E+03 0.  0.
         24    2    3    3    0    0  0.13700967690E+03  0.28600572664E+02  0.32359916725E+03  0.36223110143E+03  0.83098167708E+02 0.  0.
         -6    2    1    2    0  503 -0.11790974123E+03 -0.87962083729E+02  0.31470181396E+03  0.38693857372E+03  0.17042356900E+03 0.  0.
        -24    2    5    5    0    0 -0.74726480236E+02 -0.12342544796E+03  0.20212870999E+03  0.26117197255E+03  0.80851071666E+02 0.  0.
          5    1    3    3  501    0 -0.19099935668E+02  0.59361511064E+02  0.11995868641E+03  0.13528034958E+03  0.47000000000E+01 0. -1.
        -13    1    4    4    0    0  0.22451945882E+02  0.13703553578E+02  0.15886516816E+03  0.16102800660E+03  0.00000000000E+00 0.  1.
         14    1    4    4    0    0  0.11455773102E+03  0.14897019086E+02  0.16473399910E+03  0.20120309484E+03  0.00000000000E+00 0. -1.
         -5    1    5    5    0  503 -0.43183260992E+02  0.35463364231E+02  0.11257310397E+03  0.12576660117E+03  0.47000000000E+01 0.  1.
         13    1    6    6    0    0 -0.25403037586E+02 -0.12665488532E+02  0.95767504212E+02  0.99885653531E+02  0.00000000000E+00 0. -1.
        -14    1    6    6    0    0 -0.49323442650E+02 -0.11075995943E+03  0.10636120578E+03  0.16128631901E+03  0.00000000000E+00 0.  1.
</event>
<event>
12    1  0.8798177E-003  0.2189940E+03  0.7818608E-02  0.1134959E+00
         21   -1    0    0  501  502  0.00000000000E+00  0.00000000000E+00  0.24346706340E+03  0.24346706340E+03  0.00000000000E+00 0.  1.
         21   -1    0    0  502  503 -0.00000000000E+00 -0.00000000000E+00 -0.20520661646E+03  0.20520661646E+03  0.00000000000E+00 0.  1.
          6    2    1    2  501    0  0.13097929513E+03 -0.23300302431E+02  0.68150363136E+02  0.22935314018E+03  0.17395376129E+03 0.  0.
         24    2    3    3    0    0  0.12944225161E+03 -0.71199062247E+02  0.37298406363E+02  0.17216409463E+03  0.80154235038E+02 0.  0.
         -6    2    1    2    0  503 -0.13097929513E+03  0.23300302431E+02 -0.29889916194E+02  0.21932053968E+03  0.17178362025E+03 0.  0.
        -24    2    5    5    0    0 -0.10227689290E+02  0.31019653179E+02  0.20576508040E+02  0.88135598981E+02  0.79231727313E+02 0.  0.
          5    1    3    3  501    0  0.15370435241E+01  0.47898759816E+02  0.30851956773E+02  0.57189045554E+02  0.47000000000E+01 0. -1.
        -11    1    4    4    0    0  0.37242766438E+02 -0.64103527883E+01  0.45538239649E+02  0.59176410378E+02  0.00000000000E+00 0.  1.
         12    1    4    4    0    0  0.92199485171E+02 -0.64788709458E+02 -0.82398332862E+01  0.11298768425E+03  0.00000000000E+00 0. -1.
         -5    1    5    5    0  503 -0.12075160584E+03 -0.77193507484E+01 -0.50466424235E+02  0.13118494069E+03  0.47000000000E+01 0.  1.
         11    1    6    6    0    0 -0.16503025552E+02 -0.23972815140E+02  0.54168421453E-01  0.29104100267E+02  0.00000000000E+00 0. -1.
        -12    1    6    6    0    0  0.62753362623E+01  0.54992468319E+02  0.20522339619E+02  0.59031498715E+02  0.00000000000E+00 0.  1.
</event>
<event>
12    1  0.8798177E-003  0.3701818E+03  0.7818608E-02  0.1054701E+00
         21   -1    0    0  503  502  0.00000000000E+00  0.00000000000E+00  0.27365431127E+03  0.27365431127E+03  0.00000000000E+00 0.  1.
         21   -1    0    0  501  503 -0.00000000000E+00 -0.00000000000E+00 -0.56357038941E+03  0.56357038941E+03  0.00000000000E+00 0. -1.
          6    2    1    2  501    0  0.11633243707E+03 -0.30508791499E+03 -0.28606055508E+03  0.46783028337E+03  0.17442093073E+03 0.  0.
         24    2    3    3    0    0  0.10498504635E+03 -0.30156365389E+03 -0.20953655998E+03  0.39024680885E+03  0.80153007082E+02 0.  0.
         -6    2    1    2    0  502 -0.11633243707E+03  0.30508791499E+03 -0.38555230587E+01  0.36939441731E+03  0.17270060422E+03 0.  0.
        -24    2    5    5    0    0 -0.74111392994E+02  0.97891519068E+02 -0.44629319584E+02  0.15399349919E+03  0.81528973677E+02 0.  0.
          5    1    3    3  501    0  0.11347390723E+02 -0.35242610965E+01 -0.76523995097E+02  0.77583474516E+02  0.47000000000E+01 0. -1.
        -13    1    4    4    0    0 -0.45164786892E+00 -0.38405579418E+02 -0.11898591785E+01  0.38426661072E+02  0.00000000000E+00 0.  1.
         14    1    4    4    0    0  0.10543669422E+03 -0.26315807447E+03 -0.20834670080E+03  0.35182014778E+03  0.00000000000E+00 0. -1.
         -5    1    5    5    0  502 -0.42221044078E+02  0.20719639592E+03  0.40773796525E+02  0.21540091812E+03  0.47000000000E+01 0.  1.
         11    1    6    6    0    0 -0.20293251475E+02  0.72887294707E+02  0.61239445480E+01  0.75907025247E+02  0.00000000000E+00 0. -1.
        -12    1    6    6    0    0 -0.53818141520E+02  0.25004224361E+02 -0.50753264132E+02  0.78086473941E+02  0.00000000000E+00 0.  1.
</event>
<event>
12    1  0.8798177E-003  0.3190471E+03  0.7818608E-02  0.1076099E+00
         21   -1    0    0  503  502  0.00000000000E+00  0.00000000000E+00  0.27878090295E+03  0.27878090295E+03  0.00000000000E+00 0. -1.
         21   -1    0    0  501  503 -0.00000000000E+00 -0.00000000000E+00 -0.52360407066E+03  0.52360407066E+03  0.00000000000E+00 0. -1.
          6    2    1    2  501    0  0.19782383921E+03  0.18228300379E+03 -0.34321111356E+03  0.46859887148E+03  0.17155077688E+03 0.  0.
         24    2    3    3    0    0  0.41077775203E+02  0.20302292586E+02 -0.12644641741E+03  0.15584321145E+03  0.78732733844E+02 0.  0.
         -6    2    1    2    0  502 -0.19782383921E+03 -0.18228300379E+03  0.98387945839E+02  0.33378610213E+03  0.17138147291E+03 0.  0.
        -24    2    5    5    0    0 -0.10199480632E+03 -0.14365010925E+03  0.11897862720E+03  0.22832629820E+03  0.83298801399E+02 0.  0.
          5    1    3    3  501    0  0.15674606401E+03  0.16198071121E+03 -0.21676469615E+03  0.31275566003E+03  0.47000000000E+01 0. -1.
        -11    1    4    4    0    0  0.32936833337E+02  0.20234173784E+02 -0.11110947863E+02  0.40220765053E+02  0.00000000000E+00 0.  1.
         12    1    4    4    0    0  0.81409418652E+01  0.68118802298E-01 -0.11533546955E+03  0.11562244639E+03  0.00000000000E+00 0. -1.
         -5    1    5    5    0  502 -0.95829032893E+02 -0.38632894540E+02 -0.20590681364E+02  0.10545980393E+03  0.47000000000E+01 0.  1.
         11    1    6    6    0    0 -0.10452686812E+03 -0.92776608379E+02  0.65093590918E+02  0.15417697883E+03  0.00000000000E+00 0. -1.
        -12    1    6    6    0    0  0.25320618025E+01 -0.50873500875E+02  0.53885036285E+02  0.74149319375E+02  0.00000000000E+00 0.  1.
</event>
<event>
12    1  0.8798177E-003  0.1987047E+03  0.7818608E-02  0.1150939E+00
         21   -1    0    0  503  502  0.00000000000E+00  0.00000000000E+00  0.36624704563E+03  0.36624704563E+03  0.00000000000E+00 0. -1.
         21   -1    0    0  501  503 -0.00000000000E+00 -0.00000000000E+00 -0.13378062955E+03  0.13378062955E+03  0.00000000000E+00 0. -1.
          6    2    1    2  501    0  0.19656758922E+02  0.97681778972E+02  0.22706357846E+03  0.30173070782E+03  0.17191693711E+03 0.  0.
         24    2    3    3    0    0  0.59752716232E+02  0.11240733097E+03  0.19354706344E+03  0.24723323583E+03  0.86359782185E+02 0.  0.
         -6    2    1    2    0  502 -0.19656758922E+02 -0.97681778972E+02  0.54028376270E+01  0.19829696737E+03  0.17136037610E+03 0.  0.
        -24    2    5    5    0    0  0.35108812215E+02 -0.10011453783E+03 -0.17078171942E+02  0.13886068309E+03  0.87949280666E+02 0.  0.
          5    1    3    3  501    0 -0.40095957309E+02 -0.14725552000E+02  0.33516515016E+02  0.54497471988E+02  0.47000000000E+01 0. -1.
        -13    1    4    4    0    0  0.19489454866E+02  0.74198229288E+02  0.45666640376E+02  0.89278542348E+02  0.00000000000E+00 0.  1.
         14    1    4    4    0    0  0.40263261365E+02  0.38209101684E+02  0.14788042306E+03  0.15795469348E+03  0.00000000000E+00 0. -1.
         -5    1    5    5    0  502 -0.54765571138E+02  0.24327588614E+01  0.22481009569E+02  0.59436284280E+02  0.47000000000E+01 0.  1.
         11    1    6    6    0    0 -0.13989227580E+02 -0.21384879818E+02 -0.36018477880E+02  0.44162680193E+02  0.00000000000E+00 0. -1.
        -12    1    6    6    0    0  0.49098039795E+02 -0.78729658016E+02  0.18940305938E+02  0.94698002894E+02  0.00000000000E+00 0.  1.
</event>
<event>
12    1  0.8798177E-003  0.1978480E+03  0.7818608E-02  0.1151819E+00
         21   -1    0    0  501  502  0.00000000000E+00  0.00000000000E+00  0.14163760216E+04  0.14163760216E+04  0.00000000000E+00 0.  1.
         21   -1    0    0  502  503 -0.00000000000E+00 -0.00000000000E+00 -0.34405919827E+02  0.34405919827E+02  0.00000000000E+00 0. -1.
          6    2    1    2  501    0 -0.68571442789E+02 -0.70708849783E+02  0.10182410704E+04  0.10372842898E+04  0.17158681820E+03 0.  0.
         24    2    3    3    0    0  0.19599494287E+02 -0.12317081962E+02  0.29807306051E+03  0.30937786368E+03  0.79569230547E+02 0.  0.
         -6    2    1    2    0  503  0.68571442789E+02  0.70708849783E+02  0.36372903132E+03  0.41349765159E+03  0.17023429572E+03 0.  0.
        -24    2    5    5    0    0 -0.46250654249E+01 -0.62076203971E+01  0.19948442481E+03  0.21786469688E+03  0.87241415765E+02 0.  0.
          5    1    3    3  501    0 -0.88170937076E+02 -0.58391767821E+02  0.72016800990E+03  0.72790642611E+03  0.47000000000E+01 0. -1.
        -11    1    4    4    0    0  0.99490768354E+01 -0.85702353610E+00  0.29356138665E+03  0.29373118042E+03  0.00000000000E+00 0.  1.
         12    1    4    4    0    0  0.96504174511E+01 -0.11460058426E+02  0.45116738621E+01  0.15646683263E+02  0.00000000000E+00 0. -1.
         -5    1    5    5    0  503  0.73196508214E+02  0.76916470180E+02  0.16424460651E+03  0.19563295471E+03  0.47000000000E+01 0.  1.
         11    1    6    6    0    0 -0.57754467997E+01  0.29778383261E+02  0.16582678770E+03  0.16857826495E+03  0.00000000000E+00 0. -1.
        -12    1    6    6    0    0  0.11503813748E+01 -0.35986003659E+02  0.33657637112E+02  0.49286431932E+02  0.00000000000E+00 0.  1.
</event>
<event>
12    1  0.8798177E-003  0.2122803E+03  0.7818608E-02  0.1139839E+00
         21   -1    0    0  501  502  0.00000000000E+00  0.00000000000E+00  0.85613096430E+02  0.85613096430E+02  0.00000000000E+00 0. -1.
         21   -1    0    0  502  503 -0.00000000000E+00 -0.00000000000E+00 -0.52859788393E+03  0.52859788393E+03  0.00000000000E+00 0. -1.
          6    2    1    2  501    0  0.10103819829E+03  0.72421828087E+02 -0.19787294195E+03  0.28995378041E+03  0.17165621144E+03 0.  0.
         24    2    3    3    0    0  0.25034427771E+02  0.52011156197E+02 -0.27480616306E+02  0.10220713385E+03  0.79744786626E+02 0.  0.
         -6    2    1    2    0  503 -0.10103819829E+03 -0.72421828087E+02 -0.24511184555E+03  0.32425719994E+03  0.17207346161E+03 0.  0.
        -24    2    5    5    0    0 -0.56331868156E+02 -0.10865219061E+03 -0.12870286492E+03  0.19431707568E+03  0.78842377995E+02 0.  0.
          5    1    3    3  501    0  0.76003770514E+02  0.20410671890E+02 -0.17039232564E+03  0.18774664657E+03  0.47000000000E+01 0. -1.
        -11    1    4    4    0    0  0.39375733436E+02  0.31757584185E+02  0.15213169780E+02  0.52824549895E+02  0.00000000000E+00 0.  1.
         12    1    4    4    0    0 -0.14341305665E+02  0.20253572012E+02 -0.42693786086E+02  0.49382583952E+02  0.00000000000E+00 0. -1.
         -5    1    5    5    0  503 -0.44706330129E+02  0.36230362524E+02 -0.11640898063E+03  0.12994012426E+03  0.47000000000E+01 0.  1.
         11    1    6    6    0    0 -0.73512433878E+02 -0.70424763088E+02 -0.10463616499E+03  0.14598784954E+03  0.00000000000E+00 0. -1.
        -12    1    6    6    0    0  0.17180565722E+02 -0.38227427523E+02 -0.24066699936E+02  0.48329226141E+02  0.00000000000E+00 0.  1.
</event>
<event>
12    1  0.8798177E-003  0.2346782E+03  0.7818608E-02  0.1123852E+00
         21   -1    0    0  503  502  0.00000000000E+00  0.00000000000E+00  0.66237045313E+03  0.66237045313E+03  0.00000000000E+00 0.  1.
         21   -1    0    0  501  503 -0.00000000000E+00 -0.00000000000E+00 -0.83819901326E+02  0.83819901326E+02  0.00000000000E+00 0. -1.
          6    2    1    2  501    0 -0.75641028309E+02 -0.13788498753E+03  0.34277484310E+03  0.41541360268E+03  0.17418390649E+03 0.  0.
         24    2    3    3    0    0 -0.37810474282E+02 -0.68305464162E+02  0.30953447261E+03  0.32939341249E+03  0.81198288514E+02 0.  0.
         -6    2    1    2    0  502  0.75641028309E+02  0.13788498753E+03  0.23577570870E+03  0.33077675178E+03  0.17055567933E+03 0.  0.
        -24    2    5    5    0    0  0.20096650571E+02  0.15340276524E+03  0.17272386360E+03  0.24519869096E+03  0.79703081752E+02 0.  0.
          5    1    3    3  501    0 -0.37830554027E+02 -0.69579523369E+02  0.33240370493E+02  0.86020190192E+02  0.47000000000E+01 0. -1.
        -11    1    4    4    0    0 -0.26836591932E+02 -0.63864088367E+02  0.30990102569E+03  0.31754916182E+03  0.00000000000E+00 0.  1.
         12    1    4    4    0    0 -0.10973882350E+02 -0.44413757950E+01 -0.36655307814E+00  0.11844250670E+02  0.00000000000E+00 0. -1.
         -5    1    5    5    0  502  0.55544377738E+02 -0.15517777710E+02  0.63051845100E+02  0.85578060821E+02  0.47000000000E+01 0.  1.
         11    1    6    6    0    0  0.55153920502E+01  0.14526940894E+03  0.17590501653E+03  0.22820209369E+03  0.00000000000E+00 0. -1.
        -12    1    6    6    0    0  0.14581258521E+02  0.81333563051E+01 -0.31811529265E+01  0.16996597270E+02  0.00000000000E+00 0.  1.
</event>
<event>
12    1  0.8798177E-003  0.2004832E+03  0.7818608E-02  0.1149769E+00
         21   -1    0    0  501  502  0.00000000000E+00  0.00000000000E+00  0.46897021369E+02  0.46897021369E+02  0.00000000000E+00 0.  1.
         21   -1    0    0  502  503 -0.00000000000E+00 -0.00000000000E+00 -0.89357451585E+03  0.89357451585E+03  0.00000000000E+00 0.  1.
          6    2    1    2  501    0  0.91273356450E+00  0.99752123560E+02 -0.31533914173E+03  0.37256841385E+03  0.17151422523E+03 0.  0.
         24    2    3    3    0    0  0.43264851935E+02  0.92746960532E+02 -0.29987276377E+03  0.32669823741E+03  0.79587799158E+02 0.  0.
         -6    2    1    2    0  503 -0.91273356450E+00 -0.99752123560E+02 -0.53133835275E+03  0.56790312337E+03  0.17390282686E+03 0.  0.
        -24    2    5    5    0    0  0.67406884553E+02 -0.52176433042E+02 -0.33314953598E+03  0.35288704573E+03  0.79212281078E+02 0.  0.
          5    1    3    3  501    0 -0.42352118371E+02  0.70051630277E+01 -0.15466377961E+02  0.45870176441E+02  0.47000000000E+01 0. -1.
        -11    1    4    4    0    0 -0.82621834652E+01  0.69379631391E+02 -0.12906128379E+03  0.14676038941E+03  0.00000000000E+00 0.  1.
         12    1    4    4    0    0  0.51527035400E+02  0.23367329142E+02 -0.17081147998E+03  0.17993784800E+03  0.00000000000E+00 0. -1.
         -5    1    5    5    0  503 -0.68319618117E+02 -0.47575690518E+02 -0.19818881677E+03  0.21501607764E+03  0.47000000000E+01 0.  1.
         13    1    6    6    0    0  0.79707824658E+01  0.20070256249E+02 -0.84635540568E+02  0.87347142405E+02  0.00000000000E+00 0. -1.
        -14    1    6    6    0    0  0.59436102087E+02 -0.72246689291E+02 -0.24851399541E+03  0.26553990333E+03  0.00000000000E+00 0.  1.
</event>
<event>
12    1  0.8798177E-003  0.2271411E+03  0.7818608E-02  0.1128887E+00
         21   -1    0    0  501  502  0.00000000000E+00  0.00000000000E+00  0.18531971548E+03  0.18531971548E+03  0.00000000000E+00 0. -1.
         21   -1    0    0  502  503 -0.00000000000E+00 -0.00000000000E+00 -0.70236982713E+03  0.70236982713E+03  0.00000000000E+00 0. -1.
          6    2    1    2  501    0 -0.14475190379E+03  0.30966347409E+02  0.86645402169E+02  0.24310591248E+03  0.17228183492E+03 0.  0.
         24    2    3    3    0    0 -0.83177882137E+02 -0.25000464889E+02  0.10469763067E+03  0.15783213471E+03  0.80036276525E+02 0.  0.
         -6    2    1    2    0  503  0.14475190379E+03 -0.30966347409E+02 -0.60369551382E+03  0.64458363012E+03  0.17066855156E+03 0.  0.
        -24    2    5    5    0    0  0.12862713645E+03  0.31727296778E+02 -0.46716580916E+03  0.49341170351E+03  0.87519451055E+02 0.  0.
          5    1    3    3  501    0 -0.61574021649E+02  0.55966812298E+02 -0.18052228498E+02  0.85273777767E+02  0.47000000000E+01 0. -1.
        -11    1    4    4    0    0 -0.10579666835E+01  0.14958981038E+02 -0.43299067433E+01  0.15608923717E+02  0.00000000000E+00 0.  1.
         12    1    4    4    0    0 -0.82119915454E+02 -0.39959445927E+02  0.10902753741E+03  0.14222321100E+03  0.00000000000E+00 0. -1.
         -5    1    5    5    0  503  0.16124767337E+02 -0.62693644187E+02 -0.13652970466E+03  0.15117192662E+03  0.47000000000E+01 0.  1.
         13    1    6    6    0    0  0.87712117513E+02 -0.93498505917E+01 -0.36906012227E+03  0.37945514770E+03  0.00000000000E+00 0. -1.
        -14    1    6    6    0    0  0.40915018937E+02  0.41077147370E+02 -0.98105686893E+02  0.11395655581E+03  0.00000000000E+00 0.  1.
</event>
<event>
12    1  0.8798177E-003  0.2340987E+03  0.7818608E-02  0.1126160E+00
         21   -1    0    0  501  502  0.00000000000E+00  0.00000000000E+00  0.36961818771E+03  0.36961818771E+03  0.00000000000E+00 0. -1.
         21   -1    0    0  502  503 -0.00000000000E+00 -0.00000000000E+00 -0.51529083872E+03  0.51529083872E+03  0.00000000000E+00 0.  1.
          6    2    1    2  501    0  0.58037742388E+02 -0.12162109692E+03  0.30533439704E+03  0.37676577257E+03  0.17482357566E+03 0.  0.
         24    2    3    3    0    0  0.87956301313E+02 -0.10546702899E+03  0.15339557437E+03  0.22099809327E+03  0.80314070058E+02 0.  0.
         -6    2    1    2    0  503 -0.58037742388E+02  0.12162109692E+03 -0.45100704806E+03  0.50814325386E+03  0.19142136320E+03 0.  0.
        -24    2    5    5    0    0 -0.10657728786E+03  0.44242609511E+02 -0.25003731458E+03  0.28733917428E+03  0.82030577264E+02 0.  0.
          5    1    3    3  501    0 -0.29918558925E+02 -0.16154067927E+02  0.15193882267E+03  0.15576767930E+03  0.47000000000E+01 0. -1.
        -13    1    4    4    0    0  0.56734678875E+02 -0.93008230483E+01  0.47388896895E+02  0.74505279312E+02  0.00000000000E+00 0.  1.
         14    1    4    4    0    0  0.31221622437E+02 -0.96166205940E+02  0.10600667747E+03  0.14649281396E+03  0.00000000000E+00 0. -1.
         -5    1    5    5    0  503  0.48539545475E+02  0.77378487405E+02 -0.20096973347E+03  0.22080407958E+03  0.47000000000E+01 0.  1.
         11    1    6    6    0    0 -0.45427849346E+02  0.12151948301E+02 -0.19031437024E+03  0.19603805463E+03  0.00000000000E+00 0. -1.
        -12    1    6    6    0    0 -0.61149438516E+02  0.32090661210E+02 -0.59722944344E+02  0.91301119647E+02  0.00000000000E+00 0.  1.
</event>
<event>
12    1  0.8798177E-003  0.2306950E+03  0.7818608E-02  0.1128323E+00
         21   -1    0    0  503  502  0.00000000000E+00  0.00000000000E+00  0.21516311460E+03  0.21516311460E+03  0.00000000000E+00 0. -1.
         21   -1    0    0  501  503 -0.00000000000E+00 -0.00000000000E+00 -0.34474748698E+03  0.34474748698E+03  0.00000000000E+00 0. -1.
          6    2    1    2  501    0 -0.10387357217E+03 -0.11364491959E+03 -0.22417137690E+03  0.32167216350E+03  0.17180013913E+03 0.  0.
         24    2    3    3    0    0 -0.13495656838E+03 -0.10735362018E+03 -0.21735579303E+03  0.28889602454E+03  0.80494081274E+02 0.  0.
         -6    2    1    2    0  502  0.10387357217E+03  0.11364491959E+03  0.94587004521E+02  0.23823843808E+03  0.15526095842E+03 0.  0.
        -24    2    5    5    0    0  0.13152482253E+03  0.99969234926E+02  0.63552022847E+02  0.19422848369E+03  0.79957597481E+02 0.  0.
          5    1    3    3  501    0  0.31082996208E+02 -0.62912994158E+01 -0.68155838777E+01  0.32776138961E+02  0.47000000000E+01 0. -1.
        -13    1    4    4    0    0 -0.35147313173E+02 -0.15160599570E+02 -0.76724950720E+01  0.39039013604E+02  0.00000000000E+00 0.  1.
         14    1    4    4    0    0 -0.99809255206E+02 -0.92193020606E+02 -0.20968329795E+03  0.24985701094E+03  0.00000000000E+00 0. -1.
         -5    1    5    5    0  502 -0.27651250362E+02  0.13675684665E+02  0.31034981673E+02  0.44009954387E+02  0.47000000000E+01 0.  1.
         11    1    6    6    0    0  0.85702785715E+02  0.52575657364E+02  0.77377258616E+02  0.12687161770E+03  0.00000000000E+00 0. -1.
        -12    1    6    6    0    0  0.45822036817E+02  0.47393577562E+02 -0.13825235768E+02  0.67356865992E+02  0.00000000000E+00 0.  1.
</event>
<event>
12    1  0.8798177E-003  0.2326630E+03  0.7818608E-02  0.1124801E+00
         21   -1    0    0  503  502  0.00000000000E+00  0.00000000000E+00  0.59101022904E+03  0.59101022904E+03  0.00000000000E+00 0.  1.
         21   -1    0    0  501  503 -0.00000000000E+00 -0.00000000000E+00 -0.11279545489E+03  0.11279545489E+03  0.00000000000E+00 0. -1.
          6    2    1    2  501    0  0.14881525077E+02  0.15590651162E+03  0.86303948566E+02  0.24803581588E+03  0.17188686473E+03 0.  0.
         24    2    3    3    0    0  0.19925000120E+02  0.16686197530E+03  0.11393824787E+03  0.21752019164E+03  0.78058856085E+02 0.  0.
         -6    2    1    2    0  502 -0.14881525077E+02 -0.15590651162E+03  0.39191082558E+03  0.45576986806E+03  0.17205748245E+03 0.  0.
        -24    2    5    5    0    0  0.11136476926E+02 -0.58180689540E+02  0.80677694697E+02  0.12848493946E+03  0.80563487337E+02 0.  0.
          5    1    3    3  501    0 -0.50434750428E+01 -0.10955463679E+02 -0.27634299302E+02  0.30515624241E+02  0.47000000000E+01 0. -1.
        -13    1    4    4    0    0  0.50404854870E+01  0.16800986714E+03  0.93910492536E+02  0.19254065171E+03  0.00000000000E+00 0.  1.
         14    1    4    4    0    0  0.14884514633E+02 -0.11478918460E+01  0.20027755332E+02  0.24979539931E+02  0.00000000000E+00 0. -1.
         -5    1    5    5    0  502 -0.26018002002E+02 -0.97725822077E+02  0.31123313089E+03  0.32728492860E+03  0.47000000000E+01 0.  1.
         11    1    6    6    0    0 -0.33749208200E+02 -0.35444476873E+02  0.31989381173E+02  0.58469141457E+02  0.00000000000E+00 0. -1.
        -12    1    6    6    0    0  0.44885685126E+02 -0.22736212667E+02  0.48688313524E+02  0.70015797999E+02  0.00000000000E+00 0.  1.
</event>
<event>
12    1  0.8798177E-003  0.2021701E+03  0.7818608E-02  0.1148048E+00
         21   -1    0    0  501  502  0.00000000000E+00  0.00000000000E+00  0.48730639776E+02  0.48730639776E+02  0.00000000000E+00 0.  1.
         21   -1    0    0  502  503 -0.00000000000E+00 -0.00000000000E+00 -0.84298457780E+03  0.84298457780E+03  0.00000000000E+00 0.  1.
          6    2    1    2  501    0 -0.48984441837E+02 -0.92998980539E+02 -0.43645793666E+03  0.48075204088E+03  0.17198461680E+03 0.  0.
         24    2    3    3    0    0 -0.56913254543E+02 -0.12973870738E+03 -0.34912393976E+03  0.38555755252E+03  0.81828175204E+02 0.  0.
         -6    2    1    2    0  503  0.48984441837E+02  0.92998980539E+02 -0.35779600137E+03  0.41096317670E+03  0.17269762038E+03 0.  0.
        -24    2    5    5    0    0 -0.16002933562E+01  0.12050814521E+03 -0.25170640710E+03  0.29016308735E+03  0.79458969807E+02 0.  0.
          5    1    3    3  501    0  0.79288127058E+01  0.36739726844E+02 -0.87333996903E+02  0.95194488362E+02  0.47000000000E+01 0. -1.
        -11    1    4    4    0    0 -0.24687290352E+02 -0.95586400339E+02 -0.30697467670E+03  0.32245879484E+03  0.00000000000E+00 0.  1.
         12    1    4    4    0    0 -0.32225964190E+02 -0.34152307043E+02 -0.42149263058E+02  0.63098757679E+02  0.00000000000E+00 0. -1.
         -5    1    5    5    0  503  0.50584735193E+02 -0.27509164670E+02 -0.10608959426E+03  0.12080008935E+03  0.47000000000E+01 0.  1.
         13    1    6    6    0    0 -0.33196510018E+02  0.21255660878E+02 -0.83146611653E+02  0.92017228964E+02  0.00000000000E+00 0. -1.
        -14    1    6    6    0    0  0.31596216662E+02  0.99252484331E+02 -0.16855979545E+03  0.19814585839E+03  0.00000000000E+00 0.  1.
</event>
<event>
12    1  0.8798177E-003  0.2126314E+03  0.7818608E-02  0.1139983E+00
         21   -1    0    0  501  502  0.00000000000E+00  0.00000000000E+00  0.35124657928E+03  0.35124657928E+03  0.00000000000E+00 0.  1.
         21   -1    0    0  502  503 -0.00000000000E+00 -0.00000000000E+00 -0.14361890320E+03  0.14361890320E+03  0.00000000000E+00 0. -1.
          6    2    1    2  501    0 -0.11345336379E+03  0.49323019472E+02  0.18686543530E+03  0.28122278601E+03  0.16989154910E+03 0.  0.
         24    2    3    3    0    0 -0.12979995982E+03  0.81917525963E+02  0.15978389243E+03  0.23555974823E+03  0.79993700235E+02 0.  0.
         -6    2    1    2    0  503  0.11345336379E+03 -0.49323019472E+02  0.20762240772E+02  0.21364269647E+03  0.17293844311E+03 0.  0.
        -24    2    5    5    0    0  0.68222740309E+02 -0.99636278543E+02  0.36214225458E+02  0.14408633680E+03  0.69768703801E+02 0.  0.
          5    1    3    3  501    0  0.16346596028E+02 -0.32594506491E+02  0.27081542867E+02  0.45663037779E+02  0.47000000000E+01 0. -1.
        -11    1    4    4    0    0  0.86465516987E+01  0.15568480779E+02  0.75133305700E+01  0.19328491568E+02  0.00000000000E+00 0.  1.
         12    1    4    4    0    0 -0.13844651152E+03  0.66349045184E+02  0.15227056186E+03  0.21623125667E+03  0.00000000000E+00 0. -1.
         -5    1    5    5    0  503  0.45230623484E+02  0.50313259071E+02 -0.15451984686E+02  0.69556359665E+02  0.47000000000E+01 0.  1.
         11    1    6    6    0    0  0.72451543019E+02 -0.47208432250E+02  0.17281412796E+02  0.88184518991E+02  0.00000000000E+00 0. -1.
        -12    1    6    6    0    0 -0.42288027098E+01 -0.52427846293E+02  0.18932812662E+02  0.55901817811E+02  0.00000000000E+00 0.  1.
</event>
<event>
12    1  0.8798177E-003  0.1803831E+03  0.7818608E-02  0.1167491E+00
         21   -1    0    0  501  502  0.00000000000E+00  0.00000000000E+00  0.18673462353E+03  0.18673462353E+03  0.00000000000E+00 0.  1.
         21   -1    0    0  502  503 -0.00000000000E+00 -0.00000000000E+00 -0.17453307589E+03  0.17453307589E+03  0.00000000000E+00 0. -1.
          6    2    1    2  501    0 -0.48160065894E+02 -0.20026967002E+02 -0.37403883343E+01  0.18042186727E+03  0.17267770073E+03 0.  0.
         24    2    3    3    0    0  0.36803186765E+02  0.12419123639E+02  0.49394057282E+01  0.88940000621E+02  0.79857478006E+02 0.  0.
         -6    2    1    2    0  503  0.48160065894E+02  0.20026967002E+02  0.15941935978E+02  0.18084583215E+03  0.17242563130E+03 0.  0.
        -24    2    5    5    0    0  0.35344803206E+02  0.19064866213E+02  0.76203381086E+02  0.11905029540E+03  0.82178423624E+02 0.  0.
          5    1    3    3  501    0 -0.84963252660E+02 -0.32446090641E+02 -0.86797940625E+01  0.91481866648E+02  0.47000000000E+01 0. -1.
        -13    1    4    4    0    0  0.34345795805E+02  0.19321189741E+02  0.38199219348E+02  0.54882806244E+02  0.00000000000E+00 0.  1.
         14    1    4    4    0    0  0.24573909605E+01 -0.69020661022E+01 -0.33259813619E+02  0.34057194377E+02  0.00000000000E+00 0. -1.
         -5    1    5    5    0  503  0.12815262688E+02  0.96210078939E+00 -0.60261445109E+02  0.61795536751E+02  0.47000000000E+01 0.  1.
         11    1    6    6    0    0 -0.11170905044E+02  0.33600010057E+02  0.99052298466E+01  0.36767694701E+02  0.00000000000E+00 0. -1.
        -12    1    6    6    0    0  0.46515708250E+02 -0.14535143844E+02  0.66298151240E+02  0.82282600702E+02  0.00000000000E+00 0.  1.
</event>
<event>
12    1  0.8798177E-003  0.1841604E+03  0.7818608E-02  0.1164139E+00
         21   -1    0    0  503  502  0.00000000000E+00  0.00000000000E+00  0.30297894806E+02  0.30297894806E+02  0.00000000000E+00 0. -1.
         21   -1    0    0  501  503 -0.00000000000E+00 -0.00000000000E+00 -0.11384866671E+04  0.11384866671E+04  0.00000000000E+00 0.  1.
          6    2    1    2  501    0 -0.60793665077E+02 -0.68758383711E+00 -0.64200861717E+03  0.66754710335E+03  0.17247529733E+03 0.  0.
         24    2    3    3    0    0 -0.61660088363E+02 -0.57386456756E+02 -0.32614451589E+03  0.34659892473E+03  0.81641885494E+02 0.  0.
         -6    2    1    2    0  502  0.60793665077E+02  0.68758383711E+00 -0.46618015516E+03  0.50123745859E+03  0.17383529660E+03 0.  0.
        -24    2    5    5    0    0  0.49049682636E+02  0.49831550877E+02 -0.41573451719E+03  0.42968396105E+03  0.83090690050E+02 0.  0.
          5    1    3    3  501    0  0.86642328521E+00  0.56698872919E+02 -0.31586410128E+03  0.32094817862E+03  0.47000000000E+01 0. -1.
        -11    1    4    4    0    0  0.16353716296E+02  0.35252920307E+01 -0.29959891702E+02  0.34314236570E+02  0.00000000000E+00 0.  1.
         12    1    4    4    0    0 -0.78013804658E+02 -0.60911748787E+02 -0.29618462419E+03  0.31228468816E+03  0.00000000000E+00 0. -1.
         -5    1    5    5    0  502  0.11743982441E+02 -0.49143967040E+02 -0.50445637975E+02  0.71553497543E+02  0.47000000000E+01 0.  1.
         13    1    6    6    0    0  0.17439982746E+02  0.28118773318E+02 -0.39619640147E+02  0.51619127235E+02  0.00000000000E+00 0. -1.
        -14    1    6    6    0    0  0.31609699891E+02  0.21712777558E+02 -0.37611487704E+03  0.37806483382E+03  0.00000000000E+00 0.  1.
</event>
<event>
12    1  0.8798177E-003  0.2696607E+03  0.7818608E-02  0.1101909E+00
         21   -1    0    0  501  502  0.00000000000E+00  0.00000000000E+00  0.68313918854E+02  0.68313918854E+02  0.00000000000E+00 0. -1.
         21   -1    0    0  502  503 -0.00000000000E+00 -0.00000000000E+00 -0.11769876747E+04  0.11769876747E+04  0.00000000000E+00 0. -1.
          6    2    1    2  501    0  0.20359927078E+03  0.14346066600E+02 -0.34910985606E+03  0.43929028727E+03  0.17158027917E+03 0.  0.
         24    2    3    3    0    0  0.17506651940E+03 -0.36862136546E+02 -0.31768310062E+03  0.37261098817E+03  0.76871924401E+02 0.  0.
         -6    2    1    2    0  503 -0.20359927078E+03 -0.14346066600E+02 -0.75956389980E+03  0.80601130630E+03  0.17623403563E+03 0.  0.
        -24    2    5    5    0    0 -0.18792507918E+03 -0.63227459257E+02 -0.54042453177E+03  0.58089084199E+03  0.77858517698E+02 0.  0.
          5    1    3    3  501    0  0.28532751386E+02  0.51208203146E+02 -0.31426755444E+02  0.66679299103E+02  0.47000000000E+01 0. -1.
        -11    1    4    4    0    0  0.67856493008E+02 -0.52888399942E+02 -0.15066685019E+03  0.17349981625E+03  0.00000000000E+00 0.  1.
         12    1    4    4    0    0  0.10721002639E+03  0.16026263395E+02 -0.16701625042E+03  0.19911117192E+03  0.00000000000E+00 0. -1.
         -5    1    5    5    0  503 -0.15674191599E+02  0.48881392657E+02 -0.21913936803E+03  0.22512046431E+03  0.47000000000E+01 0.  1.
         11    1    6    6    0    0 -0.79441653822E+02  0.96924067008E+01 -0.24769201141E+03  0.26030031046E+03  0.00000000000E+00 0. -1.
        -12    1    6    6    0    0 -0.10848342536E+03 -0.72919865958E+02 -0.29273252036E+03  0.32059053153E+03  0.00000000000E+00 0.  1.
</event>
<event>
12    1  0.8798177E-003  0.1860933E+03  0.7818608E-02  0.1162640E+00
         21   -1    0    0  503  502  0.00000000000E+00  0.00000000000E+00  0.43931449990E+03  0.43931449990E+03  0.00000000000E+00 0.  1.
         21   -1    0    0  501  503 -0.00000000000E+00 -0.00000000000E+00 -0.92935238337E+02  0.92935238337E+02  0.00000000000E+00 0.  1.
          6    2    1    2  501    0 -0.38564937192E+02  0.53179860940E+02  0.27980683425E+03  0.33460710131E+03  0.17133212122E+03 0.  0.
         24    2    3    3    0    0 -0.89905563373E+02  0.47778815921E+02  0.16796458942E+03  0.21133581952E+03  0.78005767344E+02 0.  0.
         -6    2    1    2    0  502  0.38564937192E+02 -0.53179860940E+02  0.66572427309E+02  0.19764263692E+03  0.17411310078E+03 0.  0.
        -24    2    5    5    0    0  0.63372979068E+02  0.11727796231E+01  0.88633543801E+02  0.13378003959E+03  0.77612396028E+02 0.  0.
          5    1    3    3  501    0  0.51340626180E+02  0.54010450192E+01  0.11184224483E+03  0.12327128179E+03  0.47000000000E+01 0. -1.
        -13    1    4    4    0    0 -0.10383890294E+02  0.44583733431E+02  0.83888851305E+02  0.95566070536E+02  0.00000000000E+00 0.  1.
         14    1    4    4    0    0 -0.79521673079E+02  0.31950824899E+01  0.84075738113E+02  0.11576974899E+03  0.00000000000E+00 0. -1.
         -5    1    5    5    0  502 -0.24808041875E+02 -0.54352640563E+02 -0.22061116492E+02  0.63862597338E+02  0.47000000000E+01 0.  1.
         13    1    6    6    0    0  0.50282826622E+02 -0.33924180321E+02  0.41139199883E+02  0.73291516770E+02  0.00000000000E+00 0. -1.
        -14    1    6    6    0    0  0.13090152446E+02  0.35096959944E+02  0.47494343918E+02  0.60488522817E+02  0.00000000000E+00 0.  1.
</event>
<event>
12    1  0.8798177E-003  0.1885487E+03  0.7818608E-02  0.1160492E+00
         21   -1    0    0  503  502  0.00000000000E+00  0.00000000000E+00  0.15385796816E+03  0.15385796816E+03  0.00000000000E+00 0. -1.
         21   -1    0    0  501  503 -0.00000000000E+00 -0.00000000000E+00 -0.22866762280E+03  0.22866762280E+03  0.00000000000E+00 0. -1.
          6    2    1    2  501    0 -0.44124176114E+02  0.65134802838E+02 -0.22110454063E+02  0.18675065440E+03  0.16792096142E+03 0.  0.
         24    2    3    3    0    0 -0.93709756777E+01  0.45253016771E+02 -0.75661089144E+02  0.11972207188E+03  0.80455723057E+02 0.  0.
         -6    2    1    2    0  502  0.44124176114E+02 -0.65134802838E+02 -0.52699200578E+02  0.19577493656E+03  0.17135091066E+03 0.  0.
        -24    2    5    5    0    0 -0.34254847084E+02  0.12648078260E+01  0.13758999894E+01  0.79592381603E+02  0.71819633951E+02 0.  0.
          5    1    3    3  501    0 -0.34753200436E+02  0.19881786067E+02  0.53550635081E+02  0.67028582525E+02  0.47000000000E+01 0. -1.
        -11    1    4    4    0    0 -0.32431302968E+02 -0.13010984199E+01 -0.54895906671E+02  0.63773370920E+02  0.00000000000E+00 0.  1.
         12    1    4    4    0    0  0.23060327290E+02  0.46554115191E+02 -0.20765182473E+02  0.55948700960E+02  0.00000000000E+00 0. -1.
         -5    1    5    5    0  502  0.78379023198E+02 -0.66399610664E+02 -0.54075100568E+02  0.11618255495E+03  0.47000000000E+01 0.  1.
         11    1    6    6    0    0 -0.29159840761E+02 -0.21012831182E+02 -0.25682344417E+02  0.44174859392E+02  0.00000000000E+00 0. -1.
        -12    1    6    6    0    0 -0.50950063227E+01  0.22277639008E+02  0.27058244407E+02  0.35417522211E+02  0.00000000000E+00 0.  1.
</event>
<event>
12    1  0.8798177E-003  0.2336878E+03  0.7818608E-02  0.1124090E+00
         21   -1    0    0  503  502  0.00000000000E+00  0.00000000000E+00  0.53544790485E+03  0.53544790485E+03  0.00000000000E+00 0. -1.
         21   -1    0    0  501  503 -0.00000000000E+00 -0.00000000000E+00 -0.10376561374E+03  0.10376561374E+03  0.00000000000E+00 0. -1.
          6    2    1    2  501    0 -0.14255149525E+03  0.68605604341E+02  0.25817503683E+03  0.34815555206E+03  0.17184376929E+03 0.  0.
         24    2    3    3    0    0 -0.15212436001E+03  0.10007986737E+03  0.23394531396E+03  0.30702845098E+03  0.79864003301E+02 0.  0.
         -6    2    1    2    0  502  0.14255149525E+03 -0.68605604341E+02  0.17350725428E+03  0.29105796653E+03  0.17199510124E+03 0.  0.
        -24    2    5    5    0    0  0.16663932666E+03 -0.41083950051E+02  0.17005162758E+03  0.25402154618E+03  0.78440000885E+02 0.  0.
          5    1    3    3  501    0  0.95728647649E+01 -0.31474263032E+02  0.24229722873E+02  0.41127101086E+02  0.47000000000E+01 0. -1.
        -11    1    4    4    0    0  0.60024356169E+01  0.14951365333E+02  0.37791461304E+02  0.41082442797E+02  0.00000000000E+00 0.  1.
         12    1    4    4    0    0 -0.15812679563E+03  0.85128502039E+02  0.19615385266E+03  0.26594600818E+03  0.00000000000E+00 0. -1.
         -5    1    5    5    0  502 -0.24087831409E+02 -0.27521654290E+02  0.34556266983E+01  0.37036420355E+02  0.47000000000E+01 0.  1.
         13    1    6    6    0    0  0.85334374751E+02 -0.38294965792E+02  0.13772111192E+03  0.16647992247E+03  0.00000000000E+00 0. -1.
        -14    1    6    6    0    0  0.81304951905E+02 -0.27889842589E+01  0.32330515664E+02  0.87541623703E+02  0.00000000000E+00 0.  1.
</event>
<event>
12    1  0.8798177E-003  0.1754584E+03  0.7818608E-02  0.1172433E+00
         21   -1    0    0  503  502  0.00000000000E+00  0.00000000000E+00  0.23812118976E+03  0.23812118976E+03  0.00000000000E+00 0.  1.
         21   -1    0    0  501  503 -0.00000000000E+00 -0.00000000000E+00 -0.14488583616E+03  0.14488583616E+03  0.00000000000E+00 0.  1.
          6    2    1    2  501    0  0.21620576766E+02  0.26410078074E+02  0.11032377329E+03  0.20671843709E+03  0.17145330477E+03 0.  0.
         24    2    3    3    0    0  0.36319618510E+02 -0.32753139516E+02  0.11172644647E+03  0.14555958135E+03  0.79453823341E+02 0.  0.
         -6    2    1    2    0  502 -0.21620576766E+02 -0.26410078074E+02 -0.17088419690E+02  0.17628858883E+03  0.17210668465E+03 0.  0.
        -24    2    5    5    0    0 -0.67458440553E+02 -0.25388874666E+02 -0.51024656127E+02  0.11905301636E+03  0.79842776835E+02 0.  0.
          5    1    3    3  501    0 -0.14699041744E+02  0.59163217590E+02 -0.14026731800E+01  0.61158855743E+02  0.47000000000E+01 0. -1.
        -13    1    4    4    0    0  0.28854324919E+02  0.19262474280E+02  0.71186895607E+02  0.79190839673E+02  0.00000000000E+00 0.  1.
         14    1    4    4    0    0  0.74652935911E+01 -0.52015613796E+02  0.40539550867E+02  0.66368741674E+02  0.00000000000E+00 0. -1.
         -5    1    5    5    0  502  0.45837863787E+02 -0.10212034086E+01  0.33936236437E+02  0.57235572475E+02  0.47000000000E+01 0.  1.
         11    1    6    6    0    0 -0.66777097701E+02 -0.28230276235E+00 -0.54295469191E+01  0.66998063046E+02  0.00000000000E+00 0. -1.
        -12    1    6    6    0    0 -0.68134285286E+00 -0.25106571904E+02 -0.45595109208E+02  0.52054953314E+02  0.00000000000E+00 0.  1.
</event>
<event>
12    1  0.8798177E-003  0.1906109E+03  0.7818608E-02  0.1161339E+00
         21   -1    0    0  501  502  0.00000000000E+00  0.00000000000E+00  0.13804130877E+02  0.13804130877E+02  0.00000000000E+00 0. -1.
         21   -1    0    0  502  503 -0.00000000000E+00 -0.00000000000E+00 -0.28318762061E+04  0.28318762061E+04  0.00000000000E+00 0. -1.
          6    2    1    2  501    0  0.20143811187E+02 -0.80099450987E+02 -0.92433171159E+03  0.94378050003E+03  0.17178714735E+03 0.  0.
         24    2    3    3    0    0  0.39811880913E+02  0.17556062868E+02 -0.47295842091E+03  0.48152151428E+03  0.79247079487E+02 0.  0.
         -6    2    1    2    0  503 -0.20143811187E+02  0.80099450987E+02 -0.18937403637E+04  0.19018998370E+04  0.15539861576E+03 0.  0.
        -24    2    5    5    0    0 -0.92012714464E+01  0.33066112844E+02 -0.16967605391E+04  0.16990328476E+04  0.80859502637E+02 0.  0.
          5    1    3    3  501    0 -0.19668069726E+02 -0.97655513855E+02 -0.45137329069E+03  0.46225898574E+03  0.47000000000E+01 0. -1.
        -13    1    4    4    0    0 -0.23306611895E+02 -0.39894836529E+01 -0.11585487257E+03  0.11824324774E+03  0.00000000000E+00 0.  1.
         14    1    4    4    0    0  0.63118492807E+02  0.21545546521E+02 -0.35710354834E+03  0.36327826655E+03  0.00000000000E+00 0. -1.
         -5    1    5    5    0  503 -0.10942539741E+02  0.47033338144E+02 -0.19697982457E+03  0.20286698933E+03  0.47000000000E+01 0.  1.
         13    1    6    6    0    0  0.57059581107E+01  0.53181587111E+02 -0.73374388499E+03  0.73569078282E+03  0.00000000000E+00 0. -1.
        -14    1    6    6    0    0 -0.14907229557E+02 -0.20115474268E+02 -0.96301665410E+03  0.96334206483E+03  0.00000000000E+00 0.  1.
</event>
<event>
12    1  0.8798177E-003  0.2296602E+03  0.7818608E-02  0.1126910E+00
         21   -1    0    0  503  502  0.00000000000E+00  0.00000000000E+00  0.65193542414E+03  0.65193542414E+03  0.00000000000E+00 0. -1.
         21   -1    0    0  501  503 -0.00000000000E+00 -0.00000000000E+00 -0.99531266795E+02  0.99531266795E+02  0.00000000000E+00 0.  1.
          6    2    1    2  501    0 -0.71013726636E+02 -0.13491915165E+03  0.11329840530E+03  0.25592895504E+03  0.17151377359E+03 0.  0.
         24    2    3    3    0    0 -0.55314485991E+02 -0.16016996409E+03  0.65684930048E+02  0.19959776731E+03  0.82526655821E+02 0.  0.
         -6    2    1    2    0  502  0.71013726636E+02  0.13491915165E+03  0.43910575205E+03  0.49553773590E+03  0.17174882638E+03 0.  0.
        -24    2    5    5    0    0  0.62719221481E+02  0.28268554678E+02  0.12566993103E+03  0.16431688428E+03  0.80463003717E+02 0.  0.
          5    1    3    3  501    0 -0.15699240646E+02  0.25250812442E+02  0.47613475256E+02  0.56331187736E+02  0.47000000000E+01 0. -1.
        -11    1    4    4    0    0 -0.11871179138E+02 -0.74700007194E+02  0.70774032322E+02  0.10358561493E+03  0.00000000000E+00 0.  1.
         12    1    4    4    0    0 -0.43443306852E+02 -0.85469956899E+02 -0.50891022748E+01  0.96012152379E+02  0.00000000000E+00 0. -1.
         -5    1    5    5    0  502  0.82945051555E+01  0.10665059697E+03  0.31343582101E+03  0.33122085161E+03  0.47000000000E+01 0.  1.
         11    1    6    6    0    0  0.85385788329E+01  0.42310524017E+02  0.84329785232E+02  0.94734367831E+02  0.00000000000E+00 0. -1.
        -12    1    6    6    0    0  0.54180642648E+02 -0.14041969339E+02  0.41340145801E+02  0.69582516450E+02  0.00000000000E+00 0.  1.
</event>
<event>
12    1  0.8798177E-003  0.1955642E+03  0.7818608E-02  0.1153750E+00
         21   -1    0    0  503  502  0.00000000000E+00  0.00000000000E+00  0.18425081441E+03  0.18425081441E+03  0.00000000000E+00 0. -1.
         21   -1    0    0  501  503 -0.00000000000E+00 -0.00000000000E+00 -0.28931763303E+03  0.28931763303E+03  0.00000000000E+00 0.  1.
          6    2    1    2  501    0  0.27726734577E+02  0.85748226768E+02 -0.17909917770E+03  0.26446046547E+03  0.17245663843E+03 0.  0.
         24    2    3    3    0    0 -0.91395142355E+00 -0.20539733297E+02 -0.52926456179E+02  0.96952062681E+02  0.78586110371E+02 0.  0.
         -6    2    1    2    0  502 -0.27726734577E+02 -0.85748226768E+02  0.74032359076E+02  0.20910798198E+03  0.17356217253E+03 0.  0.
        -24    2    5    5    0    0 -0.19993403197E+02  0.21379581196E+02  0.12489243270E+02  0.85229748392E+02  0.79065201890E+02 0.  0.
          5    1    3    3  501    0  0.28640686000E+02  0.10628796006E+03 -0.12617272152E+03  0.16750840279E+03  0.47000000000E+01 0. -1.
        -13    1    4    4    0    0  0.37489049981E+02 -0.18613923332E+02 -0.20275046704E+02  0.46507897492E+02  0.00000000000E+00 0.  1.
         14    1    4    4    0    0 -0.38403001405E+02 -0.19258099655E+01 -0.32651409475E+02  0.50444165189E+02  0.00000000000E+00 0. -1.
         -5    1    5    5    0  502 -0.77333313799E+01 -0.10712780796E+03  0.61543115806E+02  0.12387823359E+03  0.47000000000E+01 0.  1.
         11    1    6    6    0    0 -0.17325726710E+02 -0.46958474393E+01  0.42050282702E+02  0.45721527365E+02  0.00000000000E+00 0. -1.
        -12    1    6    6    0    0 -0.26676764864E+01  0.26075428636E+02 -0.29561039433E+02  0.39508221027E+02  0.00000000000E+00 0.  1.
</event>
<event>
12    1  0.8798177E-003  0.2538390E+03  0.7818608E-02  0.1111024E+00
         21   -1    0    0  501  502  0.00000000000E+00  0.00000000000E+00  0.32703822787E+03  0.32703822787E+03  0.00000000000E+00 0. -1.
         21   -1    0    0  502  503 -0.00000000000E+00 -0.00000000000E+00 -0.33703713929E+03  0.33703713929E+03  0.00000000000E+00 0. -1.
          6    2    1    2  501    0  0.10517941165E+03  0.15258619312E+03  0.20947852040E+03  0.32850929210E+03  0.17231323085E+03 0.  0.
         24    2    3    3    0    0  0.66064586783E+02  0.42060288303E+02  0.16914381273E+03  0.20443300991E+03  0.83962066907E+02 0.  0.
         -6    2    1    2    0  503 -0.10517941165E+03 -0.15258619312E+03 -0.21947743182E+03  0.33556607506E+03  0.17346179028E+03 0.  0.
        -24    2    5    5    0    0 -0.53247512380E+02 -0.11757478141E+03 -0.57667822070E+02  0.16199430052E+03  0.79104038454E+02 0.  0.
          5    1    3    3  501    0  0.39114824867E+02  0.11052590481E+03  0.40334707673E+02  0.12407628219E+03  0.47000000000E+01 0. -1.
        -13    1    4    4    0    0  0.47532841463E+02  0.49332497026E+02  0.17122119468E+03  0.18441736303E+03  0.00000000000E+00 0.  1.
         14    1    4    4    0    0  0.18531745319E+02 -0.72722087236E+01 -0.20773819514E+01  0.20015646881E+02  0.00000000000E+00 0. -1.
         -5    1    5    5    0  503 -0.51931899269E+02 -0.35011411709E+02 -0.16180960975E+03  0.17357177454E+03  0.47000000000E+01 0.  1.
         13    1    6    6    0    0 -0.57478824628E+02 -0.11532585599E+03 -0.71494215302E+02  0.14736109107E+03  0.00000000000E+00 0. -1.
        -14    1    6    6    0    0  0.42313122478E+01 -0.22489254204E+01  0.13826393232E+02  0.14633209446E+02  0.00000000000E+00 0.  1.
</event>
<event>
12    1  0.8798177E-003  0.4999519E+03  0.7818608E-02  0.1013814E+00
         21   -1    0    0  503  502  0.00000000000E+00  0.00000000000E+00  0.74483738945E+03  0.74483738945E+03  0.00000000000E+00 0.  1.
         21   -1    0    0  501  503 -0.00000000000E+00 -0.00000000000E+00 -0.34282532475E+03  0.34282532475E+03  0.00000000000E+00 0. -1.
          6    2    1    2  501    0  0.40922633273E+03  0.22745773241E+03  0.28139160347E+03  0.57370121746E+03  0.17535290413E+03 0.  0.
         24    2    3    3    0    0  0.39985175429E+03  0.24161317639E+03  0.24630666596E+03  0.53444179624E+03  0.81870064463E+02 0.  0.
         -6    2    1    2    0  502 -0.40922633273E+03 -0.22745773241E+03  0.12062046124E+03  0.51396149673E+03  0.17436717876E+03 0.  0.
        -24    2    5    5    0    0 -0.11803501726E+03 -0.26645317693E+02  0.40648096816E+02  0.15128302043E+03  0.81191417281E+02 0.  0.
          5    1    3    3  501    0  0.93745784361E+01 -0.14155443982E+02  0.35084937501E+02  0.39259421222E+02  0.47000000000E+01 0. -1.
        -11    1    4    4    0    0  0.10875909986E+03  0.25551425536E+02  0.54297457059E+02  0.12421606575E+03  0.00000000000E+00 0.  1.
         12    1    4    4    0    0  0.29109265443E+03  0.21606175085E+03  0.19200920891E+03  0.41022573048E+03  0.00000000000E+00 0. -1.
         -5    1    5    5    0  502 -0.29119131546E+03 -0.20081241471E+03  0.79972364420E+02  0.36267847631E+03  0.47000000000E+01 0.  1.
         13    1    6    6    0    0 -0.10728628356E+03 -0.42197351149E+02  0.10587088799E+02  0.11577154026E+03  0.00000000000E+00 0. -1.
        -14    1    6    6    0    0 -0.10748733697E+02  0.15552033456E+02  0.30061008017E+02  0.35511480167E+02  0.00000000000E+00 0.  1.
</event>
<event>
12    1  0.8798177E-003  0.1791875E+03  0.7818608E-02  0.1168785E+00
         21   -1    0    0  501  502  0.00000000000E+00  0.00000000000E+00  0.85392878262E+02  0.85392878262E+02  0.00000000000E+00 0. -1.
         21   -1    0    0  502  503 -0.00000000000E+00 -0.00000000000E+00 -0.37487811096E+03  0.37487811096E+03  0.00000000000E+00 0. -1.
          6    2    1    2  501    0  0.23047135819E+02  0.46781240843E+02 -0.13575432182E+03  0.22417495268E+03  0.17060339548E+03 0.  0.
         24    2    3    3    0    0  0.62412113296E+02  0.73373193603E+02 -0.12228701273E+03  0.17457463194E+03  0.79014499981E+02 0.  0.
         -6    2    1    2    0  503 -0.23047135819E+02 -0.46781240843E+02 -0.15373091088E+03  0.23609603655E+03  0.17143071647E+03 0.  0.
        -24    2    5    5    0    0 -0.18967723787E+02  0.39495169640E+02 -0.62643045091E+02  0.11048015418E+03  0.79762587719E+02 0.  0.
          5    1    3    3  501    0 -0.39364977477E+02 -0.26591952760E+02 -0.13467309087E+02  0.49600320739E+02  0.47000000000E+01 0. -1.
        -11    1    4    4    0    0  0.44866393674E+02  0.50801709484E+01 -0.81351782460E+02  0.93042538270E+02  0.00000000000E+00 0.  1.
         12    1    4    4    0    0  0.17545719622E+02  0.68293022655E+02 -0.40935230274E+02  0.81532093668E+02  0.00000000000E+00 0. -1.
         -5    1    5    5    0  503 -0.40794120326E+01 -0.86276410483E+02 -0.91087865789E+02  0.12561588237E+03  0.47000000000E+01 0.  1.
         13    1    6    6    0    0 -0.34018827588E+02  0.27023647423E+02 -0.75483095261E+02  0.87093374149E+02  0.00000000000E+00 0. -1.
        -14    1    6    6    0    0  0.15051103801E+02  0.12471522217E+02  0.12840050170E+02  0.23386780035E+02  0.00000000000E+00 0.  1.
</event>
<event>
12    1  0.8798177E-003  0.2321374E+03  0.7818608E-02  0.1125367E+00
         21   -1    0    0  503  502  0.00000000000E+00  0.00000000000E+00  0.95527927016E+02  0.95527927016E+02  0.00000000000E+00 0.  1.
         21   -1    0    0  501  503 -0.00000000000E+00 -0.00000000000E+00 -0.56208953786E+03  0.56208953786E+03  0.00000000000E+00 0.  1.
          6    2    1    2  501    0  0.13786465954E+03  0.69305591573E+02 -0.24705751992E+03  0.33813382605E+03  0.17171819005E+03 0.  0.
         24    2    3    3    0    0  0.14280162152E+03  0.10407480971E+03 -0.19095643837E+03  0.27178103052E+03  0.78591972046E+02 0.  0.
         -6    2    1    2    0  502 -0.13786465954E+03 -0.69305591573E+02 -0.21950409092E+03  0.31948363883E+03  0.17342958275E+03 0.  0.
        -24    2    5    5    0    0 -0.56545582728E+02 -0.84272103373E+02 -0.20117919437E+03  0.23466217596E+03  0.65529216733E+02 0.  0.
          5    1    3    3  501    0 -0.49369619806E+01 -0.34769218137E+02 -0.56101081549E+02  0.66352795528E+02  0.47000000000E+01 0. -1.
        -13    1    4    4    0    0  0.86391433831E+02  0.14707404158E+02 -0.82777295907E+02  0.12054819905E+03  0.00000000000E+00 0.  1.
         14    1    4    4    0    0  0.56410187690E+02  0.89367405552E+02 -0.10817914247E+03  0.15123283147E+03  0.00000000000E+00 0. -1.
         -5    1    5    5    0  502 -0.81319076813E+02  0.14966511800E+02 -0.18324896550E+02  0.84821462866E+02  0.47000000000E+01 0.  1.
         13    1    6    6    0    0 -0.51605423728E+02 -0.18497335081E+02 -0.89074828024E+02  0.10459252435E+03  0.00000000000E+00 0. -1.
        -14    1    6    6    0    0 -0.49401589994E+01 -0.65774768292E+02 -0.11210436635E+03  0.13006965161E+03  0.00000000000E+00 0.  1.
</event>
<event>
12    1  0.8798177E-003  0.2950593E+03  0.7818608E-02  0.1087785E+00
         21   -1    0    0  503  502  0.00000000000E+00  0.00000000000E+00  0.28153727308E+03  0.28153727308E+03  0.00000000000E+00 0.  1.
         21   -1    0    0  501  503 -0.00000000000E+00 -0.00000000000E+00 -0.31004332879E+03  0.31004332879E+03  0.00000000000E+00 0.  1.
          6    2    1    2  501    0  0.23670439379E+03  0.38200509154E+02 -0.32730040868E+02  0.29686903419E+03  0.17196429556E+03 0.  0.
         24    2    3    3    0    0  0.17345984344E+03 -0.32060593400E+02 -0.47835788425E+02  0.20102139838E+03  0.83696720469E+02 0.  0.
         -6    2    1    2    0  502 -0.23670439379E+03 -0.38200509154E+02  0.42239851536E+01  0.29471156768E+03  0.17131496472E+03 0.  0.
        -24    2    5    5    0    0 -0.68246808048E+02 -0.14535552506E+02 -0.48221620681E+02  0.11663680828E+03  0.80061921337E+02 0.  0.
          5    1    3    3  501    0  0.63244550342E+02  0.70261102555E+02  0.15105747557E+02  0.95847635805E+02  0.47000000000E+01 0. -1.
        -13    1    4    4    0    0  0.13969585980E+03 -0.52774285375E+02 -0.15970103757E+02  0.15018356320E+03  0.00000000000E+00 0.  1.
         14    1    4    4    0    0  0.33763983647E+02  0.20713691974E+02 -0.31865684668E+02  0.50837835185E+02  0.00000000000E+00 0. -1.
         -5    1    5    5    0  502 -0.16845758574E+03 -0.23664956648E+02  0.52445605835E+02  0.17807475940E+03  0.47000000000E+01 0.  1.
         11    1    6    6    0    0 -0.75507854080E+02 -0.34427365551E+02 -0.47124713777E+02  0.95432794023E+02  0.00000000000E+00 0. -1.
        -12    1    6    6    0    0  0.72610460313E+01  0.19891813045E+02 -0.10969069046E+01  0.21204014253E+02  0.00000000000E+00 0.  1.
</event>
<event>
12    1  0.8798177E-003  0.1722592E+03  0.7818608E-02  0.1175544E+00
         21   -1    0    0  503  502  0.00000000000E+00  0.00000000000E+00  0.18501472097E+03  0.18501472097E+03  0.00000000000E+00 0. -1.
         21   -1    0    0  501  503 -0.00000000000E+00 -0.00000000000E+00 -0.20060899482E+03  0.20060899482E+03  0.00000000000E+00 0. -1.
          6    2    1    2  501    0 -0.19382376500E+01  0.12432762988E+02 -0.94264622745E+02  0.19636456964E+03  0.17179899519E+03 0.  0.
         24    2    3    3    0    0 -0.41377004110E+02 -0.16303414194E+02 -0.11264087813E+03  0.14401038221E+03  0.77930513760E+02 0.  0.
         -6    2    1    2    0  502  0.19382376500E+01 -0.12432762988E+02  0.78670348897E+02  0.18925914615E+03  0.17167314946E+03 0.  0.
        -24    2    5    5    0    0  0.40487481565E+02 -0.47338547636E+02  0.53346766061E+01  0.99233211891E+02  0.77062295008E+02 0.  0.
          5    1    3    3  501    0  0.39438766460E+02  0.28736177183E+02  0.18376255387E+02  0.52354187425E+02  0.47000000000E+01 0. -1.
        -11    1    4    4    0    0  0.21942256238E+02 -0.14266172897E+02 -0.28628067296E+02  0.38788561910E+02  0.00000000000E+00 0.  1.
         12    1    4    4    0    0 -0.63319260348E+02 -0.20372412977E+01 -0.84012810836E+02  0.10522182030E+03  0.00000000000E+00 0. -1.
         -5    1    5    5    0  502 -0.38549243915E+02  0.34905784648E+02  0.73335672291E+02  0.90025934256E+02  0.47000000000E+01 0.  1.
         13    1    6    6    0    0  0.58680982391E+02 -0.13357195231E+02  0.73853691246E+01  0.60633456407E+02  0.00000000000E+00 0. -1.
        -14    1    6    6    0    0 -0.18193500826E+02 -0.33981352405E+02 -0.20506925184E+01  0.38599755483E+02  0.00000000000E+00 0.  1.
</event>
<event>
12    1  0.8798177E-003  0.2489475E+03  0.7818608E-02  0.1114242E+00
         21   -1    0    0  503  502  0.00000000000E+00  0.00000000000E+00  0.66003400776E+02  0.66003400776E+02  0.00000000000E+00 0. -1.
         21   -1    0    0  501  503 -0.00000000000E+00 -0.00000000000E+00 -0.12040735153E+04  0.12040735153E+04  0.00000000000E+00 0.  1.
          6    2    1    2  501    0  0.59399166230E+02  0.16859113926E+03 -0.86907081640E+03  0.90355885557E+03  0.17083116919E+03 0.  0.
         24    2    3    3    0    0  0.59082016295E+02  0.28684912453E+02 -0.45069912263E+03  0.46238902768E+03  0.79752146877E+02 0.  0.
         -6    2    1    2    0  502 -0.59399166230E+02 -0.16859113926E+03 -0.26899929815E+03  0.36651806054E+03  0.17327329023E+03 0.  0.
        -24    2    5    5    0    0 -0.15033729651E+02 -0.18393150668E+03 -0.21199570652E+03  0.29252401825E+03  0.81063613868E+02 0.  0.
          5    1    3    3  501    0  0.31714993472E+00  0.13990622681E+03 -0.41837169377E+03  0.44116982788E+03  0.47000000000E+01 0. -1.
        -11    1    4    4    0    0  0.76501002589E+02  0.33842428547E+02 -0.39643767679E+03  0.40516730488E+03  0.00000000000E+00 0.  1.
         12    1    4    4    0    0 -0.17418986294E+02 -0.51575160938E+01 -0.54261445838E+02  0.57221722799E+02  0.00000000000E+00 0. -1.
         -5    1    5    5    0  502 -0.44365436580E+02  0.15340367416E+02 -0.57003591639E+02  0.73994042295E+02  0.47000000000E+01 0.  1.
         11    1    6    6    0    0 -0.44413356331E+02 -0.11716274786E+03 -0.10754832937E+03  0.16512510063E+03  0.00000000000E+00 0. -1.
        -12    1    6    6    0    0  0.29379626680E+02 -0.66768758819E+02 -0.10444737714E+03  0.12739891762E+03  0.00000000000E+00 0.  1.
</event>
<event>
12    1  0.8798177E-003  0.1854002E+03  0.7818608E-02  0.1164598E+00
         21   -1    0    0  503  502  0.00000000000E+00  0.00000000000E+00  0.38344667016E+02  0.38344667016E+02  0.00000000000E+00 0.  1.
         21   -1    0    0  501  503 -0.00000000000E+00 -0.00000000000E+00 -0.85814212469E+03  0.85814212469E+03  0.00000000000E+00 0.  1.
          6    2    1    2  501    0 -0.43267540634E+02 -0.10961050584E+02 -0.39306903209E+03  0.43122299846E+03  0.17163270583E+03 0.  0.
         24    2    3    3    0    0 -0.28703422324E+02  0.42477869848E+02 -0.35389074927E+03  0.36321667814E+03  0.63713711065E+02 0.  0.
         -6    2    1    2    0  502  0.43267540634E+02  0.10961050584E+02 -0.42672842558E+03  0.46526379325E+03  0.17994727951E+03 0.  0.
        -24    2    5    5    0    0  0.18674197021E+02 -0.61101505027E+02 -0.30316072655E+03  0.32004357869E+03  0.80245539364E+02 0.  0.
          5    1    3    3  501    0 -0.14564118310E+02 -0.53438920432E+02 -0.39178282818E+02  0.68006320321E+02  0.47000000000E+01 0. -1.
        -11    1    4    4    0    0 -0.31863916145E+01 -0.15012282863E+02 -0.35542517234E+02  0.38714238461E+02  0.00000000000E+00 0.  1.
         12    1    4    4    0    0 -0.25517030710E+02  0.57490152711E+02 -0.31834823204E+03  0.32450243968E+03  0.00000000000E+00 0. -1.
         -5    1    5    5    0  502  0.24593343613E+02  0.72062555611E+02 -0.12356769904E+03  0.14522021456E+03  0.47000000000E+01 0.  1.
         13    1    6    6    0    0 -0.12075464507E+02  0.13405910394E+02 -0.27912392796E+02  0.33236079013E+02  0.00000000000E+00 0. -1.
        -14    1    6    6    0    0  0.30749661528E+02 -0.74507415422E+02 -0.27524833375E+03  0.28680749967E+03  0.00000000000E+00 0.  1.
</event>
<event>
12    1  0.8798177E-003  0.1950639E+03  0.7818608E-02  0.1154275E+00
         21   -1    0    0  503  502  0.00000000000E+00  0.00000000000E+00  0.26983665310E+02  0.26983665310E+02  0.00000000000E+00 0.  1.
         21   -1    0    0  501  503 -0.00000000000E+00 -0.00000000000E+00 -0.14226461448E+04  0.14226461448E+04  0.00000000000E+00 0.  1.
          6    2    1    2  501    0 -0.74700041697E+02 -0.52183801790E+02 -0.78659551155E+03  0.81008897401E+03  0.17090465652E+03 0.  0.
         24    2    3    3    0    0  0.11211050873E+02 -0.57949341211E+01 -0.20509168175E+03  0.22042683605E+03  0.79787989101E+02 0.  0.
         -6    2    1    2    0  502  0.74700041697E+02  0.52183801790E+02 -0.60906696791E+03  0.63954083607E+03  0.17247221285E+03 0.  0.
        -24    2    5    5    0    0  0.80501084631E+02 -0.40668444729E+01 -0.52528840112E+03  0.53835424823E+03  0.86025742615E+02 0.  0.
          5    1    3    3  501    0 -0.85911092570E+02 -0.46388867669E+02 -0.58150382979E+03  0.58966213795E+03  0.47000000000E+01 0. -1.
        -11    1    4    4    0    0 -0.15919135677E+02  0.19808922557E+02 -0.22120803499E+02  0.33691872032E+02  0.00000000000E+00 0.  1.
         12    1    4    4    0    0  0.27130186550E+02 -0.25603856678E+02 -0.18297087825E+03  0.18673496402E+03  0.00000000000E+00 0. -1.
         -5    1    5    5    0  502 -0.58010429343E+01  0.56250646263E+02 -0.83778566793E+02  0.10118658784E+03  0.47000000000E+01 0.  1.
         13    1    6    6    0    0  0.16740621669E+02 -0.36234084782E+02 -0.11106003808E+03  0.11801478455E+03  0.00000000000E+00 0. -1.
        -14    1    6    6    0    0  0.63760462962E+02  0.32167240309E+02 -0.41422836304E+03  0.42033946369E+03  0.00000000000E+00 0.  1.
</event>
<event>
12    1  0.8798177E-003  0.3629615E+03  0.7818608E-02  0.1058243E+00
         21   -1    0    0  503  502  0.00000000000E+00  0.00000000000E+00  0.34886996534E+03  0.34886996534E+03  0.00000000000E+00 0.  1.
         21   -1    0    0  501  503 -0.00000000000E+00 -0.00000000000E+00 -0.38455068384E+03  0.38455068384E+03  0.00000000000E+00 0. -1.
          6    2    1    2  501    0  0.29700041329E+03 -0.11709743043E+03  0.56075652119E+02  0.35904083089E+03  0.15441756952E+03 0.  0.
         24    2    3    3    0    0  0.70879798759E+02 -0.48505815498E+02  0.33456296417E+02  0.12161912336E+03  0.79341838814E+02 0.  0.
         -6    2    1    2    0  502 -0.29700041329E+03  0.11709743043E+03 -0.91756370622E+02  0.37437981830E+03  0.17268457688E+03 0.  0.
        -24    2    5    5    0    0 -0.28137158766E+03  0.12775844190E+03 -0.42855239909E+02  0.32173641471E+03  0.78648325763E+02 0.  0.
          5    1    3    3  501    0  0.22612061453E+03 -0.68591614933E+02  0.22619355703E+02  0.23742170753E+03  0.47000000000E+01 0. -1.
        -13    1    4    4    0    0  0.83273878227E+02 -0.21072504623E+02  0.17938872749E+02  0.87751879760E+02  0.00000000000E+00 0.  1.
         14    1    4    4    0    0 -0.12394079467E+02 -0.27433310875E+02  0.15517423668E+02  0.33867243595E+02  0.00000000000E+00 0. -1.
         -5    1    5    5    0  502 -0.15628825628E+02 -0.10661011466E+02 -0.48901130713E+02  0.52643403585E+02  0.47000000000E+01 0.  1.
         11    1    6    6    0    0 -0.61799112528E+02 -0.37008286338E+01 -0.18748045340E+02  0.64686286382E+02  0.00000000000E+00 0. -1.
        -12    1    6    6    0    0 -0.21957247513E+03  0.13145927053E+03 -0.24107194569E+02  0.25705012833E+03  0.00000000000E+00 0.  1.
</event>
<event>
12    1  0.8798177E-003  0.2875322E+03  0.7818608E-02  0.1091820E+00
         21   -1    0    0  503  502  0.00000000000E+00  0.00000000000E+00  0.66944020750E+02  0.66944020750E+02  0.00000000000E+00 0.  1.
         21   -1    0    0  501  503 -0.00000000000E+00 -0.00000000000E+00 -0.14041908077E+04  0.14041908077E+04  0.00000000000E+00 0.  1.
          6    2    1    2  501    0  0.18617048449E+03  0.13771339881E+03 -0.92957248618E+03  0.97302608467E+03  0.17044155856E+03 0.  0.
         24    2    3    3    0    0  0.15475272605E+03  0.12280778519E+03 -0.52006065266E+03  0.56201357312E+03  0.79787314780E+02 0.  0.
         -6    2    1    2    0  502 -0.18617048449E+03 -0.13771339881E+03 -0.40767430080E+03  0.49810874380E+03  0.16819499284E+03 0.  0.
        -24    2    5    5    0    0 -0.20103808776E+03 -0.14400819812E+03 -0.33751027124E+03  0.42595785213E+03  0.79826278543E+02 0.  0.
          5    1    3    3  501    0  0.31417758441E+02  0.14905613618E+02 -0.40951183352E+03  0.41101251155E+03  0.47000000000E+01 0. -1.
        -13    1    4    4    0    0  0.10858337971E+03  0.11873001710E+03 -0.45100859820E+03  0.47884853865E+03  0.00000000000E+00 0.  1.
         14    1    4    4    0    0  0.46169346340E+02  0.40777680898E+01 -0.69052054460E+02  0.83165034475E+02  0.00000000000E+00 0. -1.
         -5    1    5    5    0  502  0.14867603265E+02  0.62947993124E+01 -0.70164029559E+02  0.72150891673E+02  0.47000000000E+01 0.  1.
         13    1    6    6    0    0 -0.29581528453E+02 -0.39215307795E+02 -0.26870851398E+02  0.55990622840E+02  0.00000000000E+00 0. -1.
        -14    1    6    6    0    0 -0.17145655930E+03 -0.10479289032E+03 -0.31063941984E+03  0.36996722929E+03  0.00000000000E+00 0.  1.
</event>
<event>
12    1  0.8798177E-003  0.2280970E+03  0.7818608E-02  0.1128027E+00
         21   -1    0    0  501  502  0.00000000000E+00  0.00000000000E+00  0.14474513241E+03  0.14474513241E+03  0.00000000000E+00 0.  1.
         21   -1    0    0  502  503 -0.00000000000E+00 -0.00000000000E+00 -0.36244820340E+03  0.36244820340E+03  0.00000000000E+00 0. -1.
          6    2    1    2  501    0  0.96083966896E+02 -0.11445159972E+03 -0.84394222597E+02  0.24299741349E+03  0.17202924397E+03 0.  0.
         24    2    3    3    0    0  0.32023052038E+02 -0.42156112710E+02  0.23271802123E+02  0.98275261994E+02  0.79459654198E+02 0.  0.
         -6    2    1    2    0  503 -0.96083966896E+02  0.11445159972E+03 -0.13330884840E+03  0.26419592232E+03  0.17232799811E+03 0.  0.
        -24    2    5    5    0    0 -0.10164953687E+03  0.11910276059E+03 -0.15773727907E+03  0.23828362617E+03  0.85906585109E+02 0.  0.
          5    1    3    3  501    0  0.64060914858E+02 -0.72295487011E+02 -0.10766602472E+03  0.14472215150E+03  0.47000000000E+01 0. -1.
        -11    1    4    4    0    0  0.11296854572E+02  0.18062410681E+02 -0.13027019337E+02  0.24971440400E+02  0.00000000000E+00 0.  1.
         12    1    4    4    0    0  0.20726197466E+02 -0.60218523391E+02  0.36298821460E+02  0.73303821594E+02  0.00000000000E+00 0. -1.
         -5    1    5    5    0  503  0.55655699700E+01 -0.46511608722E+01  0.24428430673E+02  0.25912296148E+02  0.47000000000E+01 0.  1.
         11    1    6    6    0    0 -0.48164348329E+02  0.11608738275E+02 -0.83588193031E+02  0.97167655465E+02  0.00000000000E+00 0. -1.
        -12    1    6    6    0    0 -0.53485188537E+02  0.10749402232E+03 -0.74149086039E+02  0.14111597070E+03  0.00000000000E+00 0.  1.
</event>
<event>
12    1  0.8798177E-003  0.1769363E+03  0.7818608E-02  0.1171066E+00
         21   -1    0    0  501  502  0.00000000000E+00  0.00000000000E+00  0.14913860487E+03  0.14913860487E+03  0.00000000000E+00 0. -1.
         21   -1    0    0  502  503 -0.00000000000E+00 -0.00000000000E+00 -0.27807226669E+03  0.27807226669E+03  0.00000000000E+00 0. -1.
          6    2    1    2  501    0 -0.13173548245E+02 -0.39429526439E+02  0.42112174217E+02  0.18187879440E+03  0.17198322798E+03 0.  0.
         24    2    3    3    0    0  0.14224847814E+02  0.57402683834E+01 -0.34797712347E+02  0.88453941596E+02  0.79861893433E+02 0.  0.
         -6    2    1    2    0  503  0.13173548245E+02  0.39429526439E+02 -0.17104583603E+03  0.24533207716E+03  0.17088861907E+03 0.  0.
        -24    2    5    5    0    0 -0.27596476265E+02  0.59110466493E+02 -0.54231907183E+02  0.11996414556E+03  0.84821481425E+02 0.  0.
          5    1    3    3  501    0 -0.27398396060E+02 -0.45169794822E+02  0.76909886564E+02  0.93424852808E+02  0.47000000000E+01 0. -1.
        -11    1    4    4    0    0  0.11139212751E+02  0.22734147566E+02 -0.55792494955E+02  0.61267658838E+02  0.00000000000E+00 0.  1.
         12    1    4    4    0    0  0.30856350635E+01 -0.16993879183E+02  0.20994782607E+02  0.27186282757E+02  0.00000000000E+00 0. -1.
         -5    1    5    5    0  503  0.40770024510E+02 -0.19680940054E+02 -0.11681392885E+03  0.12536793160E+03  0.47000000000E+01 0.  1.
         13    1    6    6    0    0  0.75263018825E+01  0.54458609123E+02 -0.62850006608E+02  0.83501548837E+02  0.00000000000E+00 0. -1.
        -14    1    6    6    0    0 -0.35122778148E+02  0.46518573700E+01  0.86180994250E+01  0.36462596719E+02  0.00000000000E+00 0.  1.
</event>
<event>
12    1  0.8798177E-003  0.1870229E+03  0.7818608E-02  0.1161477E+00
         21   -1    0    0  501  502  0.00000000000E+00  0.00000000000E+00  0.35075960973E+02  0.35075960973E+02  0.00000000000E+00 0.  1.
         21   -1    0    0  502  503 -0.00000000000E+00 -0.00000000000E+00 -0.10612265336E+04  0.10612265336E+04  0.00000000000E+00 0. -1.
          6    2    1    2  501    0  0.25044439199E+01  0.71021026732E+02 -0.36960032226E+03  0.41363434249E+03  0.17157713308E+03 0.  0.
         24    2    3    3    0    0  0.62742018297E+02  0.12691667811E+02 -0.20231332780E+03  0.22645018719E+03  0.79065576470E+02 0.  0.
         -6    2    1    2    0  503 -0.25044439199E+01 -0.71021026732E+02 -0.65655025039E+03  0.68266815210E+03  0.17299513327E+03 0.  0.
        -24    2    5    5    0    0 -0.25710870065E+02 -0.10988445161E+03 -0.43365359048E+03  0.45517328402E+03  0.79947735423E+02 0.  0.
          5    1    3    3  501    0 -0.60237574377E+02  0.58329358921E+02 -0.16728699446E+03  0.18718415530E+03  0.47000000000E+01 0. -1.
        -11    1    4    4    0    0  0.32899537575E+01  0.34585563221E+02 -0.44942375793E+02  0.56804948033E+02  0.00000000000E+00 0.  1.
         12    1    4    4    0    0  0.59452064539E+02 -0.21893895411E+02 -0.15737095201E+03  0.16964523916E+03  0.00000000000E+00 0. -1.
         -5    1    5    5    0  503  0.23206426145E+02  0.38863424883E+02 -0.22289665990E+03  0.22749486808E+03  0.47000000000E+01 0.  1.
         13    1    6    6    0    0 -0.29548817300E+02 -0.69254320096E+02 -0.38196502152E+03  0.38931551616E+03  0.00000000000E+00 0. -1.
        -14    1    6    6    0    0  0.38379472357E+01 -0.40630131519E+02 -0.51688568961E+02  0.65857767860E+02  0.00000000000E+00 0.  1.
</event>
<event>
12    1  0.8798177E-003  0.2213317E+03  0.7818608E-02  0.1133518E+00
         21   -1    0    0  501  502  0.00000000000E+00  0.00000000000E+00  0.79098090613E+02  0.79098090613E+02  0.00000000000E+00 0. -1.
         21   -1    0    0  502  503 -0.00000000000E+00 -0.00000000000E+00 -0.63031605646E+03  0.63031605646E+03  0.00000000000E+00 0. -1.
          6    2    1    2  501    0  0.28578838668E+01  0.13488433696E+03 -0.21395850400E+03  0.30784080275E+03  0.17545873175E+03 0.  0.
         24    2    3    3    0    0 -0.60581987489E+02  0.98457445488E+02 -0.14808895859E+03  0.20928917814E+03  0.92236514746E+02 0.  0.
         -6    2    1    2    0  503 -0.28578838668E+01 -0.13488433696E+03 -0.33725946185E+03  0.40157334433E+03  0.17121698050E+03 0.  0.
        -24    2    5    5    0    0  0.32755281504E+02 -0.12964338084E+03 -0.16274336270E+03  0.22332148871E+03  0.74207617894E+02 0.  0.
          5    1    3    3  501    0  0.63439871355E+02  0.36426891468E+02 -0.65869545412E+02  0.98551624606E+02  0.47000000000E+01 0. -1.
        -13    1    4    4    0    0 -0.13278124222E+02  0.30195502719E+02  0.66704408107E+01  0.33653703332E+02  0.00000000000E+00 0.  1.
         14    1    4    4    0    0 -0.47303863266E+02  0.68261942768E+02 -0.15475939940E+03  0.17563547481E+03  0.00000000000E+00 0. -1.
         -5    1    5    5    0  503 -0.35613165371E+02 -0.52409561147E+01 -0.17451609915E+03  0.17825185562E+03  0.47000000000E+01 0.  1.
         13    1    6    6    0    0  0.39093041233E+02 -0.22974662830E+02 -0.58755345163E+02  0.74217865708E+02  0.00000000000E+00 0. -1.
        -14    1    6    6    0    0 -0.63377597290E+01 -0.10666871801E+03 -0.10398801754E+03  0.14910362300E+03  0.00000000000E+00 0.  1.
</event>
<event>
12    1  0.8798177E-003  0.1910207E+03  0.7818608E-02  0.1159247E+00
         21   -1    0    0  501  502  0.00000000000E+00  0.00000000000E+00  0.41272463555E+03  0.41272463555E+03  0.00000000000E+00 0.  1.
         21   -1    0    0  502  503 -0.00000000000E+00 -0.00000000000E+00 -0.10414140292E+03  0.10414140292E+03  0.00000000000E+00 0.  1.
          6    2    1    2  501    0 -0.58905206850E+02  0.56537890164E+02  0.26257189329E+03  0.32038208071E+03  0.16442117283E+03 0.  0.
         24    2    3    3    0    0  0.16684623563E+02  0.27998615579E+02  0.19918891103E+03  0.21758225048E+03  0.81262010237E+02 0.  0.
         -6    2    1    2    0  503  0.58905206850E+02 -0.56537890164E+02  0.46011339338E+02  0.19648395776E+03  0.17269205510E+03 0.  0.
        -24    2    5    5    0    0 -0.26364401506E+02 -0.10936282227E+02  0.54199707939E+02  0.99326600164E+02  0.78188753819E+02 0.  0.
          5    1    3    3  501    0 -0.75589830413E+02  0.28539274585E+02  0.63382982264E+02  0.10279983024E+03  0.47000000000E+01 0. -1.
        -13    1    4    4    0    0 -0.32442927122E+02  0.78773312250E+01  0.60856134360E+02  0.69412282463E+02  0.00000000000E+00 0.  1.
         14    1    4    4    0    0  0.49127550684E+02  0.20121284354E+02  0.13833277667E+03  0.14816996801E+03  0.00000000000E+00 0. -1.
         -5    1    5    5    0  503  0.85269608355E+02 -0.45601607937E+02 -0.81883686011E+01  0.97157357600E+02  0.47000000000E+01 0.  1.
         13    1    6    6    0    0 -0.20192454166E+02  0.32997860911E+02  0.28549356361E+02  0.48079723154E+02  0.00000000000E+00 0. -1.
        -14    1    6    6    0    0 -0.61719473399E+01 -0.43934143138E+02  0.25650351579E+02  0.51246877010E+02  0.00000000000E+00 0.  1.
</event>
<event>
12    1  0.8798177E-003  0.1978689E+03  0.7818608E-02  0.1151846E+00
         21   -1    0    0  501  502  0.00000000000E+00  0.00000000000E+00  0.31834937135E+03  0.31834937135E+03  0.00000000000E+00 0. -1.
         21   -1    0    0  502  503 -0.00000000000E+00 -0.00000000000E+00 -0.12223338968E+03  0.12223338968E+03  0.00000000000E+00 0.  1.
          6    2    1    2  501    0  0.55345333237E+01  0.97920449273E+02  0.10484133397E+03  0.22392811525E+03  0.17185182585E+03 0.  0.
         24    2    3    3    0    0 -0.26782325935E+02  0.10680677630E+03  0.12473984907E+03  0.18466761215E+03  0.80106907219E+02 0.  0.
         -6    2    1    2    0  503 -0.55345333237E+01 -0.97920449273E+02  0.91274647701E+02  0.21665464578E+03  0.17026194167E+03 0.  0.
        -24    2    5    5    0    0 -0.28405957490E+02 -0.20717909195E+02  0.91509278022E-02  0.94856389887E+02  0.88099968424E+02 0.  0.
          5    1    3    3  501    0  0.32316859259E+02 -0.88863270309E+01 -0.19898515103E+02  0.39260503101E+02  0.47000000000E+01 0. -1.
        -11    1    4    4    0    0  0.26556574507E+02  0.29400508417E+02  0.21631110895E+02  0.45139190326E+02  0.00000000000E+00 0.  1.
         12    1    4    4    0    0 -0.53338900442E+02  0.77406267887E+02  0.10310873818E+03  0.13952842183E+03  0.00000000000E+00 0. -1.
         -5    1    5    5    0  503  0.22871424166E+02 -0.77202540078E+02  0.91265496773E+02  0.12179825589E+03  0.47000000000E+01 0.  1.
         13    1    6    6    0    0 -0.54895988321E+02 -0.23049481815E+02  0.18638438437E+02  0.62387815582E+02  0.00000000000E+00 0. -1.
        -14    1    6    6    0    0  0.26490030831E+02  0.23315726195E+01 -0.18629287509E+02  0.32468574305E+02  0.00000000000E+00 0.  1.
</event>
<event>
12    1  0.8798177E-003  0.1787008E+03  0.7818608E-02  0.1169469E+00
         21   -1    0    0  503  502  0.00000000000E+00  0.00000000000E+00  0.25516969456E+02  0.25516969456E+02  0.00000000000E+00 0. -1.
         21   -1    0    0  501  503 -0.00000000000E+00 -0.00000000000E+00 -0.15709438014E+04  0.15709438014E+04  0.00000000000E+00 0. -1.
          6    2    1    2  501    0  0.32653844589E+02  0.35974809284E+02 -0.11418906550E+04  0.11557890154E+04  0.17196953117E+03 0.  0.
         24    2    3    3    0    0  0.82798121928E+02  0.46041398595E+02 -0.89929190584E+03  0.90781315394E+03  0.80146435793E+02 0.  0.
         -6    2    1    2    0  502 -0.32653844589E+02 -0.35974809284E+02 -0.40353617691E+03  0.44067175544E+03  0.17026358827E+03 0.  0.
        -24    2    5    5    0    0 -0.42423946782E+02 -0.71485068155E+01 -0.98638751403E+02  0.13422283523E+03  0.80220158370E+02 0.  0.
          5    1    3    3  501    0 -0.50144277339E+02 -0.10066589311E+02 -0.24259874917E+03  0.24797586146E+03  0.47000000000E+01 0. -1.
        -13    1    4    4    0    0  0.28825776958E+02 -0.17811511726E+02 -0.14524017519E+03  0.14914048363E+03  0.00000000000E+00 0.  1.
         14    1    4    4    0    0  0.53972344970E+02  0.63852910320E+02 -0.75405173065E+03  0.75867267031E+03  0.00000000000E+00 0. -1.
         -5    1    5    5    0  502  0.97701021930E+01 -0.28826302468E+02 -0.30489742551E+03  0.30644892020E+03  0.47000000000E+01 0.  1.
         13    1    6    6    0    0 -0.23666170618E+02 -0.42289982017E+02 -0.37607217278E+02  0.61341935102E+02  0.00000000000E+00 0. -1.
        -14    1    6    6    0    0 -0.18757776164E+02  0.35141475201E+02 -0.61031534125E+02  0.72880900129E+02  0.00000000000E+00 0.  1.
</event>
<event>
12    1  0.8798177E-003  0.1869740E+03  0.7818608E-02  0.1164253E+00
         21   -1    0    0  501  502  0.00000000000E+00  0.00000000000E+00  0.10325833085E+03  0.10325833085E+03  0.00000000000E+00 0.  1.
         21   -1    0    0  502  503 -0.00000000000E+00 -0.00000000000E+00 -0.33335291322E+03  0.33335291322E+03  0.00000000000E+00 0.  1.
          6    2    1    2  501    0  0.22210554448E+02 -0.60338780469E+02 -0.61397029573E+02  0.18478169063E+03  0.16198950828E+03 0.  0.
         24    2    3    3    0    0 -0.27023151881E+02  0.12281146804E+02 -0.24086014285E+02  0.89325870805E+02  0.80733498664E+02 0.  0.
         -6    2    1    2    0  503 -0.22210554448E+02  0.60338780469E+02 -0.16869755280E+03  0.25182955344E+03  0.17557101842E+03 0.  0.
        -24    2    5    5    0    0 -0.65672144626E+01  0.82030083637E+02 -0.41921485987E+02  0.12217814452E+03  0.79987655827E+02 0.  0.
          5    1    3    3  501    0  0.49233706329E+02 -0.72619927274E+02 -0.37311015288E+02  0.95455819822E+02  0.47000000000E+01 0. -1.
        -11    1    4    4    0    0  0.25128793896E+01 -0.22993143469E+02  0.16146822481E+02  0.28208493147E+02  0.00000000000E+00 0.  1.
         12    1    4    4    0    0 -0.29536031271E+02  0.35274290273E+02 -0.40232836766E+02  0.61117377658E+02  0.00000000000E+00 0. -1.
         -5    1    5    5    0  503 -0.15643339985E+02 -0.21691303168E+02 -0.12677606681E+03  0.12965140892E+03  0.47000000000E+01 0.  1.
         11    1    6    6    0    0 -0.38240786762E+02  0.23163720647E+02 -0.29627279038E+01  0.44807292743E+02  0.00000000000E+00 0. -1.
        -12    1    6    6    0    0  0.31673572299E+02  0.58866362990E+02 -0.38958758084E+02  0.77370851781E+02  0.00000000000E+00 0.  1.
</event>
<event>
12    1  0.8798177E-003  0.2188670E+03  0.7818608E-02  0.1134817E+00
         21   -1    0    0  503  502  0.00000000000E+00  0.00000000000E+00  0.29842613126E+03  0.29842613126E+03  0.00000000000E+00 0. -1.
         21   -1    0    0  501  503 -0.00000000000E+00 -0.00000000000E+00 -0.27348747556E+03  0.27348747556E+03  0.00000000000E+00 0. -1.
          6    2    1    2  501    0 -0.36490145217E+02 -0.13011915290E+03 -0.17159702097E+03  0.27775542624E+03  0.17158092711E+03 0.  0.
         24    2    3    3    0    0  0.65733669360E+01 -0.11015584260E+03 -0.66687151336E+02  0.16251146508E+03  0.98920580855E+02 0.  0.
         -6    2    1    2    0  502  0.36490145217E+02  0.13011915290E+03  0.19653567667E+03  0.29415818058E+03  0.17216340595E+03 0.  0.
        -24    2    5    5    0    0  0.26180863850E+01  0.33783551914E+02  0.16579321702E+03  0.18741056603E+03  0.80542825207E+02 0.  0.
          5    1    3    3  501    0 -0.43063512153E+02 -0.19963310299E+02 -0.10490986963E+03  0.11524396116E+03  0.47000000000E+01 0. -1.
        -11    1    4    4    0    0 -0.44365939462E+02 -0.64129625430E+02 -0.23665225893E+02  0.81492259502E+02  0.00000000000E+00 0.  1.
         12    1    4    4    0    0  0.50939306398E+02 -0.46026217169E+02 -0.43021925443E+02  0.81019205575E+02  0.00000000000E+00 0. -1.
         -5    1    5    5    0  502  0.33872058832E+02  0.96335600985E+02  0.30742459649E+02  0.10674761455E+03  0.47000000000E+01 0.  1.
         11    1    6    6    0    0 -0.38263309471E+02  0.22893828175E+02  0.94896920500E+02  0.10485053047E+03  0.00000000000E+00 0. -1.
        -12    1    6    6    0    0  0.40881395856E+02  0.10889723738E+02  0.70896296521E+02  0.82560035553E+02  0.00000000000E+00 0.  1.
</event>
<event>
12    1  0.8798177E-003  0.2494596E+03  0.7818608E-02  0.1113784E+00
         21   -1    0    0  503  502  0.00000000000E+00  0.00000000000E+00  0.13856246532E+03  0.13856246532E+03  0.00000000000E+00 0.  1.
         21   -1    0    0  501  503 -0.00000000000E+00 -0.00000000000E+00 -0.44927769149E+03  0.44927769149E+03  0.00000000000E+00 0.  1.
          6    2    1    2  501    0  0.16372426469E+03 -0.73486947249E+02 -0.13742192988E+03  0.28480676317E+03  0.17327475082E+03 0.  0.
         24    2    3    3    0    0  0.12784304159E+03 -0.10964739660E+03 -0.14020867439E+03  0.23357302221E+03  0.80817630907E+02 0.  0.
         -6    2    1    2    0  502 -0.16372426469E+03  0.73486947249E+02 -0.17329329629E+03  0.30303339364E+03  0.17202530297E+03 0.  0.
        -24    2    5    5    0    0 -0.16395207532E+02  0.28628808083E+02 -0.14238852276E+02  0.81586989538E+02  0.73248074825E+02 0.  0.
          5    1    3    3  501    0  0.35881223094E+02  0.36160449348E+02  0.27867445122E+01  0.51233740960E+02  0.47000000000E+01 0. -1.
        -11    1    4    4    0    0  0.39886075682E+02 -0.79992118521E+02 -0.43084492352E+02  0.99226566705E+02  0.00000000000E+00 0.  1.
         12    1    4    4    0    0  0.87956965909E+02 -0.29655278075E+02 -0.97124182036E+02  0.13434645550E+03  0.00000000000E+00 0. -1.
         -5    1    5    5    0  502 -0.14732905715E+03  0.44858139166E+02 -0.15905444401E+03  0.22144640411E+03  0.47000000000E+01 0.  1.
         13    1    6    6    0    0 -0.43418605010E+02  0.26194617030E+02  0.49724896963E+00  0.50710753089E+02  0.00000000000E+00 0. -1.
        -14    1    6    6    0    0  0.27023397478E+02  0.24341910536E+01 -0.14736101245E+02  0.30876236449E+02  0.00000000000E+00 0.  1.
</event>
<event>
12    1  0.8798177E-003  0.1786414E+03  0.7818608E-02  0.1169700E+00
         21   -1    0    0  501  502  0.00000000000E+00  0.00000000000E+00  0.22620319882E+03  0.22620319882E+03  0.00000000000E+00 0. -1.
         21   -1    0    0  502  503 -0.00000000000E+00 -0.00000000000E+00 -0.13924241195E+03  0.13924241195E+03  0.00000000000E+00 0. -1.
          6    2    1    2  501    0  0.35705547868E+02  0.35190703400E+02  0.44860634467E+02  0.18418805380E+03  0.17146279737E+03 0.  0.
         24    2    3    3    0    0  0.12428566672E+02 -0.25895208780E+02  0.73152942170E+02  0.11280282286E+03  0.80920286646E+02 0.  0.
         -6    2    1    2    0  503 -0.35705547868E+02 -0.35190703400E+02  0.42100152400E+02  0.18125755697E+03  0.16902250552E+03 0.  0.
        -24    2    5    5    0    0 -0.85082169447E+02 -0.29521948748E+01  0.12313460925E+02  0.11502532026E+03  0.76364337025E+02 0.  0.
          5    1    3    3  501    0  0.23276981196E+02  0.61085912180E+02 -0.28292307703E+02  0.71385230934E+02  0.47000000000E+01 0. -1.
        -11    1    4    4    0    0  0.42968800315E+01  0.18321226247E+02  0.64279576703E+02  0.66977567068E+02  0.00000000000E+00 0.  1.
         12    1    4    4    0    0  0.81316866404E+01 -0.44216435027E+02  0.88733654664E+01  0.45825255796E+02  0.00000000000E+00 0. -1.
         -5    1    5    5    0  503  0.49376621580E+02 -0.32238508526E+02  0.29786691475E+02  0.66232236710E+02  0.47000000000E+01 0.  1.
         13    1    6    6    0    0 -0.27610798636E+02  0.33869221640E+02  0.16336866762E+02  0.46651619386E+02  0.00000000000E+00 0. -1.
        -14    1    6    6    0    0 -0.57471370812E+02 -0.36821416514E+02 -0.40234058367E+01  0.68373700877E+02  0.00000000000E+00 0.  1.
</event>
<event>
12    1  0.8798177E-003  0.1902953E+03  0.7818608E-02  0.1158516E+00
         21   -1    0    0  503  502  0.00000000000E+00  0.00000000000E+00  0.40507025082E+02  0.40507025082E+02  0.00000000000E+00 0. -1.
         21   -1    0    0  501  503 -0.00000000000E+00 -0.00000000000E+00 -0.91957080088E+03  0.91957080088E+03  0.00000000000E+00 0. -1.
          6    2    1    2  501    0 -0.80889210069E+02 -0.12411740744E+02 -0.52783292930E+03  0.56060893751E+03  0.17022827014E+03 0.  0.
         24    2    3    3    0    0  0.64695803535E+01 -0.62782264051E+01 -0.11595331599E+03  0.13949602615E+03  0.77024010700E+02 0.  0.
         -6    2    1    2    0  502  0.80889210069E+02  0.12411740744E+02 -0.35123084650E+03  0.39946888845E+03  0.17179979538E+03 0.  0.
        -24    2    5    5    0    0  0.80945379236E+02 -0.25354381046E+02 -0.12559923065E+03  0.17065018471E+03  0.78430349634E+02 0.  0.
          5    1    3    3  501    0 -0.87358790423E+02 -0.61335143389E+01 -0.41187961331E+03  0.42111291137E+03  0.47000000000E+01 0. -1.
        -13    1    4    4    0    0 -0.89678877172E+01 -0.11984959988E+02  0.62269170522E+01  0.16212241424E+02  0.00000000000E+00 0.  1.
         14    1    4    4    0    0  0.15437468071E+02  0.57067335829E+01 -0.12218023304E+03  0.12328378472E+03  0.00000000000E+00 0. -1.
         -5    1    5    5    0  502 -0.56169166453E-01  0.37766121790E+02 -0.22563161585E+03  0.22881870374E+03  0.47000000000E+01 0.  1.
         11    1    6    6    0    0  0.25300134998E+02  0.37021513331E+01  0.47182349567E+01  0.26001240288E+02  0.00000000000E+00 0. -1.
        -12    1    6    6    0    0  0.55645244237E+02 -0.29056532380E+02 -0.13031746561E+03  0.14464894442E+03  0.00000000000E+00 0.  1.
</event>
<event>
12    1  0.8798177E-003  0.2238208E+03  0.7818608E-02  0.1131144E+00
         21   -1    0    0  501  502  0.00000000000E+00  0.00000000000E+00  0.82402382752E+03  0.82402382752E+03  0.00000000000E+00 0. -1.
         21   -1    0    0  502  503 -0.00000000000E+00 -0.00000000000E+00 -0.11327159266E+03  0.11327159266E+03  0.00000000000E+00 0.  1.
          6    2    1    2  501    0 -0.13895931879E+01  0.14338646379E+03  0.67453328893E+03  0.71056306736E+03  0.17129829496E+03 0.  0.
         24    2    3    3    0    0  0.23863218592E+02  0.70838451503E+01  0.23634515252E+03  0.25094687830E+03  0.80595722894E+02 0.  0.
         -6    2    1    2    0  503  0.13895931879E+01 -0.14338646379E+03  0.36218945938E+02  0.22673235282E+03  0.17185499354E+03 0.  0.
        -24    2    5    5    0    0  0.51970766499E+02 -0.68595978612E+02  0.13764202840E+02  0.13357454448E+03  0.10122419079E+03 0.  0.
          5    1    3    3  501    0 -0.25252811779E+02  0.13630261864E+03  0.43818813641E+03  0.45961618906E+03  0.47000000000E+01 0. -1.
        -11    1    4    4    0    0 -0.25118594993E+02 -0.15364994168E+02  0.10302873466E+03  0.10715384746E+03  0.00000000000E+00 0.  1.
         12    1    4    4    0    0  0.48981813584E+02  0.22448839319E+02  0.13331641786E+03  0.14379303084E+03  0.00000000000E+00 0. -1.
         -5    1    5    5    0  503 -0.50581173311E+02 -0.74790485176E+02  0.22454743098E+02  0.93157808336E+02  0.47000000000E+01 0.  1.
         13    1    6    6    0    0  0.25594400256E+02  0.20643445541E+01  0.45103041359E+02  0.51900088466E+02  0.00000000000E+00 0. -1.
        -14    1    6    6    0    0  0.26376366243E+02 -0.70660323166E+02 -0.31338838519E+02  0.81674456018E+02  0.00000000000E+00 0.  1.
</event>
<event>
12    1  0.8798177E-003  0.1733985E+03  0.7818608E-02  0.1174441E+00
         21   -1    0    0  501  502  0.00000000000E+00  0.00000000000E+00  0.80870175485E+03  0.80870175485E+03  0.00000000000E+00 0. -1.
         21   -1    0    0  502  503 -0.00000000000E+00 -0.00000000000E+00 -0.40011168550E+02  0.40011168550E+02  0.00000000000E+00 0. -1.
          6    2    1    2  501    0 -0.31165728753E+01 -0.17692027772E+02  0.49913577539E+03  0.52839716966E+03  0.17246543351E+03 0.  0.
         24    2    3    3    0    0 -0.30863757541E+02  0.48663670806E+02  0.33714684796E+03  0.35109661241E+03  0.79247143620E+02 0.  0.
         -6    2    1    2    0  503  0.31165728753E+01  0.17692027772E+02  0.26955481091E+03  0.32031575374E+03  0.17210364649E+03 0.  0.
        -24    2    5    5    0    0 -0.38747613899E+02  0.58623937399E+02  0.21614147144E+03  0.24092364964E+03  0.79930755415E+02 0.  0.
          5    1    3    3  501    0  0.27747184665E+02 -0.66355698578E+02  0.16198892743E+03  0.17730055725E+03  0.47000000000E+01 0. -1.
        -13    1    4    4    0    0 -0.24619767360E+02 -0.86347310887E+01  0.20852688498E+03  0.21015269041E+03  0.00000000000E+00 0.  1.
         14    1    4    4    0    0 -0.62439901806E+01  0.57298401894E+02  0.12861996297E+03  0.14094392200E+03  0.00000000000E+00 0. -1.
         -5    1    5    5    0  503  0.41864186774E+02 -0.40931909627E+02  0.53413339470E+02  0.79392104099E+02  0.47000000000E+01 0.  1.
         13    1    6    6    0    0 -0.15229419637E+02  0.49786341891E+02  0.20814549484E+03  0.21455806227E+03  0.00000000000E+00 0. -1.
        -14    1    6    6    0    0 -0.23518194262E+02  0.88375955079E+01  0.79959765959E+01  0.26365587371E+02  0.00000000000E+00 0.  1.
</event>
<event>
12    1  0.8798177E-003  0.1865798E+03  0.7818608E-02  0.1161594E+00
         21   -1    0    0  501  502  0.00000000000E+00  0.00000000000E+00  0.14872291519E+03  0.14872291519E+03  0.00000000000E+00 0.  1.
         21   -1    0    0  502  503 -0.00000000000E+00 -0.00000000000E+00 -0.28276827379E+03  0.28276827379E+03  0.00000000000E+00 0.  1.
          6    2    1    2  501    0 -0.39129419589E+02  0.60994544380E+02  0.22555998556E+02  0.18793831811E+03  0.17193194125E+03 0.  0.
         24    2    3    3    0    0 -0.50006545396E+02  0.10465422297E+03  0.15269740500E+02  0.14211628240E+03  0.80688981770E+02 0.  0.
         -6    2    1    2    0  503  0.39129419589E+02 -0.60994544380E+02 -0.15660135716E+03  0.24355287088E+03  0.17187952155E+03 0.  0.
        -24    2    5    5    0    0  0.17368633392E+02 -0.33682986389E+00 -0.15823872603E+03  0.17891804185E+03  0.81672445812E+02 0.  0.
          5    1    3    3  501    0  0.10877125807E+02 -0.43659678590E+02  0.72862580552E+01  0.45822035713E+02  0.47000000000E+01 0. -1.
        -11    1    4    4    0    0 -0.11252541495E+01  0.86219860265E+02 -0.42875221781E+01  0.86333732385E+02  0.00000000000E+00 0.  1.
         12    1    4    4    0    0 -0.48881291247E+02  0.18434362706E+02  0.19557262679E+02  0.55782550011E+02  0.00000000000E+00 0. -1.
         -5    1    5    5    0  503  0.21760786197E+02 -0.60657714516E+02  0.16373688713E+01  0.64634829025E+02  0.47000000000E+01 0.  1.
         13    1    6    6    0    0  0.41892121050E+02  0.18202805160E+01 -0.14505066370E+03  0.15098992770E+03  0.00000000000E+00 0. -1.
        -14    1    6    6    0    0 -0.24523487658E+02 -0.21571103798E+01 -0.13188062328E+02  0.27928114152E+02  0.00000000000E+00 0.  1.
</event>
<event>
12    1  0.8798177E-003  0.1812435E+03  0.7818608E-02  0.1168647E+00
         21   -1    0    0  501  502  0.00000000000E+00  0.00000000000E+00  0.16580737000E+03  0.16580737000E+03  0.00000000000E+00 0. -1.
         21   -1    0    0  502  503 -0.00000000000E+00 -0.00000000000E+00 -0.23240899016E+03  0.23240899016E+03  0.00000000000E+00 0. -1.
          6    2    1    2  501    0  0.14515088226E+02 -0.10813093854E+02  0.53224882716E+02  0.18094326819E+03  0.17198827686E+03 0.  0.
         24    2    3    3    0    0 -0.42838399482E+02 -0.60235367510E+01 -0.25449028352E+02  0.83352097007E+02  0.66547032738E+02 0.  0.
         -6    2    1    2    0  503 -0.14515088226E+02  0.10813093854E+02 -0.11982650287E+03  0.21727309198E+03  0.18033744737E+03 0.  0.
        -24    2    5    5    0    0  0.51995422361E+02  0.37944335056E+02 -0.10038808053E+03  0.14270973281E+03  0.78390079836E+02 0.  0.
          5    1    3    3  501    0  0.57353487708E+02 -0.47895571034E+01  0.78673911068E+02  0.97591171180E+02  0.47000000000E+01 0. -1.
        -11    1    4    4    0    0 -0.29823995278E+02 -0.23204785279E+02 -0.41762341192E+02  0.56320741259E+02  0.00000000000E+00 0.  1.
         12    1    4    4    0    0 -0.13014404204E+02  0.17181248528E+02  0.16313312840E+02  0.27031355748E+02  0.00000000000E+00 0. -1.
         -5    1    5    5    0  503 -0.66510510587E+02 -0.27131241201E+02 -0.19438422349E+02  0.74563359173E+02  0.47000000000E+01 0.  1.
         11    1    6    6    0    0 -0.50445112380E+01  0.43122892912E+02 -0.34864891253E+02  0.55682956358E+02  0.00000000000E+00 0. -1.
        -12    1    6    6    0    0  0.57039933599E+02 -0.51785578561E+01 -0.65523189273E+02  0.87026776448E+02  0.00000000000E+00 0.  1.
</event>
<event>
12    1  0.8798177E-003  0.1967713E+03  0.7818608E-02  0.1154795E+00
         21   -1    0    0  501  502  0.00000000000E+00  0.00000000000E+00  0.12228659675E+03  0.12228659675E+03  0.00000000000E+00 0.  1.
         21   -1    0    0  502  503 -0.00000000000E+00 -0.00000000000E+00 -0.30301370177E+03  0.30301370177E+03  0.00000000000E+00 0.  1.
          6    2    1    2  501    0 -0.79197352515E+02  0.61826430150E+01 -0.67230723874E+02  0.19814310196E+03  0.16861278985E+03 0.  0.
         24    2    3    3    0    0 -0.11131739286E+03 -0.15368647796E+02 -0.78766898446E+02  0.15750656112E+03  0.77306760480E+02 0.  0.
         -6    2    1    2    0  503  0.79197352515E+02 -0.61826430150E+01 -0.11349638114E+03  0.22715719656E+03  0.18002365871E+03 0.  0.
        -24    2    5    5    0    0  0.95275443423E+02  0.43694044102E+02 -0.40624679293E+02  0.13727636514E+03  0.78789950179E+02 0.  0.
          5    1    3    3  501    0  0.32120040350E+02  0.21551290811E+02  0.11536174572E+02  0.40636540840E+02  0.47000000000E+01 0. -1.
        -13    1    4    4    0    0 -0.32393592966E+02 -0.40393327690E+02 -0.18051655299E+02  0.54834551572E+02  0.00000000000E+00 0.  1.
         14    1    4    4    0    0 -0.78923799899E+02  0.25024679894E+02 -0.60715243147E+02  0.10267200955E+03  0.00000000000E+00 0. -1.
         -5    1    5    5    0  503 -0.16078090907E+02 -0.49876687117E+02 -0.72871701852E+02  0.89880831415E+02  0.47000000000E+01 0.  1.
         11    1    6    6    0    0 -0.90274080147E+01  0.88096001363E+01 -0.22523418064E+02  0.25814869965E+02  0.00000000000E+00 0. -1.
        -12    1    6    6    0    0  0.10430285144E+03  0.34884443966E+02 -0.18101261230E+02  0.11146149518E+03  0.00000000000E+00 0.  1.
</event>
<event>
12    1  0.8798177E-003  0.1753179E+03  0.7818608E-02  0.1172904E+00
         21   -1    0    0  501  502  0.00000000000E+00  0.00000000000E+00  0.46195660249E+02  0.46195660249E+02  0.00000000000E+00 0.  1.
         21   -1    0    0  502  503 -0.00000000000E+00 -0.00000000000E+00 -0.65869865032E+03  0.65869865032E+03  0.00000000000E+00 0.  1.
          6    2    1    2  501    0 -0.17972077140E+02  0.17047941597E+02 -0.31623928128E+03  0.36064362018E+03  0.17158936413E+03 0.  0.
         24    2    3    3    0    0  0.58008008688E-02 -0.57486672285E+02 -0.13068610721E+03  0.15981861385E+03  0.71822094023E+02 0.  0.
         -6    2    1    2    0  503  0.17972077140E+02 -0.17047941597E+02 -0.29626370879E+03  0.34425069039E+03  0.17355899521E+03 0.  0.
        -24    2    5    5    0    0  0.45291923893E+02 -0.48753525436E+02 -0.28045385714E+03  0.29926558750E+03  0.80481434286E+02 0.  0.
          5    1    3    3  501    0 -0.17977877941E+02  0.74534613882E+02 -0.18555317407E+03  0.20082500633E+03  0.47000000000E+01 0. -1.
        -13    1    4    4    0    0 -0.16036044872E+02  0.73391027782E+01 -0.64627102421E+01  0.18782539456E+02  0.00000000000E+00 0.  1.
         14    1    4    4    0    0  0.16041845673E+02 -0.64825775063E+02 -0.12422339697E+03  0.14103607439E+03  0.00000000000E+00 0. -1.
         -5    1    5    5    0  503 -0.27319846753E+02  0.31705583839E+02 -0.15809851658E+02  0.44985102897E+02  0.47000000000E+01 0.  1.
         11    1    6    6    0    0  0.18713392873E+02 -0.11936398030E+02 -0.88554429071E+01  0.23897437934E+02  0.00000000000E+00 0. -1.
        -12    1    6    6    0    0  0.26578531020E+02 -0.36817127406E+02 -0.27159841423E+03  0.27536814956E+03  0.00000000000E+00 0.  1.
</event>
<event>
12    1  0.8798177E-003  0.1826798E+03  0.7818608E-02  0.1165351E+00
         21   -1    0    0  503  502  0.00000000000E+00  0.00000000000E+00  0.28129408898E+03  0.28129408898E+03  0.00000000000E+00 0. -1.
         21   -1    0    0  501  503 -0.00000000000E+00 -0.00000000000E+00 -0.11897627647E+03  0.11897627647E+03  0.00000000000E+00 0. -1.
          6    2    1    2  501    0  0.19546954467E+02 -0.57808904157E+02  0.66396490134E+02  0.19437184199E+03  0.17218584794E+03 0.  0.
         24    2    3    3    0    0  0.69199533724E+02 -0.16827983688E+02  0.72314787365E+02  0.12954954096E+03  0.80510239030E+02 0.  0.
         -6    2    1    2    0  502 -0.19546954467E+02  0.57808904157E+02  0.95921322377E+02  0.20589852345E+03  0.17166638880E+03 0.  0.
        -24    2    5    5    0    0 -0.76451257919E+01  0.12632653104E+02  0.12619621412E+03  0.15003076661E+03  0.79785428487E+02 0.  0.
          5    1    3    3  501    0 -0.49652579257E+02 -0.40980920469E+02 -0.59182972310E+01  0.64822301035E+02  0.47000000000E+01 0. -1.
        -11    1    4    4    0    0  0.28584793112E+02  0.44601369765E+01  0.78141544521E+02  0.83325171463E+02  0.00000000000E+00 0.  1.
         12    1    4    4    0    0  0.40614740612E+02 -0.21288120665E+02 -0.58267571565E+01  0.46224369497E+02  0.00000000000E+00 0. -1.
         -5    1    5    5    0  502 -0.11901828675E+02  0.45176251053E+02 -0.30274891740E+02  0.55867756845E+02  0.47000000000E+01 0.  1.
         13    1    6    6    0    0  0.39590782281E+01 -0.25455203033E+02  0.10755276216E+02  0.27916261002E+02  0.00000000000E+00 0. -1.
        -14    1    6    6    0    0 -0.11604204020E+02  0.38087856137E+02  0.11544093790E+03  0.12211450561E+03  0.00000000000E+00 0.  1.
</event>
<event>
12    1  0.8798177E-003  0.2279175E+03  0.7818608E-02  0.1128174E+00
         21   -1    0    0  501  502  0.00000000000E+00  0.00000000000E+00  0.15148252114E+03  0.15148252114E+03  0.00000000000E+00 0.  1.
         21   -1    0    0  502  503 -0.00000000000E+00 -0.00000000000E+00 -0.39418007453E+03  0.39418007453E+03  0.00000000000E+00 0. -1.
          6    2    1    2  501    0 -0.14892927595E+03 -0.37540749762E+01 -0.22558053319E+02  0.22903112526E+03  0.17248874819E+03 0.  0.
         24    2    3    3    0    0 -0.11162305722E+03 -0.64933704931E+02 -0.35278091324E+02  0.15610245844E+03  0.80295335249E+02 0.  0.
         -6    2    1    2    0  503  0.14892927595E+03  0.37540749762E+01 -0.22013950007E+03  0.31663147041E+03  0.17204669786E+03 0.  0.
        -24    2    5    5    0    0  0.17538335412E+03  0.36204529399E+01 -0.21345275103E+03  0.28894322887E+03  0.84579453819E+02 0.  0.
          5    1    3    3  501    0 -0.37306218733E+02  0.61179629955E+02  0.12720038005E+02  0.72928666822E+02  0.47000000000E+01 0. -1.
        -11    1    4    4    0    0 -0.13430617939E+02 -0.30301554560E+02  0.19495877199E+02  0.38453282497E+02  0.00000000000E+00 0.  1.
         12    1    4    4    0    0 -0.98192439282E+02 -0.34632150371E+02 -0.54773968523E+02  0.11764917594E+03  0.00000000000E+00 0. -1.
         -5    1    5    5    0  503 -0.26454078166E+02  0.13362203629E+00 -0.66867490456E+01  0.27688241534E+02  0.47000000000E+01 0.  1.
         13    1    6    6    0    0  0.49986550565E+01 -0.60313166640E+01 -0.56641760478E+02  0.57180874103E+02  0.00000000000E+00 0. -1.
        -14    1    6    6    0    0  0.17038469906E+03  0.96517696039E+01 -0.15681099055E+03  0.23176235477E+03  0.00000000000E+00 0.  1.
</event>
<event>
12    1  0.8798177E-003  0.1797448E+03  0.7818608E-02  0.1168334E+00
         21   -1    0    0  503  502  0.00000000000E+00  0.00000000000E+00  0.75015994841E+03  0.75015994841E+03  0.00000000000E+00 0. -1.
         21   -1    0    0  501  503 -0.00000000000E+00 -0.00000000000E+00 -0.53515482145E+02  0.53515482145E+02  0.00000000000E+00 0. -1.
          6    2    1    2  501    0 -0.81801509653E+01 -0.53645931563E+02  0.16933051484E+03  0.24694338169E+03  0.17135754918E+03 0.  0.
         24    2    3    3    0    0 -0.21427700562E+02 -0.54114851287E+01  0.12375404369E+02  0.82143332855E+02  0.78140552702E+02 0.  0.
         -6    2    1    2    0  502  0.81801509653E+01  0.53645931563E+02  0.52731395142E+03  0.55673204886E+03  0.17013456445E+03 0.  0.
        -24    2    5    5    0    0 -0.16798472814E+02  0.78092189074E+02  0.50143289960E+03  0.51298882087E+03  0.73088978963E+02 0.  0.
          5    1    3    3  501    0  0.13247549596E+02 -0.48234446435E+02  0.15695511047E+03  0.16480004883E+03  0.47000000000E+01 0. -1.
        -11    1    4    4    0    0 -0.25397109598E+02 -0.10022143025E+02  0.42991481023E+02  0.50928616389E+02  0.00000000000E+00 0.  1.
         12    1    4    4    0    0  0.39694090361E+01  0.46106578967E+01 -0.30616076655E+02  0.31214716466E+02  0.00000000000E+00 0. -1.
         -5    1    5    5    0  502  0.24978623779E+02 -0.24446257511E+02  0.25881051819E+02  0.43743227995E+02  0.47000000000E+01 0.  1.
         13    1    6    6    0    0 -0.81906631534E+01 -0.79877912813E+01  0.17221206238E+03  0.17259167477E+03  0.00000000000E+00 0. -1.
        -14    1    6    6    0    0 -0.86078096601E+01  0.86079980355E+02  0.32922083723E+03  0.34039714609E+03  0.00000000000E+00 0.  1.
</event>
<event>
12    1  0.8798177E-003  0.2844531E+03  0.7818608E-02  0.1093358E+00
         21   -1    0    0  501  502  0.00000000000E+00  0.00000000000E+00  0.75452925612E+03  0.75452925612E+03  0.00000000000E+00 0.  1.
         21   -1    0    0  502  503 -0.00000000000E+00 -0.00000000000E+00 -0.10830418013E+03  0.10830418013E+03  0.00000000000E+00 0.  1.
          6    2    1    2  501    0  0.21258844896E+03 -0.79475638521E+02  0.36975879934E+03  0.46616331050E+03  0.17051814161E+03 0.  0.
         24    2    3    3    0    0  0.16142707371E+03 -0.17071583221E+02  0.32960765068E+03  0.37590835399E+03  0.79471681347E+02 0.  0.
         -6    2    1    2    0  503 -0.21258844896E+03  0.79475638521E+02  0.27646627665E+03  0.39667012575E+03  0.17147408198E+03 0.  0.
        -24    2    5    5    0    0 -0.56202809492E+02  0.15715374615E+02  0.27298476820E+02  0.95624411689E+02  0.70661817695E+02 0.  0.
          5    1    3    3  501    0  0.51161375246E+02 -0.62404055299E+02  0.40151148662E+02  0.90254956505E+02  0.47000000000E+01 0. -1.
        -13    1    4    4    0    0  0.11522625513E+03 -0.42292098461E+02  0.18496440360E+03  0.22198545462E+03  0.00000000000E+00 0.  1.
         14    1    4    4    0    0  0.46200818582E+02  0.25220515240E+02  0.14464324708E+03  0.15392289937E+03  0.00000000000E+00 0. -1.
         -5    1    5    5    0  503 -0.15638563946E+03  0.63760263905E+02  0.24916779983E+03  0.30104571406E+03  0.47000000000E+01 0.  1.
         11    1    6    6    0    0 -0.44833733806E+02  0.28262157171E+02 -0.10661120851E+02  0.54059899304E+02  0.00000000000E+00 0. -1.
        -12    1    6    6    0    0 -0.11369075686E+02 -0.12546782556E+02  0.37959597670E+02  0.41564512385E+02  0.00000000000E+00 0.  1.
</event>
<event>
12    1  0.8798177E-003  0.4554079E+03  0.7818608E-02  0.1026144E+00
         21   -1    0    0  501  502  0.00000000000E+00  0.00000000000E+00  0.36765136589E+03  0.36765136589E+03  0.00000000000E+00 0. -1.
         21   -1    0    0  502  503 -0.00000000000E+00 -0.00000000000E+00 -0.57232997290E+03  0.57232997290E+03  0.00000000000E+00 0.  1.
          6    2    1    2  501    0  0.29926142410E+03  0.29750231587E+03 -0.15999906040E+03  0.48269666877E+03  0.17126396822E+03 0.  0.
         24    2    3    3    0    0  0.12406757280E+03  0.12441064334E+03 -0.73168687484E+01  0.19289060554E+03  0.79262086417E+02 0.  0.
         -6    2    1    2    0  503 -0.29926142410E+03 -0.29750231587E+03 -0.44679546606E+02  0.45728467002E+03  0.17043467853E+03 0.  0.
        -24    2    5    5    0    0 -0.19119133147E+03 -0.20938227236E+03  0.34867219054E+02  0.29667936215E+03  0.80049108373E+02 0.  0.
          5    1    3    3  501    0  0.17519385131E+03  0.17309167253E+03 -0.15268219165E+03  0.28980606323E+03  0.47000000000E+01 0. -1.
        -11    1    4    4    0    0  0.13076801473E+03  0.10108426204E+03 -0.18221192871E+02  0.16628383438E+03  0.00000000000E+00 0.  1.
         12    1    4    4    0    0 -0.67004419366E+01  0.23326381306E+02  0.10904324122E+02  0.26606771159E+02  0.00000000000E+00 0. -1.
         -5    1    5    5    0  503 -0.10807009263E+03 -0.88120043510E+02 -0.79546765660E+02  0.16060530787E+03  0.47000000000E+01 0.  1.
         11    1    6    6    0    0 -0.97864378074E+02 -0.16292883504E+03  0.15963715390E+02  0.19073039085E+03  0.00000000000E+00 0. -1.
        -12    1    6    6    0    0 -0.93326953397E+02 -0.46453437323E+02  0.18903503664E+02  0.10594897130E+03  0.00000000000E+00 0.  1.
</event>
<event>
12    1  0.8798177E-003  0.2237474E+03  0.7818608E-02  0.1131225E+00
         21   -1    0    0  503  502  0.00000000000E+00  0.00000000000E+00  0.50804884715E+03  0.50804884715E+03  0.00000000000E+00 0. -1.
         21   -1    0    0  501  503 -0.00000000000E+00 -0.00000000000E+00 -0.98325714178E+02  0.98325714178E+02  0.00000000000E+00 0. -1.
          6    2    1    2  501    0  0.57716704077E+02 -0.12977392492E+03  0.19909607040E+03  0.29950314675E+03  0.17288840373E+03 0.  0.
         24    2    3    3    0    0 -0.30543099771E+02 -0.59760620499E+02  0.13337513969E+03  0.16899266248E+03  0.79154149464E+02 0.  0.
         -6    2    1    2    0  502 -0.57716704077E+02  0.12977392492E+03  0.21062706257E+03  0.30687141458E+03  0.17214475328E+03 0.  0.
        -24    2    5    5    0    0  0.15249119184E+02  0.12789481444E+02  0.11272735356E+03  0.13770931953E+03  0.76552556923E+02 0.  0.
          5    1    3    3  501    0  0.88259803848E+02 -0.70013304421E+02  0.65720930714E+02  0.13051048427E+03  0.47000000000E+01 0. -1.
        -13    1    4    4    0    0 -0.29747951260E+02  0.83204927873E+01  0.20175111141E+02  0.36894529594E+02  0.00000000000E+00 0.  1.
         14    1    4    4    0    0 -0.79514851123E+00 -0.68081113286E+02  0.11320002855E+03  0.13209813288E+03  0.00000000000E+00 0. -1.
         -5    1    5    5    0  502 -0.72965823260E+02  0.11698444348E+03  0.97899709006E+02  0.16916209505E+03  0.47000000000E+01 0.  1.
         13    1    6    6    0    0 -0.13661979125E+02  0.37723502540E+02  0.67488837009E+02  0.78514046121E+02  0.00000000000E+00 0. -1.
        -14    1    6    6    0    0  0.28911098309E+02 -0.24934021096E+02  0.45238516556E+02  0.59195273406E+02  0.00000000000E+00 0.  1.
</event>
<event>
12    1  0.8798177E-003  0.1874941E+03  0.7818608E-02  0.1162473E+00
         21   -1    0    0  501  502  0.00000000000E+00  0.00000000000E+00  0.85850357534E+01  0.85850357534E+01  0.00000000000E+00 0.  1.
         21   -1    0    0  502  503 -0.00000000000E+00 -0.00000000000E+00 -0.39353166707E+04  0.39353166707E+04  0.00000000000E+00 0.  1.
          6    2    1    2  501    0 -0.56725268990E+02 -0.21137521136E+02 -0.20182808911E+04  0.20269710846E+04  0.17745273069E+03 0.  0.
         24    2    3    3    0    0 -0.99020002941E+02 -0.31860668686E+01 -0.10691405902E+04  0.10767077001E+04  0.80142110024E+02 0.  0.
         -6    2    1    2    0  503  0.56725268990E+02  0.21137521136E+02 -0.19084507438E+04  0.19169306218E+04  0.16962964432E+03 0.  0.
        -24    2    5    5    0    0  0.28138634882E+02 -0.31694061847E+02 -0.16067111952E+04  0.16092339903E+04  0.79478767783E+02 0.  0.
          5    1    3    3  501    0  0.42294733951E+02 -0.17951454268E+02 -0.94914030090E+03  0.95026338456E+03  0.47000000000E+01 0. -1.
        -11    1    4    4    0    0 -0.60722156936E+02 -0.22844174637E+02 -0.89412253859E+03  0.89647317343E+03  0.00000000000E+00 0.  1.
         12    1    4    4    0    0 -0.38297846005E+02  0.19658107769E+02 -0.17501805160E+03  0.18023452665E+03  0.00000000000E+00 0. -1.
         -5    1    5    5    0  503  0.28586634108E+02  0.52831582983E+02 -0.30173954863E+03  0.30769663147E+03  0.47000000000E+01 0.  1.
         11    1    6    6    0    0 -0.17976929532E+02  0.14994645054E+02 -0.53888328662E+03  0.53939151455E+03  0.00000000000E+00 0. -1.
        -12    1    6    6    0    0  0.46115564414E+02 -0.46688706901E+02 -0.10678279086E+04  0.10698424758E+04  0.00000000000E+00 0.  1.
</event>
<event>
12    1  0.8798177E-003  0.1778990E+03  0.7818608E-02  0.1170446E+00
         21   -1    0    0  503  502  0.00000000000E+00  0.00000000000E+00  0.22467713292E+03  0.22467713292E+03  0.00000000000E+00 0. -1.
         21   -1    0    0  501  503 -0.00000000000E+00 -0.00000000000E+00 -0.14914973275E+03  0.14914973275E+03  0.00000000000E+00 0. -1.
          6    2    1    2  501    0  0.25352411589E+02 -0.35531190422E+02 -0.11314579117E+02  0.17586330248E+03  0.16998432631E+03 0.  0.
         24    2    3    3    0    0  0.48540119973E+02  0.15083662529E+02  0.37485394758E+02  0.10168068585E+03  0.79687809184E+02 0.  0.
         -6    2    1    2    0  502 -0.25352411589E+02  0.35531190422E+02  0.86841979286E+02  0.19796356320E+03  0.17246110495E+03 0.  0.
        -24    2    5    5    0    0  0.52483507908E+02  0.19124546899E+02  0.37141464438E+02  0.10404956269E+03  0.79539651860E+02 0.  0.
          5    1    3    3  501    0 -0.23187708383E+02 -0.50614852951E+02 -0.48799973875E+02  0.74182616626E+02  0.47000000000E+01 0. -1.
        -13    1    4    4    0    0  0.86458182647E+01  0.18145729810E+02  0.54585069464E+02  0.58168268774E+02  0.00000000000E+00 0.  1.
         14    1    4    4    0    0  0.39894301708E+02 -0.30620672809E+01 -0.17099674705E+02  0.43512417076E+02  0.00000000000E+00 0. -1.
         -5    1    5    5    0  502 -0.77835919498E+02  0.16406643523E+02  0.49700514847E+02  0.93914000510E+02  0.47000000000E+01 0.  1.
         13    1    6    6    0    0  0.12763885336E+01 -0.17558633754E+02  0.37093074191E+02  0.41058871635E+02  0.00000000000E+00 0. -1.
        -14    1    6    6    0    0  0.51207119375E+02  0.36683180653E+02  0.48390247343E-01  0.62990691051E+02  0.00000000000E+00 0.  1.
</event>
<event>
12    1  0.8798177E-003  0.2164170E+03  0.7818608E-02  0.1136677E+00
         21   -1    0    0  503  502  0.00000000000E+00  0.00000000000E+00  0.10948432037E+03  0.10948432037E+03  0.00000000000E+00 0. -1.
         21   -1    0    0  501  503 -0.00000000000E+00 -0.00000000000E+00 -0.48769867356E+03  0.48769867356E+03  0.00000000000E+00 0.  1.
          6    2    1    2  501    0  0.13059342211E+03 -0.14238266297E+02 -0.29479246799E+03  0.36570329905E+03  0.17198527152E+03 0.  0.
         24    2    3    3    0    0 -0.84539603146E+00 -0.19790413971E+02 -0.13787750762E+03  0.16088292885E+03  0.80503009311E+02 0.  0.
         -6    2    1    2    0  502 -0.13059342211E+03  0.14238266297E+02 -0.83421885198E+02  0.23147969489E+03  0.17136588952E+03 0.  0.
        -24    2    5    5    0    0 -0.15004037944E+03  0.60739613317E+01 -0.10561360667E+03  0.20050547130E+03  0.80617626113E+02 0.  0.
          5    1    3    3  501    0  0.13143881814E+03  0.55521476734E+01 -0.15691496038E+03  0.20482037020E+03  0.47000000000E+01 0. -1.
        -11    1    4    4    0    0  0.19023758319E+02  0.16362597093E+02 -0.10549511342E+03  0.10843826318E+03  0.00000000000E+00 0.  1.
         12    1    4    4    0    0 -0.19869154351E+02 -0.36153011064E+02 -0.32382394191E+02  0.52444665669E+02  0.00000000000E+00 0. -1.
         -5    1    5    5    0  502  0.19446957323E+02  0.81643049655E+01  0.22191721476E+02  0.30974223586E+02  0.47000000000E+01 0.  1.
         11    1    6    6    0    0 -0.53849495726E+02 -0.31627318740E+02 -0.17865882244E+02  0.64955717447E+02  0.00000000000E+00 0. -1.
        -12    1    6    6    0    0 -0.96190883709E+02  0.37701280071E+02 -0.87747724429E+02  0.13554975386E+03  0.00000000000E+00 0.  1.
</event>
<event>
12    1  0.8798177E-003  0.1788871E+03  0.7818608E-02  0.1169276E+00
         21   -1    0    0  503  502  0.00000000000E+00  0.00000000000E+00  0.56173508076E+02  0.56173508076E+02  0.00000000000E+00 0. -1.
         21   -1    0    0  501  503 -0.00000000000E+00 -0.00000000000E+00 -0.60254739957E+03  0.60254739957E+03  0.00000000000E+00 0. -1.
          6    2    1    2  501    0  0.50136320828E+01  0.44286139221E+02 -0.18937806083E+03  0.25941322132E+03  0.17159478675E+03 0.  0.
         24    2    3    3    0    0 -0.30689779314E+02 -0.31239728868E+02 -0.12049118090E+03  0.15103249166E+03  0.79843006252E+02 0.  0.
         -6    2    1    2    0  502 -0.50136320828E+01 -0.44286139221E+02 -0.35699583066E+03  0.39930768632E+03  0.17324608687E+03 0.  0.
        -24    2    5    5    0    0 -0.53081303781E+02 -0.62265375560E+02 -0.30696047484E+03  0.32747885622E+03  0.79517710941E+02 0.  0.
          5    1    3    3  501    0  0.35703411396E+02  0.75525868088E+02 -0.68886879933E+02  0.10838072966E+03  0.47000000000E+01 0. -1.
        -11    1    4    4    0    0 -0.31303730096E+01 -0.21821968143E+02 -0.11989223963E+03  0.12190220118E+03  0.00000000000E+00 0.  1.
         12    1    4    4    0    0 -0.27559406304E+02 -0.94177607250E+01 -0.59894127397E+00  0.29130290482E+02  0.00000000000E+00 0. -1.
         -5    1    5    5    0  502  0.48067671698E+02  0.17979236339E+02 -0.50035355820E+02  0.71828830102E+02  0.47000000000E+01 0.  1.
         11    1    6    6    0    0 -0.76160481569E+01 -0.66521705876E+02 -0.15597253538E+03  0.16973677661E+03  0.00000000000E+00 0. -1.
        -12    1    6    6    0    0 -0.45465255624E+02  0.42563303155E+01 -0.15098793946E+03  0.15774207961E+03  0.00000000000E+00 0.  1.
</event>
<event>
12    1  0.8798177E-003  0.1980115E+03  0.7818608E-02  0.1151603E+00
         21   -1    0    0  503  502  0.00000000000E+00  0.00000000000E+00  0.82431771399E+02  0.82431771399E+02  0.00000000000E+00 0.  1.
         21   -1    0    0  501  503 -0.00000000000E+00 -0.00000000000E+00 -0.47528702835E+03  0.47528702835E+03  0.00000000000E+00 0.  1.
          6    2    1    2  501    0 -0.62189880475E+02 -0.74788028052E+02 -0.18065231771E+03  0.26803693124E+03  0.17247523371E+03 0.  0.
         24    2    3    3    0    0 -0.61130779320E+02 -0.10618488888E+03 -0.87024144733E+02  0.16916727290E+03  0.77666992009E+02 0.  0.
         -6    2    1    2    0  502  0.62189880475E+02  0.74788028052E+02 -0.21220293924E+03  0.28968186851E+03  0.17153619777E+03 0.  0.
        -24    2    5    5    0    0 -0.12737788251E+02 -0.10420576242E+02 -0.56707320796E+02  0.97131513686E+02  0.77123090319E+02 0.  0.
          5    1    3    3  501    0 -0.10591011551E+01  0.31396860829E+02 -0.93628172979E+02  0.98869658342E+02  0.47000000000E+01 0. -1.
        -11    1    4    4    0    0  0.10402856123E+01 -0.31111725509E+01 -0.39686212326E+02  0.39821564981E+02  0.00000000000E+00 0.  1.
         12    1    4    4    0    0 -0.62171064932E+02 -0.10307371633E+03 -0.47337932407E+02  0.12934570792E+03  0.00000000000E+00 0. -1.
         -5    1    5    5    0  502  0.74927668726E+02  0.85208604293E+02 -0.15549561844E+03  0.19255035482E+03  0.47000000000E+01 0.  1.
         13    1    6    6    0    0  0.28527767989E+02 -0.20523682404E+01 -0.45187528270E+02  0.53478579571E+02  0.00000000000E+00 0. -1.
        -14    1    6    6    0    0 -0.41265556240E+02 -0.83682080011E+01 -0.11519792526E+02  0.43652934114E+02  0.00000000000E+00 0.  1.
</event>
<event>
12    1  0.8798177E-003  0.1780316E+03  0.7818608E-02  0.1169866E+00
         21   -1    0    0  501  502  0.00000000000E+00  0.00000000000E+00  0.18658493672E+04  0.18658493672E+04  0.00000000000E+00 0.  1.
         21   -1    0    0  502  503 -0.00000000000E+00 -0.00000000000E+00 -0.17124832515E+02  0.17124832515E+02  0.00000000000E+00 0.  1.
          6    2    1    2  501    0  0.43898480222E+02 -0.43737728057E+00  0.10260055721E+04  0.10413369722E+04  0.17253401907E+03 0.  0.
         24    2    3    3    0    0  0.70225278335E+02 -0.46822431005E+01  0.37626003903E+03  0.39102745591E+03  0.79858256821E+02 0.  0.
         -6    2    1    2    0  503 -0.43898480222E+02  0.43737728057E+00  0.82271896257E+03  0.84163722755E+03  0.17192865832E+03 0.  0.
        -24    2    5    5    0    0 -0.65599047319E+02  0.42741164185E+02  0.37542744254E+03  0.39180134760E+03  0.80202800697E+02 0.  0.
          5    1    3    3  501    0 -0.26326798113E+02  0.42448658199E+01  0.64974553310E+03  0.65030951628E+03  0.47000000000E+01 0. -1.
        -11    1    4    4    0    0  0.17652281965E+01 -0.25578110315E+02  0.18581354944E+03  0.18757406780E+03  0.00000000000E+00 0.  1.
         12    1    4    4    0    0  0.68460050138E+02  0.20895867214E+02  0.19044648960E+03  0.20345338810E+03  0.00000000000E+00 0. -1.
         -5    1    5    5    0  503  0.21700567097E+02 -0.42303786904E+02  0.44729152003E+03  0.44983587995E+03  0.47000000000E+01 0.  1.
         13    1    6    6    0    0 -0.66745767311E+02  0.24550013860E+02  0.36261100323E+03  0.36951920152E+03  0.00000000000E+00 0. -1.
        -14    1    6    6    0    0  0.11467199920E+01  0.18191150325E+02  0.12816439319E+02  0.22282146075E+02  0.00000000000E+00 0.  1.
</event>
<event>
12    1  0.8798177E-003  0.2144197E+03  0.7818608E-02  0.1138144E+00
         21   -1    0    0  501  502  0.00000000000E+00  0.00000000000E+00  0.31991500204E+03  0.31991500204E+03  0.00000000000E+00 0. -1.
         21   -1    0    0  502  503 -0.00000000000E+00 -0.00000000000E+00 -0.14709738166E+03  0.14709738166E+03  0.00000000000E+00 0. -1.
          6    2    1    2  501    0 -0.35836776164E+02 -0.12139469752E+03  0.12241283330E+03  0.24690225312E+03  0.17307476341E+03 0.  0.
         24    2    3    3    0    0 -0.70325677735E+02 -0.41325595354E+02  0.26187045221E+02  0.11697135708E+03  0.79643149489E+02 0.  0.
         -6    2    1    2    0  503  0.35836776164E+02  0.12139469752E+03  0.50404787087E+02  0.22011013058E+03  0.17287822277E+03 0.  0.
        -24    2    5    5    0    0  0.85842137526E+02  0.10541621654E+03  0.20328513200E+02  0.15942635786E+03  0.80759295741E+02 0.  0.
          5    1    3    3  501    0  0.34488901571E+02 -0.80069102170E+02  0.96225788079E+02  0.12993089604E+03  0.47000000000E+01 0. -1.
        -11    1    4    4    0    0 -0.45248826135E+02  0.70605117963E+01 -0.15509826271E+02  0.48351440562E+02  0.00000000000E+00 0.  1.
         12    1    4    4    0    0 -0.25076851599E+02 -0.48386107151E+02  0.41696871493E+02  0.68619916523E+02  0.00000000000E+00 0. -1.
         -5    1    5    5    0  503 -0.50005361362E+02  0.15978480986E+02  0.30076273886E+02  0.60683772711E+02  0.47000000000E+01 0.  1.
         13    1    6    6    0    0  0.44216032293E+02  0.26773902350E+01  0.19931035826E+02  0.48574397776E+02  0.00000000000E+00 0. -1.
        -14    1    6    6    0    0  0.41626105233E+02  0.10273882630E+03  0.39747737410E+00  0.11085196009E+03  0.00000000000E+00 0.  1.
</event>
<event>
12    1  0.8798177E-003  0.1843071E+03  0.7818608E-02  0.1164133E+00
         21   -1    0    0  503  502  0.00000000000E+00  0.00000000000E+00  0.31920170460E+02  0.31920170460E+02  0.00000000000E+00 0.  1.
         21   -1    0    0  501  503 -0.00000000000E+00 -0.00000000000E+00 -0.15146731942E+04  0.15146731942E+04  0.00000000000E+00 0.  1.
          6    2    1    2  501    0  0.32804130767E+02  0.57097093321E+02 -0.11654416835E+04  0.11796388802E+04  0.17016868373E+03 0.  0.
         24    2    3    3    0    0 -0.15464358041E+02  0.76190340947E+02 -0.50904364730E+03  0.52117485607E+03  0.80334807639E+02 0.  0.
         -6    2    1    2    0  502 -0.32804130767E+02 -0.57097093321E+02 -0.31731134028E+03  0.36695448453E+03  0.17214214470E+03 0.  0.
        -24    2    5    5    0    0  0.19099938753E+02 -0.11473464215E+02 -0.27067119089E+03  0.28345034391E+03  0.81146508487E+02 0.  0.
          5    1    3    3  501    0  0.48268488808E+02 -0.19093247627E+02 -0.65639803620E+03  0.65846402410E+03  0.47000000000E+01 0. -1.
        -13    1    4    4    0    0 -0.11660148070E+02  0.83348874167E+02 -0.50527322648E+03  0.51223434800E+03  0.00000000000E+00 0.  1.
         14    1    4    4    0    0 -0.38042099704E+01 -0.71585332193E+01 -0.37704208261E+01  0.89405080704E+01  0.00000000000E+00 0. -1.
         -5    1    5    5    0  502 -0.51904069520E+02 -0.45623629105E+02 -0.46640149388E+02  0.83504140618E+02  0.47000000000E+01 0.  1.
         11    1    6    6    0    0  0.37689300801E+02 -0.35402852955E+02 -0.13818184824E+03  0.14754005753E+03  0.00000000000E+00 0. -1.
        -12    1    6    6    0    0 -0.18589362048E+02  0.23929388740E+02 -0.13248934266E+03  0.13591028638E+03  0.00000000000E+00 0.  1.
</event>
<event>
12    1  0.8798177E-003  0.1742017E+03  0.7818608E-02  0.1174110E+00
         21   -1    0    0  501  502  0.00000000000E+00  0.00000000000E+00  0.20160629403E+03  0.20160629403E+03  0.00000000000E+00 0. -1.
         21   -1    0    0  502  503 -0.00000000000E+00 -0.00000000000E+00 -0.17101154714E+03  0.17101154714E+03  0.00000000000E+00 0. -1.
          6    2    1    2  501    0 -0.32776698154E+02  0.77778320889E+01  0.82863560926E+02  0.19290567732E+03  0.17091349859E+03 0.  0.
         24    2    3    3    0    0  0.40788159339E+01  0.64303472118E+02  0.60420046098E+02  0.12163662192E+03  0.83626027987E+02 0.  0.
         -6    2    1    2    0  503  0.32776698154E+02 -0.77778320889E+01 -0.52268814033E+02  0.17971216385E+03  0.16861087243E+03 0.  0.
        -24    2    5    5    0    0  0.17137691947E+02 -0.64409286548E+02 -0.59632825774E+02  0.12031503582E+03  0.80482154895E+02 0.  0.
          5    1    3    3  501    0 -0.36855514088E+02 -0.56525640029E+02  0.22443514828E+02  0.71269055397E+02  0.47000000000E+01 0. -1.
        -11    1    4    4    0    0  0.38146308326E+02  0.21954323145E+02  0.54761586003E+01  0.44352242972E+02  0.00000000000E+00 0.  1.
         12    1    4    4    0    0 -0.34067492392E+02  0.42349148973E+02  0.54943887498E+02  0.77284378952E+02  0.00000000000E+00 0. -1.
         -5    1    5    5    0  503  0.15639006207E+02  0.56631454459E+02  0.73640117409E+01  0.59397128030E+02  0.47000000000E+01 0.  1.
         13    1    6    6    0    0 -0.17662119299E+01 -0.50127763368E+02  0.60193024376E+01  0.50518750644E+02  0.00000000000E+00 0. -1.
        -14    1    6    6    0    0  0.18903903877E+02 -0.14281523180E+02 -0.65652128212E+02  0.69796285179E+02  0.00000000000E+00 0.  1.
</event>
<event>
12    1  0.8798177E-003  0.1940526E+03  0.7818608E-02  0.1155293E+00
         21   -1    0    0  501  502  0.00000000000E+00  0.00000000000E+00  0.31618673285E+03  0.31618673285E+03  0.00000000000E+00 0.  1.
         21   -1    0    0  502  503 -0.00000000000E+00 -0.00000000000E+00 -0.11952320448E+03  0.11952320448E+03  0.00000000000E+00 0.  1.
          6    2    1    2  501    0  0.21296095672E+02 -0.82112378693E+02  0.72316967194E+02  0.20523549295E+03  0.17232497612E+03 0.  0.
         24    2    3    3    0    0  0.34887396954E+02 -0.93406733757E+02 -0.26787328913E+01  0.12804267620E+03  0.80285758014E+02 0.  0.
         -6    2    1    2    0  503 -0.21296095672E+02  0.82112378693E+02  0.12434656117E+03  0.23047444439E+03  0.17452918328E+03 0.  0.
        -24    2    5    5    0    0  0.12994203965E+02 -0.11484344728E+02  0.11310298708E+02  0.79691627343E+02  0.76955136939E+02 0.  0.
          5    1    3    3  501    0 -0.13591301283E+02  0.11294355065E+02  0.74995700085E+02  0.77192816752E+02  0.47000000000E+01 0. -1.
        -13    1    4    4    0    0  0.20882666181E+02  0.10332087544E+02 -0.16584854143E+01  0.23357832813E+02  0.00000000000E+00 0.  1.
         14    1    4    4    0    0  0.14004730773E+02 -0.10373882130E+03 -0.10202474770E+01  0.10468484338E+03  0.00000000000E+00 0. -1.
         -5    1    5    5    0  503 -0.34290299636E+02  0.93596723420E+02  0.11303626246E+03  0.15078281705E+03  0.47000000000E+01 0.  1.
         13    1    6    6    0    0  0.36319216975E+02 -0.31182421877E+02  0.25812776511E+01  0.47938418310E+02  0.00000000000E+00 0. -1.
        -14    1    6    6    0    0 -0.23325013010E+02  0.19698077149E+02  0.87290210570E+01  0.31753209033E+02  0.00000000000E+00 0.  1.
</event>
<event>
12    1  0.8798177E-003  0.3809650E+03  0.7818608E-02  0.1050602E+00
         21   -1    0    0  503  502  0.00000000000E+00  0.00000000000E+00  0.20267552539E+04  0.20267552539E+04  0.00000000000E+00 0. -1.
         21   -1    0    0  501  503 -0.00000000000E+00 -0.00000000000E+00 -0.86277932694E+02  0.86277932694E+02  0.00000000000E+00 0.  1.
          6    2    1    2  501    0  0.29961101304E+03  0.16074153702E+03  0.53415367746E+03  0.65609032523E+03  0.17184226154E+03 0.  0.
         24    2    3    3    0    0  0.15111542447E+03  0.13943761978E+02  0.23268672472E+03  0.28934117365E+03  0.80900574162E+02 0.  0.
         -6    2    1    2    0  502 -0.29961101304E+03 -0.16074153702E+03  0.14063236438E+04  0.14569428614E+04  0.17126502701E+03 0.  0.
        -24    2    5    5    0    0 -0.14121468720E+03 -0.89251309065E+02  0.96633591689E+03  0.98385561940E+03  0.79116316252E+02 0.  0.
          5    1    3    3  501    0  0.14849558857E+03  0.14679777505E+03  0.30146695274E+03  0.36674915157E+03  0.47000000000E+01 0. -1.
        -11    1    4    4    0    0  0.13731321699E+03  0.12342374117E+02  0.14319207297E+03  0.19877430297E+03  0.00000000000E+00 0.  1.
         12    1    4    4    0    0  0.13802207484E+02  0.16013878608E+01  0.89494651748E+02  0.90566870687E+02  0.00000000000E+00 0. -1.
         -5    1    5    5    0  502 -0.15839632584E+03 -0.71490227960E+02  0.43998772689E+03  0.47308724200E+03  0.47000000000E+01 0.  1.
         11    1    6    6    0    0 -0.11735811320E+03 -0.30374844292E+02  0.61923953204E+03  0.63099378439E+03  0.00000000000E+00 0. -1.
        -12    1    6    6    0    0 -0.23856573992E+02 -0.58876464773E+02  0.34709638485E+03  0.35286183500E+03  0.00000000000E+00 0.  1.
</event>
<event>
12    1  0.8798177E-003  0.1785062E+03  0.7818608E-02  0.1169313E+00
         21   -1    0    0  501  502  0.00000000000E+00  0.00000000000E+00  0.29156494323E+03  0.29156494323E+03  0.00000000000E+00 0. -1.
         21   -1    0    0  502  503 -0.00000000000E+00 -0.00000000000E+00 -0.11784967954E+03  0.11784967954E+03  0.00000000000E+00 0. -1.
          6    2    1    2  501    0 -0.25812973005E+02  0.42802873023E+02  0.14253641185E+03  0.22843180027E+03  0.17136529157E+03 0.  0.
         24    2    3    3    0    0 -0.51198481342E+02  0.86392607387E+02  0.90024832363E+02  0.15546574682E+03  0.77331499982E+02 0.  0.
         -6    2    1    2    0  503  0.25812973005E+02 -0.42802873023E+02  0.31178851842E+02  0.18098282251E+03  0.17112646121E+03 0.  0.
        -24    2    5    5    0    0  0.47521968647E+02  0.32952440731E+02  0.11173898374E+02  0.99543052021E+02  0.80248129864E+02 0.  0.
          5    1    3    3  501    0  0.25385508337E+02 -0.43589734364E+02  0.52511579485E+02  0.72966053446E+02  0.47000000000E+01 0. -1.
        -11    1    4    4    0    0 -0.50397269399E+00  0.28752882347E+02 -0.90372516934E+01  0.30143890756E+02  0.00000000000E+00 0.  1.
         12    1    4    4    0    0 -0.50694508648E+02  0.57639725040E+02  0.99062084056E+02  0.12532185606E+03  0.00000000000E+00 0. -1.
         -5    1    5    5    0  503 -0.21708995642E+02 -0.75755313754E+02  0.20004953468E+02  0.81439770487E+02  0.47000000000E+01 0.  1.
         11    1    6    6    0    0  0.62388255719E+02  0.10139688397E+02 -0.11334644052E+02  0.64215121959E+02  0.00000000000E+00 0. -1.
        -12    1    6    6    0    0 -0.14866287072E+02  0.22812752334E+02  0.22508542426E+02  0.35327930063E+02  0.00000000000E+00 0.  1.
</event>
<event>
12    1  0.8798177E-003  0.1732353E+03  0.7818608E-02  0.1174652E+00
         21   -1    0    0  501  502  0.00000000000E+00  0.00000000000E+00  0.86067557273E+02  0.86067557273E+02  0.00000000000E+00 0. -1.
         21   -1    0    0  502  503 -0.00000000000E+00 -0.00000000000E+00 -0.11981639281E+04  0.11981639281E+04  0.00000000000E+00 0. -1.
          6    2    1    2  501    0 -0.11136881837E+02 -0.70315045750E+01 -0.15286189165E+02  0.17390845164E+03  0.17273392770E+03 0.  0.
         24    2    3    3    0    0 -0.42136723271E+02  0.47562502545E+02 -0.36445716058E+02  0.10749074797E+03  0.78665593393E+02 0.  0.
         -6    2    1    2    0  503  0.11136881837E+02  0.70315045750E+01 -0.10968101817E+04  0.11103230337E+04  0.17219521609E+03 0.  0.
        -24    2    5    5    0    0 -0.69776944801E+00 -0.20199741723E+02 -0.25498722682E+03  0.26796350416E+03  0.79858858479E+02 0.  0.
          5    1    3    3  501    0  0.30999841434E+02 -0.54594007120E+02  0.21159526894E+02  0.66417703670E+02  0.47000000000E+01 0. -1.
        -13    1    4    4    0    0 -0.23663878148E+02  0.22964036938E+02  0.23241665930E+02  0.40342299844E+02  0.00000000000E+00 0.  1.
         14    1    4    4    0    0 -0.18472845122E+02  0.24598465607E+02 -0.59687381988E+02  0.67148448126E+02  0.00000000000E+00 0. -1.
         -5    1    5    5    0  503  0.11834651285E+02  0.27231246298E+02 -0.84182295485E+03  0.84235952957E+03  0.47000000000E+01 0.  1.
         13    1    6    6    0    0  0.14517698476E+02  0.12454297191E+02 -0.20738980016E+03  0.20827002256E+03  0.00000000000E+00 0. -1.
        -14    1    6    6    0    0 -0.15215467924E+02 -0.32654038915E+02 -0.47597426652E+02  0.59693481600E+02  0.00000000000E+00 0.  1.
</event>
<event>
12    1  0.8798177E-003  0.2043835E+03  0.7818608E-02  0.1146133E+00
         21   -1    0    0  503  502  0.00000000000E+00  0.00000000000E+00  0.39461060173E+02  0.39461060173E+02  0.00000000000E+00 0.  1.
         21   -1    0    0  501  503 -0.00000000000E+00 -0.00000000000E+00 -0.11266441891E+04  0.11266441891E+04  0.00000000000E+00 0. -1.
          6    2    1    2  501    0  0.10381533444E+03 -0.31776794417E+02 -0.39945507539E+03  0.44870587672E+03  0.17316240418E+03 0.  0.
         24    2    3    3    0    0  0.70390577624E+02  0.46279178729E+02 -0.17998629488E+03  0.21333683684E+03  0.77594740861E+02 0.  0.
         -6    2    1    2    0  502 -0.10381533444E+03  0.31776794417E+02 -0.68772805349E+03  0.71739937250E+03  0.17292945321E+03 0.  0.
        -24    2    5    5    0    0  0.61508034615E+01  0.23036895957E+02 -0.44003772705E+03  0.44621396523E+03  0.70036922961E+02 0.  0.
          5    1    3    3  501    0  0.33424756813E+02 -0.78055973146E+02 -0.21946878052E+03  0.23536903988E+03  0.47000000000E+01 0. -1.
        -13    1    4    4    0    0  0.36495266911E+02 -0.50783289369E+01 -0.20000221258E+02  0.41924966095E+02  0.00000000000E+00 0.  1.
         14    1    4    4    0    0  0.33895310713E+02  0.51357507666E+02 -0.15998607362E+03  0.17141187075E+03  0.00000000000E+00 0. -1.
         -5    1    5    5    0  502 -0.10996613790E+03  0.87398984594E+01 -0.24769032643E+03  0.27118540727E+03  0.47000000000E+01 0.  1.
         11    1    6    6    0    0 -0.56767784053E+00  0.11897256969E+02 -0.42896631879E+03  0.42913164605E+03  0.00000000000E+00 0. -1.
        -12    1    6    6    0    0  0.67184813020E+01  0.11139638989E+02 -0.11071408263E+02  0.17082319185E+02  0.00000000000E+00 0.  1.
</event>
<event>
12    1  0.8798177E-003  0.1878406E+03  0.7818608E-02  0.1160872E+00
         21   -1    0    0  501  502  0.00000000000E+00  0.00000000000E+00  0.30686122648E+02  0.30686122648E+02  0.00000000000E+00 0. -1.
         21   -1    0    0  502  503 -0.00000000000E+00 -0.00000000000E+00 -0.12904039493E+04  0.12904039493E+04  0.00000000000E+00 0.  1.
          6    2    1    2  501    0 -0.72037021831E+02 -0.77289162815E+01 -0.40570633440E+03  0.44708134380E+03  0.17330617285E+03 0.  0.
         24    2    3    3    0    0 -0.28109064852E+02 -0.38280272668E+02 -0.10215794230E+03  0.13881722470E+03  0.81107816496E+02 0.  0.
         -6    2    1    2    0  503  0.72037021831E+02  0.77289162815E+01 -0.85401149230E+03  0.87400872819E+03  0.17119158655E+03 0.  0.
        -24    2    5    5    0    0 -0.23325812179E+02  0.20202123774E+02 -0.33784416583E+03  0.34893687603E+03  0.81645843422E+02 0.  0.
          5    1    3    3  501    0 -0.43927956979E+02  0.30551356387E+02 -0.30354839209E+03  0.30826411910E+03  0.47000000000E+01 0. -1.
        -13    1    4    4    0    0 -0.19165498830E+02 -0.60661203045E+02 -0.93738438806E+02  0.11328721380E+03  0.00000000000E+00 0.  1.
         14    1    4    4    0    0 -0.89435660219E+01  0.22380930377E+02 -0.84195034950E+01  0.25530010906E+02  0.00000000000E+00 0. -1.
         -5    1    5    5    0  503  0.95362834010E+02 -0.12473207492E+02 -0.51616732647E+03  0.52507185216E+03  0.47000000000E+01 0.  1.
         11    1    6    6    0    0  0.11678274316E+02  0.42030678037E+02 -0.21406000886E+03  0.21845971569E+03  0.00000000000E+00 0. -1.
        -12    1    6    6    0    0 -0.35004086494E+02 -0.21828554263E+02 -0.12378415697E+03  0.13047716034E+03  0.00000000000E+00 0.  1.
</event>
<event>
12    1  0.8798177E-003  0.1830495E+03  0.7818608E-02  0.1165005E+00
         21   -1    0    0  503  502  0.00000000000E+00  0.00000000000E+00  0.17967442801E+03  0.17967442801E+03  0.00000000000E+00 0.  1.
         21   -1    0    0  501  503 -0.00000000000E+00 -0.00000000000E+00 -0.35092938912E+03  0.35092938912E+03  0.00000000000E+00 0.  1.
          6    2    1    2  501    0  0.18057100144E+01  0.62248881917E+02 -0.26745983519E+03  0.32381283096E+03  0.17158613630E+03 0.  0.
         24    2    3    3    0    0 -0.21370363897E+02  0.45933136856E+02 -0.27810290507E+03  0.29317463788E+03  0.77740574806E+02 0.  0.
         -6    2    1    2    0  502 -0.18057100144E+01 -0.62248881917E+02  0.96204874079E+02  0.20679098616E+03  0.17213061980E+03 0.  0.
        -24    2    5    5    0    0 -0.37409225389E+02 -0.24855448270E+02  0.11895543593E+03  0.15017334535E+03  0.79902405869E+02 0.  0.
          5    1    3    3  501    0  0.23176073911E+02  0.16315745061E+02  0.10643069885E+02  0.30638193083E+02  0.47000000000E+01 0. -1.
        -11    1    4    4    0    0 -0.29615112862E+02  0.61515884880E+02 -0.16286973235E+03  0.17660070419E+03  0.00000000000E+00 0.  1.
         12    1    4    4    0    0  0.82447489654E+01 -0.15582748025E+02 -0.11523317272E+03  0.11657393370E+03  0.00000000000E+00 0. -1.
         -5    1    5    5    0  502  0.35603515375E+02 -0.37393433646E+02 -0.22750561850E+02  0.56617640814E+02  0.47000000000E+01 0.  1.
         11    1    6    6    0    0 -0.27644341021E+02 -0.47478373516E+02  0.41384314042E+02  0.68782752133E+02  0.00000000000E+00 0. -1.
        -12    1    6    6    0    0 -0.97648843678E+01  0.22622925246E+02  0.77571121887E+02  0.81390593217E+02  0.00000000000E+00 0.  1.
</event>
<event>
12    1  0.8798177E-003  0.1839188E+03  0.7818608E-02  0.1165757E+00
         21   -1    0    0  501  502  0.00000000000E+00  0.00000000000E+00  0.21421636989E+03  0.21421636989E+03  0.00000000000E+00 0. -1.
         21   -1    0    0  502  503 -0.00000000000E+00 -0.00000000000E+00 -0.16652395818E+03  0.16652395818E+03  0.00000000000E+00 0. -1.
          6    2    1    2  501    0 -0.32484476699E+02 -0.18656685322E+02  0.79803956679E+02  0.19403931317E+03  0.17285621314E+03 0.  0.
         24    2    3    3    0    0 -0.20425496705E+02 -0.31795065103E+02  0.12079886747E+03  0.14908701921E+03  0.78780999204E+02 0.  0.
         -6    2    1    2    0  503  0.32484476699E+02  0.18656685322E+02 -0.32111544968E+02  0.18670101490E+03  0.18006333472E+03 0.  0.
        -24    2    5    5    0    0  0.91368950609E+01 -0.40648761155E+02  0.28948520270E+01  0.11383275445E+03  0.10589481188E+03 0.  0.
          5    1    3    3  501    0 -0.12058979994E+02  0.13138379781E+02 -0.40994910787E+02  0.44952293959E+02  0.47000000000E+01 0. -1.
        -11    1    4    4    0    0  0.29640673049E+02 -0.20166752507E+02  0.45719970230E+02  0.58099768358E+02  0.00000000000E+00 0.  1.
         12    1    4    4    0    0 -0.50066169753E+02 -0.11628312596E+02  0.75078897235E+02  0.90987250853E+02  0.00000000000E+00 0. -1.
         -5    1    5    5    0  503  0.23347581638E+02  0.59305446477E+02 -0.35006396994E+02  0.72868260448E+02  0.47000000000E+01 0.  1.
         13    1    6    6    0    0  0.65900099257E+01 -0.45399093355E+02 -0.45809726644E+02  0.64830833432E+02  0.00000000000E+00 0. -1.
        -14    1    6    6    0    0  0.25468851351E+01  0.47503321996E+01  0.48704578671E+02  0.49001921018E+02  0.00000000000E+00 0.  1.
</event>
<event>
12    1  0.8798177E-003  0.1830465E+03  0.7818608E-02  0.1164910E+00
         21   -1    0    0  503  502  0.00000000000E+00  0.00000000000E+00  0.36656266123E+03  0.36656266123E+03  0.00000000000E+00 0. -1.
         21   -1    0    0  501  503 -0.00000000000E+00 -0.00000000000E+00 -0.11304347579E+03  0.11304347579E+03  0.00000000000E+00 0. -1.
          6    2    1    2  501    0 -0.25329336066E+02  0.57728069432E+02  0.21754389488E+02  0.18433466107E+03  0.17184850463E+03 0.  0.
         24    2    3    3    0    0 -0.13381125864E+02 -0.34735988392E+02 -0.21492799511E+01  0.87971612499E+02  0.79678992103E+02 0.  0.
         -6    2    1    2    0  502  0.25329336066E+02 -0.57728069432E+02  0.23176479594E+03  0.29527147596E+03  0.17174463196E+03 0.  0.
        -24    2    5    5    0    0  0.12367863637E+02 -0.31072549931E+02  0.30318717704E+02  0.91602310578E+02  0.79707535715E+02 0.  0.
          5    1    3    3  501    0 -0.11948210202E+02  0.92464057824E+02  0.23903669439E+02  0.96363048566E+02  0.47000000000E+01 0. -1.
        -11    1    4    4    0    0 -0.45786921674E+02 -0.29709621162E+02 -0.61868822756E+01  0.54930695410E+02  0.00000000000E+00 0.  1.
         12    1    4    4    0    0  0.32405795809E+02 -0.50263672292E+01  0.40376023245E+01  0.33040917089E+02  0.00000000000E+00 0. -1.
         -5    1    5    5    0  502  0.12961472429E+02 -0.26655519502E+02  0.20144607824E+03  0.20366916538E+03  0.47000000000E+01 0.  1.
         11    1    6    6    0    0  0.21920910308E+01 -0.34027645019E+01  0.53775484527E+02  0.53927607081E+02  0.00000000000E+00 0. -1.
        -12    1    6    6    0    0  0.10175772606E+02 -0.27669785429E+02 -0.23456766823E+02  0.37674703497E+02  0.00000000000E+00 0.  1.
</event>
<event>
12    1  0.8798177E-003  0.2399015E+03  0.7818608E-02  0.1121269E+00
         21   -1    0    0  503  502  0.00000000000E+00  0.00000000000E+00  0.32489123488E+03  0.32489123488E+03  0.00000000000E+00 0.  1.
         21   -1    0    0  501  503 -0.00000000000E+00 -0.00000000000E+00 -0.18325921453E+03  0.18325921453E+03  0.00000000000E+00 0.  1.
          6    2    1    2  501    0 -0.14685180414E+03  0.57790561092E+02  0.41214147414E+01  0.23163300639E+03  0.16950416591E+03 0.  0.
         24    2    3    3    0    0 -0.34797096739E+02 -0.23902267102E+02  0.17344323817E+02  0.92252552403E+02  0.80172012212E+02 0.  0.
         -6    2    1    2    0  502  0.14685180414E+03 -0.57790561092E+02  0.13751060561E+03  0.27651744302E+03  0.18068627039E+03 0.  0.
        -24    2    5    5    0    0  0.77331260211E+02  0.13119389174E+02  0.13463302197E+03  0.17706042938E+03  0.84095795792E+02 0.  0.
          5    1    3    3  501    0 -0.11205470740E+03  0.81692828194E+02 -0.13222909076E+02  0.13938045399E+03  0.47000000000E+01 0. -1.
        -11    1    4    4    0    0 -0.79334546279E+01  0.18624645707E+02 -0.20874996098E+02  0.29078902870E+02  0.00000000000E+00 0.  1.
         12    1    4    4    0    0 -0.26863642111E+02 -0.42526912809E+02  0.38219319915E+02  0.63173649533E+02  0.00000000000E+00 0. -1.
         -5    1    5    5    0  502  0.69520543928E+02 -0.70909950267E+02  0.28775836455E+01  0.99457013641E+02  0.47000000000E+01 0.  1.
         11    1    6    6    0    0  0.14707133435E+02  0.27853200487E+02  0.43996436958E+01  0.31803418305E+02  0.00000000000E+00 0. -1.
        -12    1    6    6    0    0  0.62624126775E+02 -0.14733811313E+02  0.13023337827E+03  0.14525701107E+03  0.00000000000E+00 0.  1.
</event>
<event>
12    1  0.8798177E-003  0.2160873E+03  0.7818608E-02  0.1137655E+00
         21   -1    0    0  501  502  0.00000000000E+00  0.00000000000E+00  0.80739031726E+03  0.80739031726E+03  0.00000000000E+00 0.  1.
         21   -1    0    0  502  503 -0.00000000000E+00 -0.00000000000E+00 -0.76280320191E+02  0.76280320191E+02  0.00000000000E+00 0.  1.
          6    2    1    2  501    0 -0.10797851306E+03 -0.64691737144E+02  0.59210560946E+03  0.63030371745E+03  0.17563981136E+03 0.  0.
         24    2    3    3    0    0 -0.11978849856E+03  0.92022779733E+00  0.34272899760E+03  0.37212705266E+03  0.81640959784E+02 0.  0.
         -6    2    1    2    0  503  0.10797851306E+03  0.64691737144E+02  0.13900438761E+03  0.25336692000E+03  0.17037663056E+03 0.  0.
        -24    2    5    5    0    0  0.41403107632E+02  0.23169458810E+02 -0.86990063920E+00  0.92919761353E+02  0.79889199393E+02 0.  0.
          5    1    3    3  501    0  0.11809985499E+02 -0.65611964942E+02  0.24937661186E+03  0.25817666479E+03  0.47000000000E+01 0. -1.
        -11    1    4    4    0    0 -0.13131028683E+03 -0.28928934053E+01  0.32596337027E+03  0.35142976399E+03  0.00000000000E+00 0.  1.
         12    1    4    4    0    0  0.11521788271E+02  0.38131212027E+01  0.16765627329E+02  0.20697288663E+02  0.00000000000E+00 0. -1.
         -5    1    5    5    0  503  0.66575405429E+02  0.41522278335E+02  0.13987428824E+03  0.16044715865E+03  0.47000000000E+01 0.  1.
         11    1    6    6    0    0 -0.19618223274E+02 -0.11479035051E+02 -0.90205103602E+00  0.22747672984E+02  0.00000000000E+00 0. -1.
        -12    1    6    6    0    0  0.61021330906E+02  0.34648493861E+02  0.32150396823E-01  0.70172088369E+02  0.00000000000E+00 0.  1.
</event>
<event>
12    1  0.8798177E-003  0.1822146E+03  0.7818608E-02  0.1165945E+00
         21   -1    0    0  501  502  0.00000000000E+00  0.00000000000E+00  0.57685065793E+03  0.57685065793E+03  0.00000000000E+00 0.  1.
         21   -1    0    0  502  503 -0.00000000000E+00 -0.00000000000E+00 -0.57347185826E+02  0.57347185826E+02  0.00000000000E+00 0.  1.
          6    2    1    2  501    0  0.57700300868E+02 -0.18539246445E+02  0.27641415766E+03  0.33106939243E+03  0.17184041338E+03 0.  0.
         24    2    3    3    0    0  0.89829696252E+02 -0.25296490915E+02  0.12390152726E+03  0.17499200511E+03  0.81002016112E+02 0.  0.
         -6    2    1    2    0  503 -0.57700300868E+02  0.18539246445E+02  0.24308931445E+03  0.30312845133E+03  0.17064997752E+03 0.  0.
        -24    2    5    5    0    0  0.21586887671E+02 -0.31866694409E+02  0.10101484851E+03  0.13273343670E+03  0.77023929183E+02 0.  0.
          5    1    3    3  501    0 -0.32129395383E+02  0.67572444703E+01  0.15251263040E+03  0.15607738732E+03  0.47000000000E+01 0. -1.
        -13    1    4    4    0    0  0.43913455307E+02 -0.48078625462E+02  0.97740920901E+02  0.11744459716E+03  0.00000000000E+00 0.  1.
         14    1    4    4    0    0  0.45916240945E+02  0.22782134547E+02  0.26160606362E+02  0.57547407954E+02  0.00000000000E+00 0. -1.
         -5    1    5    5    0  503 -0.79287188539E+02  0.50405940853E+02  0.14207446594E+03  0.17039501463E+03  0.47000000000E+01 0.  1.
         11    1    6    6    0    0  0.25956133692E+02  0.19599654268E+02  0.25918744600E+02  0.41589044775E+02  0.00000000000E+00 0. -1.
        -12    1    6    6    0    0 -0.43692460213E+01 -0.51466348676E+02  0.75096103911E+02  0.91144391926E+02  0.00000000000E+00 0.  1.
</event>
<event>
12    1  0.8798177E-003  0.1794082E+03  0.7818608E-02  0.1168987E+00
         21   -1    0    0  503  502  0.00000000000E+00  0.00000000000E+00  0.16045537852E+03  0.16045537852E+03  0.00000000000E+00 0.  1.
         21   -1    0    0  501  503 -0.00000000000E+00 -0.00000000000E+00 -0.20556655601E+03  0.20556655601E+03  0.00000000000E+00 0. -1.
          6    2    1    2  501    0  0.43920330679E+02  0.39283047753E+01 -0.57920137968E+02  0.18615709756E+03  0.17133387162E+03 0.  0.
         24    2    3    3    0    0  0.94465124538E+01  0.34260888021E+02  0.25349158974E+02  0.90950083305E+02  0.79789051548E+02 0.  0.
         -6    2    1    2    0  502 -0.43920330679E+02 -0.39283047753E+01  0.12808960477E+02  0.17986483698E+03  0.17390475292E+03 0.  0.
        -24    2    5    5    0    0 -0.34311460937E+02 -0.21130987313E+02 -0.57327713202E+02  0.10686137364E+03  0.80678940865E+02 0.  0.
          5    1    3    3  501    0  0.34473818226E+02 -0.30332583245E+02 -0.83269296943E+02  0.95207014252E+02  0.47000000000E+01 0. -1.
        -13    1    4    4    0    0  0.29099219818E+02  0.19438871556E+02  0.46705671296E+02  0.58361408932E+02  0.00000000000E+00 0.  1.
         14    1    4    4    0    0 -0.19652707364E+02  0.14822016465E+02 -0.21356512322E+02  0.32588674373E+02  0.00000000000E+00 0. -1.
         -5    1    5    5    0  502 -0.96088697427E+01  0.17202682538E+02  0.70136673679E+02  0.73003463336E+02  0.47000000000E+01 0.  1.
         11    1    6    6    0    0 -0.11181097917E+01 -0.42000651847E+02 -0.52672148640E+02  0.67377000285E+02  0.00000000000E+00 0. -1.
        -12    1    6    6    0    0 -0.33193351145E+02  0.20869664533E+02 -0.46555645618E+01  0.39484373356E+02  0.00000000000E+00 0.  1.
</event>
<event>
12    1  0.8798177E-003  0.1866989E+03  0.7818608E-02  0.1162957E+00
         21   -1    0    0  503  502  0.00000000000E+00  0.00000000000E+00  0.18825069982E+03  0.18825069982E+03  0.00000000000E+00 0.  1.
         21   -1    0    0  501  503 -0.00000000000E+00 -0.00000000000E+00 -0.28029201921E+03  0.28029201921E+03  0.00000000000E+00 0. -1.
          6    2    1    2  501    0  0.65757838919E+02 -0.40035609470E+01 -0.18636797665E+03  0.25936817675E+03  0.16792470489E+03 0.  0.
         24    2    3    3    0    0  0.65182337449E+02  0.56147555569E+02 -0.14236133193E+03  0.18468777236E+03  0.80259200840E+02 0.  0.
         -6    2    1    2    0  502 -0.65757838919E+02  0.40035609470E+01  0.94326657257E+02  0.20917454228E+03  0.17468929271E+03 0.  0.
        -24    2    5    5    0    0 -0.95992475210E+01 -0.35027934791E+02  0.10977919109E+03  0.13890281362E+03  0.76963751631E+02 0.  0.
          5    1    3    3  501    0  0.57550146939E+00 -0.60151116516E+02 -0.44006644715E+02  0.74680404385E+02  0.47000000000E+01 0. -1.
        -11    1    4    4    0    0 -0.16725381553E+02  0.11247260221E+02 -0.95111838194E+01  0.22286809288E+02  0.00000000000E+00 0.  1.
         12    1    4    4    0    0  0.81907719002E+02  0.44900295348E+02 -0.13285014811E+03  0.16240096308E+03  0.00000000000E+00 0. -1.
         -5    1    5    5    0  502 -0.56158591398E+02  0.39031495738E+02 -0.15452533833E+02  0.70271728662E+02  0.47000000000E+01 0.  1.
         13    1    6    6    0    0 -0.32110861284E+01 -0.22681701621E+02 -0.48651269890E+01  0.23418798499E+02  0.00000000000E+00 0. -1.
        -14    1    6    6    0    0 -0.63881613926E+01 -0.12346233170E+02  0.11464431808E+03  0.11548401512E+03  0.00000000000E+00 0.  1.
</event>
<event>
12    1  0.8798177E-003  0.2991882E+03  0.7818608E-02  0.1085703E+00
         21   -1    0    0  503  502  0.00000000000E+00  0.00000000000E+00  0.74970767896E+03  0.74970767896E+03  0.00000000000E+00 0.  1.
         21   -1    0    0  501  503 -0.00000000000E+00 -0.00000000000E+00 -0.12302038465E+03  0.12302038465E+03  0.00000000000E+00 0. -1.
          6    2    1    2  501    0  0.22526847124E+03 -0.96096311425E+02  0.23641298675E+03  0.38096834098E+03  0.17107130478E+03 0.  0.
         24    2    3    3    0    0  0.10963399852E+03  0.15745532419E+02  0.12491167306E+03  0.18517620051E+03  0.80123428186E+02 0.  0.
         -6    2    1    2    0  502 -0.22526847124E+03  0.96096311425E+02  0.39027430755E+03  0.49175972263E+03  0.17185227512E+03 0.  0.
        -24    2    5    5    0    0 -0.17849773156E+03  0.31981302553E+02  0.18328132386E+03  0.27002469664E+03  0.80231223583E+02 0.  0.
          5    1    3    3  501    0  0.11563447272E+03 -0.11184184384E+03  0.11150131369E+03  0.19579214047E+03  0.47000000000E+01 0. -1.
        -13    1    4    4    0    0  0.79814988411E+02 -0.12955059039E+02  0.38910434195E+02  0.89734540836E+02  0.00000000000E+00 0.  1.
         14    1    4    4    0    0  0.29819010108E+02  0.28700591458E+02  0.86001238869E+02  0.95441659671E+02  0.00000000000E+00 0. -1.
         -5    1    5    5    0  502 -0.46770739689E+02  0.64115008872E+02  0.20699298370E+03  0.22173502599E+03  0.47000000000E+01 0.  1.
         13    1    6    6    0    0 -0.98390676028E+02  0.48785439183E+02  0.13839386638E+03  0.17667372883E+03  0.00000000000E+00 0. -1.
        -14    1    6    6    0    0 -0.80107055527E+02 -0.16804136630E+02  0.44887457475E+02  0.93350967813E+02  0.00000000000E+00 0.  1.
</event>
<event>
12    1  0.8798177E-003  0.1748158E+03  0.7818608E-02  0.1173226E+00
         21   -1    0    0  503  502  0.00000000000E+00  0.00000000000E+00  0.26366173367E+03  0.26366173367E+03  0.00000000000E+00 0.  1.
         21   -1    0    0  501  503 -0.00000000000E+00 -0.00000000000E+00 -0.14070913578E+03  0.14070913578E+03  0.00000000000E+00 0.  1.
          6    2    1    2  501    0 -0.24830579765E+02 -0.24089493281E+02 -0.24960744193E+02  0.17537541651E+03  0.17010772054E+03 0.  0.
         24    2    3    3    0    0 -0.16997695901E+02  0.74721569686E+01 -0.78465415758E+02  0.11258742629E+03  0.78577046861E+02 0.  0.
         -6    2    1    2    0  502  0.24830579765E+02  0.24089493281E+02  0.14791334209E+03  0.22899545294E+03  0.17135839437E+03 0.  0.
        -24    2    5    5    0    0 -0.40704097280E+02 -0.24694054651E+02  0.68296698672E+02  0.11482221460E+03  0.79076431669E+02 0.  0.
          5    1    3    3  501    0 -0.78328838646E+01 -0.31561650250E+02  0.53504671565E+02  0.62787990217E+02  0.47000000000E+01 0. -1.
        -11    1    4    4    0    0  0.88864298644E+01  0.38150294229E+02 -0.28222284610E+02  0.48279508428E+02  0.00000000000E+00 0.  1.
         12    1    4    4    0    0 -0.25884125765E+02 -0.30678137261E+02 -0.50243131149E+02  0.64307917864E+02  0.00000000000E+00 0. -1.
         -5    1    5    5    0  502  0.65534677045E+02  0.48783547932E+02  0.79616643415E+02  0.11417323834E+03  0.47000000000E+01 0.  1.
         13    1    6    6    0    0 -0.39531545192E+02 -0.88033858805E+01 -0.40868987018E+01  0.40705594323E+02  0.00000000000E+00 0. -1.
        -14    1    6    6    0    0 -0.11725520888E+01 -0.15890668770E+02  0.72383597374E+02  0.74116620276E+02  0.00000000000E+00 0.  1.
</event>
<event>
12    1  0.8798177E-003  0.1807518E+03  0.7818608E-02  0.1167858E+00
         21   -1    0    0  503  502  0.00000000000E+00  0.00000000000E+00  0.96759730365E+02  0.96759730365E+02  0.00000000000E+00 0. -1.
         21   -1    0    0  501  503 -0.00000000000E+00 -0.00000000000E+00 -0.33560790282E+03  0.33560790282E+03  0.00000000000E+00 0. -1.
          6    2    1    2  501    0 -0.13090628375E+02 -0.48100117896E+02 -0.97081423762E+02  0.20517316806E+03  0.17374187797E+03 0.  0.
         24    2    3    3    0    0 -0.66966562472E+02  0.32843265082E+01 -0.42634522720E+02  0.11281770025E+03  0.80092594365E+02 0.  0.
         -6    2    1    2    0  502  0.13090628375E+02  0.48100117896E+02 -0.14176674870E+03  0.22719446513E+03  0.17039521136E+03 0.  0.
        -24    2    5    5    0    0  0.15070965552E+02  0.75052355428E+02 -0.16005492163E+03  0.19422641828E+03  0.79033749515E+02 0.  0.
          5    1    3    3  501    0  0.53875934097E+02 -0.51384444404E+02 -0.54446901042E+02  0.92355467811E+02  0.47000000000E+01 0. -1.
        -11    1    4    4    0    0 -0.34429300245E+02  0.19819632480E+01 -0.64814533561E+02  0.73418176594E+02  0.00000000000E+00 0.  1.
         12    1    4    4    0    0 -0.32537262227E+02  0.13023632602E+01  0.22180010842E+02  0.39399523655E+02  0.00000000000E+00 0. -1.
         -5    1    5    5    0  502 -0.19803371761E+01 -0.26952237531E+02  0.18288172937E+02  0.32968046843E+02  0.47000000000E+01 0.  1.
         11    1    6    6    0    0 -0.28238150285E+01 -0.44577197795E+01 -0.79364744571E+02  0.79539976601E+02  0.00000000000E+00 0. -1.
        -12    1    6    6    0    0  0.17894780580E+02  0.79510075207E+02 -0.80690177063E+02  0.11468644168E+03  0.00000000000E+00 0.  1.
</event>
<event>
12    1  0.8798177E-003  0.2808978E+03  0.7818608E-02  0.1095225E+00
         21   -1    0    0  501  502  0.00000000000E+00  0.00000000000E+00  0.70535267354E+02  0.70535267354E+02  0.00000000000E+00 0.  1.
         21   -1    0    0  502  503 -0.00000000000E+00 -0.00000000000E+00 -0.11295597281E+04  0.11295597281E+04  0.00000000000E+00 0. -1.
          6    2    1    2  501    0  0.13302245899E+03 -0.17732789793E+03 -0.59069549669E+03  0.65408313636E+03  0.17252078565E+03 0.  0.
         24    2    3    3    0    0  0.21355365782E+02 -0.59965198123E+02 -0.11909022888E+03  0.15540772927E+03  0.76923358404E+02 0.  0.
         -6    2    1    2    0  503 -0.13302245899E+03  0.17732789793E+03 -0.46832896404E+03  0.54601185908E+03  0.17221142156E+03 0.  0.
        -24    2    5    5    0    0 -0.49225590629E+02  0.98355463733E+02 -0.37219957149E+03  0.39594017413E+03  0.78352692722E+02 0.  0.
          5    1    3    3  501    0  0.11166709321E+03 -0.11736269980E+03 -0.47160526781E+03  0.49867540709E+03  0.47000000000E+01 0. -1.
        -13    1    4    4    0    0  0.39735484403E+01 -0.37811394139E+02 -0.12134217884E+03  0.12715901454E+03  0.00000000000E+00 0.  1.
         14    1    4    4    0    0  0.17381817342E+02 -0.22153803984E+02  0.22519499594E+01  0.28248714727E+02  0.00000000000E+00 0. -1.
         -5    1    5    5    0  503 -0.83796868363E+02  0.78972434193E+02 -0.96129392550E+02  0.15007168494E+03  0.47000000000E+01 0.  1.
         13    1    6    6    0    0  0.21220900547E+02  0.21509307042E+02 -0.99780073407E+02  0.10425468795E+03  0.00000000000E+00 0. -1.
        -14    1    6    6    0    0 -0.70446491176E+02  0.76846156690E+02 -0.27241949808E+03  0.29168548619E+03  0.00000000000E+00 0.  1.
</event>
<event>
12    1  0.8798177E-003  0.5476752E+03  0.7818608E-02  0.1002466E+00
         21   -1    0    0  501  502  0.00000000000E+00  0.00000000000E+00  0.14342835570E+04  0.14342835570E+04  0.00000000000E+00 0.  1.
         21   -1    0    0  502  503 -0.00000000000E+00 -0.00000000000E+00 -0.23871790046E+03  0.23871790046E+03  0.00000000000E+00 0. -1.
          6    2    1    2  501    0  0.42540083442E+03  0.28565192797E+03  0.90244002507E+03  0.10518165254E+04  0.17133916786E+03 0.  0.
         24    2    3    3    0    0  0.37944176467E+03  0.22985295817E+03  0.66362440000E+03  0.80225540285E+03  0.80049684470E+02 0.  0.
         -6    2    1    2    0  503 -0.42540083442E+03 -0.28565192797E+03  0.29312563143E+03  0.62118493199E+03  0.19335250205E+03 0.  0.
        -24    2    5    5    0    0 -0.22746862503E+03 -0.52623272605E+02  0.15634831744E+03  0.28620786209E+03  0.54396321227E+02 0.  0.
          5    1    3    3  501    0  0.45959069754E+02  0.55798969803E+02  0.23881562507E+03  0.24956112258E+03  0.47000000000E+01 0. -1.
        -13    1    4    4    0    0  0.24478468553E+03  0.10739682419E+03  0.42623913530E+03  0.50312366330E+03  0.00000000000E+00 0.  1.
         14    1    4    4    0    0  0.13465707914E+03  0.12245613397E+03  0.23738526470E+03  0.29913173955E+03  0.00000000000E+00 0. -1.
         -5    1    5    5    0  503 -0.19793220939E+03 -0.23302865536E+03  0.13677731399E+03  0.33497706990E+03  0.47000000000E+01 0.  1.
         13    1    6    6    0    0 -0.20763202280E+03 -0.56849024855E+02  0.12518659260E+03  0.24902721033E+03  0.00000000000E+00 0. -1.
        -14    1    6    6    0    0 -0.19836602234E+02  0.42257522503E+01  0.31161724844E+02  0.37180651763E+02  0.00000000000E+00 0.  1.
</event>
<event>
12    1  0.8798177E-003  0.1764529E+03  0.7818608E-02  0.1171767E+00
         21   -1    0    0  503  502  0.00000000000E+00  0.00000000000E+00  0.13109865982E+02  0.13109865982E+02  0.00000000000E+00 0.  1.
         21   -1    0    0  501  503 -0.00000000000E+00 -0.00000000000E+00 -0.23495129235E+04  0.23495129235E+04  0.00000000000E+00 0. -1.
          6    2    1    2  501    0 -0.17002882391E+02 -0.36294022011E+02 -0.11948450948E+04  0.12078039627E+04  0.17184079128E+03 0.  0.
         24    2    3    3    0    0 -0.60473454564E+01 -0.61612970498E+02 -0.11533719381E+04  0.11577721161E+04  0.79603496672E+02 0.  0.
         -6    2    1    2    0  502  0.17002882391E+02  0.36294022011E+02 -0.11415579626E+04  0.11548188268E+04  0.16983988503E+03 0.  0.
        -24    2    5    5    0    0 -0.40304893025E+00  0.64531644136E+02 -0.10787487777E+04  0.10836330595E+04  0.79982415097E+02 0.  0.
          5    1    3    3  501    0 -0.10955536934E+02  0.25318948487E+02 -0.41473156701E+02  0.50031846545E+02  0.47000000000E+01 0. -1.
        -13    1    4    4    0    0 -0.38754762292E+02 -0.12112318808E+02 -0.39432210486E+03  0.39640706634E+03  0.00000000000E+00 0.  1.
         14    1    4    4    0    0  0.32707416836E+02 -0.49500651690E+02 -0.75904983327E+03  0.76136504978E+03  0.00000000000E+00 0. -1.
         -5    1    5    5    0  502  0.17405931321E+02 -0.28237622125E+02 -0.62809184988E+02  0.71185767308E+02  0.47000000000E+01 0.  1.
         11    1    6    6    0    0  0.84553058435E+01 -0.10245855478E+02 -0.47784901181E+03  0.47803362627E+03  0.00000000000E+00 0. -1.
        -12    1    6    6    0    0 -0.88583547737E+01  0.74777499614E+02 -0.60089976585E+03  0.60559943320E+03  0.00000000000E+00 0.  1.
</event>
<event>
12    1  0.8798177E-003  0.2117791E+03  0.7818608E-02  0.1140378E+00
         21   -1    0    0  503  502  0.00000000000E+00  0.00000000000E+00  0.32761381970E+03  0.32761381970E+03  0.00000000000E+00 0. -1.
         21   -1    0    0  501  503 -0.00000000000E+00 -0.00000000000E+00 -0.13852580651E+03  0.13852580651E+03  0.00000000000E+00 0. -1.
          6    2    1    2  501    0 -0.11612414341E+03  0.41738025646E+02  0.64573659034E+02  0.22140489739E+03  0.17211476311E+03 0.  0.
         24    2    3    3    0    0 -0.10890379820E+03 -0.26521650461E+02  0.21489779007E+02  0.14022714499E+03  0.81476416126E+02 0.  0.
         -6    2    1    2    0  502  0.11612414341E+03 -0.41738025646E+02  0.12451435416E+03  0.24473472882E+03  0.17077582859E+03 0.  0.
        -24    2    5    5    0    0  0.14670831823E+03 -0.52325402369E+02  0.12027956212E+03  0.21175734628E+03  0.78183900324E+02 0.  0.
          5    1    3    3  501    0 -0.72203452098E+01  0.68259676107E+02  0.43083880026E+02  0.81177752403E+02  0.47000000000E+01 0. -1.
        -11    1    4    4    0    0 -0.29518176525E+02 -0.30266739885E+02  0.40462237281E+02  0.58520004565E+02  0.00000000000E+00 0.  1.
         12    1    4    4    0    0 -0.79385621672E+02  0.37450894237E+01 -0.18972458273E+02  0.81707140422E+02  0.00000000000E+00 0. -1.
         -5    1    5    5    0  502 -0.30584174822E+02  0.10587376723E+02  0.42347920419E+01  0.32977382538E+02  0.47000000000E+01 0.  1.
         11    1    6    6    0    0  0.11525507631E+03 -0.39050475111E+02  0.46156995459E+02  0.13015045313E+03  0.00000000000E+00 0. -1.
        -12    1    6    6    0    0  0.31453241921E+02 -0.13274927258E+02  0.74122566658E+02  0.81606893147E+02  0.00000000000E+00 0.  1.
</event>
<event>
12    1  0.8798177E-003  0.2164337E+03  0.7818608E-02  0.1136725E+00
         21   -1    0    0  501  502  0.00000000000E+00  0.00000000000E+00  0.16213312662E+03  0.16213312662E+03  0.00000000000E+00 0.  1.
         21   -1    0    0  502  503 -0.00000000000E+00 -0.00000000000E+00 -0.28789488523E+03  0.28789488523E+03  0.00000000000E+00 0.  1.
          6    2    1    2  501    0  0.12163489721E+02 -0.13161708379E+03 -0.65907256999E+02  0.22547040967E+03  0.17035883271E+03 0.  0.
         24    2    3    3    0    0  0.27936228541E+02 -0.97029843539E+02  0.23567144230E+02  0.12814202248E+03  0.75297704051E+02 0.  0.
         -6    2    1    2    0  503 -0.12163489721E+02  0.13161708379E+03 -0.59854501607E+02  0.22455760218E+03  0.17138421195E+03 0.  0.
        -24    2    5    5    0    0  0.33037976035E+02  0.14658503717E+03 -0.49849789200E+02  0.17567614961E+03  0.76147403592E+02 0.  0.
          5    1    3    3  501    0 -0.15772738820E+02 -0.34587240254E+02 -0.89474401229E+02  0.97328387193E+02  0.47000000000E+01 0. -1.
        -13    1    4    4    0    0  0.36153693809E+02 -0.74564776239E+02 -0.13566608714E+02  0.83970520444E+02  0.00000000000E+00 0.  1.
         14    1    4    4    0    0 -0.82174652685E+01 -0.22465067301E+02  0.37133752944E+02  0.44171502035E+02  0.00000000000E+00 0. -1.
         -5    1    5    5    0  503 -0.45201465756E+02 -0.14967953381E+02 -0.10004712408E+02  0.48881452569E+02  0.47000000000E+01 0.  1.
         13    1    6    6    0    0 -0.11187411684E+02 -0.32841068157E+01 -0.71943141000E+01  0.13700426750E+02  0.00000000000E+00 0. -1.
        -14    1    6    6    0    0  0.44225387720E+02  0.14986914399E+03 -0.42655475100E+02  0.16197572286E+03  0.00000000000E+00 0.  1.
</event>
<event>
12    1  0.8798177E-003  0.1879398E+03  0.7818608E-02  0.1160426E+00
         21   -1    0    0  501  502  0.00000000000E+00  0.00000000000E+00  0.29768081908E+02  0.29768081908E+02  0.00000000000E+00 0.  1.
         21   -1    0    0  502  503 -0.00000000000E+00 -0.00000000000E+00 -0.11964812455E+04  0.11964812455E+04  0.00000000000E+00 0. -1.
          6    2    1    2  501    0 -0.70684686028E+02 -0.28565942857E+02 -0.52009547804E+03  0.55287289925E+03  0.17133825761E+03 0.  0.
         24    2    3    3    0    0  0.14833672387E+02 -0.12757704331E+02 -0.14853636405E+03  0.17124277043E+03  0.82935144088E+02 0.  0.
         -6    2    1    2    0  503  0.70684686028E+02  0.28565942857E+02 -0.64661768552E+03  0.67337642812E+03  0.17178196877E+03 0.  0.
        -24    2    5    5    0    0  0.58221877640E+02 -0.34747048599E+02 -0.52734751949E+03  0.53768811255E+03  0.80099660647E+02 0.  0.
          5    1    3    3  501    0 -0.85518358415E+02 -0.15808238526E+02 -0.37155911399E+03  0.38163012882E+03  0.47000000000E+01 0. -1.
        -11    1    4    4    0    0 -0.16795171027E+02  0.19433977892E+02 -0.13818787962E+02  0.29167039055E+02  0.00000000000E+00 0.  1.
         12    1    4    4    0    0  0.31628843413E+02 -0.32191682223E+02 -0.13471757609E+03  0.14207573138E+03  0.00000000000E+00 0. -1.
         -5    1    5    5    0  503  0.12462808388E+02  0.63312991455E+02 -0.11927016602E+03  0.13568831557E+03  0.47000000000E+01 0.  1.
         13    1    6    6    0    0  0.40028528325E+02 -0.82143843289E+01 -0.47126629071E+03  0.47303453991E+03  0.00000000000E+00 0. -1.
        -14    1    6    6    0    0  0.18193349315E+02 -0.26532664270E+02 -0.56081228780E+02  0.64653572632E+02  0.00000000000E+00 0.  1.
</event>
<event>
12    1  0.8798177E-003  0.1876442E+03  0.7818608E-02  0.1160785E+00
         21   -1    0    0  501  502  0.00000000000E+00  0.00000000000E+00  0.59304964215E+02  0.59304964215E+02  0.00000000000E+00 0.  1.
         21   -1    0    0  502  503 -0.00000000000E+00 -0.00000000000E+00 -0.59460710762E+03  0.59460710762E+03  0.00000000000E+00 0. -1.
          6    2    1    2  501    0  0.22975120517E+02 -0.69319825168E+02 -0.29292194058E+03  0.34787008697E+03  0.17285033935E+03 0.  0.
         24    2    3    3    0    0  0.62382906664E+01 -0.43489211602E+01 -0.47816172017E+02  0.93704259955E+02  0.80226383701E+02 0.  0.
         -6    2    1    2    0  503 -0.22975120517E+02  0.69319825168E+02 -0.24238020283E+03  0.30604198486E+03  0.17198964926E+03 0.  0.
        -24    2    5    5    0    0  0.33119695441E+02 -0.27060064229E+01 -0.16269729842E+03  0.18477449520E+03  0.81036821678E+02 0.  0.
          5    1    3    3  501    0  0.16736829851E+02 -0.64970904008E+02 -0.24510576856E+03  0.25416582702E+03  0.47000000000E+01 0. -1.
        -13    1    4    4    0    0 -0.13689725586E+01 -0.42076593610E+02 -0.25070749834E+02  0.48998533784E+02  0.00000000000E+00 0.  1.
         14    1    4    4    0    0  0.76072632250E+01  0.37727672450E+02 -0.22745422183E+02  0.44705726172E+02  0.00000000000E+00 0. -1.
         -5    1    5    5    0  503 -0.56094815959E+02  0.72025831591E+02 -0.79682904411E+02  0.12126748966E+03  0.47000000000E+01 0.  1.
         13    1    6    6    0    0  0.43256149601E+02  0.21354960506E+02 -0.14604789322E+03  0.15380869914E+03  0.00000000000E+00 0. -1.
        -14    1    6    6    0    0 -0.10136454160E+02 -0.24060966929E+02 -0.16649405200E+02  0.30965796066E+02  0.00000000000E+00 0.  1.
</event>
<event>
12    1  0.8798177E-003  0.1731238E+03  0.7818608E-02  0.1174856E+00
         21   -1    0    0  503  502  0.00000000000E+00  0.00000000000E+00  0.23200283170E+03  0.23200283170E+03  0.00000000000E+00 0. -1.
         21   -1    0    0  501  503 -0.00000000000E+00 -0.00000000000E+00 -0.13337547524E+03  0.13337547524E+03  0.00000000000E+00 0. -1.
          6    2    1    2  501    0  0.10071843218E+02 -0.16292400092E+02  0.14344913456E+02  0.17282862116E+03  0.17116387301E+03 0.  0.
         24    2    3    3    0    0  0.34068467427E+02 -0.42404988196E+02 -0.42993200136E+02  0.10524567582E+03  0.79179501918E+02 0.  0.
         -6    2    1    2    0  502 -0.10071843218E+02  0.16292400092E+02  0.84282443000E+02  0.19254968578E+03  0.17206093970E+03 0.  0.
        -24    2    5    5    0    0 -0.72591456228E+01  0.73836311027E+02  0.28917330870E+02  0.11250845519E+03  0.79482353034E+02 0.  0.
          5    1    3    3  501    0 -0.23996624209E+02  0.26112588103E+02  0.57338113592E+02  0.67582945342E+02  0.47000000000E+01 0. -1.
        -11    1    4    4    0    0  0.17226973881E+01  0.21900807434E+02 -0.11800801367E+01  0.22000128220E+02  0.00000000000E+00 0.  1.
         12    1    4    4    0    0  0.32345770039E+02 -0.64305795630E+02 -0.41813119999E+02  0.83245547599E+02  0.00000000000E+00 0. -1.
         -5    1    5    5    0  502 -0.28126975949E+01 -0.57543910935E+02  0.55365112130E+02  0.80041230592E+02  0.47000000000E+01 0.  1.
         11    1    6    6    0    0 -0.43010419843E+02  0.46197865571E+02  0.11962971735E+02  0.64243689894E+02  0.00000000000E+00 0. -1.
        -12    1    6    6    0    0  0.35751274220E+02  0.27638445456E+02  0.16954359135E+02  0.48264765298E+02  0.00000000000E+00 0.  1.
</event>
<event>
12    1  0.8798177E-003  0.2759807E+03  0.7818608E-02  0.1097908E+00
         21   -1    0    0  501  502  0.00000000000E+00  0.00000000000E+00  0.62876712082E+03  0.62876712082E+03  0.00000000000E+00 0. -1.
         21   -1    0    0  502  503 -0.00000000000E+00 -0.00000000000E+00 -0.23964194052E+03  0.23964194052E+03  0.00000000000E+00 0.  1.
          6    2    1    2  501    0 -0.21405180087E+03 -0.16214799684E+02  0.49991993143E+03  0.57103876460E+03  0.17344808922E+03 0.  0.
         24    2    3    3    0    0 -0.19919139826E+03 -0.40828056165E+02  0.32207956623E+03  0.39082797288E+03  0.87562058512E+02 0.  0.
         -6    2    1    2    0  503  0.21405180087E+03  0.16214799684E+02 -0.11079475113E+03  0.29737029674E+03  0.17341431118E+03 0.  0.
        -24    2    5    5    0    0  0.13371761945E+03 -0.57588066081E+02 -0.78155800758E+02  0.18340611473E+03  0.79578179308E+02 0.  0.
          5    1    3    3  501    0 -0.14860402613E+02  0.24613256481E+02  0.17784036520E+03  0.18021079172E+03  0.47000000000E+01 0. -1.
        -11    1    4    4    0    0 -0.18460024445E+03 -0.77283163518E+01  0.27813610809E+03  0.33391117344E+03  0.00000000000E+00 0.  1.
         12    1    4    4    0    0 -0.14591153814E+02 -0.33099739813E+02  0.43943458142E+02  0.56916799442E+02  0.00000000000E+00 0. -1.
         -5    1    5    5    0  503  0.80334181427E+02  0.73802865765E+02 -0.32638950369E+02  0.11396418201E+03  0.47000000000E+01 0.  1.
         13    1    6    6    0    0 -0.22287588628E+01 -0.22206814045E+02  0.66559054845E+00  0.22328299686E+02  0.00000000000E+00 0. -1.
        -14    1    6    6    0    0  0.13594637831E+03 -0.35381252036E+02 -0.78821391306E+02  0.16107781504E+03  0.00000000000E+00 0.  1.
</event>
<event>
12    1  0.8798177E-003  0.1804060E+03  0.7818608E-02  0.1168138E+00
         21   -1    0    0  503  502  0.00000000000E+00  0.00000000000E+00  0.60776697194E+02  0.60776697194E+02  0.00000000000E+00 0.  1.
         21   -1    0    0  501  503 -0.00000000000E+00 -0.00000000000E+00 -0.11564745825E+04  0.11564745825E+04  0.00000000000E+00 0.  1.
          6    2    1    2  501    0 -0.36673573490E+02  0.20445935066E+02 -0.99906543780E+03  0.10152231603E+04  0.17545178519E+03 0.  0.
         24    2    3    3    0    0  0.16091764168E+02  0.32295772543E+02 -0.88191548068E+03  0.88610770049E+03  0.78166361063E+02 0.  0.
         -6    2    1    2    0  502  0.36673573490E+02 -0.20445935066E+02 -0.96632447540E+02  0.20202811944E+03  0.17237907029E+03 0.  0.
        -24    2    5    5    0    0  0.45792814483E+02 -0.38856082253E+02  0.60023501187E+01  0.97251758717E+02  0.76256798912E+02 0.  0.
          5    1    3    3  501    0 -0.52765337658E+02 -0.11849837478E+02 -0.11714995712E+03  0.12911545981E+03  0.47000000000E+01 0. -1.
        -11    1    4    4    0    0  0.47195059508E+02  0.12328227474E+02 -0.46154135436E+03  0.46411181909E+03  0.00000000000E+00 0.  1.
         12    1    4    4    0    0 -0.31103295340E+02  0.19967545069E+02 -0.42037412632E+03  0.42199588140E+03  0.00000000000E+00 0. -1.
         -5    1    5    5    0  502 -0.91192409930E+01  0.18410147187E+02 -0.10263479766E+03  0.10477636072E+03  0.47000000000E+01 0.  1.
         13    1    6    6    0    0 -0.19064646686E+02 -0.51342033820E+01 -0.10426793880E+02  0.22327983076E+02  0.00000000000E+00 0. -1.
        -14    1    6    6    0    0  0.64857461169E+02 -0.33721878871E+02  0.16429143998E+02  0.74923775641E+02  0.00000000000E+00 0.  1.
</event>
<event>
12    1  0.8798177E-003  0.1771338E+03  0.7818608E-02  0.1171169E+00
         21   -1    0    0  501  502  0.00000000000E+00  0.00000000000E+00  0.30791518837E+03  0.30791518837E+03  0.00000000000E+00 0. -1.
         21   -1    0    0  502  503 -0.00000000000E+00 -0.00000000000E+00 -0.10312451623E+03  0.10312451623E+03  0.00000000000E+00 0. -1.
          6    2    1    2  501    0 -0.29185613323E+02  0.15145146007E+02  0.69612325090E+02  0.18821787474E+03  0.17175248788E+03 0.  0.
         24    2    3    3    0    0  0.86363700554E+01  0.51425293889E+02 -0.51027638645E+01  0.96833050644E+02  0.81433738454E+02 0.  0.
         -6    2    1    2    0  503  0.29185613323E+02 -0.15145146007E+02  0.13517834704E+03  0.22282182986E+03  0.17405518343E+03 0.  0.
        -24    2    5    5    0    0  0.74183606731E+02  0.28408557330E+02  0.74989696908E+02  0.13583615236E+03  0.80732595695E+02 0.  0.
          5    1    3    3  501    0 -0.37821983378E+02 -0.36280147882E+02  0.74715088955E+02  0.91384824093E+02  0.47000000000E+01 0. -1.
        -13    1    4    4    0    0  0.44505046272E+02  0.19332852068E+02 -0.40525685572E+01  0.48691699751E+02  0.00000000000E+00 0.  1.
         14    1    4    4    0    0 -0.35868676217E+02  0.32092441821E+02 -0.10501953073E+01  0.48141350892E+02  0.00000000000E+00 0. -1.
         -5    1    5    5    0  503 -0.44997993408E+02 -0.43553703337E+02  0.60188650136E+02  0.86985677502E+02  0.47000000000E+01 0.  1.
         11    1    6    6    0    0  0.21846163159E+02 -0.72461043906E+01 -0.13754537989E+02  0.26813209224E+02  0.00000000000E+00 0. -1.
        -12    1    6    6    0    0  0.52337443572E+02  0.35654661721E+02  0.88744234897E+02  0.10902294313E+03  0.00000000000E+00 0.  1.
</event>
<event>
12    1  0.8798177E-003  0.1899789E+03  0.7818608E-02  0.1158494E+00
         21   -1    0    0  503  502  0.00000000000E+00  0.00000000000E+00  0.59625893052E+03  0.59625893052E+03  0.00000000000E+00 0.  1.
         21   -1    0    0  501  503 -0.00000000000E+00 -0.00000000000E+00 -0.60931004255E+02  0.60931004255E+02  0.00000000000E+00 0. -1.
          6    2    1    2  501    0  0.77465449341E+02  0.20896319438E+02  0.29487844600E+03  0.35074591951E+03  0.17213904303E+03 0.  0.
         24    2    3    3    0    0 -0.57529432066E+01  0.91232083833E+01  0.22041520314E+03  0.23835921417E+03  0.90088422763E+02 0.  0.
         -6    2    1    2    0  502 -0.77465449341E+02 -0.20896319438E+02  0.24044948027E+03  0.30644401526E+03  0.17220461643E+03 0.  0.
        -24    2    5    5    0    0 -0.59873379921E+02  0.18891432227E+02  0.49180369281E+02  0.11023364625E+03  0.76098884409E+02 0.  0.
          5    1    3    3  501    0  0.83218392548E+02  0.11773111055E+02  0.74463242856E+02  0.11238670535E+03  0.47000000000E+01 0. -1.
        -11    1    4    4    0    0 -0.10352295916E+02 -0.21795084728E+02  0.10816134857E+02  0.26442097540E+02  0.00000000000E+00 0.  1.
         12    1    4    4    0    0  0.45993527090E+01  0.30918293112E+02  0.20959906828E+03  0.21191711663E+03  0.00000000000E+00 0. -1.
         -5    1    5    5    0  502 -0.17592069421E+02 -0.39787751665E+02  0.19126911099E+03  0.19621036901E+03  0.47000000000E+01 0.  1.
         11    1    6    6    0    0 -0.23586671034E+02  0.45259573724E+02  0.13161533149E+02  0.52706603182E+02  0.00000000000E+00 0. -1.
        -12    1    6    6    0    0 -0.36286708887E+02 -0.26368141498E+02  0.36018836132E+02  0.57527043068E+02  0.00000000000E+00 0.  1.
</event>
<event>
12    1  0.8798177E-003  0.1947573E+03  0.7818608E-02  0.1154455E+00
         21   -1    0    0  501  502  0.00000000000E+00  0.00000000000E+00  0.29742605982E+03  0.29742605982E+03  0.00000000000E+00 0. -1.
         21   -1    0    0  502  503 -0.00000000000E+00 -0.00000000000E+00 -0.12791107535E+03  0.12791107535E+03  0.00000000000E+00 0. -1.
          6    2    1    2  501    0  0.17065739239E+02 -0.88155316699E+02  0.65917988338E+02  0.20561030406E+03  0.17282307899E+03 0.  0.
         24    2    3    3    0    0  0.22830043067E+02 -0.10537916280E+03  0.97266324047E+02  0.16907680950E+03  0.86603988942E+02 0.  0.
         -6    2    1    2    0  503 -0.17065739239E+02  0.88155316699E+02  0.10359699613E+03  0.21972683111E+03  0.17171180328E+03 0.  0.
        -24    2    5    5    0    0  0.26573357934E+02  0.96966642324E+02  0.11834267667E+03  0.17259366491E+03  0.75332004966E+02 0.  0.
          5    1    3    3  501    0 -0.57643038274E+01  0.17223846096E+02 -0.31348335709E+02  0.36533494559E+02  0.47000000000E+01 0. -1.
        -11    1    4    4    0    0  0.14451267935E+02 -0.22228362191E+02  0.79273942462E+02  0.83590054338E+02  0.00000000000E+00 0.  1.
         12    1    4    4    0    0  0.83787751314E+01 -0.83150800604E+02  0.17992381585E+02  0.85486755167E+02  0.00000000000E+00 0. -1.
         -5    1    5    5    0  503 -0.43639097173E+02 -0.88113256249E+01 -0.14745680536E+02  0.47133166198E+02  0.47000000000E+01 0.  1.
         13    1    6    6    0    0 -0.10098077439E+02 -0.28869197420E+01  0.37619477089E+02  0.39058040529E+02  0.00000000000E+00 0. -1.
        -14    1    6    6    0    0  0.36671435372E+02  0.99853562066E+02  0.80723199578E+02  0.13353562438E+03  0.00000000000E+00 0.  1.
</event>
<event>
12    1  0.8798177E-003  0.2159337E+03  0.7818608E-02  0.1139680E+00
         21   -1    0    0  501  502  0.00000000000E+00  0.00000000000E+00  0.93685410529E+03  0.93685410529E+03  0.00000000000E+00 0.  1.
         21   -1    0    0  502  503 -0.00000000000E+00 -0.00000000000E+00 -0.67270504706E+02  0.67270504706E+02  0.00000000000E+00 0.  1.
          6    2    1    2  501    0 -0.43290417952E+02  0.97967023579E+02  0.72265935694E+03  0.75423068763E+03  0.18749876267E+03 0.  0.
         24    2    3    3    0    0 -0.64552631029E+02  0.13448410098E+03  0.63047913520E+03  0.65271782182E+03  0.79269157987E+02 0.  0.
         -6    2    1    2    0  503  0.43290417952E+02 -0.97967023579E+02  0.14692424364E+03  0.24989392236E+03  0.17143115547E+03 0.  0.
        -24    2    5    5    0    0  0.76305939738E+02 -0.57945041989E+02  0.40900928931E+02  0.13176341423E+03  0.80675194520E+02 0.  0.
          5    1    3    3  501    0  0.21262213078E+02 -0.36517077396E+02  0.92180221742E+02  0.10151286582E+03  0.47000000000E+01 0. -1.
        -13    1    4    4    0    0 -0.36586094106E+02  0.77173620200E+02  0.50276909039E+03  0.50997163469E+03  0.00000000000E+00 0.  1.
         14    1    4    4    0    0 -0.27966536923E+02  0.57310480775E+02  0.12771004481E+03  0.14274618713E+03  0.00000000000E+00 0. -1.
         -5    1    5    5    0  503 -0.33015521787E+02 -0.40021981590E+02  0.10602331471E+03  0.11813050813E+03  0.47000000000E+01 0.  1.
         11    1    6    6    0    0  0.58069212550E+02 -0.45069263240E+02  0.65563343727E+02  0.98497837417E+02  0.00000000000E+00 0. -1.
        -12    1    6    6    0    0  0.18236727189E+02 -0.12875778749E+02 -0.24662414796E+02  0.33265576810E+02  0.00000000000E+00 0.  1.
</event>
<event>
12    1  0.8798177E-003  0.2263650E+03  0.7818608E-02  0.1129270E+00
         21   -1    0    0  501  502  0.00000000000E+00  0.00000000000E+00  0.21349003732E+03  0.21349003732E+03  0.00000000000E+00 0.  1.
         21   -1    0    0  502  503 -0.00000000000E+00 -0.00000000000E+00 -0.28881786516E+03  0.28881786516E+03  0.00000000000E+00 0. -1.
          6    2    1    2  501    0 -0.12162846287E+03  0.83407491354E+02  0.65842479347E+02  0.23574639681E+03  0.17172896940E+03 0.  0.
         24    2    3    3    0    0 -0.61614481409E+02  0.11018417475E+02  0.92834886175E+02  0.13780490400E+03  0.80337572988E+02 0.  0.
         -6    2    1    2    0  503  0.12162846287E+03 -0.83407491354E+02 -0.14117030718E+03  0.26656150567E+03  0.17139337234E+03 0.  0.
        -24    2    5    5    0    0  0.60979814929E+02 -0.96275777849E+02 -0.34522769234E+02  0.14311257435E+03  0.79384029325E+02 0.  0.
          5    1    3    3  501    0 -0.60013981458E+02  0.72389073880E+02 -0.26992406828E+02  0.97941492810E+02  0.47000000000E+01 0. -1.
        -11    1    4    4    0    0 -0.69917499233E+02  0.29040476040E+02  0.90241169657E+02  0.11779335571E+03  0.00000000000E+00 0.  1.
         12    1    4    4    0    0  0.83030178235E+01 -0.18022058565E+02  0.25937165180E+01  0.20011548298E+02  0.00000000000E+00 0. -1.
         -5    1    5    5    0  503  0.60648647938E+02  0.12868286494E+02 -0.10664753795E+03  0.12344893132E+03  0.47000000000E+01 0.  1.
         11    1    6    6    0    0  0.44951500498E+02 -0.28215250490E+02 -0.48397858643E+02  0.71826808912E+02  0.00000000000E+00 0. -1.
        -12    1    6    6    0    0  0.16028314432E+02 -0.68060527359E+02  0.13875089408E+02  0.71285765437E+02  0.00000000000E+00 0.  1.
</event>
<event>
12    1  0.8798177E-003  0.2079998E+03  0.7818608E-02  0.1143480E+00
         21   -1    0    0  503  502  0.00000000000E+00  0.00000000000E+00  0.33408188974E+02  0.33408188974E+02  0.00000000000E+00 0.  1.
         21   -1    0    0  501  503 -0.00000000000E+00 -0.00000000000E+00 -0.15688981189E+04  0.15688981189E+04  0.00000000000E+00 0.  1.
          6    2    1    2  501    0 -0.10702362290E+03  0.45269998157E+02 -0.11060523963E+04  0.11251475298E+04  0.17059200461E+03 0.  0.
         24    2    3    3    0    0 -0.85687526553E+02  0.87932168062E+02 -0.96758167093E+03  0.97861588984E+03  0.80002197053E+02 0.  0.
         -6    2    1    2    0  502  0.10702362290E+03 -0.45269998157E+02 -0.42943753368E+03  0.47715877805E+03  0.17251224752E+03 0.  0.
        -24    2    5    5    0    0  0.11583727008E+03 -0.88341100862E+01 -0.27446552591E+03  0.31764806522E+03  0.10987562870E+03 0.  0.
          5    1    3    3  501    0 -0.21336096347E+02 -0.42662169906E+02 -0.13847072533E+03  0.14653164000E+03  0.47000000000E+01 0. -1.
        -11    1    4    4    0    0 -0.34608485351E+02  0.68167928900E+02 -0.33244359562E+03  0.34112073824E+03  0.00000000000E+00 0.  1.
         12    1    4    4    0    0 -0.51079041203E+02  0.19764239162E+02 -0.63513807532E+03  0.63749515160E+03  0.00000000000E+00 0. -1.
         -5    1    5    5    0  502 -0.88136471764E+01 -0.36435888070E+02 -0.15497200777E+03  0.15951071283E+03  0.47000000000E+01 0.  1.
         11    1    6    6    0    0  0.19683899755E+02 -0.49279398750E+02 -0.67317536016E+02  0.85717942731E+02  0.00000000000E+00 0. -1.
        -12    1    6    6    0    0  0.96153370322E+02  0.40445288664E+02 -0.20714798990E+03  0.23193012249E+03  0.00000000000E+00 0.  1.
</event>
<event>
12    1  0.8798177E-003  0.1740456E+03  0.7818608E-02  0.1173954E+00
         21   -1    0    0  501  502  0.00000000000E+00  0.00000000000E+00  0.57260025992E+03  0.57260025992E+03  0.00000000000E+00 0. -1.
         21   -1    0    0  502  503 -0.00000000000E+00 -0.00000000000E+00 -0.56016592222E+02  0.56016592222E+02  0.00000000000E+00 0. -1.
          6    2    1    2  501    0 -0.20760123476E+02 -0.14360895755E+02  0.18127693622E+03  0.25130301451E+03  0.17220528285E+03 0.  0.
         24    2    3    3    0    0 -0.11359602485E+01  0.58043400612E+02  0.99182499076E+02  0.13999678591E+03  0.79947515174E+02 0.  0.
         -6    2    1    2    0  503  0.20760123476E+02  0.14360895755E+02  0.33530673148E+03  0.37731383763E+03  0.17116632216E+03 0.  0.
        -24    2    5    5    0    0 -0.14410727510E+02 -0.23783607425E+02  0.30636166524E+03  0.31771602944E+03  0.79452352911E+02 0.  0.
          5    1    3    3  501    0 -0.19624163228E+02 -0.72404296367E+02  0.82094437144E+02  0.11130622860E+03  0.47000000000E+01 0. -1.
        -11    1    4    4    0    0 -0.28938511434E+02  0.40127111323E+02  0.94398638608E+02  0.10657732159E+03  0.00000000000E+00 0.  1.
         12    1    4    4    0    0  0.27802551186E+02  0.17916289288E+02  0.47838604681E+01  0.33419464318E+02  0.00000000000E+00 0. -1.
         -5    1    5    5    0  503  0.35170850986E+02  0.38144503180E+02  0.28945066236E+02  0.59597808193E+02  0.47000000000E+01 0.  1.
         13    1    6    6    0    0  0.14305687132E+02  0.18623263221E+02  0.17755069049E+03  0.17909697460E+03  0.00000000000E+00 0. -1.
        -14    1    6    6    0    0 -0.28716414642E+02 -0.42406870646E+02  0.12881097475E+03  0.13861905484E+03  0.00000000000E+00 0.  1.
</event>
<event>
12    1  0.8798177E-003  0.3410847E+03  0.7818608E-02  0.1066498E+00
         21   -1    0    0  503  502  0.00000000000E+00  0.00000000000E+00  0.13233790866E+04  0.13233790866E+04  0.00000000000E+00 0.  1.
         21   -1    0    0  501  503 -0.00000000000E+00 -0.00000000000E+00 -0.89420625496E+02  0.89420625496E+02  0.00000000000E+00 0.  1.
          6    2    1    2  501    0  0.13231546316E+03  0.26119077461E+03  0.71875618147E+03  0.79492255416E+03  0.17194015289E+03 0.  0.
         24    2    3    3    0    0  0.83822568443E+02  0.63022704619E+02  0.22753304876E+03  0.26299737059E+03  0.79989026640E+02 0.  0.
         -6    2    1    2    0  502 -0.13231546316E+03 -0.26119077461E+03  0.51520227966E+03  0.61787715797E+03  0.17495939768E+03 0.  0.
        -24    2    5    5    0    0 -0.55117849285E+02 -0.23422690173E+03  0.33695040810E+03  0.42170799183E+03  0.80011461970E+02 0.  0.
          5    1    3    3  501    0  0.48492894718E+02  0.19816806999E+03  0.49122313271E+03  0.53192518357E+03  0.47000000000E+01 0. -1.
        -13    1    4    4    0    0  0.41237990094E+02  0.70648184151E+02  0.10534396491E+03  0.13337574252E+03  0.00000000000E+00 0.  1.
         14    1    4    4    0    0  0.42584578349E+02 -0.76254795314E+01  0.12218908385E+03  0.12962162807E+03  0.00000000000E+00 0. -1.
         -5    1    5    5    0  502 -0.77197613877E+02 -0.26963872878E+02  0.17825187156E+03  0.19616916614E+03  0.47000000000E+01 0.  1.
         13    1    6    6    0    0  0.19873331706E+02 -0.29895762696E+02  0.45780982549E+02  0.58177352152E+02  0.00000000000E+00 0. -1.
        -14    1    6    6    0    0 -0.74991180991E+02 -0.20433113904E+03  0.29116942555E+03  0.36353063967E+03  0.00000000000E+00 0.  1.
</event>
<event>
12    1  0.8798177E-003  0.1896914E+03  0.7818608E-02  0.1158840E+00
         21   -1    0    0  501  502  0.00000000000E+00  0.00000000000E+00  0.42468633684E+03  0.42468633684E+03  0.00000000000E+00 0.  1.
         21   -1    0    0  502  503 -0.00000000000E+00 -0.00000000000E+00 -0.90704677648E+02  0.90704677648E+02  0.00000000000E+00 0.  1.
          6    2    1    2  501    0 -0.97651254994E+01  0.78856218430E+02  0.99580822104E+02  0.21385066005E+03  0.17176176470E+03 0.  0.
         24    2    3    3    0    0 -0.53262230795E+02  0.88465966571E+02  0.35060938210E+02  0.13530608134E+03  0.80096028538E+02 0.  0.
         -6    2    1    2    0  503  0.97651254994E+01 -0.78856218430E+02  0.23440083709E+03  0.30154035444E+03  0.17224741526E+03 0.  0.
        -24    2    5    5    0    0 -0.29616862862E+02 -0.96437580033E+02  0.10957262797E+03  0.16938810483E+03  0.80677158170E+02 0.  0.
          5    1    3    3  501    0  0.43497105295E+02 -0.96097481410E+01  0.64519883894E+02  0.78544578719E+02  0.47000000000E+01 0. -1.
        -13    1    4    4    0    0 -0.18341404077E+02  0.86069203686E+02  0.33353374816E+01  0.88064972621E+02  0.00000000000E+00 0.  1.
         14    1    4    4    0    0 -0.34920826718E+02  0.23967628856E+01  0.31725600728E+02  0.47241108714E+02  0.00000000000E+00 0. -1.
         -5    1    5    5    0  503  0.39381988361E+02  0.17581361603E+02  0.12482820912E+03  0.13215224960E+03  0.47000000000E+01 0.  1.
         11    1    6    6    0    0  0.22917449246E+02 -0.60368178029E+02  0.45284019454E+02  0.78868046866E+02  0.00000000000E+00 0. -1.
        -12    1    6    6    0    0 -0.52534312107E+02 -0.36069402004E+02  0.64288608517E+02  0.90520057968E+02  0.00000000000E+00 0.  1.
</event>
<event>
12    1  0.8798177E-003  0.1927048E+03  0.7818608E-02  0.1156173E+00
         21   -1    0    0  503  502  0.00000000000E+00  0.00000000000E+00  0.76382934926E+02  0.76382934926E+02  0.00000000000E+00 0.  1.
         21   -1    0    0  501  503 -0.00000000000E+00 -0.00000000000E+00 -0.78380937557E+03  0.78380937557E+03  0.00000000000E+00 0.  1.
          6    2    1    2  501    0  0.25701762034E+02 -0.81783220361E+02 -0.61906910362E+03  0.64819664121E+03  0.17193968394E+03 0.  0.
         24    2    3    3    0    0 -0.39440113589E+02 -0.14638329181E+02 -0.20616605048E+03  0.22480211873E+03  0.79131213656E+02 0.  0.
         -6    2    1    2    0  502 -0.25701762034E+02  0.81783220361E+02 -0.88357337024E+02  0.21199566929E+03  0.17258641049E+03 0.  0.
        -24    2    5    5    0    0 -0.73490227537E+02  0.92793256129E+02 -0.58929618838E+02  0.15461066323E+03  0.80127119508E+02 0.  0.
          5    1    3    3  501    0  0.65141875623E+02 -0.67144891180E+02 -0.41290305314E+03  0.42339452248E+03  0.47000000000E+01 0. -1.
        -11    1    4    4    0    0 -0.20419401054E+01 -0.31116071807E+02 -0.16057855571E+03  0.16357827484E+03  0.00000000000E+00 0.  1.
         12    1    4    4    0    0 -0.37398173484E+02  0.16477742626E+02 -0.45587494766E+02  0.61223843893E+02  0.00000000000E+00 0. -1.
         -5    1    5    5    0  502  0.47788465504E+02 -0.11010035768E+02 -0.29427718186E+02  0.57385006060E+02  0.47000000000E+01 0.  1.
         13    1    6    6    0    0 -0.11488951836E+02  0.31894857189E+02 -0.58604328381E+02  0.67703362061E+02  0.00000000000E+00 0. -1.
        -14    1    6    6    0    0 -0.62001275701E+02  0.60898398940E+02 -0.32529045654E+00  0.86907301166E+02  0.00000000000E+00 0.  1.
</event>
<event>
12    1  0.8798177E-003  0.1749400E+03  0.7818608E-02  0.1174105E+00
         21   -1    0    0  501  502  0.00000000000E+00  0.00000000000E+00  0.65491455216E+03  0.65491455216E+03  0.00000000000E+00 0. -1.
         21   -1    0    0  502  503 -0.00000000000E+00 -0.00000000000E+00 -0.45587358787E+02  0.45587358787E+02  0.00000000000E+00 0. -1.
          6    2    1    2  501    0 -0.18736241530E+02 -0.28984210028E+02  0.27571644286E+03  0.32380558390E+03  0.16625091917E+03 0.  0.
         24    2    3    3    0    0 -0.33527540435E+02 -0.32539466081E+01  0.60324945054E+02  0.10632819127E+03  0.80820177716E+02 0.  0.
         -6    2    1    2    0  503  0.18736241530E+02  0.28984210028E+02  0.33361075051E+03  0.37669632704E+03  0.17150177485E+03 0.  0.
        -24    2    5    5    0    0  0.42610632551E+00 -0.31192095126E+02  0.87205971593E+02  0.12234646204E+03  0.79941521927E+02 0.  0.
          5    1    3    3  501    0  0.14791298905E+02 -0.25730263420E+02  0.21539149781E+03  0.21747739264E+03  0.47000000000E+01 0. -1.
        -11    1    4    4    0    0 -0.26288273770E+02  0.24419722259E+02  0.67847449114E+02  0.76750716767E+02  0.00000000000E+00 0.  1.
         12    1    4    4    0    0 -0.72392666650E+01 -0.27673668868E+02 -0.75225040597E+01  0.29577474499E+02  0.00000000000E+00 0. -1.
         -5    1    5    5    0  503  0.18310135205E+02  0.60176305154E+02  0.24640477891E+03  0.25434986500E+03  0.47000000000E+01 0.  1.
         11    1    6    6    0    0  0.28251015239E+02  0.14701425806E+02  0.37457351559E+02  0.49166095722E+02  0.00000000000E+00 0. -1.
        -12    1    6    6    0    0 -0.27824908913E+02 -0.45893520932E+02  0.49748620034E+02  0.73180366321E+02  0.00000000000E+00 0.  1.
</event>
<event>
12    1  0.8798177E-003  0.2543037E+03  0.7818608E-02  0.1110674E+00
         21   -1    0    0  501  502  0.00000000000E+00  0.00000000000E+00  0.13058963083E+03  0.13058963083E+03  0.00000000000E+00 0.  1.
         21   -1    0    0  502  503 -0.00000000000E+00 -0.00000000000E+00 -0.49462493311E+03  0.49462493311E+03  0.00000000000E+00 0.  1.
          6    2    1    2  501    0 -0.16703289944E+03  0.84376337600E+02 -0.18751144200E+03  0.31596027176E+03  0.17219464745E+03 0.  0.
         24    2    3    3    0    0 -0.10817400278E+03  0.24485871140E+01 -0.45571041019E+02  0.14176011836E+03  0.79445584658E+02 0.  0.
         -6    2    1    2    0  503  0.16703289944E+03 -0.84376337600E+02 -0.17652386028E+03  0.30925429218E+03  0.17163387818E+03 0.  0.
        -24    2    5    5    0    0  0.16823860231E+03 -0.35973367733E+02 -0.17967352126E+03  0.26050686583E+03  0.77349482289E+02 0.  0.
          5    1    3    3  501    0 -0.58858896664E+02  0.81927750486E+02 -0.14194040098E+03  0.17420015340E+03  0.47000000000E+01 0. -1.
        -11    1    4    4    0    0 -0.98569054298E+02  0.19395558954E+02 -0.60453311610E+02  0.11724610466E+03  0.00000000000E+00 0.  1.
         12    1    4    4    0    0 -0.96049484797E+01 -0.16946971840E+02  0.14882270591E+02  0.24514013702E+02  0.00000000000E+00 0. -1.
         -5    1    5    5    0  503 -0.12057028716E+01 -0.48402969867E+02  0.31496609749E+01  0.48747426349E+02  0.47000000000E+01 0.  1.
         13    1    6    6    0    0  0.19139378686E+02  0.20402244980E+02 -0.38416095559E+02  0.47522245472E+02  0.00000000000E+00 0. -1.
        -14    1    6    6    0    0  0.14909922363E+03 -0.56375612713E+02 -0.14125742570E+03  0.21298462036E+03  0.00000000000E+00 0.  1.
</event>
<event>
12    1  0.8798177E-003  0.2254618E+03  0.7818608E-02  0.1129905E+00
         21   -1    0    0  503  502  0.00000000000E+00  0.00000000000E+00  0.73251595488E+02  0.73251595488E+02  0.00000000000E+00 0.  1.
         21   -1    0    0  501  503 -0.00000000000E+00 -0.00000000000E+00 -0.83878372761E+03  0.83878372761E+03  0.00000000000E+00 0. -1.
          6    2    1    2  501    0 -0.38959731450E+02 -0.13980899392E+03 -0.57247020367E+03  0.61520887049E+03  0.17232354680E+03 0.  0.
         24    2    3    3    0    0 -0.75553278266E+02 -0.72537140558E+02 -0.46374968511E+03  0.48214185324E+03  0.80168956520E+02 0.  0.
         -6    2    1    2    0  502  0.38959731450E+02  0.13980899392E+03 -0.19306192845E+03  0.29682645261E+03  0.17253584931E+03 0.  0.
        -24    2    5    5    0    0 -0.22478934124E+02  0.23401736337E+02 -0.96243193643E+02  0.13335989133E+03  0.86424328468E+02 0.  0.
          5    1    3    3  501    0  0.36593546815E+02 -0.67271853363E+02 -0.10872051857E+03  0.13306701725E+03  0.47000000000E+01 0. -1.
        -11    1    4    4    0    0  0.91081328052E+01  0.19971669479E+01 -0.69704073113E+01  0.11641878590E+02  0.00000000000E+00 0.  1.
         12    1    4    4    0    0 -0.84661411071E+02 -0.74534307506E+02 -0.45677927780E+03  0.47049997465E+03  0.00000000000E+00 0. -1.
         -5    1    5    5    0  502  0.61438665574E+02  0.11640725758E+03 -0.96818734811E+02  0.16346656128E+03  0.47000000000E+01 0.  1.
         11    1    6    6    0    0 -0.11301246912E+02  0.56341431282E+02 -0.57472162354E+02  0.81271917083E+02  0.00000000000E+00 0. -1.
        -12    1    6    6    0    0 -0.11177687211E+02 -0.32939694944E+02 -0.38771031289E+02  0.52087974251E+02  0.00000000000E+00 0.  1.
</event>
<event>
12    1  0.8798177E-003  0.2459007E+03  0.7818608E-02  0.1115933E+00
         21   -1    0    0  501  502  0.00000000000E+00  0.00000000000E+00  0.10652403907E+03  0.10652403907E+03  0.00000000000E+00 0.  1.
         21   -1    0    0  502  503 -0.00000000000E+00 -0.00000000000E+00 -0.71646255215E+03  0.71646255215E+03  0.00000000000E+00 0.  1.
          6    2    1    2  501    0 -0.11367640730E+03  0.13409879152E+03 -0.11736641657E+03  0.27247391767E+03  0.17193704839E+03 0.  0.
         24    2    3    3    0    0 -0.50843243237E+02  0.57732129441E+02  0.74301406188E+01  0.11317500283E+03  0.82676115801E+02 0.  0.
         -6    2    1    2    0  503  0.11367640730E+03 -0.13409879152E+03 -0.49257209652E+03  0.55051267355E+03  0.17184912572E+03 0.  0.
        -24    2    5    5    0    0  0.20125656506E+02 -0.33360823560E+01 -0.21196328521E+03  0.22707176077E+03  0.78847820291E+02 0.  0.
          5    1    3    3  501    0 -0.62833164062E+02  0.76366662077E+02 -0.12479655719E+03  0.15929891484E+03  0.47000000000E+01 0. -1.
        -11    1    4    4    0    0 -0.15602367893E+02  0.71478084366E+02 -0.50691840150E+01  0.73336532881E+02  0.00000000000E+00 0.  1.
         12    1    4    4    0    0 -0.35240875344E+02 -0.13745954925E+02  0.12499324634E+02  0.39838469952E+02  0.00000000000E+00 0. -1.
         -5    1    5    5    0  503  0.93550750793E+02 -0.13076270916E+03 -0.28060881130E+03  0.32344091278E+03  0.47000000000E+01 0.  1.
         13    1    6    6    0    0 -0.16998715052E+02  0.82203906312E+01 -0.99354551742E+01  0.21336457182E+02  0.00000000000E+00 0. -1.
        -14    1    6    6    0    0  0.37124371558E+02 -0.11556472987E+02 -0.20202783004E+03  0.20573530359E+03  0.00000000000E+00 0.  1.
</event>
<event>
12    1  0.8798177E-003  0.2226532E+03  0.7818608E-02  0.1132093E+00
         21   -1    0    0  503  502  0.00000000000E+00  0.00000000000E+00  0.33947579907E+03  0.33947579907E+03  0.00000000000E+00 0.  1.
         21   -1    0    0  501  503 -0.00000000000E+00 -0.00000000000E+00 -0.14542734862E+03  0.14542734862E+03  0.00000000000E+00 0. -1.
          6    2    1    2  501    0 -0.39080078871E+02  0.13463353275E+03  0.99310434292E+02  0.24379711064E+03  0.17297695827E+03 0.  0.
         24    2    3    3    0    0 -0.64109677249E+01 -0.21465324163E+01  0.53047740789E+02  0.95680994501E+02  0.79341551519E+02 0.  0.
         -6    2    1    2    0  502  0.39080078871E+02 -0.13463353275E+03  0.94738016163E+02  0.24110603705E+03  0.17176550495E+03 0.  0.
        -24    2    5    5    0    0  0.12870431533E+02 -0.30566837077E+02  0.10148941853E+03  0.13347474887E+03  0.80096360559E+02 0.  0.
          5    1    3    3  501    0 -0.32669111146E+02  0.13678006517E+03  0.46262693504E+02  0.14811611614E+03  0.47000000000E+01 0. -1.
        -11    1    4    4    0    0 -0.25529371514E+02  0.31641894304E+02  0.30069788494E+02  0.50568275283E+02  0.00000000000E+00 0.  1.
         12    1    4    4    0    0  0.19118403789E+02 -0.33788426720E+02  0.22977952295E+02  0.45112719219E+02  0.00000000000E+00 0. -1.
         -5    1    5    5    0  502  0.26209647338E+02 -0.10406669567E+03 -0.67514023667E+01  0.10763128818E+03  0.47000000000E+01 0.  1.
         13    1    6    6    0    0 -0.22872403386E+02 -0.30503335624E+02  0.17016674072E+02  0.41751257673E+02  0.00000000000E+00 0. -1.
        -14    1    6    6    0    0  0.35742834918E+02 -0.63501452769E-01  0.84472744458E+02  0.91723491193E+02  0.00000000000E+00 0.  1.
</event>
<event>
12    1  0.8798177E-003  0.2171992E+03  0.7818608E-02  0.1135995E+00
         21   -1    0    0  503  502  0.00000000000E+00  0.00000000000E+00  0.15104754898E+03  0.15104754898E+03  0.00000000000E+00 0.  1.
         21   -1    0    0  501  503 -0.00000000000E+00 -0.00000000000E+00 -0.31233312908E+03  0.31233312908E+03  0.00000000000E+00 0. -1.
          6    2    1    2  501    0  0.13038430979E+03  0.28117703233E+02 -0.83891412239E+02  0.23283743707E+03  0.17142003844E+03 0.  0.
         24    2    3    3    0    0  0.11978273472E+03  0.61686272795E+02 -0.10433224770E+03  0.19185988210E+03  0.88158361272E+02 0.  0.
         -6    2    1    2    0  502 -0.13038430979E+03 -0.28117703233E+02 -0.77394167863E+02  0.23054324099E+03  0.17137577214E+03 0.  0.
        -24    2    5    5    0    0 -0.16232927967E+03 -0.25239714875E+02 -0.62179708975E+02  0.19473355408E+03  0.84065466340E+02 0.  0.
          5    1    3    3  501    0  0.10601575069E+02 -0.33568569562E+02  0.20440835463E+02  0.40977554964E+02  0.47000000000E+01 0. -1.
        -13    1    4    4    0    0  0.42698213070E+02  0.29581067639E+02  0.72975363272E+01  0.52454084669E+02  0.00000000000E+00 0.  1.
         14    1    4    4    0    0  0.77084521649E+02  0.32105205156E+02 -0.11162978403E+03  0.13940579743E+03  0.00000000000E+00 0. -1.
         -5    1    5    5    0  502  0.31944969882E+02 -0.28779883579E+01 -0.15214458888E+02  0.35809686915E+02  0.47000000000E+01 0.  1.
         11    1    6    6    0    0 -0.12567894450E+03  0.52271097159E+01 -0.73581957407E+02  0.14572859782E+03  0.00000000000E+00 0. -1.
        -12    1    6    6    0    0 -0.36650335171E+02 -0.30466824591E+02  0.11402248432E+02  0.49004956261E+02  0.00000000000E+00 0.  1.
</event>
<event>
12    1  0.8798177E-003  0.2974310E+03  0.7818608E-02  0.1086933E+00
         21   -1    0    0  501  502  0.00000000000E+00  0.00000000000E+00  0.65015562905E+03  0.65015562905E+03  0.00000000000E+00 0.  1.
         21   -1    0    0  502  503 -0.00000000000E+00 -0.00000000000E+00 -0.13466650057E+03  0.13466650057E+03  0.00000000000E+00 0. -1.
          6    2    1    2  501    0  0.19969083866E+03  0.13030161098E+03  0.26573786785E+03  0.39885064950E+03  0.17779281574E+03 0.  0.
         24    2    3    3    0    0  0.58759561755E+02  0.12078270406E+03  0.12349391922E+03  0.19833215828E+03  0.77741554051E+02 0.  0.
         -6    2    1    2    0  503 -0.19969083866E+03 -0.13030161098E+03  0.24975126063E+03  0.38597148012E+03  0.17246260585E+03 0.  0.
        -24    2    5    5    0    0 -0.19922764445E+03 -0.67522496413E+02  0.21623264923E+03  0.31464813833E+03  0.89420078982E+02 0.  0.
          5    1    3    3  501    0  0.14093127690E+03  0.95189069173E+01  0.14224394863E+03  0.20051849122E+03  0.47000000000E+01 0. -1.
        -11    1    4    4    0    0 -0.43247377076E+01  0.94729301946E+01  0.49394259478E+02  0.50480022109E+02  0.00000000000E+00 0.  1.
         12    1    4    4    0    0  0.63084299462E+02  0.11130977387E+03  0.74099659740E+02  0.14785213617E+03  0.00000000000E+00 0. -1.
         -5    1    5    5    0  503 -0.46319420615E+00 -0.62779114566E+02  0.33518611400E+02  0.71323341795E+02  0.47000000000E+01 0.  1.
         13    1    6    6    0    0 -0.54175149898E+02  0.19527111751E+02  0.38462980569E+02  0.69250673889E+02  0.00000000000E+00 0. -1.
        -14    1    6    6    0    0 -0.14505249455E+03 -0.87049608164E+02  0.17776966866E+03  0.24539746444E+03  0.00000000000E+00 0.  1.
</event>
<event>
12    1  0.8798177E-003  0.2429264E+03  0.7818608E-02  0.1118023E+00
         21   -1    0    0  501  502  0.00000000000E+00  0.00000000000E+00  0.52991249223E+03  0.52991249223E+03  0.00000000000E+00 0.  1.
         21   -1    0    0  502  503 -0.00000000000E+00 -0.00000000000E+00 -0.18545928625E+03  0.18545928625E+03  0.00000000000E+00 0.  1.
          6    2    1    2  501    0 -0.43168615400E+02  0.16597553677E+03  0.39879701026E+03  0.46644109832E+03  0.17063655719E+03 0.  0.
         24    2    3    3    0    0 -0.34505666413E+02  0.15161136889E+02  0.15381093447E+03  0.17858645231E+03  0.82551900651E+02 0.  0.
         -6    2    1    2    0  503  0.43168615400E+02 -0.16597553677E+03 -0.54343804278E+02  0.24893068017E+03  0.17205181284E+03 0.  0.
        -24    2    5    5    0    0 -0.94036831379E+01 -0.14127647243E+03  0.88513637102E+01  0.16296784163E+03  0.80204113651E+02 0.  0.
          5    1    3    3  501    0 -0.86629489863E+01  0.15081439989E+03  0.24498607579E+03  0.28785464601E+03  0.47000000000E+01 0. -1.
        -11    1    4    4    0    0 -0.44231299112E+02  0.12859380656E+02  0.16022247668E+03  0.16671236765E+03  0.00000000000E+00 0.  1.
         12    1    4    4    0    0  0.97256326987E+01  0.23017562331E+01 -0.64115422125E+01  0.11874084667E+02  0.00000000000E+00 0. -1.
         -5    1    5    5    0  503  0.52572298538E+02 -0.24699064346E+02 -0.63195167988E+02  0.85962838541E+02  0.47000000000E+01 0.  1.
         13    1    6    6    0    0  0.18594126789E+02 -0.11216881776E+03  0.29703106738E+02  0.11751535975E+03  0.00000000000E+00 0. -1.
        -14    1    6    6    0    0 -0.27997809927E+02 -0.29107654673E+02 -0.20851743027E+02  0.45452481874E+02  0.00000000000E+00 0.  1.
</event>
<event>
12    1  0.8798177E-003  0.2330674E+03  0.7818608E-02  0.1124618E+00
         21   -1    0    0  503  502  0.00000000000E+00  0.00000000000E+00  0.35201113808E+03  0.35201113808E+03  0.00000000000E+00 0. -1.
         21   -1    0    0  501  503 -0.00000000000E+00 -0.00000000000E+00 -0.37926776290E+03  0.37926776290E+03  0.00000000000E+00 0. -1.
          6    2    1    2  501    0 -0.12739339755E+03 -0.90265273297E+02 -0.29551545220E+03  0.37636393828E+03  0.17304200140E+03 0.  0.
         24    2    3    3    0    0 -0.13563445420E+03 -0.29302676277E+02 -0.15885968196E+03  0.22642647535E+03  0.82323740113E+02 0.  0.
         -6    2    1    2    0  502  0.12739339755E+03  0.90265273297E+02  0.26825882737E+03  0.35491496270E+03  0.17211895590E+03 0.  0.
        -24    2    5    5    0    0  0.10466332643E+03  0.10315359490E+03  0.12466877128E+03  0.20889113185E+03  0.80610957039E+02 0.  0.
          5    1    3    3  501    0  0.82410566424E+01 -0.60962597020E+02 -0.13665577024E+03  0.14993746293E+03  0.47000000000E+01 0. -1.
        -11    1    4    4    0    0 -0.13124460801E+02 -0.22039914674E+02  0.39830202056E-01  0.25651723073E+02  0.00000000000E+00 0.  1.
         12    1    4    4    0    0 -0.12250999340E+03 -0.72627616028E+01 -0.15889951216E+03  0.20077475228E+03  0.00000000000E+00 0. -1.
         -5    1    5    5    0  502  0.22730071127E+02 -0.12888321599E+02  0.14359005609E+03  0.14602383085E+03  0.47000000000E+01 0.  1.
         13    1    6    6    0    0  0.54527881952E+02  0.20749395473E+02  0.88241379976E+02  0.10578453792E+03  0.00000000000E+00 0. -1.
        -14    1    6    6    0    0  0.50135444476E+02  0.82404199423E+02  0.36427391308E+02  0.10310659393E+03  0.00000000000E+00 0.  1.
</event>
<event>
12    1  0.8798177E-003  0.2341331E+03  0.7818608E-02  0.1124274E+00
         21   -1    0    0  501  502  0.00000000000E+00  0.00000000000E+00  0.67966335602E+03  0.67966335602E+03  0.00000000000E+00 0. -1.
         21   -1    0    0  502  503 -0.00000000000E+00 -0.00000000000E+00 -0.79917135453E+02  0.79917135453E+02  0.00000000000E+00 0. -1.
          6    2    1    2  501    0 -0.84159932069E+02 -0.12965355821E+03  0.27575585206E+03  0.35984551225E+03  0.17191440724E+03 0.  0.
         24    2    3    3    0    0 -0.16497554630E+02 -0.11829312636E+03  0.11243217018E+03  0.18263385407E+03  0.80303790124E+02 0.  0.
         -6    2    1    2    0  503  0.84159932069E+02  0.12965355821E+03  0.32399036850E+03  0.39973497922E+03  0.17585606446E+03 0.  0.
        -24    2    5    5    0    0  0.24337548473E+02  0.33576195250E+02  0.24577539860E+03  0.26207870886E+03  0.80993986984E+02 0.  0.
          5    1    3    3  501    0 -0.67662377439E+02 -0.11360431857E+02  0.16332368188E+03  0.17721165818E+03  0.47000000000E+01 0. -1.
        -13    1    4    4    0    0 -0.20643718803E+02 -0.68055185387E+02  0.11145999169E+03  0.13221573708E+03  0.00000000000E+00 0.  1.
         14    1    4    4    0    0  0.41461641735E+01 -0.50237940969E+02  0.97217849908E+00  0.50418116994E+02  0.00000000000E+00 0. -1.
         -5    1    5    5    0  503  0.59822383595E+02  0.96077362963E+02  0.78214969902E+02  0.13765627036E+03  0.47000000000E+01 0.  1.
         11    1    6    6    0    0  0.62485888333E+00  0.56856350154E+02  0.17226385304E+03  0.18140526471E+03  0.00000000000E+00 0. -1.
        -12    1    6    6    0    0  0.23712689590E+02 -0.23280154904E+02  0.73511545560E+02  0.80673444147E+02  0.00000000000E+00 0.  1.
</event>
<event>
12    1  0.8798177E-003  0.2296085E+03  0.7818608E-02  0.1128810E+00
         21   -1    0    0  503  502  0.00000000000E+00  0.00000000000E+00  0.80273925885E+03  0.80273925885E+03  0.00000000000E+00 0.  1.
         21   -1    0    0  501  503 -0.00000000000E+00 -0.00000000000E+00 -0.99377064545E+02  0.99377064545E+02  0.00000000000E+00 0.  1.
          6    2    1    2  501    0  0.12457206186E+03 -0.57551032690E+02  0.72570700313E+02  0.23083546499E+03  0.17084550153E+03 0.  0.
         24    2    3    3    0    0  0.10789480136E+03  0.19544815002E+01  0.94914684389E+02  0.16495389806E+03  0.80968407499E+02 0.  0.
         -6    2    1    2    0  502 -0.12457206186E+03  0.57551032690E+02  0.63079149399E+03  0.67128085840E+03  0.18409172174E+03 0.  0.
        -24    2    5    5    0    0 -0.90496924884E+02  0.11036369482E+03  0.50272174854E+03  0.52854248956E+03  0.79108585304E+02 0.  0.
          5    1    3    3  501    0  0.16677260497E+02 -0.59505514190E+02 -0.22343984076E+02  0.65881566930E+02  0.47000000000E+01 0. -1.
        -13    1    4    4    0    0  0.14637069257E+02  0.29120224980E+02  0.57395371198E+01  0.33093406982E+02  0.00000000000E+00 0.  1.
         14    1    4    4    0    0  0.93257732106E+02 -0.27165743480E+02  0.89175147269E+02  0.13186049108E+03  0.00000000000E+00 0. -1.
         -5    1    5    5    0  502 -0.34075136975E+02 -0.52812662127E+02  0.12806974545E+03  0.14273836884E+03  0.47000000000E+01 0.  1.
         13    1    6    6    0    0 -0.28210907149E+02  0.19169115658E+02  0.38811492223E+02  0.51668580451E+02  0.00000000000E+00 0. -1.
        -14    1    6    6    0    0 -0.62286017736E+02  0.91194579158E+02  0.46391025632E+03  0.47687390911E+03  0.00000000000E+00 0.  1.
</event>
<event>
12    1  0.8798177E-003  0.2178232E+03  0.7818608E-02  0.1135517E+00
         21   -1    0    0  501  502  0.00000000000E+00  0.00000000000E+00  0.31316254933E+03  0.31316254933E+03  0.00000000000E+00 0. -1.
         21   -1    0    0  502  503 -0.00000000000E+00 -0.00000000000E+00 -0.23244417316E+03  0.23244417316E+03  0.00000000000E+00 0.  1.
          6    2    1    2  501    0 -0.13215941461E+03 -0.29913664016E+02  0.20133711954E+03  0.29662027463E+03  0.17054622087E+03 0.  0.
         24    2    3    3    0    0 -0.34649914310E+02  0.37723578582E+02  0.12351811435E+03  0.15463158915E+03  0.77656415369E+02 0.  0.
         -6    2    1    2    0  503  0.13215941461E+03  0.29913664016E+02 -0.12061874337E+03  0.24898644786E+03  0.17054158378E+03 0.  0.
        -24    2    5    5    0    0  0.30814501381E+02  0.67620441724E+02 -0.52626537828E+02  0.12116773821E+03  0.79937542268E+02 0.  0.
          5    1    3    3  501    0 -0.97509500305E+02 -0.67637242599E+02  0.77819005189E+02  0.14198868548E+03  0.47000000000E+01 0. -1.
        -13    1    4    4    0    0 -0.12092682935E+02  0.93057709680E+01 -0.86732247587E+01  0.17551500836E+02  0.00000000000E+00 0.  1.
         14    1    4    4    0    0 -0.22557231375E+02  0.28417807614E+02  0.13219133911E+03  0.13708008832E+03  0.00000000000E+00 0. -1.
         -5    1    5    5    0  503  0.10134491323E+03 -0.37706777708E+02 -0.67992205540E+02  0.12781870965E+03  0.47000000000E+01 0.  1.
         13    1    6    6    0    0  0.45209201673E+02  0.35787066727E+02 -0.62329105352E+02  0.84908794802E+02  0.00000000000E+00 0. -1.
        -14    1    6    6    0    0 -0.14394700292E+02  0.31833374997E+02  0.97025675236E+01  0.36258943403E+02  0.00000000000E+00 0.  1.
</event>
<event>
12    1  0.8798177E-003  0.2032956E+03  0.7818608E-02  0.1147307E+00
         21   -1    0    0  501  502  0.00000000000E+00  0.00000000000E+00  0.26425119390E+03  0.26425119390E+03  0.00000000000E+00 0. -1.
         21   -1    0    0  502  503 -0.00000000000E+00 -0.00000000000E+00 -0.18913695346E+03  0.18913695346E+03  0.00000000000E+00 0. -1.
          6    2    1    2  501    0  0.67556448300E+02 -0.84543751560E+02  0.13367420764E+03  0.24330618930E+03  0.17209761279E+03 0.  0.
         24    2    3    3    0    0  0.77921102676E+01  0.74589317598E+01  0.99106023070E+02  0.12818312808E+03  0.80576410139E+02 0.  0.
         -6    2    1    2    0  503 -0.67556448300E+02  0.84543751560E+02 -0.58559967200E+02  0.21008195807E+03  0.17027518819E+03 0.  0.
        -24    2    5    5    0    0 -0.31135867217E+02  0.12214665926E+03 -0.50489283055E+02  0.15690618035E+03  0.78620182728E+02 0.  0.
          5    1    3    3  501    0  0.59764338033E+02 -0.92002683320E+02  0.34568184571E+02  0.11512306121E+03  0.47000000000E+01 0. -1.
        -13    1    4    4    0    0  0.19012223605E+02 -0.11105454108E+01  0.10918679116E+03  0.11083525307E+03  0.00000000000E+00 0.  1.
         14    1    4    4    0    0 -0.11220113337E+02  0.85694771706E+01 -0.10080768093E+02  0.17347875017E+02  0.00000000000E+00 0. -1.
         -5    1    5    5    0  503 -0.36420581083E+02 -0.37602907702E+02 -0.80706841457E+01  0.53175777725E+02  0.47000000000E+01 0.  1.
         11    1    6    6    0    0 -0.40778598956E+02  0.12541557055E+03 -0.58184400185E+02  0.14414362245E+03  0.00000000000E+00 0. -1.
        -12    1    6    6    0    0  0.96427317384E+01 -0.32689112881E+01  0.76951171303E+01  0.12762557896E+02  0.00000000000E+00 0.  1.
</event>
<event>
12    1  0.8798177E-003  0.2490620E+03  0.7818608E-02  0.1116059E+00
         21   -1    0    0  501  502  0.00000000000E+00  0.00000000000E+00  0.32266797815E+03  0.32266797815E+03  0.00000000000E+00 0. -1.
         21   -1    0    0  502  503 -0.00000000000E+00 -0.00000000000E+00 -0.24448321220E+03  0.24448321220E+03  0.00000000000E+00 0. -1.
          6    2    1    2  501    0 -0.99126537260E+02  0.14932124980E+03  0.18140962396E+03  0.29754541773E+03  0.15330009105E+03 0.  0.
         24    2    3    3    0    0 -0.10488269210E+02  0.28775287267E+02  0.82380357743E+02  0.11805459007E+03  0.78818411218E+02 0.  0.
         -6    2    1    2    0  503  0.99126537260E+02 -0.14932124980E+03 -0.10322485802E+03  0.26960577262E+03  0.17294217324E+03 0.  0.
        -24    2    5    5    0    0  0.28758739111E+02 -0.26609437014E+01 -0.20095560812E+02  0.86867045315E+02  0.79422328730E+02 0.  0.
          5    1    3    3  501    0 -0.88638268050E+02  0.12054596254E+03  0.99029266219E+02  0.17949082766E+03  0.47000000000E+01 0. -1.
        -13    1    4    4    0    0 -0.41534159452E+01  0.33137927351E+02  0.96423225127E+02  0.10204318418E+03  0.00000000000E+00 0.  1.
         14    1    4    4    0    0 -0.63348532647E+01 -0.43626400835E+01 -0.14042867384E+02  0.16011405895E+02  0.00000000000E+00 0. -1.
         -5    1    5    5    0  503  0.70367798149E+02 -0.14666030610E+03 -0.83129297204E+02  0.18273872730E+03  0.47000000000E+01 0.  1.
         13    1    6    6    0    0 -0.16433497795E+02 -0.26125670148E+02 -0.18368892699E+02  0.35916941816E+02  0.00000000000E+00 0. -1.
        -14    1    6    6    0    0  0.45192236906E+02  0.23464726446E+02 -0.17266681129E+01  0.50950103499E+02  0.00000000000E+00 0.  1.
</event>
<event>
12    1  0.8798177E-003  0.1833046E+03  0.7818608E-02  0.1164903E+00
         21   -1    0    0  501  502  0.00000000000E+00  0.00000000000E+00  0.22460353474E+03  0.22460353474E+03  0.00000000000E+00 0.  1.
         21   -1    0    0  502  503 -0.00000000000E+00 -0.00000000000E+00 -0.15064821292E+03  0.15064821292E+03  0.00000000000E+00 0.  1.
          6    2    1    2  501    0  0.76700840666E+01 -0.62598890772E+02  0.58175684264E+02  0.19126923389E+03  0.17094460587E+03 0.  0.
         24    2    3    3    0    0  0.21501982226E+02  0.31499383146E+02  0.58994703759E+02  0.96040208092E+02  0.65488931284E+02 0.  0.
         -6    2    1    2    0  503 -0.76700840666E+01  0.62598890772E+02  0.15779637554E+02  0.18398251377E+03  0.17211367493E+03 0.  0.
        -24    2    5    5    0    0  0.34665411478E+02 -0.19552919587E+02  0.29968188550E+02  0.90362969299E+02  0.75388105682E+02 0.  0.
          5    1    3    3  501    0 -0.13831898159E+02 -0.94098273918E+02 -0.81901949449E+00  0.95229025795E+02  0.47000000000E+01 0. -1.
        -13    1    4    4    0    0  0.26703565404E+02 -0.95471957494E+01  0.43358892868E+02  0.51809486995E+02  0.00000000000E+00 0.  1.
         14    1    4    4    0    0 -0.52015831786E+01  0.41046578895E+02  0.15635810891E+02  0.44230721097E+02  0.00000000000E+00 0. -1.
         -5    1    5    5    0  503 -0.42335495545E+02  0.82151810359E+02 -0.14188550997E+02  0.93619544475E+02  0.47000000000E+01 0.  1.
         11    1    6    6    0    0 -0.11060941458E+02 -0.19932931546E+02  0.37631180975E+02  0.43997408645E+02  0.00000000000E+00 0. -1.
        -12    1    6    6    0    0  0.45726352936E+02  0.38001195839E+00 -0.76629924245E+01  0.46365560654E+02  0.00000000000E+00 0.  1.
</event>
<event>
12    1  0.8798177E-003  0.1789363E+03  0.7818608E-02  0.1169051E+00
         21   -1    0    0  503  502  0.00000000000E+00  0.00000000000E+00  0.54336159693E+02  0.54336159693E+02  0.00000000000E+00 0.  1.
         21   -1    0    0  501  503 -0.00000000000E+00 -0.00000000000E+00 -0.61275421816E+03  0.61275421816E+03  0.00000000000E+00 0.  1.
          6    2    1    2  501    0 -0.87359664613E+00  0.46326040735E+02 -0.34776000282E+03  0.39069387105E+03  0.17192386715E+03 0.  0.
         24    2    3    3    0    0 -0.13541239896E+02  0.67889335073E+02 -0.34922820742E+03  0.36520484453E+03  0.81375122842E+02 0.  0.
         -6    2    1    2    0  502  0.87359664613E+00 -0.46326040735E+02 -0.21065805564E+03  0.27639650680E+03  0.17283329350E+03 0.  0.
        -24    2    5    5    0    0  0.86900532269E+01 -0.56449324981E+02 -0.23107620279E+03  0.25184923383E+03  0.82278683576E+02 0.  0.
          5    1    3    3  501    0  0.12667643250E+02 -0.21563294338E+02  0.14682045999E+01  0.25489026521E+02  0.47000000000E+01 0. -1.
        -13    1    4    4    0    0  0.21411554954E+02  0.36538740810E+02 -0.26846703885E+03  0.27178683783E+03  0.00000000000E+00 0.  1.
         14    1    4    4    0    0 -0.34952794851E+02  0.31350594263E+02 -0.80761168571E+02  0.93418006709E+02  0.00000000000E+00 0. -1.
         -5    1    5    5    0  502 -0.78164565807E+01  0.10123284246E+02  0.20418147142E+02  0.24547272967E+02  0.47000000000E+01 0.  1.
         13    1    6    6    0    0  0.20916925382E+02 -0.18035650192E+02 -0.13818055080E+02  0.30882698902E+02  0.00000000000E+00 0. -1.
        -14    1    6    6    0    0 -0.12226872155E+02 -0.38413674789E+02 -0.21725814771E+03  0.22096653493E+03  0.00000000000E+00 0.  1.
</event>
<event>
12    1  0.8798177E-003  0.3092943E+03  0.7818608E-02  0.1080747E+00
         21   -1    0    0  501  502  0.00000000000E+00  0.00000000000E+00  0.45669862973E+03  0.45669862973E+03  0.00000000000E+00 0. -1.
         21   -1    0    0  502  503 -0.00000000000E+00 -0.00000000000E+00 -0.24106521185E+03  0.24106521185E+03  0.00000000000E+00 0.  1.
          6    2    1    2  501    0  0.93978087611E+02 -0.23929360056E+03  0.23490249046E+03  0.38838403518E+03  0.17195833955E+03 0.  0.
         24    2    3    3    0    0 -0.21356993258E+02 -0.98164609663E+02  0.11620956145E+03  0.17083019277E+03  0.74738750582E+02 0.  0.
         -6    2    1    2    0  503 -0.93978087611E+02  0.23929360056E+03 -0.19269072576E+02  0.30937980640E+03  0.17102999511E+03 0.  0.
        -24    2    5    5    0    0 -0.11656638082E+03  0.12039734365E+03 -0.29328516159E+02  0.18784860340E+03  0.79647312839E+02 0.  0.
          5    1    3    3  501    0  0.11533508087E+03 -0.14112899090E+03  0.11869292901E+03  0.21755384241E+03  0.47000000000E+01 0. -1.
        -13    1    4    4    0    0  0.13303574533E+02 -0.59273164434E+02  0.24793982946E+02  0.65612763299E+02  0.00000000000E+00 0.  1.
         14    1    4    4    0    0 -0.34660567790E+02 -0.38891445229E+02  0.91415578503E+02  0.10521742947E+03  0.00000000000E+00 0. -1.
         -5    1    5    5    0  503  0.22588293210E+02  0.11889625691E+03  0.10059443583E+02  0.12153120300E+03  0.47000000000E+01 0.  1.
         13    1    6    6    0    0 -0.10261064782E+02  0.57143671268E+02  0.80755965357E+01  0.58616583625E+02  0.00000000000E+00 0. -1.
        -14    1    6    6    0    0 -0.10630531604E+03  0.63253672383E+02 -0.37404112695E+02  0.12923201977E+03  0.00000000000E+00 0.  1.
</event>
<event>
12    1  0.8798177E-003  0.1849998E+03  0.7818608E-02  0.1163151E+00
         21   -1    0    0  501  502  0.00000000000E+00  0.00000000000E+00  0.86778282557E+03  0.86778282557E+03  0.00000000000E+00 0. -1.
         21   -1    0    0  502  503 -0.00000000000E+00 -0.00000000000E+00 -0.43001922835E+02  0.43001922835E+02  0.00000000000E+00 0. -1.
          6    2    1    2  501    0  0.35733617663E+02  0.56685009668E+02  0.54471005928E+03  0.57512929168E+03  0.17197259003E+03 0.  0.
         24    2    3    3    0    0 -0.17381998600E+01  0.59196257145E+02  0.15589157971E+03  0.18447299322E+03  0.78872570679E+02 0.  0.
         -6    2    1    2    0  503 -0.35733617663E+02 -0.56685009668E+02  0.28007084345E+03  0.33565545672E+03  0.17243789178E+03 0.  0.
        -24    2    5    5    0    0 -0.62446151332E+02 -0.84509943042E+02  0.15119458164E+03  0.20104874355E+03  0.80742451504E+02 0.  0.
          5    1    3    3  501    0  0.37471817523E+02 -0.25112474762E+01  0.38881847957E+03  0.39065629846E+03  0.47000000000E+01 0. -1.
        -11    1    4    4    0    0  0.28147089267E+02  0.46390981194E+01  0.19469077901E+02  0.34537296650E+02  0.00000000000E+00 0.  1.
         12    1    4    4    0    0 -0.29885289127E+02  0.54557159025E+02  0.13642250180E+03  0.14993569657E+03  0.00000000000E+00 0. -1.
         -5    1    5    5    0  503  0.26712533669E+02  0.27824933374E+02  0.12887626181E+03  0.13460671317E+03  0.47000000000E+01 0.  1.
         13    1    6    6    0    0 -0.34428675052E+02 -0.88705200910E+02  0.79613843450E+02  0.12406575032E+03  0.00000000000E+00 0. -1.
        -14    1    6    6    0    0 -0.28017476280E+02  0.41952578681E+01  0.71580738190E+02  0.76982993223E+02  0.00000000000E+00 0.  1.
</event>
<event>
12    1  0.8798177E-003  0.5180700E+03  0.7818608E-02  0.1009332E+00
         21   -1    0    0  501  502  0.00000000000E+00  0.00000000000E+00  0.38142318534E+03  0.38142318534E+03  0.00000000000E+00 0.  1.
         21   -1    0    0  502  503 -0.00000000000E+00 -0.00000000000E+00 -0.73120965671E+03  0.73120965671E+03  0.00000000000E+00 0. -1.
          6    2    1    2  501    0  0.15090450524E+03  0.46510391459E+03 -0.60559170731E+02  0.52159750636E+03  0.17118038559E+03 0.  0.
         24    2    3    3    0    0  0.76630493283E+02  0.41085541785E+03 -0.47327162650E+02  0.42855609467E+03  0.82134396454E+02 0.  0.
         -6    2    1    2    0  503 -0.15090450524E+03 -0.46510391459E+03 -0.28922730064E+03  0.59103533569E+03  0.16302305215E+03 0.  0.
        -24    2    5    5    0    0 -0.17188805453E+03 -0.43652304555E+03 -0.24833094098E+03  0.53670507111E+03  0.79285588349E+02 0.  0.
          5    1    3    3  501    0  0.74274011953E+02  0.54248496741E+02 -0.13232008081E+02  0.93041411684E+02  0.47000000000E+01 0. -1.
        -11    1    4    4    0    0  0.20527508698E+02  0.26728966947E+02  0.12148482336E+02  0.35824599236E+02  0.00000000000E+00 0.  1.
         12    1    4    4    0    0  0.56102984585E+02  0.38412645090E+03 -0.59475644985E+02  0.39273149544E+03  0.00000000000E+00 0. -1.
         -5    1    5    5    0  503  0.20983549293E+02 -0.28580869039E+02 -0.40896359664E+02  0.54330264584E+02  0.47000000000E+01 0.  1.
         11    1    6    6    0    0 -0.50487436159E+02 -0.23561117964E+03 -0.12037422263E+03  0.26935397279E+03  0.00000000000E+00 0. -1.
        -12    1    6    6    0    0 -0.12140061837E+03 -0.20091186591E+03 -0.12795671834E+03  0.26735109832E+03  0.00000000000E+00 0.  1.
</event>
<event>
12    1  0.8798177E-003  0.2293327E+03  0.7818608E-02  0.1127235E+00
         21   -1    0    0  503  502  0.00000000000E+00  0.00000000000E+00  0.39489853794E+03  0.39489853794E+03  0.00000000000E+00 0.  1.
         21   -1    0    0  501  503 -0.00000000000E+00 -0.00000000000E+00 -0.13645402748E+03  0.13645402748E+03  0.00000000000E+00 0. -1.
          6    2    1    2  501    0 -0.15021236063E+03  0.99288607621E+01  0.17305061512E+03  0.28729772171E+03  0.17300615581E+03 0.  0.
         24    2    3    3    0    0 -0.74568685252E+02  0.73043737675E+02  0.93836203731E+02  0.16079686684E+03  0.78450766862E+02 0.  0.
         -6    2    1    2    0  502  0.15021236063E+03 -0.99288607621E+01  0.85393895336E+02  0.24405484371E+03  0.17207066518E+03 0.  0.
        -24    2    5    5    0    0  0.12658029776E+03  0.54231024782E+02  0.65153292327E+02  0.17259340432E+03  0.81116927243E+02 0.  0.
          5    1    3    3  501    0 -0.75643675376E+02 -0.63114876913E+02  0.79214411386E+02  0.12650085487E+03  0.47000000000E+01 0. -1.
        -13    1    4    4    0    0 -0.74090083572E+02  0.60690035689E+02  0.10641003810E+03  0.14316325340E+03  0.00000000000E+00 0.  1.
         14    1    4    4    0    0 -0.47860168056E+00  0.12353701986E+02 -0.12573834367E+02  0.17633613442E+02  0.00000000000E+00 0. -1.
         -5    1    5    5    0  502  0.23632062873E+02 -0.64159885544E+02  0.20240603009E+02  0.71461439384E+02  0.47000000000E+01 0.  1.
         11    1    6    6    0    0  0.12370037771E+03  0.44230618454E+02  0.28413053651E+02  0.13440771061E+03  0.00000000000E+00 0. -1.
        -12    1    6    6    0    0  0.28799200477E+01  0.10000406328E+02  0.36740238675E+02  0.38185693710E+02  0.00000000000E+00 0.  1.
</event>
<event>
12    1  0.8798177E-003  0.2403787E+03  0.7818608E-02  0.1119673E+00
         21   -1    0    0  503  502  0.00000000000E+00  0.00000000000E+00  0.18651531674E+04  0.18651531674E+04  0.00000000000E+00 0.  1.
         21   -1    0    0  501  503 -0.00000000000E+00 -0.00000000000E+00 -0.32664637183E+02  0.32664637183E+02  0.00000000000E+00 0. -1.
          6    2    1    2  501    0 -0.14707336460E+03 -0.79959388776E+02  0.69572021580E+03  0.73607646150E+03  0.17250466680E+03 0.  0.
         24    2    3    3    0    0 -0.17069421208E+03 -0.82368869436E+02  0.66978171084E+03  0.70059905922E+03  0.79437754934E+02 0.  0.
         -6    2    1    2    0  502  0.14707336460E+03  0.79959388776E+02  0.11367683145E+04  0.11617413431E+04  0.17139623434E+03 0.  0.
        -24    2    5    5    0    0  0.10894960846E+03  0.24240354619E+01  0.45170576904E+03  0.47123577984E+03  0.78416613591E+02 0.  0.
          5    1    3    3  501    0  0.23620847484E+02  0.24094806605E+01  0.25938504957E+02  0.35477402277E+02  0.47000000000E+01 0. -1.
        -13    1    4    4    0    0 -0.15154557764E+03 -0.90326382165E+02  0.51380364978E+03  0.54324866125E+03  0.00000000000E+00 0.  1.
         14    1    4    4    0    0 -0.19148634444E+02  0.79575127290E+01  0.15597806106E+03  0.15735039798E+03  0.00000000000E+00 0. -1.
         -5    1    5    5    0  502  0.38123756145E+02  0.77535353314E+02  0.68506254541E+03  0.69050556328E+03  0.47000000000E+01 0.  1.
         11    1    6    6    0    0  0.56357499853E+02  0.26593823003E+02  0.12762029093E+03  0.14202231468E+03  0.00000000000E+00 0. -1.
        -12    1    6    6    0    0  0.52592108602E+02 -0.24169787542E+02  0.32408547811E+03  0.32921346516E+03  0.00000000000E+00 0.  1.
</event>
<event>
12    1  0.8798177E-003  0.2762590E+03  0.7818608E-02  0.1097763E+00
         21   -1    0    0  503  502  0.00000000000E+00  0.00000000000E+00  0.35751918749E+02  0.35751918749E+02  0.00000000000E+00 0.  1.
         21   -1    0    0  501  503 -0.00000000000E+00 -0.00000000000E+00 -0.23637344111E+04  0.23637344111E+04  0.00000000000E+00 0.  1.
          6    2    1    2  501    0 -0.20197123761E+03 -0.77220086685E+02 -0.15382455028E+04  0.15628558046E+04  0.17194102587E+03 0.  0.
         24    2    3    3    0    0 -0.25437602831E+02 -0.48575996749E+02 -0.50089823277E+03  0.51019438856E+03  0.79953583008E+02 0.  0.
         -6    2    1    2    0  502  0.20197123761E+03  0.77220086685E+02 -0.78973698950E+03  0.83663052523E+03  0.17178707912E+03 0.  0.
        -24    2    5    5    0    0  0.10955935903E+03 -0.10598504165E+02 -0.28314372227E+03  0.31422178812E+03  0.80308052082E+02 0.  0.
          5    1    3    3  501    0 -0.17653363478E+03 -0.28644089936E+02 -0.10373472701E+04  0.10526614160E+04  0.47000000000E+01 0. -1.
        -13    1    4    4    0    0 -0.45954308595E+02 -0.15914127025E+02 -0.16295216143E+03  0.17005429965E+03  0.00000000000E+00 0.  1.
         14    1    4    4    0    0  0.20516705764E+02 -0.32661869724E+02 -0.33794607134E+03  0.34014008891E+03  0.00000000000E+00 0. -1.
         -5    1    5    5    0  502  0.92411878585E+02  0.87818590850E+02 -0.50659326723E+03  0.52240873711E+03  0.47000000000E+01 0.  1.
         11    1    6    6    0    0  0.33869468781E+02 -0.25641373948E+02 -0.18260260084E+03  0.18747888097E+03  0.00000000000E+00 0. -1.
        -12    1    6    6    0    0  0.75689890247E+02  0.15042869783E+02 -0.10054112143E+03  0.12674290716E+03  0.00000000000E+00 0.  1.
</event>
<event>
12    1  0.8798177E-003  0.2992159E+03  0.7818608E-02  0.1086786E+00
         21   -1    0    0  501  502  0.00000000000E+00  0.00000000000E+00  0.32375009400E+03  0.32375009400E+03  0.00000000000E+00 0.  1.
         21   -1    0    0  502  503 -0.00000000000E+00 -0.00000000000E+00 -0.38544565675E+03  0.38544565675E+03  0.00000000000E+00 0. -1.
          6    2    1    2  501    0 -0.23828485361E+03  0.54184128318E+02  0.16500041953E+03  0.33380098036E+03  0.15646841478E+03 0.  0.
         24    2    3    3    0    0 -0.21500916261E+03  0.59576571787E+02  0.18498796466E+03  0.30229815194E+03  0.85937871095E+02 0.  0.
         -6    2    1    2    0  503  0.23828485361E+03 -0.54184128318E+02 -0.22669598227E+03  0.37539477039E+03  0.17266897241E+03 0.  0.
        -24    2    5    5    0    0  0.61680725461E+02 -0.21391225087E+02 -0.28285812766E+02  0.10771384476E+03  0.80870815161E+02 0.  0.
          5    1    3    3  501    0 -0.23275691002E+02 -0.53924434686E+01 -0.19987545127E+02  0.31502828419E+02  0.47000000000E+01 0. -1.
        -13    1    4    4    0    0 -0.18554525292E+03  0.15797409793E+02  0.14776006825E+03  0.23771755680E+03  0.00000000000E+00 0.  1.
         14    1    4    4    0    0 -0.29463909683E+02  0.43779161994E+02  0.37227896402E+02  0.64580595144E+02  0.00000000000E+00 0. -1.
         -5    1    5    5    0  503  0.17660412815E+03 -0.32792903231E+02 -0.19841016951E+03  0.26768092563E+03  0.47000000000E+01 0.  1.
         13    1    6    6    0    0  0.27692112535E+02  0.27484217262E+02 -0.28271441599E+02  0.48182047541E+02  0.00000000000E+00 0. -1.
        -14    1    6    6    0    0  0.33988612926E+02 -0.48875442349E+02 -0.14371166636E-01  0.59531797218E+02  0.00000000000E+00 0.  1.
</event>
<event>
12    1  0.8798177E-003  0.2329918E+03  0.7818608E-02  0.1124602E+00
         21   -1    0    0  501  502  0.00000000000E+00  0.00000000000E+00  0.10570156252E+03  0.10570156252E+03  0.00000000000E+00 0. -1.
         21   -1    0    0  502  503 -0.00000000000E+00 -0.00000000000E+00 -0.60785082968E+03  0.60785082968E+03  0.00000000000E+00 0.  1.
          6    2    1    2  501    0 -0.56176170404E+02  0.14681807774E+03 -0.10995167811E+03  0.25736807665E+03  0.17157402277E+03 0.  0.
         24    2    3    3    0    0  0.56967557083E+01  0.53657262764E+02  0.63447213343E+01  0.95955131209E+02  0.79092204696E+02 0.  0.
         -6    2    1    2    0  503  0.56176170404E+02 -0.14681807774E+03 -0.39219758905E+03  0.45618431555E+03  0.17197055221E+03 0.  0.
        -24    2    5    5    0    0  0.65400359129E+02 -0.26285499287E+02 -0.23575176499E+03  0.25842038054E+03  0.78956088647E+02 0.  0.
          5    1    3    3  501    0 -0.61872926112E+02  0.93160814976E+02 -0.11629639945E+03  0.16141294545E+03  0.47000000000E+01 0. -1.
        -11    1    4    4    0    0  0.39550521483E+02  0.13963149407E+02 -0.59314748812E+01  0.42360307898E+02  0.00000000000E+00 0.  1.
         12    1    4    4    0    0 -0.33853765774E+02  0.39694113356E+02  0.12276196215E+02  0.53594823311E+02  0.00000000000E+00 0. -1.
         -5    1    5    5    0  503 -0.92241887254E+01 -0.12053257845E+03 -0.15644582405E+03  0.19776393501E+03  0.47000000000E+01 0.  1.
         13    1    6    6    0    0 -0.11862351885E+02  0.12218595035E+02 -0.63552922853E+02  0.65795010906E+02  0.00000000000E+00 0. -1.
        -14    1    6    6    0    0  0.77262711014E+02 -0.38504094322E+02 -0.17219884214E+03  0.19262536964E+03  0.00000000000E+00 0.  1.
</event>
<event>
12    1  0.8798177E-003  0.2590940E+03  0.7818608E-02  0.1107808E+00
         21   -1    0    0  503  502  0.00000000000E+00  0.00000000000E+00  0.11387865561E+03  0.11387865561E+03  0.00000000000E+00 0.  1.
         21   -1    0    0  501  503 -0.00000000000E+00 -0.00000000000E+00 -0.67438674061E+03  0.67438674061E+03  0.00000000000E+00 0.  1.
          6    2    1    2  501    0 -0.10933401659E+03 -0.16005595973E+03 -0.42119448104E+03  0.49409202693E+03  0.17073459751E+03 0.  0.
         24    2    3    3    0    0 -0.24353377875E+02 -0.14740735576E+03 -0.24347664168E+03  0.29663971227E+03  0.79951412142E+02 0.  0.
         -6    2    1    2    0  502  0.10933401659E+03  0.16005595973E+03 -0.13931360396E+03  0.29417336928E+03  0.17192397598E+03 0.  0.
        -24    2    5    5    0    0  0.75662593276E+02  0.14595641727E+03 -0.16717839132E+03  0.24800954990E+03  0.80820904188E+02 0.  0.
          5    1    3    3  501    0 -0.84980638718E+02 -0.12648603975E+02 -0.17771783936E+03  0.19745231466E+03  0.47000000000E+01 0. -1.
        -13    1    4    4    0    0 -0.43773841403E+02 -0.58735575845E+02 -0.72520735822E+02  0.10307897063E+03  0.00000000000E+00 0.  1.
         14    1    4    4    0    0  0.19420463527E+02 -0.88671779914E+02 -0.17095590586E+03  0.19356074164E+03  0.00000000000E+00 0. -1.
         -5    1    5    5    0  502  0.33671423317E+02  0.14099542463E+02  0.27864787358E+02  0.46163819387E+02  0.47000000000E+01 0.  1.
         13    1    6    6    0    0  0.56617147853E+02  0.28308222753E+02 -0.47770035803E+02  0.79302164076E+02  0.00000000000E+00 0. -1.
        -14    1    6    6    0    0  0.19045445423E+02  0.11764819452E+03 -0.11940835551E+03  0.16870738582E+03  0.00000000000E+00 0.  1.
</event>
<event>
12    1  0.8798177E-003  0.2320244E+03  0.7818608E-02  0.1125288E+00
         21   -1    0    0  503  502  0.00000000000E+00  0.00000000000E+00  0.15741724541E+03  0.15741724541E+03  0.00000000000E+00 0.  1.
         21   -1    0    0  501  503 -0.00000000000E+00 -0.00000000000E+00 -0.46594099608E+03  0.46594099608E+03  0.00000000000E+00 0.  1.
          6    2    1    2  501    0  0.57429657686E+02 -0.14381558710E+03 -0.31528364412E+03  0.39123535162E+03  0.17227952702E+03 0.  0.
         24    2    3    3    0    0 -0.70284711681E+01 -0.90406769129E+02 -0.88588983875E+02  0.14953323910E+03  0.79305726276E+02 0.  0.
         -6    2    1    2    0  502 -0.57429657686E+02  0.14381558710E+03  0.67598934604E+01  0.23212288987E+03  0.17278382784E+03 0.  0.
        -24    2    5    5    0    0 -0.10550738237E+03  0.97858987954E+02  0.13602984646E+02  0.16509756246E+03  0.79774524013E+02 0.  0.
          5    1    3    3  501    0  0.64458128854E+02 -0.53408817976E+02 -0.22669466025E+03  0.24170211252E+03  0.47000000000E+01 0. -1.
        -13    1    4    4    0    0  0.22779186336E+02 -0.48045067545E+02 -0.81416423132E+02  0.97241214519E+02  0.00000000000E+00 0.  1.
         14    1    4    4    0    0 -0.29807657505E+02 -0.42361701585E+02 -0.71725607423E+01  0.52292024580E+02  0.00000000000E+00 0. -1.
         -5    1    5    5    0  502  0.48077724687E+02  0.45956599151E+02 -0.68430911860E+01  0.67025327404E+02  0.47000000000E+01 0.  1.
         11    1    6    6    0    0 -0.71477526123E+02  0.94393370685E+02 -0.16481537263E+02  0.11954407656E+03  0.00000000000E+00 0. -1.
        -12    1    6    6    0    0 -0.34029856251E+02  0.34656172687E+01  0.30084521909E+02  0.45553485904E+02  0.00000000000E+00 0.  1.
</event>
<event>
12    1  0.8798177E-003  0.1926638E+03  0.7818608E-02  0.1156124E+00
         21   -1    0    0  503  502  0.00000000000E+00  0.00000000000E+00  0.19030036521E+03  0.19030036521E+03  0.00000000000E+00 0.  1.
         21   -1    0    0  501  503 -0.00000000000E+00 -0.00000000000E+00 -0.20236143431E+03  0.20236143431E+03  0.00000000000E+00 0.  1.
          6    2    1    2  501    0 -0.38927788804E+00 -0.87174863833E+02  0.31776608155E+02  0.19526669037E+03  0.17181303536E+03 0.  0.
         24    2    3    3    0    0  0.52698756841E+02 -0.65787641269E+02  0.15041857252E+02  0.13545118562E+03  0.10495519759E+03 0.  0.
         -6    2    1    2    0  502  0.38927788804E+00  0.87174863833E+02 -0.43837677250E+02  0.19739510915E+03  0.17159102175E+03 0.  0.
        -24    2    5    5    0    0  0.56133376324E+00 -0.20413458553E+02  0.32751213344E+01  0.79849447775E+02  0.77124467612E+02 0.  0.
          5    1    3    3  501    0 -0.53088034729E+02 -0.21387222563E+02  0.16734750903E+02  0.59815504747E+02  0.47000000000E+01 0. -1.
        -11    1    4    4    0    0  0.38184658231E+02 -0.87623397476E+02  0.35741083589E+02  0.10204583757E+03  0.00000000000E+00 0.  1.
         12    1    4    4    0    0  0.14514098610E+02  0.21835756207E+02 -0.20699226337E+02  0.33405348053E+02  0.00000000000E+00 0. -1.
         -5    1    5    5    0  502 -0.17205587520E+00  0.10758832239E+03 -0.47112798585E+02  0.11754566137E+03  0.47000000000E+01 0.  1.
         13    1    6    6    0    0 -0.17551733057E+02  0.63572285148E+01 -0.28794955675E+02  0.34316572673E+02  0.00000000000E+00 0. -1.
        -14    1    6    6    0    0  0.18113066820E+02 -0.26770687068E+02  0.32070077009E+02  0.45532875102E+02  0.00000000000E+00 0.  1.
</event>
<event>
12    1  0.8798177E-003  0.1945489E+03  0.7818608E-02  0.1156798E+00
         21   -1    0    0  503  502  0.00000000000E+00  0.00000000000E+00  0.20605123147E+02  0.20605123147E+02  0.00000000000E+00 0.  1.
         21   -1    0    0  501  503 -0.00000000000E+00 -0.00000000000E+00 -0.17900694343E+04  0.17900694343E+04  0.00000000000E+00 0. -1.
          6    2    1    2  501    0 -0.79705652037E+02 -0.51362767393E+02 -0.70734592812E+03  0.73088535042E+03  0.15768325401E+03 0.  0.
         24    2    3    3    0    0 -0.92950956697E+02 -0.62048691663E+02 -0.69709812483E+03  0.71047127329E+03  0.79584634430E+02 0.  0.
         -6    2    1    2    0  502  0.79705652037E+02  0.51362767393E+02 -0.10621183830E+04  0.10797892070E+04  0.16987685889E+03 0.  0.
        -24    2    5    5    0    0  0.75812661604E+02  0.83389337163E+02 -0.10001138772E+04  0.10097356183E+04  0.81467234730E+02 0.  0.
          5    1    3    3  501    0  0.13245304660E+02  0.10685924270E+02 -0.10247803287E+02  0.20414077135E+02  0.47000000000E+01 0. -1.
        -13    1    4    4    0    0 -0.22313793699E+02 -0.61155591868E+02 -0.28302091181E+03  0.29041134332E+03  0.00000000000E+00 0.  1.
         14    1    4    4    0    0 -0.70637162998E+02 -0.89309979513E+00 -0.41407721302E+03  0.42005992997E+03  0.00000000000E+00 0. -1.
         -5    1    5    5    0  502  0.38929904326E+01 -0.32026569771E+02 -0.62004505829E+02  0.70053588694E+02  0.47000000000E+01 0.  1.
         11    1    6    6    0    0  0.91574565958E+02  0.56589878194E+02 -0.74605010420E+03  0.75377654077E+03  0.00000000000E+00 0. -1.
        -12    1    6    6    0    0 -0.15761904354E+02  0.26799458969E+02 -0.25406377298E+03  0.25595907754E+03  0.00000000000E+00 0.  1.
</event>
<event>
12    1  0.8798177E-003  0.2259200E+03  0.7818608E-02  0.1131126E+00
         21   -1    0    0  503  502  0.00000000000E+00  0.00000000000E+00  0.62881751682E+03  0.62881751682E+03  0.00000000000E+00 0. -1.
         21   -1    0    0  501  503 -0.00000000000E+00 -0.00000000000E+00 -0.78233122678E+02  0.78233122678E+02  0.00000000000E+00 0. -1.
          6    2    1    2  501    0 -0.49395867676E+02  0.12417583947E+03  0.26647709159E+03  0.34935636538E+03  0.18215443678E+03 0.  0.
         24    2    3    3    0    0 -0.64473984528E+02  0.38000190954E+02  0.73148160290E+02  0.13710237205E+03  0.88574815131E+02 0.  0.
         -6    2    1    2    0  502  0.49395867676E+02 -0.12417583947E+03  0.28410730255E+03  0.35769427412E+03  0.17137282025E+03 0.  0.
        -24    2    5    5    0    0  0.11670578992E+02 -0.14017946073E+03  0.16263042117E+03  0.22940539693E+03  0.79948099576E+02 0.  0.
          5    1    3    3  501    0  0.15078116852E+02  0.86175648519E+02  0.19332893130E+03  0.21225399333E+03  0.47000000000E+01 0. -1.
        -13    1    4    4    0    0 -0.23984328137E+02 -0.24854474037E+02  0.46076640390E+02  0.57585151432E+02  0.00000000000E+00 0.  1.
         14    1    4    4    0    0 -0.40489656391E+02  0.62854664990E+02  0.27071519900E+02  0.79517220622E+02  0.00000000000E+00 0. -1.
         -5    1    5    5    0  502  0.37725288685E+02  0.16003621259E+02  0.12147688138E+03  0.12828887719E+03  0.47000000000E+01 0.  1.
         13    1    6    6    0    0  0.14987446499E+02 -0.42485702659E+02  0.69554888388E+01  0.45585494491E+02  0.00000000000E+00 0. -1.
        -14    1    6    6    0    0 -0.33168675074E+01 -0.97693758072E+02  0.15567493233E+03  0.18381990244E+03  0.00000000000E+00 0.  1.
</event>
<event>
12    1  0.8798177E-003  0.2942526E+03  0.7818608E-02  0.1088243E+00
         21   -1    0    0  501  502  0.00000000000E+00  0.00000000000E+00  0.33645378896E+03  0.33645378896E+03  0.00000000000E+00 0. -1.
         21   -1    0    0  502  503 -0.00000000000E+00 -0.00000000000E+00 -0.27368301379E+03  0.27368301379E+03  0.00000000000E+00 0.  1.
          6    2    1    2  501    0  0.20259200426E+03 -0.12651616863E+03  0.10739483568E+03  0.31323830933E+03  0.17185670363E+03 0.  0.
         24    2    3    3    0    0  0.13176823785E+03 -0.59710932331E+01  0.64613199712E+02  0.16695270010E+03  0.79371380436E+02 0.  0.
         -6    2    1    2    0  503 -0.20259200426E+03  0.12651616863E+03 -0.44624060512E+02  0.29689849342E+03  0.17060934177E+03 0.  0.
        -24    2    5    5    0    0 -0.18082472715E+03  0.13654006379E+03 -0.80700954033E+02  0.25333331152E+03  0.79525793154E+02 0.  0.
          5    1    3    3  501    0  0.70823766410E+02 -0.12054507540E+03  0.42781635968E+02  0.14628560923E+03  0.47000000000E+01 0. -1.
        -13    1    4    4    0    0  0.78122943708E+02 -0.37834237035E+02  0.16963401770E+02  0.88444224374E+02  0.00000000000E+00 0.  1.
         14    1    4    4    0    0  0.53645294146E+02  0.31863143801E+02  0.47649797942E+02  0.78508475726E+02  0.00000000000E+00 0. -1.
         -5    1    5    5    0  503 -0.21767277114E+02 -0.10023895161E+02  0.36076893521E+02  0.43565181892E+02  0.47000000000E+01 0.  1.
         13    1    6    6    0    0 -0.61865522247E+02  0.45170002307E+02  0.11206896817E+02  0.77416190087E+02  0.00000000000E+00 0. -1.
        -14    1    6    6    0    0 -0.11895920490E+03  0.91370061485E+02 -0.91907850850E+02  0.17591712144E+03  0.00000000000E+00 0.  1.
</event>
<event>
12    1  0.8798177E-003  0.2010806E+03  0.7818608E-02  0.1153863E+00
         21   -1    0    0  501  502  0.00000000000E+00  0.00000000000E+00  0.25795090293E+03  0.25795090293E+03  0.00000000000E+00 0. -1.
         21   -1    0    0  502  503 -0.00000000000E+00 -0.00000000000E+00 -0.20382993878E+03  0.20382993878E+03  0.00000000000E+00 0. -1.
          6    2    1    2  501    0  0.66971612104E+02 -0.51631859651E+01  0.15755465064E+03  0.25545424380E+03  0.18952980615E+03 0.  0.
         24    2    3    3    0    0 -0.72529728832E+01 -0.45376201028E+02  0.20981598747E+02  0.94828392518E+02  0.80253294675E+02 0.  0.
         -6    2    1    2    0  503 -0.66971612104E+02  0.51631859651E+01 -0.10343368649E+03  0.20632659791E+03  0.16540943803E+03 0.  0.
        -24    2    5    5    0    0 -0.56903827774E+02  0.41008116767E+02 -0.94578746649E+01  0.10513488603E+03  0.77744334921E+02 0.  0.
          5    1    3    3  501    0  0.74224584987E+02  0.40213015063E+02  0.13657305189E+03  0.16062585128E+03  0.47000000000E+01 0. -1.
        -13    1    4    4    0    0  0.13931333649E+02 -0.27868228833E+01 -0.24945647863E+02  0.28707730428E+02  0.00000000000E+00 0.  1.
         14    1    4    4    0    0 -0.21184306533E+02 -0.42589378145E+02  0.45927246610E+02  0.66120662090E+02  0.00000000000E+00 0. -1.
         -5    1    5    5    0  503 -0.10067784330E+02 -0.35844930801E+02 -0.93975811821E+02  0.10119171188E+03  0.47000000000E+01 0.  1.
         11    1    6    6    0    0 -0.66009262979E+02  0.31816025835E+02 -0.31353076105E+02  0.79702557552E+02  0.00000000000E+00 0. -1.
        -12    1    6    6    0    0  0.91054352055E+01  0.91920909318E+01  0.21895201440E+02  0.25432328483E+02  0.00000000000E+00 0.  1.
</event>
<event>
12    1  0.8798177E-003  0.2055976E+03  0.7818608E-02  0.1145529E+00
         21   -1    0    0  503  502  0.00000000000E+00  0.00000000000E+00  0.43890738430E+03  0.43890738430E+03  0.00000000000E+00 0.  1.
         21   -1    0    0  501  503 -0.00000000000E+00 -0.00000000000E+00 -0.95799078192E+02  0.95799078192E+02  0.00000000000E+00 0.  1.
          6    2    1    2  501    0 -0.52430367117E+02 -0.98869650922E+02  0.19112490722E+03  0.28071181079E+03  0.17247098101E+03 0.  0.
         24    2    3    3    0    0 -0.74014333423E+02 -0.11269289270E+03  0.19925464478E+03  0.25341470019E+03  0.79616500718E+02 0.  0.
         -6    2    1    2    0  502  0.52430367117E+02  0.98869650922E+02  0.15198339889E+03  0.25399465170E+03  0.16997111015E+03 0.  0.
        -24    2    5    5    0    0  0.57074746685E+02  0.61747565286E+02  0.17766226381E+03  0.20837542760E+03  0.69182008638E+02 0.  0.
          5    1    3    3  501    0  0.21583966306E+02  0.13823241781E+02 -0.81297375568E+01  0.27297110609E+02  0.47000000000E+01 0. -1.
        -13    1    4    4    0    0  0.10613675657E+01 -0.34176861769E+02  0.10741254062E+02  0.35840743858E+02  0.00000000000E+00 0.  1.
         14    1    4    4    0    0 -0.75075700988E+02 -0.78516030934E+02  0.18851339072E+03  0.21757395633E+03  0.00000000000E+00 0. -1.
         -5    1    5    5    0  502 -0.46443795686E+01  0.37122085635E+02 -0.25678864921E+02  0.45619224096E+02  0.47000000000E+01 0.  1.
         11    1    6    6    0    0  0.12335758089E+02  0.62840336282E+02  0.10884078682E+03  0.12628299833E+03  0.00000000000E+00 0. -1.
        -12    1    6    6    0    0  0.44738988596E+02 -0.10927709957E+01  0.68821476989E+02  0.82092429273E+02  0.00000000000E+00 0.  1.
</event>
<event>
12    1  0.8798177E-003  0.1762088E+03  0.7818608E-02  0.1172606E+00
         21   -1    0    0  501  502  0.00000000000E+00  0.00000000000E+00  0.80025511330E+02  0.80025511330E+02  0.00000000000E+00 0. -1.
         21   -1    0    0  502  503 -0.00000000000E+00 -0.00000000000E+00 -0.57403615749E+03  0.57403615749E+03  0.00000000000E+00 0. -1.
          6    2    1    2  501    0  0.11057572342E+01  0.86665569531E+01 -0.54187947033E+02  0.18025416287E+03  0.17169419827E+03 0.  0.
         24    2    3    3    0    0 -0.22814072904E+02  0.65490053143E+02 -0.67385162901E+02  0.11702976489E+03  0.65922505322E+02 0.  0.
         -6    2    1    2    0  503 -0.11057572342E+01 -0.86665569531E+01 -0.43982269913E+03  0.47380750595E+03  0.17599208539E+03 0.  0.
        -24    2    5    5    0    0 -0.17406451125E+02  0.62873856430E+02 -0.17371632192E+03  0.19773063738E+03  0.68293031093E+02 0.  0.
          5    1    3    3  501    0  0.23919830138E+02 -0.56823496189E+02  0.13197215868E+02  0.63224397978E+02  0.47000000000E+01 0. -1.
        -13    1    4    4    0    0 -0.25670934883E+02  0.10298082942E+02 -0.53218411502E+02  0.59977051719E+02  0.00000000000E+00 0.  1.
         14    1    4    4    0    0  0.28568619789E+01  0.55191970201E+02 -0.14166751399E+02  0.57052713171E+02  0.00000000000E+00 0. -1.
         -5    1    5    5    0  503  0.16300693891E+02 -0.71540413383E+02 -0.26610637721E+03  0.27607686857E+03  0.47000000000E+01 0.  1.
         11    1    6    6    0    0  0.20284060488E+01  0.42746230052E+02 -0.16172314526E+03  0.16728936107E+03  0.00000000000E+00 0. -1.
        -12    1    6    6    0    0 -0.19434857174E+02  0.20127626377E+02 -0.11993176654E+02  0.30441276307E+02  0.00000000000E+00 0.  1.
</event>
<event>
12    1  0.8798177E-003  0.2305881E+03  0.7818608E-02  0.1126296E+00
         21   -1    0    0  501  502  0.00000000000E+00  0.00000000000E+00  0.11708669055E+04  0.11708669055E+04  0.00000000000E+00 0.  1.
         21   -1    0    0  502  503 -0.00000000000E+00 -0.00000000000E+00 -0.46025349644E+02  0.46025349644E+02  0.00000000000E+00 0. -1.
          6    2    1    2  501    0  0.13016570300E+03 -0.82986138930E+02  0.63654996879E+03  0.67689265863E+03  0.17075713469E+03 0.  0.
         24    2    3    3    0    0  0.10634244104E+03 -0.56374548412E+02  0.62092409912E+03  0.63762457537E+03  0.80818053478E+02 0.  0.
         -6    2    1    2    0  503 -0.13016570300E+03  0.82986138930E+02  0.48829158704E+03  0.53999959649E+03  0.17129238378E+03 0.  0.
        -24    2    5    5    0    0 -0.35318925761E+02  0.63944626866E+02  0.12937664784E+03  0.16824629937E+03  0.78944020828E+02 0.  0.
          5    1    3    3  501    0  0.23823261958E+02 -0.26611590518E+02  0.15625869670E+02  0.39268083263E+02  0.47000000000E+01 0. -1.
        -11    1    4    4    0    0  0.24007856080E+01  0.13531586489E+02  0.23619640218E+02  0.27326818484E+02  0.00000000000E+00 0.  1.
         12    1    4    4    0    0  0.10394165544E+03 -0.69906134902E+02  0.59730445890E+03  0.61029775688E+03  0.00000000000E+00 0. -1.
         -5    1    5    5    0  503 -0.94846777242E+02  0.19041512065E+02  0.35891493920E+03  0.37175329711E+03  0.47000000000E+01 0.  1.
         13    1    6    6    0    0  0.17534637976E+02  0.33185514551E+02  0.84292886901E+02  0.92271516120E+02  0.00000000000E+00 0. -1.
        -14    1    6    6    0    0 -0.52853563736E+02  0.30759112315E+02  0.45083760941E+02  0.75974783255E+02  0.00000000000E+00 0.  1.
</event>
<event>
12    1  0.8798177E-003  0.2113423E+03  0.7818608E-02  0.1140523E+00
         21   -1    0    0  501  502  0.00000000000E+00  0.00000000000E+00  0.31925106326E+03  0.31925106326E+03  0.00000000000E+00 0. -1.
         21   -1    0    0  502  503 -0.00000000000E+00 -0.00000000000E+00 -0.14966200590E+03  0.14966200590E+03  0.00000000000E+00 0. -1.
          6    2    1    2  501    0  0.60875554981E+02 -0.10752739406E+03  0.24758722906E+02  0.21270731613E+03  0.17135762110E+03 0.  0.
         24    2    3    3    0    0  0.47327118369E+02 -0.36859902024E+02  0.74970044877E+02  0.12483968035E+03  0.79786776158E+02 0.  0.
         -6    2    1    2    0  503 -0.60875554981E+02  0.10752739406E+03  0.14483033445E+03  0.25620575302E+03  0.17145724959E+03 0.  0.
        -24    2    5    5    0    0 -0.20265815830E+02  0.13559734768E+03  0.13135265293E+03  0.20481693021E+03  0.76805673492E+02 0.  0.
          5    1    3    3  501    0  0.13548436612E+02 -0.70667492032E+02 -0.50211321971E+02  0.87867635787E+02  0.47000000000E+01 0. -1.
        -13    1    4    4    0    0  0.69353739168E+01  0.21083642912E+02  0.40640979122E+02  0.46306679797E+02  0.00000000000E+00 0.  1.
         14    1    4    4    0    0  0.40391744452E+02 -0.57943544936E+02  0.34329065755E+02  0.78533000549E+02  0.00000000000E+00 0. -1.
         -5    1    5    5    0  503 -0.40609739151E+02 -0.28069953626E+02  0.13477681523E+02  0.51388822809E+02  0.47000000000E+01 0.  1.
         13    1    6    6    0    0  0.47990420127E+01  0.12905268532E+02  0.58164114628E+02  0.59771573433E+02  0.00000000000E+00 0. -1.
        -14    1    6    6    0    0 -0.25064857843E+02  0.12269207915E+03  0.73188538300E+02  0.14504535678E+03  0.00000000000E+00 0.  1.
</event>
<event>
12    1  0.8798177E-003  0.2093224E+03  0.7818608E-02  0.1142247E+00
         21   -1    0    0  501  502  0.00000000000E+00  0.00000000000E+00  0.97508402054E+02  0.97508402054E+02  0.00000000000E+00 0.  1.
         21   -1    0    0  502  503 -0.00000000000E+00 -0.00000000000E+00 -0.49470312219E+03  0.49470312219E+03  0.00000000000E+00 0.  1.
          6    2    1    2  501    0  0.10388339368E+03  0.55107832811E+02 -0.10711819151E+03  0.23449618812E+03  0.17229487100E+03 0.  0.
         24    2    3    3    0    0 -0.74094376791E+01  0.51368413202E+02 -0.63390646546E+02  0.11477039408E+03  0.80375715527E+02 0.  0.
         -6    2    1    2    0  503 -0.10388339368E+03 -0.55107832811E+02 -0.29007652863E+03  0.35771533613E+03  0.17316823183E+03 0.  0.
        -24    2    5    5    0    0 -0.43994895497E+02  0.33093735556E+02 -0.17839412450E+03  0.20324463253E+03  0.80331630337E+02 0.  0.
          5    1    3    3  501    0  0.11129283136E+03  0.37394196087E+01 -0.43727544960E+02  0.11972579404E+03  0.47000000000E+01 0. -1.
        -11    1    4    4    0    0  0.31695008881E+02  0.37854057882E+02 -0.16086909361E+02  0.51925831134E+02  0.00000000000E+00 0.  1.
         12    1    4    4    0    0 -0.39104446560E+02  0.13514355320E+02 -0.47303737184E+02  0.62844562948E+02  0.00000000000E+00 0. -1.
         -5    1    5    5    0  503 -0.59888498179E+02 -0.88201568367E+02 -0.11168240413E+03  0.15447070360E+03  0.47000000000E+01 0.  1.
         11    1    6    6    0    0  0.39447454084E+01  0.11375278653E+02  0.45573886735E+01  0.12873529908E+02  0.00000000000E+00 0. -1.
        -12    1    6    6    0    0 -0.47939640906E+02  0.21718456903E+02 -0.18295151317E+03  0.19037110262E+03  0.00000000000E+00 0.  1.
</event>
<event>
12    1  0.8798177E-003  0.1853652E+03  0.7818608E-02  0.1163030E+00
         21   -1    0    0  501  502  0.00000000000E+00  0.00000000000E+00  0.64690748338E+02  0.64690748338E+02  0.00000000000E+00 0.  1.
         21   -1    0    0  502  503 -0.00000000000E+00 -0.00000000000E+00 -0.63808595498E+03  0.63808595498E+03  0.00000000000E+00 0.  1.
          6    2    1    2  501    0  0.30554672625E+02  0.58637514821E+02 -0.13934776271E+03  0.23080482505E+03  0.17170067597E+03 0.  0.
         24    2    3    3    0    0 -0.63040573100E+01  0.47069385446E+02 -0.73648532617E+01  0.93204076590E+02  0.79859192612E+02 0.  0.
         -6    2    1    2    0  503 -0.30554672625E+02 -0.58637514821E+02 -0.43404744393E+03  0.47197187827E+03  0.17317137215E+03 0.  0.
        -24    2    5    5    0    0  0.22420546162E+02  0.15695041058E+02 -0.28379196593E+03  0.29610118333E+03  0.79931318261E+02 0.  0.
          5    1    3    3  501    0  0.36858729935E+02  0.11568129375E+02 -0.13198290945E+03  0.13760074845E+03  0.47000000000E+01 0. -1.
        -13    1    4    4    0    0  0.20632801683E+02  0.21124348794E+02  0.28750330973E+02  0.41213252096E+02  0.00000000000E+00 0.  1.
         14    1    4    4    0    0 -0.26936858993E+02  0.25945036652E+02 -0.36115184235E+02  0.51990824494E+02  0.00000000000E+00 0. -1.
         -5    1    5    5    0  503 -0.52975218787E+02 -0.74332555880E+02 -0.15025547800E+03  0.17587069494E+03  0.47000000000E+01 0.  1.
         13    1    6    6    0    0  0.18716974883E+02  0.10827537585E+02 -0.12979376840E+02  0.25219534930E+02  0.00000000000E+00 0. -1.
        -14    1    6    6    0    0  0.37035712791E+01  0.48675034730E+01 -0.27081258909E+03  0.27088164840E+03  0.00000000000E+00 0.  1.
</event>
<event>
12    1  0.8798177E-003  0.2719446E+03  0.7818608E-02  0.1100445E+00
         21   -1    0    0  503  502  0.00000000000E+00  0.00000000000E+00  0.98430997728E+02  0.98430997728E+02  0.00000000000E+00 0.  1.
         21   -1    0    0  501  503 -0.00000000000E+00 -0.00000000000E+00 -0.79242810414E+03  0.79242810414E+03  0.00000000000E+00 0.  1.
          6    2    1    2  501    0  0.48078695558E+02  0.20203442891E+03 -0.45361361740E+03  0.52790171181E+03  0.17258456480E+03 0.  0.
         24    2    3    3    0    0 -0.22468992473E+02  0.17167615034E+03 -0.35644760726E+03  0.40395847927E+03  0.78421935957E+02 0.  0.
         -6    2    1    2    0  502 -0.48078695558E+02 -0.20203442891E+03 -0.24038348901E+03  0.36295739006E+03  0.17556871526E+03 0.  0.
        -24    2    5    5    0    0 -0.20155858145E+02 -0.20901800197E+02 -0.51023251660E+02  0.99389365590E+02  0.80198066768E+02 0.  0.
          5    1    3    3  501    0  0.70547688031E+02  0.30358278574E+02 -0.97166010140E+02  0.12394323253E+03  0.47000000000E+01 0. -1.
        -11    1    4    4    0    0 -0.46039623389E+02  0.89667236649E+02 -0.15161174426E+03  0.18206037803E+03  0.00000000000E+00 0.  1.
         12    1    4    4    0    0  0.23570630916E+02  0.82008913686E+02 -0.20483586300E+03  0.22189810124E+03  0.00000000000E+00 0. -1.
         -5    1    5    5    0  502 -0.27922837412E+02 -0.18113262871E+03 -0.18936023735E+03  0.26356802447E+03  0.47000000000E+01 0.  1.
         13    1    6    6    0    0  0.50656231129E+01 -0.38470187115E+02 -0.56124520874E+02  0.68231793744E+02  0.00000000000E+00 0. -1.
        -14    1    6    6    0    0 -0.25221481258E+02  0.17568386918E+02  0.51012692143E+01  0.31157571846E+02  0.00000000000E+00 0.  1.
</event>
<event>
12    1  0.8798177E-003  0.2862994E+03  0.7818608E-02  0.1093009E+00
         21   -1    0    0  503  502  0.00000000000E+00  0.00000000000E+00  0.65662708167E+02  0.65662708167E+02  0.00000000000E+00 0. -1.
         21   -1    0    0  501  503 -0.00000000000E+00 -0.00000000000E+00 -0.12355952748E+04  0.12355952748E+04  0.00000000000E+00 0.  1.
          6    2    1    2  501    0 -0.15970747078E+03  0.15380340959E+03 -0.63904116569E+03  0.69808882318E+03  0.17260483359E+03 0.  0.
         24    2    3    3    0    0 -0.14230712201E+03  0.42722392524E+02 -0.38595939750E+03  0.42111547450E+03  0.79354058163E+02 0.  0.
         -6    2    1    2    0  502  0.15970747078E+03 -0.15380340959E+03 -0.53089140091E+03  0.60316915975E+03  0.18112258471E+03 0.  0.
        -24    2    5    5    0    0  0.12069694653E+03 -0.32102462854E+02 -0.36332062096E+03  0.39237305511E+03  0.79727158102E+02 0.  0.
          5    1    3    3  501    0 -0.17400348772E+02  0.11108101707E+03 -0.25308176818E+03  0.27697334868E+03  0.47000000000E+01 0. -1.
        -11    1    4    4    0    0 -0.11111002675E+03  0.11751629077E+01 -0.20920285851E+03  0.23688109900E+03  0.00000000000E+00 0.  1.
         12    1    4    4    0    0 -0.31197095254E+02  0.41547229616E+02 -0.17675653899E+03  0.18423437550E+03  0.00000000000E+00 0. -1.
         -5    1    5    5    0  502  0.39010524253E+02 -0.12170094674E+03 -0.16757077995E+03  0.21079610465E+03  0.47000000000E+01 0.  1.
         11    1    6    6    0    0  0.55131012014E+02 -0.14026747119E+02 -0.27541592738E+03  0.28122964136E+03  0.00000000000E+00 0. -1.
        -12    1    6    6    0    0  0.65565934514E+02 -0.18075715736E+02 -0.87904693571E+02  0.11114341375E+03  0.00000000000E+00 0.  1.
</event>
<event>
12    1  0.8798177E-003  0.1839877E+03  0.7818608E-02  0.1164472E+00
         21   -1    0    0  501  502  0.00000000000E+00  0.00000000000E+00  0.86739805671E+02  0.86739805671E+02  0.00000000000E+00 0. -1.
         21   -1    0    0  502  503 -0.00000000000E+00 -0.00000000000E+00 -0.38721944661E+03  0.38721944661E+03  0.00000000000E+00 0. -1.
          6    2    1    2  501    0 -0.49339148460E+02 -0.40282683625E+02 -0.16418083086E+03  0.24659041544E+03  0.17261066477E+03 0.  0.
         24    2    3    3    0    0 -0.41719318471E+02  0.27575338387E+02 -0.14895670037E+03  0.17647167964E+03  0.80332149919E+02 0.  0.
         -6    2    1    2    0  503  0.49339148460E+02  0.40282683625E+02 -0.13629881009E+03  0.22736883685E+03  0.17047632143E+03 0.  0.
        -24    2    5    5    0    0 -0.45558358233E+01 -0.34671110742E+02 -0.57834227693E+02  0.10611900670E+03  0.81814449394E+02 0.  0.
          5    1    3    3  501    0 -0.76198299894E+01 -0.67858022012E+02 -0.15224130491E+02  0.70118735796E+02  0.47000000000E+01 0. -1.
        -13    1    4    4    0    0  0.23087216353E+02  0.15999825462E+02 -0.35135938412E+02  0.44983865350E+02  0.00000000000E+00 0.  1.
         14    1    4    4    0    0 -0.64806534824E+02  0.11575512925E+02 -0.11382076195E+03  0.13148781429E+03  0.00000000000E+00 0. -1.
         -5    1    5    5    0  503  0.53894984284E+02  0.74953794367E+02 -0.78464582392E+02  0.12124983015E+03  0.47000000000E+01 0.  1.
         11    1    6    6    0    0  0.13687399149E+02 -0.55485579033E+02 -0.53156509881E+02  0.78048759880E+02  0.00000000000E+00 0. -1.
        -12    1    6    6    0    0 -0.18243234972E+02  0.20814468291E+02 -0.46777178122E+01  0.28070246818E+02  0.00000000000E+00 0.  1.
</event>
<event>
12    1  0.8798177E-003  0.2782952E+03  0.7818608E-02  0.1096807E+00
         21   -1    0    0  501  502  0.00000000000E+00  0.00000000000E+00  0.78277621608E+03  0.78277621608E+03  0.00000000000E+00 0.  1.
         21   -1    0    0  502  503 -0.00000000000E+00 -0.00000000000E+00 -0.98522330030E+02  0.98522330030E+02  0.00000000000E+00 0. -1.
          6    2    1    2  501    0  0.15545065518E+03 -0.15252725166E+03  0.35164438042E+03  0.44761972916E+03  0.17111453171E+03 0.  0.
         24    2    3    3    0    0  0.11548737090E+03 -0.14270170756E+03  0.35333888320E+03  0.40616412946E+03  0.80123801104E+02 0.  0.
         -6    2    1    2    0  503 -0.15545065518E+03  0.15252725166E+03  0.33260950564E+03  0.43367881695E+03  0.17325924027E+03 0.  0.
        -24    2    5    5    0    0 -0.93968768266E+02  0.24714346177E+02  0.21545720289E+03  0.24966003186E+03  0.80420127561E+02 0.  0.
          5    1    3    3  501    0  0.39963284278E+02 -0.98255440966E+01 -0.16945027786E+01  0.41455599703E+02  0.47000000000E+01 0. -1.
        -11    1    4    4    0    0  0.26244677395E+02 -0.71477788061E+02  0.20693891956E+03  0.22050300158E+03  0.00000000000E+00 0.  1.
         12    1    4    4    0    0  0.89242693502E+02 -0.71223919502E+02  0.14639996364E+03  0.18566112788E+03  0.00000000000E+00 0. -1.
         -5    1    5    5    0  503 -0.61481886909E+02  0.12781290548E+03  0.11715230275E+03  0.18401878509E+03  0.47000000000E+01 0.  1.
         11    1    6    6    0    0 -0.10490031611E+03  0.10124781917E+02  0.16277904174E+03  0.19391648708E+03  0.00000000000E+00 0. -1.
        -12    1    6    6    0    0  0.10931547847E+02  0.14589564260E+02  0.52678161147E+02  0.55743544787E+02  0.00000000000E+00 0.  1.
</event>
<event>
12    1  0.8798177E-003  0.1871178E+03  0.7818608E-02  0.1161153E+00
         21   -1    0    0  503  502  0.00000000000E+00  0.00000000000E+00  0.42846146829E+02  0.42846146829E+02  0.00000000000E+00 0. -1.
         21   -1    0    0  501  503 -0.00000000000E+00 -0.00000000000E+00 -0.93015912641E+03  0.93015912641E+03  0.00000000000E+00 0.  1.
          6    2    1    2  501    0  0.50019163607E+02 -0.52317514195E+02 -0.61384701187E+03  0.64164938940E+03  0.17224037251E+03 0.  0.
         24    2    3    3    0    0  0.48005557868E+02  0.30234244932E+02 -0.24595708173E+03  0.26457653406E+03  0.79291948943E+02 0.  0.
         -6    2    1    2    0  502 -0.50019163607E+02  0.52317514195E+02 -0.27346596772E+03  0.33135588384E+03  0.17255157848E+03 0.  0.
        -24    2    5    5    0    0 -0.77254147612E+02  0.27524748458E+02 -0.92214219424E+02  0.14634044706E+03  0.78652711852E+02 0.  0.
          5    1    3    3  501    0  0.20136057390E+01 -0.82551759127E+02 -0.36788993014E+03  0.37707285535E+03  0.47000000000E+01 0. -1.
        -11    1    4    4    0    0  0.60453813243E+02  0.11372436368E+02 -0.10398906343E+03  0.12082102945E+03  0.00000000000E+00 0.  1.
         12    1    4    4    0    0 -0.12448255375E+02  0.18861808564E+02 -0.14196801830E+03  0.14375550461E+03  0.00000000000E+00 0. -1.
         -5    1    5    5    0  502  0.27234984005E+02  0.24792765737E+02 -0.18125174829E+03  0.18501543678E+03  0.47000000000E+01 0.  1.
         13    1    6    6    0    0 -0.85856163539E+01  0.35501213823E+02 -0.80076657172E+01  0.37392134217E+02  0.00000000000E+00 0. -1.
        -14    1    6    6    0    0 -0.68668531258E+02 -0.79764653647E+01 -0.84206553707E+02  0.10894831285E+03  0.00000000000E+00 0.  1.
</event>
<event>
12    1  0.8798177E-003  0.1980028E+03  0.7818608E-02  0.1151442E+00
         21   -1    0    0  503  502  0.00000000000E+00  0.00000000000E+00  0.12791154324E+04  0.12791154324E+04  0.00000000000E+00 0.  1.
         21   -1    0    0  501  503 -0.00000000000E+00 -0.00000000000E+00 -0.31406516877E+02  0.31406516877E+02  0.00000000000E+00 0.  1.
          6    2    1    2  501    0 -0.40929106134E+02 -0.88918215506E+02  0.52179467848E+03  0.55808816210E+03  0.17207867217E+03 0.  0.
         24    2    3    3    0    0  0.40951178777E+02 -0.48560777792E+02  0.21295834625E+03  0.23600886451E+03  0.79459289617E+02 0.  0.
         -6    2    1    2    0  502  0.40929106134E+02  0.88918215506E+02  0.72591423708E+03  0.75243378721E+03  0.17211474009E+03 0.  0.
        -24    2    5    5    0    0  0.64837314261E+02  0.10347580613E+03  0.41080533551E+03  0.43604915466E+03  0.80415930167E+02 0.  0.
          5    1    3    3  501    0 -0.81880284911E+02 -0.40357437714E+02  0.30883633222E+03  0.32207929759E+03  0.47000000000E+01 0. -1.
        -11    1    4    4    0    0  0.12825475447E+02 -0.39572314621E+02  0.31541047245E+02  0.52204392212E+02  0.00000000000E+00 0.  1.
         12    1    4    4    0    0  0.28125703330E+02 -0.89884631708E+01  0.18141729901E+03  0.18380447230E+03  0.00000000000E+00 0. -1.
         -5    1    5    5    0  502 -0.23908208127E+02 -0.14557590623E+02  0.31510890158E+03  0.31638463255E+03  0.47000000000E+01 0.  1.
         11    1    6    6    0    0  0.43117971576E+02  0.35612883252E+02  0.79694844650E+02  0.97358642093E+02  0.00000000000E+00 0. -1.
        -12    1    6    6    0    0  0.21719342685E+02  0.67862922877E+02  0.33111049086E+03  0.33869051257E+03  0.00000000000E+00 0.  1.
</event>
<event>
12    1  0.8798177E-003  0.1828585E+03  0.7818608E-02  0.1165530E+00
         21   -1    0    0  501  502  0.00000000000E+00  0.00000000000E+00  0.45318395740E+03  0.45318395740E+03  0.00000000000E+00 0. -1.
         21   -1    0    0  502  503 -0.00000000000E+00 -0.00000000000E+00 -0.87640839936E+02  0.87640839936E+02  0.00000000000E+00 0. -1.
          6    2    1    2  501    0 -0.43937520773E+02 -0.37908953202E+02  0.29248702729E+03  0.34391254238E+03  0.17134637786E+03 0.  0.
         24    2    3    3    0    0  0.75295526260E+00 -0.61364387367E+02  0.91498728939E+02  0.13663065191E+03  0.80806946888E+02 0.  0.
         -6    2    1    2    0  503  0.43937520773E+02  0.37908953202E+02  0.73056090170E+02  0.19691225496E+03  0.17340602463E+03 0.  0.
        -24    2    5    5    0    0  0.56998576242E+02  0.84095921285E+02  0.75379855985E+02  0.14862854054E+03  0.78021527178E+02 0.  0.
          5    1    3    3  501    0 -0.44690476035E+02  0.23455434165E+02  0.20098829835E+03  0.20728189047E+03  0.47000000000E+01 0. -1.
        -13    1    4    4    0    0 -0.21099193381E+01 -0.74354514599E+02  0.96998663516E+02  0.12223659978E+03  0.00000000000E+00 0.  1.
         14    1    4    4    0    0  0.28628746007E+01  0.12990127232E+02 -0.54999345772E+01  0.14394052134E+02  0.00000000000E+00 0. -1.
         -5    1    5    5    0  503 -0.13061055470E+02 -0.46186968083E+02 -0.23237658146E+01  0.48283714421E+02  0.47000000000E+01 0.  1.
         11    1    6    6    0    0  0.25802913793E+02  0.87779570755E+02  0.36160044015E+02  0.98379836274E+02  0.00000000000E+00 0. -1.
        -12    1    6    6    0    0  0.31195662450E+02 -0.36836494699E+01  0.39219811970E+02  0.50248704262E+02  0.00000000000E+00 0.  1.
</event>
<event>
12    1  0.8798177E-003  0.2947339E+03  0.7818608E-02  0.1088027E+00
         21   -1    0    0  503  502  0.00000000000E+00  0.00000000000E+00  0.50822457669E+03  0.50822457669E+03  0.00000000000E+00 0. -1.
         21   -1    0    0  501  503 -0.00000000000E+00 -0.00000000000E+00 -0.17167932629E+03  0.17167932629E+03  0.00000000000E+00 0.  1.
          6    2    1    2  501    0  0.92044112621E+02 -0.22017007042E+03  0.19774659062E+03  0.35412311268E+03  0.17132567308E+03 0.  0.
         24    2    3    3    0    0  0.10267225777E+03 -0.23227669907E+03  0.20505025381E+03  0.33582116135E+03  0.78969540818E+02 0.  0.
         -6    2    1    2    0  502 -0.92044112621E+02  0.22017007042E+03  0.13879865978E+03  0.32578079030E+03  0.17297709904E+03 0.  0.
        -24    2    5    5    0    0  0.14381384177E+00  0.13601926756E+03  0.12302475206E+03  0.19988052194E+03  0.79472458140E+02 0.  0.
          5    1    3    3  501    0 -0.10628145146E+02  0.12106628653E+02 -0.73036631894E+01  0.18301951332E+02  0.47000000000E+01 0. -1.
        -13    1    4    4    0    0  0.32828056020E+02 -0.16227819619E+03  0.14533926511E+03  0.22030750374E+03  0.00000000000E+00 0.  1.
         14    1    4    4    0    0  0.69844201746E+02 -0.69998502877E+02  0.59710988698E+02  0.11551365761E+03  0.00000000000E+00 0. -1.
         -5    1    5    5    0  502 -0.92187926463E+02  0.84150802863E+02  0.15773907725E+02  0.12590026836E+03  0.47000000000E+01 0.  1.
         13    1    6    6    0    0 -0.11461478418E+02  0.51995276235E+02  0.35553811266E+01  0.53362111777E+02  0.00000000000E+00 0. -1.
        -14    1    6    6    0    0  0.11605292260E+02  0.84023991321E+02  0.11946937093E+03  0.14651841016E+03  0.00000000000E+00 0.  1.
</event>
<event>
12    1  0.8798177E-003  0.1947169E+03  0.7818608E-02  0.1154379E+00
         21   -1    0    0  503  502  0.00000000000E+00  0.00000000000E+00  0.65407343880E+03  0.65407343880E+03  0.00000000000E+00 0.  1.
         21   -1    0    0  501  503 -0.00000000000E+00 -0.00000000000E+00 -0.58793952591E+02  0.58793952591E+02  0.00000000000E+00 0.  1.
          6    2    1    2  501    0  0.11076147484E+02  0.90825484910E+02  0.25222437744E+03  0.31864053679E+03  0.17187991551E+03 0.  0.
         24    2    3    3    0    0 -0.31299976805E+02  0.21812649100E+02  0.20891613071E+03  0.22668292889E+03  0.79269920951E+02 0.  0.
         -6    2    1    2    0  502 -0.11076147484E+02 -0.90825484910E+02  0.34305510877E+03  0.39422685460E+03  0.17133608927E+03 0.  0.
        -24    2    5    5    0    0  0.30047457918E+02  0.72048620215E+01  0.18089816475E+03  0.20027308605E+03  0.80189795008E+02 0.  0.
          5    1    3    3  501    0  0.42376124289E+02  0.69012835810E+02  0.43308246727E+02  0.91957607901E+02  0.47000000000E+01 0. -1.
        -11    1    4    4    0    0  0.24469669033E+01 -0.19555268987E+02  0.12966558478E+02  0.23590842099E+02  0.00000000000E+00 0.  1.
         12    1    4    4    0    0 -0.33746943708E+02  0.41367918087E+02  0.19594957224E+03  0.20309208679E+03  0.00000000000E+00 0. -1.
         -5    1    5    5    0  502 -0.41123605402E+02 -0.98030346932E+02  0.16215694402E+03  0.19395376855E+03  0.47000000000E+01 0.  1.
         11    1    6    6    0    0 -0.86484295774E+01 -0.33797509450E+01 -0.46871008332E+01  0.10401296305E+02  0.00000000000E+00 0. -1.
        -12    1    6    6    0    0  0.38695887496E+02  0.10584612967E+02  0.18558526558E+03  0.18987178975E+03  0.00000000000E+00 0.  1.
</event>
<event>
12    1  0.8798177E-003  0.2804124E+03  0.7818608E-02  0.1095535E+00
         21   -1    0    0  501  502  0.00000000000E+00  0.00000000000E+00  0.32683837085E+03  0.32683837085E+03  0.00000000000E+00 0.  1.
         21   -1    0    0  502  503 -0.00000000000E+00 -0.00000000000E+00 -0.26136583039E+03  0.26136583039E+03  0.00000000000E+00 0.  1.
          6    2    1    2  501    0  0.20845598690E+03  0.74700511146E+02  0.11659258196E+03  0.30368557923E+03  0.17203789123E+03 0.  0.
         24    2    3    3    0    0  0.99883624582E+02  0.73949222330E+02  0.12695551254E+03  0.19451597437E+03  0.79205657472E+02 0.  0.
         -6    2    1    2    0  503 -0.20845598690E+03 -0.74700511146E+02 -0.51120041512E+02  0.28451862202E+03  0.17118271755E+03 0.  0.
        -24    2    5    5    0    0 -0.19711214761E+03 -0.78898762458E+02 -0.91894334584E+02  0.24172912588E+03  0.70072734479E+02 0.  0.
          5    1    3    3  501    0  0.10857236232E+03  0.75128881609E+00 -0.10362930579E+02  0.10916960486E+03  0.47000000000E+01 0. -1.
        -11    1    4    4    0    0  0.10873582335E+03  0.81159891688E+02  0.11373831204E+03  0.17705030620E+03  0.00000000000E+00 0.  1.
         12    1    4    4    0    0 -0.88521987646E+01 -0.72106693579E+01  0.13217200500E+02  0.17465668170E+02  0.00000000000E+00 0. -1.
         -5    1    5    5    0  503 -0.11343839294E+02  0.41982513119E+01  0.40774293072E+02  0.42789496136E+02  0.47000000000E+01 0.  1.
         13    1    6    6    0    0  0.97332080622E+00 -0.15351775257E+02 -0.40008873912E+01  0.15894384444E+02  0.00000000000E+00 0. -1.
        -14    1    6    6    0    0 -0.19808546842E+03 -0.63546987201E+02 -0.87893447193E+02  0.22583474144E+03  0.00000000000E+00 0.  1.
</event>
<event>
12    1  0.8798177E-003  0.1791076E+03  0.7818608E-02  0.1168939E+00
         21   -1    0    0  501  502  0.00000000000E+00  0.00000000000E+00  0.12385399768E+02  0.12385399768E+02  0.00000000000E+00 0.  1.
         21   -1    0    0  502  503 -0.00000000000E+00 -0.00000000000E+00 -0.25765166661E+04  0.25765166661E+04  0.00000000000E+00 0. -1.
          6    2    1    2  501    0 -0.24558737351E+02 -0.41656057811E+02 -0.12472718316E+04  0.12600660960E+04  0.17245632967E+03 0.  0.
         24    2    3    3    0    0  0.29390494565E+02 -0.11252875499E+02 -0.38696172626E+03  0.39751729131E+03  0.85382614866E+02 0.  0.
         -6    2    1    2    0  503  0.24558737351E+02  0.41656057811E+02 -0.13168594348E+04  0.13288359700E+04  0.17131230326E+03 0.  0.
        -24    2    5    5    0    0  0.37564189070E+02 -0.19099634957E+02 -0.10814334979E+04  0.10853039233E+04  0.81303943190E+02 0.  0.
          5    1    3    3  501    0 -0.53949231916E+02 -0.30403182312E+02 -0.86031010530E+03  0.86254880465E+03  0.47000000000E+01 0. -1.
        -13    1    4    4    0    0 -0.25211691303E+02 -0.22034538200E+02 -0.18605270076E+03  0.18904168247E+03  0.00000000000E+00 0.  1.
         14    1    4    4    0    0  0.54602185868E+02  0.10781662701E+02 -0.20090902550E+03  0.20847560884E+03  0.00000000000E+00 0. -1.
         -5    1    5    5    0  503 -0.13005451719E+02  0.60755692768E+02 -0.23542593691E+03  0.24353204665E+03  0.47000000000E+01 0.  1.
         11    1    6    6    0    0 -0.24033452207E+02  0.61848012862E+01 -0.26475530179E+03  0.26591582958E+03  0.00000000000E+00 0. -1.
        -12    1    6    6    0    0  0.61597641277E+02 -0.25284436244E+02 -0.81667819613E+03  0.81938809373E+03  0.00000000000E+00 0.  1.
</event>
<event>
12    1  0.8798177E-003  0.2121930E+03  0.7818608E-02  0.1139841E+00
         21   -1    0    0  503  502  0.00000000000E+00  0.00000000000E+00  0.23790951205E+03  0.23790951205E+03  0.00000000000E+00 0.  1.
         21   -1    0    0  501  503 -0.00000000000E+00 -0.00000000000E+00 -0.20106563587E+03  0.20106563587E+03  0.00000000000E+00 0. -1.
          6    2    1    2  501    0 -0.12104658683E+03  0.28638771524E+02 -0.34775226266E+02  0.21502167107E+03  0.17190854327E+03 0.  0.
         24    2    3    3    0    0 -0.16842912973E+02  0.25475244173E+02 -0.64454628177E+02  0.10652572438E+03  0.79124326714E+02 0.  0.
         -6    2    1    2    0  502  0.12104658683E+03 -0.28638771524E+02  0.71619102447E+02  0.22395347686E+03  0.17191104836E+03 0.  0.
        -24    2    5    5    0    0  0.10474947448E+03 -0.44358781360E+02  0.70244430690E+01  0.15534389590E+03  0.10555675868E+03 0.  0.
          5    1    3    3  501    0 -0.10420367385E+03  0.31635273506E+01  0.29679401911E+02  0.10849594669E+03  0.47000000000E+01 0. -1.
        -11    1    4    4    0    0 -0.31347511766E+02  0.48278199919E+02 -0.47423368681E+02  0.74581679912E+02  0.00000000000E+00 0.  1.
         12    1    4    4    0    0  0.14504598793E+02 -0.22802955746E+02 -0.17031259496E+02  0.31944044467E+02  0.00000000000E+00 0. -1.
         -5    1    5    5    0  502  0.16297112343E+02  0.15720009837E+02  0.64594659378E+02  0.68609580964E+02  0.47000000000E+01 0.  1.
         11    1    6    6    0    0  0.10244474766E+03 -0.16667174444E+02 -0.30932297283E+02  0.10830294568E+03  0.00000000000E+00 0. -1.
        -12    1    6    6    0    0  0.23047268202E+01 -0.27691606916E+02  0.37956740352E+02  0.47040950219E+02  0.00000000000E+00 0.  1.
</event>
<event>
12    1  0.8798177E-003  0.2702962E+03  0.7818608E-02  0.1101292E+00
         21   -1    0    0  501  502  0.00000000000E+00  0.00000000000E+00  0.92639786248E+03  0.92639786248E+03  0.00000000000E+00 0.  1.
         21   -1    0    0  502  503 -0.00000000000E+00 -0.00000000000E+00 -0.89857419153E+02  0.89857419153E+02  0.00000000000E+00 0. -1.
          6    2    1    2  501    0  0.13267583630E+03  0.16010992555E+03  0.59810548397E+03  0.65582324708E+03  0.17069240068E+03 0.  0.
         24    2    3    3    0    0  0.14272483492E+03  0.69835997340E+02  0.41883523808E+03  0.45480017489E+03  0.78567152155E+02 0.  0.
         -6    2    1    2    0  503 -0.13267583630E+03 -0.16010992555E+03  0.23843495935E+03  0.36043203456E+03  0.17269034685E+03 0.  0.
        -24    2    5    5    0    0 -0.63773959943E+02 -0.71763071104E+02  0.37960792203E+02  0.13072653408E+03  0.80195689572E+02 0.  0.
          5    1    3    3  501    0 -0.10048998618E+02  0.90273928212E+02  0.17927024590E+03  0.20102307219E+03  0.47000000000E+01 0. -1.
        -13    1    4    4    0    0  0.14766757968E+03  0.69738303641E+02  0.35485538513E+03  0.39062960646E+03  0.00000000000E+00 0.  1.
         14    1    4    4    0    0 -0.49427447676E+01  0.97693698211E-01  0.63979852944E+02  0.64170568430E+02  0.00000000000E+00 0. -1.
         -5    1    5    5    0  503 -0.68901876354E+02 -0.88346854448E+02  0.20047416715E+03  0.22970550048E+03  0.47000000000E+01 0.  1.
         11    1    6    6    0    0 -0.68883113569E+02 -0.66538280002E+02  0.56223925954E+02  0.11105564322E+03  0.00000000000E+00 0. -1.
        -12    1    6    6    0    0  0.51091536258E+01 -0.52247911013E+01 -0.18263133751E+02  0.19670890860E+02  0.00000000000E+00 0.  1.
</event>
<event>
12    1  0.8798177E-003  0.1884155E+03  0.7818608E-02  0.1160398E+00
         21   -1    0    0  503  502  0.00000000000E+00  0.00000000000E+00  0.47270558581E+03  0.47270558581E+03  0.00000000000E+00 0.  1.
         21   -1    0    0  501  503 -0.00000000000E+00 -0.00000000000E+00 -0.82183807458E+02  0.82183807458E+02  0.00000000000E+00 0.  1.
          6    2    1    2  501    0  0.10089027875E+01 -0.72927548431E+02  0.10999922745E+03  0.21817476195E+03  0.17372665744E+03 0.  0.
         24    2    3    3    0    0  0.36156548448E+02 -0.93678526640E+02  0.35675677110E+02  0.13325103012E+03  0.80000754631E+02 0.  0.
         -6    2    1    2    0  502 -0.10089027875E+01  0.72927548431E+02  0.28052255090E+03  0.33671463132E+03  0.17136042769E+03 0.  0.
        -24    2    5    5    0    0  0.41184081093E+02  0.59661917768E+02  0.27084614559E+03  0.29119597948E+03  0.78624365943E+02 0.  0.
          5    1    3    3  501    0 -0.35147645660E+02  0.20750978209E+02  0.74323550344E+02  0.84923731829E+02  0.47000000000E+01 0. -1.
        -11    1    4    4    0    0  0.13193404087E+01 -0.30794955147E+02 -0.24600220072E+02  0.39436540786E+02  0.00000000000E+00 0.  1.
         12    1    4    4    0    0  0.34837208039E+02 -0.62883571493E+02  0.60275897182E+02  0.93814489333E+02  0.00000000000E+00 0. -1.
         -5    1    5    5    0  502 -0.42192983880E+02  0.13265630663E+02  0.96764053133E+01  0.45518651840E+02  0.47000000000E+01 0.  1.
         13    1    6    6    0    0 -0.43715939482E+01  0.33889505998E+02  0.32455831073E+02  0.47127385044E+02  0.00000000000E+00 0. -1.
        -14    1    6    6    0    0  0.45555675041E+02  0.25772411770E+02  0.23839031451E+03  0.24406859444E+03  0.00000000000E+00 0.  1.
</event>
<event>
12    1  0.8798177E-003  0.2301192E+03  0.7818608E-02  0.1126811E+00
         21   -1    0    0  501  502  0.00000000000E+00  0.00000000000E+00  0.68438770548E+02  0.68438770548E+02  0.00000000000E+00 0.  1.
         21   -1    0    0  502  503 -0.00000000000E+00 -0.00000000000E+00 -0.77261728737E+03  0.77261728737E+03  0.00000000000E+00 0.  1.
          6    2    1    2  501    0 -0.12910348875E+03  0.80299041517E+02 -0.32183585334E+03  0.39480414952E+03  0.17081086941E+03 0.  0.
         24    2    3    3    0    0 -0.12047449592E+02  0.77515281649E+02 -0.16732017568E+03  0.20087877659E+03  0.78755836396E+02 0.  0.
         -6    2    1    2    0  503  0.12910348875E+03 -0.80299041517E+02 -0.38234266348E+03  0.44625190840E+03  0.17274028643E+03 0.  0.
        -24    2    5    5    0    0  0.32258651609E+02 -0.80941467711E+02 -0.28449594222E+03  0.30850066139E+03  0.81501994688E+02 0.  0.
          5    1    3    3  501    0 -0.11705603915E+03  0.27837598676E+01 -0.15451567767E+03  0.19392537293E+03  0.47000000000E+01 0. -1.
        -13    1    4    4    0    0  0.30012151670E+01  0.27696133059E+01  0.83943892855E+01  0.93350855283E+01  0.00000000000E+00 0.  1.
         14    1    4    4    0    0 -0.15048664759E+02  0.74745668343E+02 -0.17571456496E+03  0.19154369107E+03  0.00000000000E+00 0. -1.
         -5    1    5    5    0  503  0.96844837136E+02  0.64242619442E+00 -0.97846721266E+02  0.13775124701E+03  0.47000000000E+01 0.  1.
         13    1    6    6    0    0 -0.59090452253E+01 -0.61712883679E+01  0.29561572513E+01  0.90410442587E+01  0.00000000000E+00 0. -1.
        -14    1    6    6    0    0  0.38167696834E+02 -0.74770179343E+02 -0.28745209947E+03  0.29945961713E+03  0.00000000000E+00 0.  1.
</event>
<event>
12    1  0.8798177E-003  0.2572894E+03  0.7818608E-02  0.1108996E+00
         21   -1    0    0  501  502  0.00000000000E+00  0.00000000000E+00  0.22789353513E+03  0.22789353513E+03  0.00000000000E+00 0. -1.
         21   -1    0    0  502  503 -0.00000000000E+00 -0.00000000000E+00 -0.37884327744E+03  0.37884327744E+03  0.00000000000E+00 0. -1.
          6    2    1    2  501    0  0.36270037512E+02 -0.18614983088E+03  0.72183855106E+02  0.26722342207E+03  0.17386941424E+03 0.  0.
         24    2    3    3    0    0  0.14072252900E+02 -0.15710391931E+02  0.72002871951E+01  0.83410206851E+02  0.80377694387E+02 0.  0.
         -6    2    1    2    0  503 -0.36270037512E+02  0.18614983088E+03 -0.22313359741E+03  0.33951339050E+03  0.17179483368E+03 0.  0.
        -24    2    5    5    0    0  0.43452951257E+02  0.68937033312E+02 -0.95037176688E+02  0.14839725342E+03  0.79681907197E+02 0.  0.
          5    1    3    3  501    0  0.22197784612E+02 -0.17043943895E+03  0.64983567911E+02  0.18381321522E+03  0.47000000000E+01 0. -1.
        -13    1    4    4    0    0 -0.32457041711E+02 -0.14661550655E+02  0.93423193884E+01  0.36819825581E+02  0.00000000000E+00 0.  1.
         14    1    4    4    0    0  0.46529294611E+02 -0.10488412762E+01 -0.21420321933E+01  0.46590381270E+02  0.00000000000E+00 0. -1.
         -5    1    5    5    0  503 -0.79722988769E+02  0.11721279756E+03 -0.12809642072E+03  0.19111613708E+03  0.47000000000E+01 0.  1.
         13    1    6    6    0    0  0.17670455147E+02  0.55939754424E+02 -0.10292171917E+03  0.11846679445E+03  0.00000000000E+00 0. -1.
        -14    1    6    6    0    0  0.25782496110E+02  0.12997278888E+02  0.78845424796E+01  0.29930458972E+02  0.00000000000E+00 0.  1.
</event>
<event>
12    1  0.8798177E-003  0.2505480E+03  0.7818608E-02  0.1112993E+00
         21   -1    0    0  501  502  0.00000000000E+00  0.00000000000E+00  0.11230708534E+03  0.11230708534E+03  0.00000000000E+00 0. -1.
         21   -1    0    0  502  503 -0.00000000000E+00 -0.00000000000E+00 -0.55865965282E+03  0.55865965282E+03  0.00000000000E+00 0.  1.
          6    2    1    2  501    0  0.16042294539E+03 -0.85038422151E+02 -0.21691394117E+03  0.33123685324E+03  0.17233438549E+03 0.  0.
         24    2    3    3    0    0  0.15444764685E+03 -0.11538238203E+03 -0.21473362271E+03  0.29987917663E+03  0.81546441697E+02 0.  0.
         -6    2    1    2    0  503 -0.16042294539E+03  0.85038422151E+02 -0.22943862632E+03  0.33972988492E+03  0.17264778252E+03 0.  0.
        -24    2    5    5    0    0 -0.32292432022E+02 -0.15436811418E+02 -0.92087719031E+02  0.12665698014E+03  0.79251159672E+02 0.  0.
          5    1    3    3  501    0  0.59752985427E+01  0.30343959883E+02 -0.21803184639E+01  0.31357676614E+02  0.47000000000E+01 0. -1.
        -11    1    4    4    0    0  0.10193948044E+03 -0.51212764130E+02 -0.72276235786E+02  0.13504909900E+03  0.00000000000E+00 0.  1.
         12    1    4    4    0    0  0.52508166409E+02 -0.64169617903E+02 -0.14245738692E+03  0.16483007762E+03  0.00000000000E+00 0. -1.
         -5    1    5    5    0  503 -0.12813051337E+03  0.10047523357E+03 -0.13735090729E+03  0.21307290478E+03  0.47000000000E+01 0.  1.
         11    1    6    6    0    0 -0.35237876465E+02 -0.41029308179E+02 -0.36096393793E+02  0.65023547368E+02  0.00000000000E+00 0. -1.
        -12    1    6    6    0    0  0.29454444432E+01  0.25592496761E+02 -0.55991325239E+02  0.61633432773E+02  0.00000000000E+00 0.  1.
</event>
<event>
12    1  0.8798177E-003  0.2108185E+03  0.7818608E-02  0.1141270E+00
         21   -1    0    0  501  502  0.00000000000E+00  0.00000000000E+00  0.13221077827E+03  0.13221077827E+03  0.00000000000E+00 0. -1.
         21   -1    0    0  502  503 -0.00000000000E+00 -0.00000000000E+00 -0.44771209895E+03  0.44771209895E+03  0.00000000000E+00 0. -1.
          6    2    1    2  501    0  0.40312069140E+02 -0.11249392745E+03 -0.11695203375E+02  0.21114264525E+03  0.17367927979E+03 0.  0.
         24    2    3    3    0    0  0.12831938330E+02 -0.13270969719E+03  0.29764549401E+02  0.15724611442E+03  0.77870981307E+02 0.  0.
         -6    2    1    2    0  503 -0.40312069140E+02  0.11249392745E+03 -0.30380611731E+03  0.36878023196E+03  0.17152479687E+03 0.  0.
        -24    2    5    5    0    0 -0.34468274052E+02  0.61428792088E+02 -0.66063356525E+02  0.12549951285E+03  0.80151121237E+02 0.  0.
          5    1    3    3  501    0  0.27480130810E+02  0.20215769738E+02 -0.41459752776E+02  0.53896530831E+02  0.47000000000E+01 0. -1.
        -13    1    4    4    0    0 -0.28211060746E+02 -0.33728364653E+02  0.23627543714E+02  0.49917204975E+02  0.00000000000E+00 0.  1.
         14    1    4    4    0    0  0.41042999076E+02 -0.98981332538E+02  0.61370056867E+01  0.10732890945E+03  0.00000000000E+00 0. -1.
         -5    1    5    5    0  503 -0.58437950883E+01  0.51065135365E+02 -0.23774276078E+03  0.24328071912E+03  0.47000000000E+01 0.  1.
         13    1    6    6    0    0  0.20074895280E+02  0.43974832401E+02 -0.39235554244E+02  0.62259264548E+02  0.00000000000E+00 0. -1.
        -14    1    6    6    0    0 -0.54543169332E+02  0.17453959687E+02 -0.26827802281E+02  0.63240248298E+02  0.00000000000E+00 0.  1.
</event>
<event>
12    1  0.8798177E-003  0.2170727E+03  0.7818608E-02  0.1136109E+00
         21   -1    0    0  501  502  0.00000000000E+00  0.00000000000E+00  0.10963874074E+03  0.10963874074E+03  0.00000000000E+00 0. -1.
         21   -1    0    0  502  503 -0.00000000000E+00 -0.00000000000E+00 -0.53505030503E+03  0.53505030503E+03  0.00000000000E+00 0. -1.
          6    2    1    2  501    0  0.10173597543E+03 -0.84766895717E+02 -0.35580747707E+03  0.41673007746E+03  0.17184109349E+03 0.  0.
         24    2    3    3    0    0  0.11827922781E+03 -0.11401222777E+03 -0.29696557105E+03  0.34880785318E+03  0.80558079910E+02 0.  0.
         -6    2    1    2    0  503 -0.10173597543E+03  0.84766895717E+02 -0.69604087223E+02  0.22795896831E+03  0.17200269466E+03 0.  0.
        -24    2    5    5    0    0  0.60810010582E+01  0.50195737751E+01 -0.10464066877E+02  0.81317337860E+02  0.80254831918E+02 0.  0.
          5    1    3    3  501    0 -0.16543252381E+02  0.29245332057E+02 -0.58841906020E+02  0.67922224276E+02  0.47000000000E+01 0. -1.
        -11    1    4    4    0    0  0.70332896312E+02 -0.10275860682E+03 -0.15673031644E+03  0.20017602172E+03  0.00000000000E+00 0.  1.
         12    1    4    4    0    0  0.47946331497E+02 -0.11253620953E+02 -0.14023525461E+03  0.14863183146E+03  0.00000000000E+00 0. -1.
         -5    1    5    5    0  503 -0.10781697649E+03  0.79747321942E+02 -0.59140020345E+02  0.14664163045E+03  0.47000000000E+01 0.  1.
         11    1    6    6    0    0 -0.17647244180E+02  0.25626973878E+02  0.20449710220E+02  0.37233824212E+02  0.00000000000E+00 0. -1.
        -12    1    6    6    0    0  0.23728245239E+02 -0.20607400103E+02 -0.30913777098E+02  0.44083513648E+02  0.00000000000E+00 0.  1.
</event>
<event>
12    1  0.8798177E-003  0.2255728E+03  0.7818608E-02  0.1129821E+00
         21   -1    0    0  501  502  0.00000000000E+00  0.00000000000E+00  0.27371202027E+03  0.27371202027E+03  0.00000000000E+00 0.  1.
         21   -1    0    0  502  503 -0.00000000000E+00 -0.00000000000E+00 -0.18587895630E+03  0.18587895630E+03  0.00000000000E+00 0. -1.
          6    2    1    2  501    0  0.14430757530E+03  0.23493284123E+02  0.49155276942E+02  0.23072624302E+03  0.17158597634E+03 0.  0.
         24    2    3    3    0    0  0.14353442053E+03 -0.17665628466E+02  0.76347543500E+02  0.18116654957E+03  0.77962599880E+02 0.  0.
         -6    2    1    2    0  503 -0.14430757530E+03 -0.23493284123E+02  0.38677787032E+02  0.22886473355E+03  0.17177451605E+03 0.  0.
        -24    2    5    5    0    0 -0.16299898720E+03 -0.47753262950E+02  0.50814785201E+02  0.19558843304E+03  0.82605379917E+02 0.  0.
          5    1    3    3  501    0  0.77315477555E+00  0.41158912589E+02 -0.27192266558E+02  0.49559693445E+02  0.47000000000E+01 0. -1.
        -13    1    4    4    0    0  0.55111990743E+02  0.70983935530E+01 -0.84148291548E+01  0.56200783485E+02  0.00000000000E+00 0.  1.
         14    1    4    4    0    0  0.88422429784E+02 -0.24764022019E+02  0.84762372654E+02  0.12496576609E+03  0.00000000000E+00 0. -1.
         -5    1    5    5    0  503  0.18691411899E+02  0.24259978827E+02 -0.12136998169E+02  0.33276300516E+02  0.47000000000E+01 0.  1.
         11    1    6    6    0    0 -0.12323997126E+03  0.22680660786E+00  0.50737357114E+02  0.13327573434E+03  0.00000000000E+00 0. -1.
        -12    1    6    6    0    0 -0.39759015942E+02 -0.47980069558E+02  0.77428086713E-01  0.62312698694E+02  0.00000000000E+00 0.  1.
</event>
<event>
12    1  0.8798177E-003  0.2438825E+03  0.7818608E-02  0.1117903E+00
         21   -1    0    0  501  502  0.00000000000E+00  0.00000000000E+00  0.24759662640E+03  0.24759662640E+03  0.00000000000E+00 0.  1.
         21   -1    0    0  502  503 -0.00000000000E+00 -0.00000000000E+00 -0.35373611496E+03  0.35373611496E+03  0.00000000000E+00 0.  1.
          6    2    1    2  501    0 -0.13001216469E+03 -0.11250707654E+03  0.11991796091E+03  0.27177008200E+03  0.17296720753E+03 0.  0.
         24    2    3    3    0    0  0.56778761207E+01 -0.27355997442E+02  0.44756842743E+02  0.94756587791E+02  0.78708621410E+02 0.  0.
         -6    2    1    2    0  503  0.13001216469E+03  0.11250707654E+03 -0.22605744947E+03  0.32956265935E+03  0.16717826036E+03 0.  0.
        -24    2    5    5    0    0  0.84138329878E+02 -0.19360138733E+01 -0.12200059399E+03  0.16815773738E+03  0.79434709048E+02 0.  0.
          5    1    3    3  501    0 -0.13569004081E+03 -0.85151079102E+02  0.75161118168E+02  0.17701349421E+03  0.47000000000E+01 0. -1.
        -11    1    4    4    0    0  0.21656020958E+01 -0.48164470400E+02  0.34072893254E+01  0.48333380411E+02  0.00000000000E+00 0.  1.
         12    1    4    4    0    0  0.35122740250E+01  0.20808472959E+02  0.41349553417E+02  0.46423207381E+02  0.00000000000E+00 0. -1.
         -5    1    5    5    0  503  0.45873834815E+02  0.11444309042E+03 -0.10405685548E+03  0.16140492198E+03  0.47000000000E+01 0.  1.
         13    1    6    6    0    0  0.32925412779E+02  0.15389217407E+02 -0.10557169649E+03  0.11165255894E+03  0.00000000000E+00 0. -1.
        -14    1    6    6    0    0  0.51212917098E+02 -0.17325231280E+02 -0.16428897500E+02  0.56505178433E+02  0.00000000000E+00 0.  1.
</event>
<event>
12    1  0.8798177E-003  0.2479243E+03  0.7818608E-02  0.1114710E+00
         21   -1    0    0  501  502  0.00000000000E+00  0.00000000000E+00  0.38582269621E+03  0.38582269621E+03  0.00000000000E+00 0.  1.
         21   -1    0    0  502  503 -0.00000000000E+00 -0.00000000000E+00 -0.16919784360E+03  0.16919784360E+03  0.00000000000E+00 0. -1.
          6    2    1    2  501    0  0.14686425840E+02 -0.17768354876E+03  0.40179855927E+02  0.25115909850E+03  0.17227692048E+03 0.  0.
         24    2    3    3    0    0 -0.30977210942E+02 -0.16930510067E+03  0.60740690874E+02  0.20016690252E+03  0.82180001390E+02 0.  0.
         -6    2    1    2    0  503 -0.14686425840E+02  0.17768354876E+03  0.17644499668E+03  0.30386144132E+03  0.17149869988E+03 0.  0.
        -24    2    5    5    0    0 -0.30881605121E+01  0.16962736245E+03  0.77285889032E+02  0.20359160275E+03  0.81813527245E+02 0.  0.
          5    1    3    3  501    0  0.45663636782E+02 -0.83784480977E+01 -0.20560834947E+02  0.50992195975E+02  0.47000000000E+01 0. -1.
        -11    1    4    4    0    0  0.28141854042E+02 -0.57394746431E+02  0.25144456968E+02  0.68690352910E+02  0.00000000000E+00 0.  1.
         12    1    4    4    0    0 -0.59119064984E+02 -0.11191035424E+03  0.35596233907E+02  0.13147654961E+03  0.00000000000E+00 0. -1.
         -5    1    5    5    0  503 -0.11598265328E+02  0.80561863102E+01  0.99159107646E+02  0.10026983856E+03  0.47000000000E+01 0.  1.
         13    1    6    6    0    0  0.54526824695E+01  0.12108589419E+03  0.91983819720E+02  0.15215961557E+03  0.00000000000E+00 0. -1.
        -14    1    6    6    0    0 -0.85408429816E+01  0.48541468260E+02 -0.14697930688E+02  0.51431987188E+02  0.00000000000E+00 0.  1.
</event>
<event>
12    1  0.8798177E-003  0.3421799E+03  0.7818608E-02  0.1065957E+00
         21   -1    0    0  503  502  0.00000000000E+00  0.00000000000E+00  0.17576639626E+03  0.17576639626E+03  0.00000000000E+00 0.  1.
         21   -1    0    0  501  503 -0.00000000000E+00 -0.00000000000E+00 -0.93559311622E+03  0.93559311622E+03  0.00000000000E+00 0.  1.
          6    2    1    2  501    0  0.20905429295E+02  0.29423872414E+03 -0.67930345280E+03  0.76061834613E+03  0.17341748392E+03 0.  0.
         24    2    3    3    0    0 -0.30161317029E+02  0.75117248156E+02 -0.27460194985E+03  0.29755525075E+03  0.81120838073E+02 0.  0.
         -6    2    1    2    0  502 -0.20905429295E+02 -0.29423872414E+03 -0.80523267169E+02  0.35074116635E+03  0.17181939778E+03 0.  0.
        -24    2    5    5    0    0  0.91903571686E+00 -0.24506789082E+03 -0.11950372996E+03  0.28414053120E+03  0.79972396846E+02 0.  0.
          5    1    3    3  501    0  0.51066746324E+02  0.21912147599E+03 -0.40470150294E+03  0.46306309538E+03  0.47000000000E+01 0. -1.
        -11    1    4    4    0    0  0.45418063734E+01 -0.11932678658E+02 -0.86126543377E+02  0.87067779914E+02  0.00000000000E+00 0.  1.
         12    1    4    4    0    0 -0.34703123403E+02  0.87049926813E+02 -0.18847540648E+03  0.21048747084E+03  0.00000000000E+00 0. -1.
         -5    1    5    5    0  502 -0.21824465012E+02 -0.49170833326E+02  0.38980462790E+02  0.66600635150E+02  0.47000000000E+01 0.  1.
         13    1    6    6    0    0 -0.86789295224E+01 -0.99905812333E+02 -0.91988611724E+02  0.13608232744E+03  0.00000000000E+00 0. -1.
        -14    1    6    6    0    0  0.95979652392E+01 -0.14516207849E+03 -0.27515118235E+02  0.14805820375E+03  0.00000000000E+00 0.  1.
</event>
<event>
12    1  0.8798177E-003  0.1938780E+03  0.7818608E-02  0.1155562E+00
         21   -1    0    0  501  502  0.00000000000E+00  0.00000000000E+00  0.47626928430E+03  0.47626928430E+03  0.00000000000E+00 0.  1.
         21   -1    0    0  502  503 -0.00000000000E+00 -0.00000000000E+00 -0.78556469860E+02  0.78556469860E+02  0.00000000000E+00 0.  1.
          6    2    1    2  501    0  0.75941096140E+02  0.32559790060E+02  0.22276674753E+03  0.29368443111E+03  0.17262193157E+03 0.  0.
         24    2    3    3    0    0  0.29120387778E+02 -0.26961495428E+00  0.22005587220E+03  0.23624413680E+03  0.80861830354E+02 0.  0.
         -6    2    1    2    0  503 -0.75941096140E+02 -0.32559790060E+02  0.17494606691E+03  0.26114132305E+03  0.17538949303E+03 0.  0.
        -24    2    5    5    0    0 -0.10762452179E+03 -0.63912065822E+02  0.14551152424E+03  0.20751962074E+03  0.78885990244E+02 0.  0.
          5    1    3    3  501    0  0.46820708362E+02  0.32829405015E+02  0.27108753315E+01  0.57440294308E+02  0.47000000000E+01 0. -1.
        -11    1    4    4    0    0 -0.25960521236E+02  0.13301171447E+02  0.71020473982E+02  0.76777454694E+02  0.00000000000E+00 0.  1.
         12    1    4    4    0    0  0.55080909014E+02 -0.13570786401E+02  0.14903539822E+03  0.15946668211E+03  0.00000000000E+00 0. -1.
         -5    1    5    5    0  503  0.31683425652E+02  0.31352275762E+02  0.29434542673E+02  0.53621702312E+02  0.47000000000E+01 0.  1.
         13    1    6    6    0    0 -0.19822572274E+02 -0.55255015540E+02  0.70282558106E+02  0.91573408192E+02  0.00000000000E+00 0. -1.
        -14    1    6    6    0    0 -0.87801949517E+02 -0.86570502819E+01  0.75228966132E+02  0.11594621255E+03  0.00000000000E+00 0.  1.
</event>
<event>
12    1  0.8798177E-003  0.1839326E+03  0.7818608E-02  0.1164307E+00
         21   -1    0    0  503  502  0.00000000000E+00  0.00000000000E+00  0.20940571434E+03  0.20940571434E+03  0.00000000000E+00 0.  1.
         21   -1    0    0  501  503 -0.00000000000E+00 -0.00000000000E+00 -0.16967400201E+03  0.16967400201E+03  0.00000000000E+00 0.  1.
          6    2    1    2  501    0 -0.59972061846E+02 -0.30452839198E+02 -0.24015546183E+02  0.18441353261E+03  0.17002229540E+03 0.  0.
         24    2    3    3    0    0 -0.79142399403E+02 -0.16604473717E+02  0.36263648423E+02  0.11949088347E+03  0.80148556480E+02 0.  0.
         -6    2    1    2    0  502  0.59972061846E+02  0.30452839198E+02  0.63747258510E+02  0.19466618374E+03  0.17119341841E+03 0.  0.
        -24    2    5    5    0    0 -0.13932646844E+02 -0.29323106476E+02  0.91967953099E+01  0.84971549949E+02  0.77984742324E+02 0.  0.
          5    1    3    3  501    0  0.19170337558E+02 -0.13848365482E+02 -0.60279194606E+02  0.64922649136E+02  0.47000000000E+01 0. -1.
        -13    1    4    4    0    0 -0.21850776358E+02 -0.44916781061E+02  0.15937808680E+02  0.52430786699E+02  0.00000000000E+00 0.  1.
         14    1    4    4    0    0 -0.57291623045E+02  0.28312307344E+02  0.20325839743E+02  0.67060096776E+02  0.00000000000E+00 0. -1.
         -5    1    5    5    0  502  0.73904708690E+02  0.59775945675E+02  0.54550463200E+02  0.10969463379E+03  0.47000000000E+01 0.  1.
         11    1    6    6    0    0  0.67098195217E-01 -0.31066246857E+02  0.40261297972E+02  0.50853596828E+02  0.00000000000E+00 0. -1.
        -12    1    6    6    0    0 -0.13999745040E+02  0.17431403806E+01 -0.31064502662E+02  0.34117953121E+02  0.00000000000E+00 0.  1.
</event>
<event>
12    1  0.8798177E-003  0.2186735E+03  0.7818608E-02  0.1134896E+00
         21   -1    0    0  501  502  0.00000000000E+00  0.00000000000E+00  0.91323837366E+03  0.91323837366E+03  0.00000000000E+00 0.  1.
         21   -1    0    0  502  503 -0.00000000000E+00 -0.00000000000E+00 -0.63844110595E+02  0.63844110595E+02  0.00000000000E+00 0.  1.
          6    2    1    2  501    0  0.10176704257E+03 -0.88429366258E+02  0.63220637899E+03  0.66895666876E+03  0.17216804372E+03 0.  0.
         24    2    3    3    0    0  0.40248252304E+02  0.99092815962E+01  0.14796522303E+03  0.17099418188E+03  0.75014580819E+02 0.  0.
         -6    2    1    2    0  503 -0.10176704257E+03  0.88429366258E+02  0.21718788408E+03  0.30812581550E+03  0.17203097807E+03 0.  0.
        -24    2    5    5    0    0 -0.10938849409E+03  0.57668750168E+02  0.23069774615E+03  0.27335645544E+03  0.78808465722E+02 0.  0.
          5    1    3    3  501    0  0.61518790261E+02 -0.98338647854E+02  0.48424115595E+03  0.49796248688E+03  0.47000000000E+01 0. -1.
        -13    1    4    4    0    0 -0.88146026031E+01 -0.16889735072E+02  0.83585951301E+02  0.85729642626E+02  0.00000000000E+00 0.  1.
         14    1    4    4    0    0  0.49062854907E+02  0.26799016669E+02  0.64379271732E+02  0.85264539258E+02  0.00000000000E+00 0. -1.
         -5    1    5    5    0  503  0.76214515268E+01  0.30760616090E+02 -0.13509862065E+02  0.34769360055E+02  0.47000000000E+01 0.  1.
         11    1    6    6    0    0 -0.64298341357E+02  0.73243974383E+02  0.17225492009E+03  0.19791592654E+03  0.00000000000E+00 0. -1.
        -12    1    6    6    0    0 -0.45090152735E+02 -0.15575224215E+02  0.58442826058E+02  0.75440528900E+02  0.00000000000E+00 0.  1.
</event>
<event>
12    1  0.8798177E-003  0.1802900E+03  0.7818608E-02  0.1167580E+00
         21   -1    0    0  501  502  0.00000000000E+00  0.00000000000E+00  0.50683112692E+03  0.50683112692E+03  0.00000000000E+00 0. -1.
         21   -1    0    0  502  503 -0.00000000000E+00 -0.00000000000E+00 -0.68254133701E+02  0.68254133701E+02  0.00000000000E+00 0.  1.
          6    2    1    2  501    0  0.54608545666E+02 -0.10906824726E+02  0.29052530130E+03  0.34179617078E+03  0.17122680742E+03 0.  0.
         24    2    3    3    0    0  0.83602200816E+02  0.13837671375E+02  0.11872367433E+03  0.16575409866E+03  0.78729290902E+02 0.  0.
         -6    2    1    2    0  503 -0.54608545666E+02  0.10906824726E+02  0.14805169192E+03  0.23328908985E+03  0.17147432424E+03 0.  0.
        -24    2    5    5    0    0 -0.13635624044E+02 -0.57251295486E+02  0.70375080202E+02  0.12202339133E+03  0.80457535641E+02 0.  0.
          5    1    3    3  501    0 -0.28993655150E+02 -0.24744496101E+02  0.17180162697E+03  0.17604207212E+03  0.47000000000E+01 0. -1.
        -11    1    4    4    0    0  0.67725643077E+02 -0.20920992724E+02  0.48759602785E+02  0.86034583340E+02  0.00000000000E+00 0.  1.
         12    1    4    4    0    0  0.15876557739E+02  0.34758664099E+02  0.69964071550E+02  0.79719515323E+02  0.00000000000E+00 0. -1.
         -5    1    5    5    0  503 -0.40972921622E+02  0.68158120212E+02  0.77676611720E+02  0.11126569851E+03  0.47000000000E+01 0.  1.
         11    1    6    6    0    0 -0.26747177222E+02  0.11838687239E+02  0.23335556892E+02  0.37418100170E+02  0.00000000000E+00 0. -1.
        -12    1    6    6    0    0  0.13111553178E+02 -0.69089982725E+02  0.47039523310E+02  0.84605291164E+02  0.00000000000E+00 0.  1.
</event>
<event>
12    1  0.8798177E-003  0.1893436E+03  0.7818608E-02  0.1159120E+00
         21   -1    0    0  501  502  0.00000000000E+00  0.00000000000E+00  0.44029840958E+03  0.44029840958E+03  0.00000000000E+00 0. -1.
         21   -1    0    0  502  503 -0.00000000000E+00 -0.00000000000E+00 -0.85364167186E+02  0.85364167186E+02  0.00000000000E+00 0. -1.
          6    2    1    2  501    0  0.11739354647E+02 -0.76737970812E+02  0.11999045868E+03  0.22391835437E+03  0.17238094628E+03 0.  0.
         24    2    3    3    0    0 -0.44136374815E+02  0.22626578014E+01  0.62346930165E+02  0.11118831027E+03  0.80762376371E+02 0.  0.
         -6    2    1    2    0  503 -0.11739354647E+02  0.76737970812E+02  0.23494378372E+03  0.30174422239E+03  0.17269761327E+03 0.  0.
        -24    2    5    5    0    0 -0.49957696886E+02  0.66826034469E+02  0.62913755566E+02  0.12517891224E+03  0.68921180112E+02 0.  0.
          5    1    3    3  501    0  0.55875729462E+02 -0.79000628613E+02  0.57643528512E+02  0.11273004410E+03  0.47000000000E+01 0. -1.
        -13    1    4    4    0    0 -0.32559665773E+02 -0.88788433709E+01 -0.11468893615E+02  0.35644090894E+02  0.00000000000E+00 0.  1.
         14    1    4    4    0    0 -0.11576709042E+02  0.11141501172E+02  0.73815823780E+02  0.75544219375E+02  0.00000000000E+00 0. -1.
         -5    1    5    5    0  503  0.38218342240E+02  0.99119363423E+01  0.17203002815E+03  0.17656531016E+03  0.47000000000E+01 0.  1.
         13    1    6    6    0    0 -0.37336144850E+02  0.51535375221E+02  0.77707727818E+02  0.10044089592E+03  0.00000000000E+00 0. -1.
        -14    1    6    6    0    0 -0.12621552036E+02  0.15290659248E+02 -0.14793972252E+02  0.24738016312E+02  0.00000000000E+00 0.  1.
</event>
<event>
12    1  0.8798177E-003  0.2466836E+03  0.7818608E-02  0.1115566E+00
         21   -1    0    0  501  502  0.00000000000E+00  0.00000000000E+00  0.16364856214E+03  0.16364856214E+03  0.00000000000E+00 0. -1.
         21   -1    0    0  502  503 -0.00000000000E+00 -0.00000000000E+00 -0.50888471131E+03  0.50888471131E+03  0.00000000000E+00 0. -1.
          6    2    1    2  501    0  0.59718697301E+02  0.16396897326E+03  0.29840951371E+01  0.24578964604E+03  0.17306501171E+03 0.  0.
         24    2    3    3    0    0  0.10234146579E+03  0.11589299248E+03 -0.24450048684E+02  0.17577020182E+03  0.79952471144E+02 0.  0.
         -6    2    1    2    0  503 -0.59718697301E+02 -0.16396897326E+03 -0.34822024431E+03  0.42674362740E+03  0.17435778727E+03 0.  0.
        -24    2    5    5    0    0  0.10863944043E+02 -0.92758554949E+02 -0.27844824068E+03  0.30450183657E+03  0.80410017660E+02 0.  0.
          5    1    3    3  501    0 -0.42622768486E+02  0.48075980785E+02  0.27434143821E+02  0.70019444221E+02  0.47000000000E+01 0. -1.
        -13    1    4    4    0    0  0.90254809047E+02  0.10786101634E+03 -0.47574112259E+02  0.14846961157E+03  0.00000000000E+00 0.  1.
         14    1    4    4    0    0  0.12086656740E+02  0.80319761369E+01  0.23124063575E+02  0.27300590251E+02  0.00000000000E+00 0. -1.
         -5    1    5    5    0  503 -0.70582641345E+02 -0.71210418315E+02 -0.69772003630E+02  0.12224179083E+03  0.47000000000E+01 0.  1.
         11    1    6    6    0    0 -0.26663521789E+02 -0.46006339060E+02 -0.19251028714E+03  0.19971914601E+03  0.00000000000E+00 0. -1.
        -12    1    6    6    0    0  0.37527465832E+02 -0.46752215889E+02 -0.85937953536E+02  0.10478269056E+03  0.00000000000E+00 0.  1.
</event>
<event>
12    1  0.8798177E-003  0.2000099E+03  0.7818608E-02  0.1149915E+00
         21   -1    0    0  503  502  0.00000000000E+00  0.00000000000E+00  0.42592271884E+03  0.42592271884E+03  0.00000000000E+00 0.  1.
         21   -1    0    0  501  503 -0.00000000000E+00 -0.00000000000E+00 -0.14415183095E+03  0.14415183095E+03  0.00000000000E+00 0. -1.
          6    2    1    2  501    0 -0.14031561685E+02 -0.99668847146E+02 -0.28254282804E+02  0.20113070376E+03  0.17182692363E+03 0.  0.
         24    2    3    3    0    0 -0.20078550423E+01 -0.13051634522E+03 -0.50406688244E+02  0.16101890094E+03  0.79672481991E+02 0.  0.
         -6    2    1    2    0  502  0.14031561685E+02  0.99668847146E+02  0.31002517069E+03  0.36894384603E+03  0.17283862776E+03 0.  0.
        -24    2    5    5    0    0  0.31349095996E+02  0.12563787336E+03  0.19190898783E+03  0.24668260945E+03  0.85179863526E+02 0.  0.
          5    1    3    3  501    0 -0.12023706642E+02  0.30847498076E+02  0.22152405440E+02  0.40111802823E+02  0.47000000000E+01 0. -1.
        -11    1    4    4    0    0  0.59245356675E+01  0.82987794089E+01  0.49850451761E+01  0.11349913566E+02  0.00000000000E+00 0.  1.
         12    1    4    4    0    0 -0.79323907099E+01 -0.13881512463E+03 -0.55391733420E+02  0.14966898737E+03  0.00000000000E+00 0. -1.
         -5    1    5    5    0  502 -0.17317534312E+02 -0.25969026214E+02  0.11811618286E+03  0.12226123658E+03  0.47000000000E+01 0.  1.
         11    1    6    6    0    0 -0.79105908725E+01 -0.10399341281E+02  0.12003607938E+02  0.17742895777E+02  0.00000000000E+00 0. -1.
        -12    1    6    6    0    0  0.39259686869E+02  0.13603721464E+03  0.17990537990E+03  0.22893971367E+03  0.00000000000E+00 0.  1.
</event>
<event>
12    1  0.8798177E-003  0.1847594E+03  0.7818608E-02  0.1163476E+00
         21   -1    0    0  501  502  0.00000000000E+00  0.00000000000E+00  0.18482345099E+03  0.18482345099E+03  0.00000000000E+00 0.  1.
         21   -1    0    0  502  503 -0.00000000000E+00 -0.00000000000E+00 -0.18403604261E+03  0.18403604261E+03  0.00000000000E+00 0.  1.
          6    2    1    2  501    0 -0.38959897375E+02 -0.50875573653E+02  0.64132609289E+01  0.18487072164E+03  0.17329124677E+03 0.  0.
         24    2    3    3    0    0 -0.77382409068E+02  0.32632295899E+01 -0.19073011556E+02  0.11360404285E+03  0.80891364686E+02 0.  0.
         -6    2    1    2    0  503  0.38959897375E+02  0.50875573653E+02 -0.56258525466E+01  0.18398877195E+03  0.17237755187E+03 0.  0.
        -24    2    5    5    0    0 -0.20179909202E+02 -0.25859134947E+02 -0.59265897510E+01  0.86994376913E+02  0.80355295736E+02 0.  0.
          5    1    3    3  501    0  0.38422511694E+02 -0.54138803243E+02  0.25486272485E+02  0.71266678796E+02  0.47000000000E+01 0. -1.
        -13    1    4    4    0    0 -0.59192686130E+02  0.35492459429E+02  0.54112815449E+01  0.69229839922E+02  0.00000000000E+00 0.  1.
         14    1    4    4    0    0 -0.18189722938E+02 -0.32229229839E+02 -0.24484293101E+02  0.44374202925E+02  0.00000000000E+00 0. -1.
         -5    1    5    5    0  503  0.59139806576E+02  0.76734708600E+02  0.30073720446E+00  0.96994395037E+02  0.47000000000E+01 0.  1.
         13    1    6    6    0    0 -0.27626016813E+02 -0.26128232716E+02 -0.38183868943E+02  0.53887746263E+02  0.00000000000E+00 0. -1.
        -14    1    6    6    0    0  0.74461076118E+01  0.26909776950E+00  0.32257279191E+02  0.33106630650E+02  0.00000000000E+00 0.  1.
</event>
<event>
12    1  0.8798177E-003  0.2461000E+03  0.7818608E-02  0.1117531E+00
         21   -1    0    0  503  502  0.00000000000E+00  0.00000000000E+00  0.14671634983E+03  0.14671634983E+03  0.00000000000E+00 0.  1.
         21   -1    0    0  501  503 -0.00000000000E+00 -0.00000000000E+00 -0.42216272059E+03  0.42216272059E+03  0.00000000000E+00 0.  1.
          6    2    1    2  501    0  0.11246540420E+03  0.11456427662E+03 -0.21221432451E+03  0.32496172514E+03  0.18652550136E+03 0.  0.
         24    2    3    3    0    0  0.17823619484E+02  0.95004125090E+02 -0.48319709111E+02  0.13463778576E+03  0.80306125985E+02 0.  0.
         -6    2    1    2    0  502 -0.11246540420E+03 -0.11456427662E+03 -0.63232046252E+02  0.24391734528E+03  0.17240631959E+03 0.  0.
        -24    2    5    5    0    0 -0.93955641772E+02 -0.12391954739E+03  0.31589582266E+01  0.17420373203E+03  0.78442618443E+02 0.  0.
          5    1    3    3  501    0  0.94641784719E+02  0.19560151530E+02 -0.16389461540E+03  0.19032393938E+03  0.47000000000E+01 0. -1.
        -13    1    4    4    0    0 -0.55412280582E+01  0.84269702602E+01 -0.43695245972E+02  0.44844102808E+02  0.00000000000E+00 0.  1.
         14    1    4    4    0    0  0.23364847543E+02  0.86577154829E+02 -0.46244631391E+01  0.89793682954E+02  0.00000000000E+00 0. -1.
         -5    1    5    5    0  502 -0.18509762431E+02  0.93552707746E+01 -0.66391004479E+02  0.69713613249E+02  0.47000000000E+01 0.  1.
         13    1    6    6    0    0  0.12332078807E+02 -0.15063903689E+02 -0.92590187286E+01  0.21557615589E+02  0.00000000000E+00 0. -1.
        -14    1    6    6    0    0 -0.10628772058E+03 -0.10885564371E+03  0.12417976955E+02  0.15264611644E+03  0.00000000000E+00 0.  1.
</event>
<event>
12    1  0.8798177E-003  0.1948676E+03  0.7818608E-02  0.1157575E+00
         21   -1    0    0  501  502  0.00000000000E+00  0.00000000000E+00  0.95610494362E+03  0.95610494362E+03  0.00000000000E+00 0.  1.
         21   -1    0    0  502  503 -0.00000000000E+00 -0.00000000000E+00 -0.49263849461E+02  0.49263849461E+02  0.00000000000E+00 0. -1.
          6    2    1    2  501    0 -0.87248285137E+02  0.26800231001E+02  0.72066714525E+03  0.74654839580E+03  0.17217101206E+03 0.  0.
         24    2    3    3    0    0 -0.59157809911E+02  0.49432797376E+02  0.24449058389E+03  0.26898424782E+03  0.81447111861E+02 0.  0.
         -6    2    1    2    0  503  0.87248285137E+02 -0.26800231001E+02  0.18617394891E+03  0.25882039727E+03  0.15490882206E+03 0.  0.
        -24    2    5    5    0    0  0.93822197417E+02 -0.43756141860E+02  0.19690967049E+03  0.23718558843E+03  0.82258010858E+02 0.  0.
          5    1    3    3  501    0 -0.28090475227E+02 -0.22632566375E+02  0.47617656135E+03  0.47756414799E+03  0.47000000000E+01 0. -1.
        -13    1    4    4    0    0 -0.29396334470E+02 -0.61821634918E+01  0.16396895170E+03  0.16669787265E+03  0.00000000000E+00 0.  1.
         14    1    4    4    0    0 -0.29761475441E+02  0.55614960868E+02  0.80521632197E+02  0.10228637516E+03  0.00000000000E+00 0. -1.
         -5    1    5    5    0  503 -0.65739122791E+01  0.16955910859E+02 -0.10735721581E+02  0.21634808841E+02  0.47000000000E+01 0.  1.
         11    1    6    6    0    0  0.13793140753E+02  0.23215921074E+02  0.30243703712E+02  0.40545176500E+02  0.00000000000E+00 0. -1.
        -12    1    6    6    0    0  0.80029056664E+02 -0.66972062935E+02  0.16666596677E+03  0.19664041193E+03  0.00000000000E+00 0.  1.
</event>
<event>
12    1  0.8798177E-003  0.1831237E+03  0.7818608E-02  0.1164946E+00
         21   -1    0    0  501  502  0.00000000000E+00  0.00000000000E+00  0.12907940018E+03  0.12907940018E+03  0.00000000000E+00 0. -1.
         21   -1    0    0  502  503 -0.00000000000E+00 -0.00000000000E+00 -0.26506247380E+03  0.26506247380E+03  0.00000000000E+00 0. -1.
          6    2    1    2  501    0 -0.47197734304E+02 -0.43777846253E+02 -0.38303374070E+02  0.18708674740E+03  0.17143563411E+03 0.  0.
         24    2    3    3    0    0  0.15009495229E+02  0.28519959178E+02 -0.96729847242E+01  0.87394715273E+02  0.80657278690E+02 0.  0.
         -6    2    1    2    0  503  0.47197734304E+02  0.43777846253E+02 -0.97679699549E+02  0.20705512658E+03  0.17084020543E+03 0.  0.
        -24    2    5    5    0    0  0.94817731256E+02  0.43674012929E+02 -0.90725051325E+02  0.15870089178E+03  0.77827479381E+02 0.  0.
          5    1    3    3  501    0 -0.62207229532E+02 -0.72297805431E+02 -0.28630389345E+02  0.99692032130E+02  0.47000000000E+01 0. -1.
        -13    1    4    4    0    0  0.34950330520E+02  0.13925894301E+01  0.21875542038E+02  0.41255354177E+02  0.00000000000E+00 0.  1.
         14    1    4    4    0    0 -0.19940835292E+02  0.27127369748E+02 -0.31548526762E+02  0.46139361096E+02  0.00000000000E+00 0. -1.
         -5    1    5    5    0  503 -0.47619996952E+02  0.10383332432E+00 -0.69546482245E+01  0.48354234799E+02  0.47000000000E+01 0.  1.
         11    1    6    6    0    0  0.14302396511E+01 -0.13199618089E+02  0.41760132000E+01  0.13918138862E+02  0.00000000000E+00 0. -1.
        -12    1    6    6    0    0  0.93387491605E+02  0.56873631017E+02 -0.94901064525E+02  0.14478275291E+03  0.00000000000E+00 0.  1.
</event>
<event>
12    1  0.8798177E-003  0.2098398E+03  0.7818608E-02  0.1142077E+00
         21   -1    0    0  503  502  0.00000000000E+00  0.00000000000E+00  0.27104503044E+03  0.27104503044E+03  0.00000000000E+00 0. -1.
         21   -1    0    0  501  503 -0.00000000000E+00 -0.00000000000E+00 -0.17647550804E+03  0.17647550804E+03  0.00000000000E+00 0. -1.
          6    2    1    2  501    0 -0.16917553019E+02 -0.11497066564E+03 -0.19251446419E+02  0.20879902814E+03  0.17240057542E+03 0.  0.
         24    2    3    3    0    0  0.49756498981E+01 -0.10040731716E+03  0.33245191048E+02  0.14989749677E+03  0.10610198103E+03 0.  0.
         -6    2    1    2    0  502  0.16917553019E+02  0.11497066564E+03  0.11382096882E+03  0.23872151033E+03  0.17472346435E+03 0.  0.
        -24    2    5    5    0    0  0.39537673374E+02  0.61012883629E+02  0.27061119301E+02  0.13397193480E+03  0.10922625853E+03 0.  0.
          5    1    3    3  501    0 -0.21893202918E+02 -0.14563348481E+02 -0.52496637467E+02  0.58901531375E+02  0.47000000000E+01 0. -1.
        -13    1    4    4    0    0 -0.20452520197E+02 -0.74809391586E+02 -0.24911367899E+02  0.81457515936E+02  0.00000000000E+00 0.  1.
         14    1    4    4    0    0  0.25428170095E+02 -0.25597925575E+02  0.58156558947E+02  0.68439980834E+02  0.00000000000E+00 0. -1.
         -5    1    5    5    0  502 -0.22620120355E+02  0.53957782013E+02  0.86759849522E+02  0.10474957553E+03  0.47000000000E+01 0.  1.
         13    1    6    6    0    0  0.58636556740E+02  0.81669661366E+02  0.31786895105E+02  0.10544470624E+03  0.00000000000E+00 0. -1.
        -14    1    6    6    0    0 -0.19098883366E+02 -0.20656777738E+02 -0.47257758045E+01  0.28527228560E+02  0.00000000000E+00 0.  1.
</event>
<event>
12    1  0.8798177E-003  0.1916662E+03  0.7818608E-02  0.1157047E+00
         21   -1    0    0  503  502  0.00000000000E+00  0.00000000000E+00  0.14270236620E+04  0.14270236620E+04  0.00000000000E+00 0.  1.
         21   -1    0    0  501  503 -0.00000000000E+00 -0.00000000000E+00 -0.33435604740E+02  0.33435604740E+02  0.00000000000E+00 0. -1.
          6    2    1    2  501    0 -0.84208383528E+02 -0.26496772858E+00  0.34494608401E+03  0.39444522574E+03  0.17177925710E+03 0.  0.
         24    2    3    3    0    0 -0.48710165137E+02 -0.50419013819E+02  0.30080975504E+03  0.31864511107E+03  0.78316287851E+02 0.  0.
         -6    2    1    2    0  502  0.84208383528E+02  0.26496772858E+00  0.10486419733E+04  0.10660140410E+04  0.17217672748E+03 0.  0.
        -24    2    5    5    0    0 -0.61143822662E+01  0.25921158857E+02  0.30811111933E+03  0.31953934098E+03  0.80396743914E+02 0.  0.
          5    1    3    3  501    0 -0.35498218391E+02  0.50154046091E+02  0.44136328972E+02  0.75800114666E+02  0.47000000000E+01 0. -1.
        -11    1    4    4    0    0 -0.64552862462E+02 -0.24342863319E+02  0.25031071020E+03  0.25964417708E+03  0.00000000000E+00 0.  1.
         12    1    4    4    0    0  0.15842697325E+02 -0.26076150500E+02  0.50499044835E+02  0.59000933998E+02  0.00000000000E+00 0. -1.
         -5    1    5    5    0  502  0.90322765794E+02 -0.25656191128E+02  0.74053085394E+03  0.74647470004E+03  0.47000000000E+01 0.  1.
         13    1    6    6    0    0 -0.18640803680E+02 -0.21502471582E+02  0.18224536239E+03  0.18445380983E+03  0.00000000000E+00 0. -1.
        -14    1    6    6    0    0  0.12526421414E+02  0.47423630439E+02  0.12586575693E+03  0.13508553115E+03  0.00000000000E+00 0.  1.
</event>
<event>
12    1  0.8798177E-003  0.2851724E+03  0.7818608E-02  0.1092918E+00
         21   -1    0    0  503  502  0.00000000000E+00  0.00000000000E+00  0.39707306206E+03  0.39707306206E+03  0.00000000000E+00 0. -1.
         21   -1    0    0  501  503 -0.00000000000E+00 -0.00000000000E+00 -0.20806370888E+03  0.20806370888E+03  0.00000000000E+00 0.  1.
          6    2    1    2  501    0 -0.22203160373E+03  0.49884396818E+02  0.13298579508E+03  0.31451343283E+03  0.17160125768E+03 0.  0.
         24    2    3    3    0    0 -0.51748285123E+02  0.46570505978E+02  0.15411869583E+02  0.10750350934E+03  0.80453600019E+02 0.  0.
         -6    2    1    2    0  502  0.22203160373E+03 -0.49884396818E+02  0.56023558108E+02  0.29062333811E+03  0.17186273445E+03 0.  0.
        -24    2    5    5    0    0  0.16741624973E+03 -0.32191268984E+01  0.91758704111E+02  0.21025185705E+03  0.88020566683E+02 0.  0.
          5    1    3    3  501    0 -0.17028331860E+03  0.33138908392E+01  0.11757392549E+03  0.20700992349E+03  0.47000000000E+01 0. -1.
        -13    1    4    4    0    0 -0.12209043704E+02  0.59518351177E+02  0.23455203140E+02  0.65127885190E+02  0.00000000000E+00 0.  1.
         14    1    4    4    0    0 -0.39539241420E+02 -0.12947845199E+02 -0.80433335570E+01  0.42375624149E+02  0.00000000000E+00 0. -1.
         -5    1    5    5    0  502  0.54615353995E+02 -0.46665269919E+02 -0.35735146003E+02  0.80371481064E+02  0.47000000000E+01 0.  1.
         13    1    6    6    0    0  0.19053056555E+01  0.11070927014E+02 -0.10332500999E+02  0.15262902460E+02  0.00000000000E+00 0. -1.
        -14    1    6    6    0    0  0.16551094408E+03 -0.14290053913E+02  0.10209120511E+03  0.19498895459E+03  0.00000000000E+00 0.  1.
</event>
<event>
12    1  0.8798177E-003  0.2118977E+03  0.7818608E-02  0.1140675E+00
         21   -1    0    0  503  502  0.00000000000E+00  0.00000000000E+00  0.94548086327E+03  0.94548086327E+03  0.00000000000E+00 0.  1.
         21   -1    0    0  501  503 -0.00000000000E+00 -0.00000000000E+00 -0.60121843387E+02  0.60121843387E+02  0.00000000000E+00 0.  1.
          6    2    1    2  501    0  0.10533755469E+03 -0.52607753938E+02  0.20356097922E+03  0.29163546405E+03  0.17248360916E+03 0.  0.
         24    2    3    3    0    0  0.67387209127E+02  0.68711751135E+01  0.19335690004E+03  0.22019188518E+03  0.80680397295E+02 0.  0.
         -6    2    1    2    0  502 -0.10533755469E+03  0.52607753938E+02  0.68179804066E+03  0.71396724260E+03  0.17617343460E+03 0.  0.
        -24    2    5    5    0    0 -0.13890631380E+03  0.61653340165E+02  0.49922542812E+03  0.52805453979E+03  0.80743238356E+02 0.  0.
          5    1    3    3  501    0  0.37950345566E+02 -0.59478929052E+02  0.10204079186E+02  0.71443578870E+02  0.47000000000E+01 0. -1.
        -11    1    4    4    0    0  0.29284940422E+02  0.12492992279E+02  0.10805880899E+02  0.33622160157E+02  0.00000000000E+00 0.  1.
         12    1    4    4    0    0  0.38102268706E+02 -0.56218171653E+01  0.18255101914E+03  0.18656972503E+03  0.00000000000E+00 0. -1.
         -5    1    5    5    0  502  0.33568759109E+02 -0.90455862273E+01  0.18257261254E+03  0.18591270281E+03  0.47000000000E+01 0.  1.
         11    1    6    6    0    0 -0.10482608017E+03  0.40275296708E+02  0.23122924755E+03  0.25705558062E+03  0.00000000000E+00 0. -1.
        -12    1    6    6    0    0 -0.34080233637E+02  0.21378043458E+02  0.26799618057E+03  0.27099895916E+03  0.00000000000E+00 0.  1.
</event>
<event>
12    1  0.8798177E-003  0.2183489E+03  0.7818608E-02  0.1135430E+00
         21   -1    0    0  501  502  0.00000000000E+00  0.00000000000E+00  0.19596440626E+04  0.19596440626E+04  0.00000000000E+00 0.  1.
         21   -1    0    0  502  503 -0.00000000000E+00 -0.00000000000E+00 -0.31505526851E+02  0.31505526851E+02  0.00000000000E+00 0.  1.
          6    2    1    2  501    0 -0.11425537148E+03 -0.64942528008E+02  0.14424389544E+04  0.14586269842E+04  0.17230995274E+03 0.  0.
         24    2    3    3    0    0 -0.40754974120E+02  0.48596624043E+01  0.10387109743E+04  0.10423421945E+04  0.76630137558E+02 0.  0.
         -6    2    1    2    0  503  0.11425537148E+03  0.64942528008E+02  0.48569958135E+03  0.53252260532E+03  0.17436863249E+03 0.  0.
        -24    2    5    5    0    0  0.52188199966E+02  0.99844853786E+02  0.25242841086E+03  0.28857991716E+03  0.82859296016E+02 0.  0.
          5    1    3    3  501    0 -0.73500397361E+02 -0.69802190412E+02  0.40372798008E+03  0.41628478965E+03  0.47000000000E+01 0. -1.
        -13    1    4    4    0    0 -0.79454102816E+01 -0.96102300863E+01  0.85890120557E+03  0.85899171533E+03  0.00000000000E+00 0.  1.
         14    1    4    4    0    0 -0.32809563838E+02  0.14469892491E+02  0.17980976877E+03  0.18335047918E+03  0.00000000000E+00 0. -1.
         -5    1    5    5    0  503  0.62067171514E+02 -0.34902325778E+02  0.23327117049E+03  0.24394268816E+03  0.47000000000E+01 0.  1.
         13    1    6    6    0    0  0.45500775732E+01  0.18762664762E+02  0.14298740077E+03  0.14428491804E+03  0.00000000000E+00 0. -1.
        -14    1    6    6    0    0  0.47638122393E+02  0.81082189023E+02  0.10944101009E+03  0.14429499912E+03  0.00000000000E+00 0.  1.
</event>
<event>
12    1  0.8798177E-003  0.3780635E+03  0.7818608E-02  0.1051967E+00
         21   -1    0    0  501  502  0.00000000000E+00  0.00000000000E+00  0.18138425032E+04  0.18138425032E+04  0.00000000000E+00 0.  1.
         21   -1    0    0  502  503 -0.00000000000E+00 -0.00000000000E+00 -0.83951979168E+02  0.83951979168E+02  0.00000000000E+00 0. -1.
          6    2    1    2  501    0  0.33203400632E+03  0.45374666040E+02  0.61801629304E+03  0.72448338145E+03  0.17500454243E+03 0.  0.
         24    2    3    3    0    0  0.84368866491E+02 -0.32461015454E+02  0.18101146143E+03  0.21616091721E+03  0.76082651147E+02 0.  0.
         -6    2    1    2    0  503 -0.33203400632E+03 -0.45374666040E+02  0.11118742310E+04  0.11733111009E+04  0.16759830642E+03 0.  0.
        -24    2    5    5    0    0 -0.12209328652E+03 -0.65546875238E+02  0.54629594829E+03  0.56966972749E+03  0.82952828918E+02 0.  0.
          5    1    3    3  501    0  0.24766513983E+03  0.77835681494E+02  0.43700483161E+03  0.50832246424E+03  0.47000000000E+01 0. -1.
        -11    1    4    4    0    0  0.12624802903E+02  0.12383395149E+02  0.15456352792E+01  0.17751707303E+02  0.00000000000E+00 0.  1.
         12    1    4    4    0    0  0.71744063587E+02 -0.44844410603E+02  0.17946582615E+03  0.19840920991E+03  0.00000000000E+00 0. -1.
         -5    1    5    5    0  503 -0.20994071980E+03  0.20172209198E+02  0.56557828270E+03  0.60364137343E+03  0.47000000000E+01 0.  1.
         13    1    6    6    0    0 -0.34919014954E+01  0.14091787431E+02  0.10049461603E+03  0.10153787323E+03  0.00000000000E+00 0. -1.
        -14    1    6    6    0    0 -0.11860138502E+03 -0.79638662669E+02  0.44580133226E+03  0.46813185425E+03  0.00000000000E+00 0.  1.
</event>
<event>
12    1  0.8798177E-003  0.2461204E+03  0.7818608E-02  0.1115830E+00
         21   -1    0    0  501  502  0.00000000000E+00  0.00000000000E+00  0.31088234154E+03  0.31088234154E+03  0.00000000000E+00 0.  1.
         21   -1    0    0  502  503 -0.00000000000E+00 -0.00000000000E+00 -0.22731957941E+03  0.22731957941E+03  0.00000000000E+00 0.  1.
          6    2    1    2  501    0 -0.12954538787E+03  0.11934637951E+03  0.14383270680E+03  0.28480952919E+03  0.17147318902E+03 0.  0.
         24    2    3    3    0    0 -0.15261010313E+03  0.93750940680E+02  0.15275989254E+03  0.24890838403E+03  0.80874695776E+02 0.  0.
         -6    2    1    2    0  503  0.12954538787E+03 -0.11934637951E+03 -0.60269944677E+02  0.25339239176E+03  0.17190018078E+03 0.  0.
        -24    2    5    5    0    0  0.59175302207E+01 -0.22015878606E+02  0.46133118279E+01  0.83130826612E+02  0.79810623431E+02 0.  0.
          5    1    3    3  501    0  0.23064715260E+02  0.25595438826E+02 -0.89271857369E+01  0.35901145161E+02  0.47000000000E+01 0. -1.
        -11    1    4    4    0    0 -0.81634322811E+02  0.73138720442E+02  0.45554975120E+02  0.11869579119E+03  0.00000000000E+00 0.  1.
         12    1    4    4    0    0 -0.70975780317E+02  0.20612220237E+02  0.10720491742E+03  0.13021259284E+03  0.00000000000E+00 0. -1.
         -5    1    5    5    0  503  0.12362785765E+03 -0.97330500900E+02 -0.64883256505E+02  0.17026156515E+03  0.47000000000E+01 0.  1.
         13    1    6    6    0    0  0.32554033317E+02  0.15516501963E+02 -0.40813055691E+01  0.36293029269E+02  0.00000000000E+00 0. -1.
        -14    1    6    6    0    0 -0.26636503096E+02 -0.37532380568E+02  0.86946173970E+01  0.46837797343E+02  0.00000000000E+00 0.  1.
</event>
<event>
12    1  0.8798177E-003  0.1789420E+03  0.7818608E-02  0.1169266E+00
         21   -1    0    0  503  502  0.00000000000E+00  0.00000000000E+00  0.33089455215E+03  0.33089455215E+03  0.00000000000E+00 0.  1.
         21   -1    0    0  501  503 -0.00000000000E+00 -0.00000000000E+00 -0.95865282054E+02  0.95865282054E+02  0.00000000000E+00 0.  1.
          6    2    1    2  501    0 -0.47082548606E+02 -0.10525970306E+02  0.11300634853E+03  0.21163806871E+03  0.17231562578E+03 0.  0.
         24    2    3    3    0    0 -0.96282033143E+02  0.63029364890E+01  0.73706007030E+02  0.14628970818E+03  0.81597465231E+02 0.  0.
         -6    2    1    2    0  502  0.47082548606E+02  0.10525970306E+02  0.12202292156E+03  0.21512176549E+03  0.17047057859E+03 0.  0.
        -24    2    5    5    0    0 -0.39359846095E+01  0.32783434092E+02  0.13251216465E+03  0.15828516068E+03  0.80027950013E+02 0.  0.
          5    1    3    3  501    0  0.49199484536E+02 -0.16828906795E+02  0.39300341500E+02  0.65348360535E+02  0.47000000000E+01 0. -1.
        -11    1    4    4    0    0 -0.31926724319E+02  0.28806196581E+01  0.75283335604E+02  0.81824167060E+02  0.00000000000E+00 0.  1.
         12    1    4    4    0    0 -0.64355308824E+02  0.34223168309E+01 -0.15773285740E+01  0.64465541119E+02  0.00000000000E+00 0. -1.
         -5    1    5    5    0  502  0.51018533216E+02 -0.22257463787E+02 -0.10489243092E+02  0.56836604810E+02  0.47000000000E+01 0.  1.
         11    1    6    6    0    0  0.20779994164E+02 -0.19371066862E+02  0.51517618034E+02  0.58831210736E+02  0.00000000000E+00 0. -1.
        -12    1    6    6    0    0 -0.24715978773E+02  0.52154500954E+02  0.80994546621E+02  0.99453949941E+02  0.00000000000E+00 0.  1.
</event>
<event>
12    1  0.8798177E-003  0.2500328E+03  0.7818608E-02  0.1113722E+00
         21   -1    0    0  503  502  0.00000000000E+00  0.00000000000E+00  0.28938570797E+03  0.28938570797E+03  0.00000000000E+00 0.  1.
         21   -1    0    0  501  503 -0.00000000000E+00 -0.00000000000E+00 -0.22559538413E+03  0.22559538413E+03  0.00000000000E+00 0. -1.
          6    2    1    2  501    0 -0.13230628988E+03  0.12340828230E+03 -0.27509614068E+02  0.24880051377E+03  0.16855372527E+03 0.  0.
         24    2    3    3    0    0 -0.10234620759E+03  0.44044074589E+02 -0.69642847992E+02  0.15396600846E+03  0.80254462613E+02 0.  0.
         -6    2    1    2    0  502  0.13230628988E+03 -0.12340828230E+03  0.91299937901E+02  0.26618057833E+03  0.17257422501E+03 0.  0.
        -24    2    5    5    0    0  0.72061197425E+02  0.20677985000E+01  0.29482958549E+02  0.11380883898E+03  0.82982618782E+02 0.  0.
          5    1    3    3  501    0 -0.29960082287E+02  0.79364207710E+02  0.42133233925E+02  0.94834505308E+02  0.47000000000E+01 0. -1.
        -13    1    4    4    0    0 -0.66628009260E+02 -0.11788189564E+02 -0.18208170319E+02  0.70069897227E+02  0.00000000000E+00 0.  1.
         14    1    4    4    0    0 -0.35718198335E+02  0.55832264153E+02 -0.51434677673E+02  0.83896111233E+02  0.00000000000E+00 0. -1.
         -5    1    5    5    0  502  0.60245092456E+02 -0.12547608080E+03  0.61816979353E+02  0.15237173935E+03  0.47000000000E+01 0.  1.
         13    1    6    6    0    0  0.99455302133E+01  0.21330738327E+02  0.41466486158E+02  0.47680010939E+02  0.00000000000E+00 0. -1.
        -14    1    6    6    0    0  0.62115667212E+02 -0.19262939827E+02 -0.11983527610E+02  0.66128828040E+02  0.00000000000E+00 0.  1.
</event>
<event>
12    1  0.8798177E-003  0.2144776E+03  0.7818608E-02  0.1138889E+00
         21   -1    0    0  501  502  0.00000000000E+00  0.00000000000E+00  0.35691829049E+03  0.35691829049E+03  0.00000000000E+00 0.  1.
         21   -1    0    0  502  503 -0.00000000000E+00 -0.00000000000E+00 -0.17313906800E+03  0.17313906800E+03  0.00000000000E+00 0.  1.
          6    2    1    2  501    0 -0.32539909250E+01  0.12722157548E+03 -0.46525274433E+02  0.21534989479E+03  0.16737699454E+03 0.  0.
         24    2    3    3    0    0  0.14172492325E+02  0.11315605425E+03  0.17904679325E+02  0.14697716524E+03  0.90975586870E+02 0.  0.
         -6    2    1    2    0  503  0.32539909250E+01 -0.12722157548E+03  0.23030449692E+03  0.31470746370E+03  0.17264040281E+03 0.  0.
        -24    2    5    5    0    0 -0.99029763806E+01 -0.74329540971E+02  0.23496984778E+03  0.25980274076E+03  0.81631397983E+02 0.  0.
          5    1    3    3  501    0 -0.17426483250E+02  0.14065521225E+02 -0.64429953759E+02  0.68372729557E+02  0.47000000000E+01 0. -1.
        -13    1    4    4    0    0 -0.24341248399E+02  0.24734561848E+01 -0.10126572648E+02  0.26479460582E+02  0.00000000000E+00 0.  1.
         14    1    4    4    0    0  0.38513740724E+02  0.11068259807E+03  0.28031251974E+02  0.12049770466E+03  0.00000000000E+00 0. -1.
         -5    1    5    5    0  503  0.13156967306E+02 -0.52892034509E+02 -0.46653508589E+01  0.54904722946E+02  0.47000000000E+01 0.  1.
         13    1    6    6    0    0 -0.37055729834E+02 -0.15113852448E+02  0.13220609530E+03  0.13813039956E+03  0.00000000000E+00 0. -1.
        -14    1    6    6    0    0  0.27152753454E+02 -0.59215688523E+02  0.10276375248E+03  0.12167234119E+03  0.00000000000E+00 0.  1.
</event>
<event>
12    1  0.8798177E-003  0.1823596E+03  0.7818608E-02  0.1165912E+00
         21   -1    0    0  503  502  0.00000000000E+00  0.00000000000E+00  0.11517280771E+03  0.11517280771E+03  0.00000000000E+00 0.  1.
         21   -1    0    0  501  503 -0.00000000000E+00 -0.00000000000E+00 -0.29384880808E+03  0.29384880808E+03  0.00000000000E+00 0.  1.
          6    2    1    2  501    0  0.55217275874E+02  0.22708164749E+02 -0.12254506250E+03  0.21970965748E+03  0.17230912032E+03 0.  0.
         24    2    3    3    0    0  0.26919186602E+02 -0.57617879490E+01 -0.14967263345E+03  0.17103404584E+03  0.78057074168E+02 0.  0.
         -6    2    1    2    0  502 -0.55217275874E+02 -0.22708164749E+02 -0.56130937868E+02  0.18931195831E+03  0.17065675220E+03 0.  0.
        -24    2    5    5    0    0  0.10784299210E+02 -0.36982717151E+02 -0.82011773306E+02  0.11684211352E+03  0.73770766938E+02 0.  0.
          5    1    3    3  501    0  0.28298089273E+02  0.28469952698E+02  0.27127570942E+02  0.48675611638E+02  0.47000000000E+01 0. -1.
        -13    1    4    4    0    0  0.42908444209E+02  0.53315985822E+01 -0.14459555789E+03  0.15092195297E+03  0.00000000000E+00 0.  1.
         14    1    4    4    0    0 -0.15989257607E+02 -0.11093386531E+02 -0.50770755592E+01  0.20112092874E+02  0.00000000000E+00 0. -1.
         -5    1    5    5    0  502 -0.66001575084E+02  0.14274552402E+02  0.25880835438E+02  0.72469844783E+02  0.47000000000E+01 0.  1.
         13    1    6    6    0    0 -0.94667474994E+00 -0.48459813340E+02 -0.19555079026E+02  0.52265197002E+02  0.00000000000E+00 0. -1.
        -14    1    6    6    0    0  0.11730973959E+02  0.11477096189E+02 -0.62456694281E+02  0.64576916522E+02  0.00000000000E+00 0.  1.
</event>
<event>
12    1  0.8798177E-003  0.2001114E+03  0.7818608E-02  0.1150644E+00
         21   -1    0    0  503  502  0.00000000000E+00  0.00000000000E+00  0.12216552124E+03  0.12216552124E+03  0.00000000000E+00 0.  1.
         21   -1    0    0  501  503 -0.00000000000E+00 -0.00000000000E+00 -0.35216811506E+03  0.35216811506E+03  0.00000000000E+00 0.  1.
          6    2    1    2  501    0 -0.23687629704E+02  0.10063951612E+03 -0.18772410652E+03  0.27438094495E+03  0.17133343742E+03 0.  0.
         24    2    3    3    0    0  0.55438548780E+01  0.10114745201E+03 -0.65797785587E+02  0.14891040886E+03  0.87082833585E+02 0.  0.
         -6    2    1    2    0  502  0.23687629704E+02 -0.10063951612E+03 -0.42278487297E+02  0.19995269134E+03  0.16584387924E+03 0.  0.
        -24    2    5    5    0    0  0.75420984638E+02 -0.57049623447E+02 -0.45741561385E+02  0.13205201655E+03  0.80015374629E+02 0.  0.
          5    1    3    3  501    0 -0.29231484582E+02 -0.50793589069E+00 -0.12192632093E+03  0.12547053609E+03  0.47000000000E+01 0. -1.
        -13    1    4    4    0    0 -0.40564978688E+02  0.40226009230E+02 -0.30238615047E+02  0.64637629555E+02  0.00000000000E+00 0.  1.
         14    1    4    4    0    0  0.46108833566E+02  0.60921442779E+02 -0.35559170540E+02  0.84272779310E+02  0.00000000000E+00 0. -1.
         -5    1    5    5    0  502 -0.51733354934E+02 -0.43589892672E+02  0.34630740878E+01  0.67900674797E+02  0.47000000000E+01 0.  1.
         11    1    6    6    0    0  0.77683057349E+01  0.19757426237E+02 -0.44952191222E+01  0.21700448393E+02  0.00000000000E+00 0. -1.
        -12    1    6    6    0    0  0.67652678903E+02 -0.76807049685E+02 -0.41246342263E+02  0.11035156815E+03  0.00000000000E+00 0.  1.
</event>
<event>
12    1  0.8798177E-003  0.1743847E+03  0.7818608E-02  0.1173475E+00
         21   -1    0    0  501  502  0.00000000000E+00  0.00000000000E+00  0.74733835517E+02  0.74733835517E+02  0.00000000000E+00 0. -1.
         21   -1    0    0  502  503 -0.00000000000E+00 -0.00000000000E+00 -0.95209108172E+03  0.95209108172E+03  0.00000000000E+00 0. -1.
          6    2    1    2  501    0  0.26521516750E+02 -0.18257629920E-01 -0.49501154090E+02  0.18080143002E+03  0.17185866768E+03 0.  0.
         24    2    3    3    0    0 -0.38242047234E+02  0.20498878960E+02  0.80268208610E+01  0.91656435681E+02  0.80335634269E+02 0.  0.
         -6    2    1    2    0  503 -0.26521516750E+02  0.18257629920E-01 -0.82785609211E+03  0.84602348722E+03  0.17235614433E+03 0.  0.
        -24    2    5    5    0    0 -0.65538000592E+02 -0.16816012151E+01 -0.76326580998E+03  0.77039829249E+03  0.81490950923E+02 0.  0.
          5    1    3    3  501    0  0.64763563984E+02 -0.20517136590E+02 -0.57527974951E+02  0.89144994339E+02  0.47000000000E+01 0. -1.
        -13    1    4    4    0    0  0.10813012376E+02  0.34481635560E+02 -0.10100290833E+02  0.37522264090E+02  0.00000000000E+00 0.  1.
         14    1    4    4    0    0 -0.49055059610E+02 -0.13982756600E+02  0.18127111694E+02  0.54134171591E+02  0.00000000000E+00 0. -1.
         -5    1    5    5    0  503  0.39016483842E+02  0.16998588450E+01 -0.64590282130E+02  0.75625194724E+02  0.47000000000E+01 0.  1.
         11    1    6    6    0    0 -0.63716992684E+01 -0.33338913241E+02 -0.17044552147E+03  0.17379228256E+03  0.00000000000E+00 0. -1.
        -12    1    6    6    0    0 -0.59166301323E+02  0.31657312026E+02 -0.59282028851E+03  0.59660600994E+03  0.00000000000E+00 0.  1.
</event>
<event>
12    1  0.8798177E-003  0.1800692E+03  0.7818608E-02  0.1167840E+00
         21   -1    0    0  503  502  0.00000000000E+00  0.00000000000E+00  0.71614353553E+02  0.71614353553E+02  0.00000000000E+00 0. -1.
         21   -1    0    0  501  503 -0.00000000000E+00 -0.00000000000E+00 -0.51323047832E+03  0.51323047832E+03  0.00000000000E+00 0. -1.
          6    2    1    2  501    0  0.62646239443E+01 -0.49784228538E+02 -0.32183589037E+03  0.36857595347E+03  0.17248819733E+03 0.  0.
         24    2    3    3    0    0 -0.37660117611E+00 -0.71101872139E+02 -0.32829864876E+03  0.34486087291E+03  0.78060238540E+02 0.  0.
         -6    2    1    2    0  502 -0.62646239443E+01  0.49784228538E+02 -0.11978023440E+03  0.21626887841E+03  0.17293700672E+03 0.  0.
        -24    2    5    5    0    0  0.33203257385E+02 -0.28302970140E+02 -0.79576145930E+02  0.11986460992E+03  0.78304835672E+02 0.  0.
          5    1    3    3  501    0  0.66412251204E+01  0.21317643601E+02  0.64627583841E+01  0.23715080555E+02  0.47000000000E+01 0. -1.
        -11    1    4    4    0    0 -0.34345479265E+00 -0.83882540796E+01 -0.21658684144E+03  0.21674948824E+03  0.00000000000E+00 0.  1.
         12    1    4    4    0    0 -0.33146383454E-01 -0.62713618059E+02 -0.11171180732E+03  0.12811138467E+03  0.00000000000E+00 0. -1.
         -5    1    5    5    0  502 -0.39467881329E+02  0.78087198678E+02 -0.40204088468E+02  0.96404268493E+02  0.47000000000E+01 0.  1.
         13    1    6    6    0    0 -0.19372988161E+02  0.30914729365E+01 -0.20821517275E+00  0.19619205610E+02  0.00000000000E+00 0. -1.
        -14    1    6    6    0    0  0.52576245546E+02 -0.31394443077E+02 -0.79367930757E+02  0.10024540431E+03  0.00000000000E+00 0.  1.
</event>
<event>
12    1  0.8798177E-003  0.3435756E+03  0.7818608E-02  0.1066211E+00
         21   -1    0    0  501  502  0.00000000000E+00  0.00000000000E+00  0.90745706931E+03  0.90745706931E+03  0.00000000000E+00 0.  1.
         21   -1    0    0  502  503 -0.00000000000E+00 -0.00000000000E+00 -0.17407245594E+03  0.17407245594E+03  0.00000000000E+00 0. -1.
          6    2    1    2  501    0 -0.17824545605E+03 -0.22474865406E+03  0.64503239448E+03  0.72677570054E+03  0.17277942257E+03 0.  0.
         24    2    3    3    0    0 -0.20340761995E+03 -0.18188158674E+03  0.52920490976E+03  0.60064554487E+03  0.79130667942E+02 0.  0.
         -6    2    1    2    0  503  0.17824545605E+03  0.22474865406E+03  0.88352218887E+02  0.35475382471E+03  0.18910515980E+03 0.  0.
        -24    2    5    5    0    0  0.97218687500E+02  0.23008389291E+03  0.67905187012E+02  0.27088503965E+03  0.79859372084E+02 0.  0.
          5    1    3    3  501    0  0.25162163905E+02 -0.42867067317E+02  0.11582748473E+03  0.12613015568E+03  0.47000000000E+01 0. -1.
        -11    1    4    4    0    0 -0.11783442372E+02 -0.50248430459E+02  0.93713065346E+02  0.10698547983E+03  0.00000000000E+00 0.  1.
         12    1    4    4    0    0 -0.19162417758E+03 -0.13163315628E+03  0.43549184441E+03  0.49366006504E+03  0.00000000000E+00 0. -1.
         -5    1    5    5    0  503  0.81026768546E+02 -0.53352388478E+01  0.20447031875E+02  0.83868785058E+02  0.47000000000E+01 0.  1.
         13    1    6    6    0    0  0.10981646287E+03  0.19406345767E+03  0.66555355114E+02  0.23270130300E+03  0.00000000000E+00 0. -1.
        -14    1    6    6    0    0 -0.12597775373E+02  0.36020435236E+02  0.13498318976E+01  0.38183736657E+02  0.00000000000E+00 0.  1.
</event>
<event>
12    1  0.8798177E-003  0.1809142E+03  0.7818608E-02  0.1167423E+00
         21   -1    0    0  501  502  0.00000000000E+00  0.00000000000E+00  0.15369831995E+03  0.15369831995E+03  0.00000000000E+00 0. -1.
         21   -1    0    0  502  503 -0.00000000000E+00 -0.00000000000E+00 -0.31060027220E+03  0.31060027220E+03  0.00000000000E+00 0. -1.
          6    2    1    2  501    0  0.50263484805E+02  0.18741728165E+01  0.53636476687E+02  0.18670827993E+03  0.17161928719E+03 0.  0.
         24    2    3    3    0    0  0.17631218990E+02  0.76939947649E+01 -0.37562099130E+02  0.89558882966E+02  0.78992561602E+02 0.  0.
         -6    2    1    2    0  503 -0.50263484805E+02 -0.18741728165E+01 -0.21053842894E+03  0.27759031222E+03  0.17378153225E+03 0.  0.
        -24    2    5    5    0    0 -0.43009492172E+02 -0.67993339597E+02 -0.14749828285E+03  0.18582695001E+03  0.79391443245E+02 0.  0.
          5    1    3    3  501    0  0.32632265815E+02 -0.58198219484E+01  0.91198575817E+02  0.97149396966E+02  0.47000000000E+01 0. -1.
        -13    1    4    4    0    0 -0.31145134664E+02  0.12101492369E+01 -0.21237245409E+02  0.37716103549E+02  0.00000000000E+00 0.  1.
         14    1    4    4    0    0  0.48776353654E+02  0.64838455280E+01 -0.16324853722E+02  0.51842779416E+02  0.00000000000E+00 0. -1.
         -5    1    5    5    0  503 -0.72539926334E+01  0.66119166781E+02 -0.63040146089E+02  0.91763362209E+02  0.47000000000E+01 0.  1.
         11    1    6    6    0    0  0.23282531787E+02 -0.23345000042E+02 -0.39030410827E+02  0.51092448392E+02  0.00000000000E+00 0. -1.
        -12    1    6    6    0    0 -0.66292023958E+02 -0.44648339555E+02 -0.10846787202E+03  0.13473450162E+03  0.00000000000E+00 0.  1.
</event>
<event>
12    1  0.8798177E-003  0.1935816E+03  0.7818608E-02  0.1155738E+00
         21   -1    0    0  501  502  0.00000000000E+00  0.00000000000E+00  0.14991173409E+03  0.14991173409E+03  0.00000000000E+00 0. -1.
         21   -1    0    0  502  503 -0.00000000000E+00 -0.00000000000E+00 -0.37842161122E+03  0.37842161122E+03  0.00000000000E+00 0. -1.
          6    2    1    2  501    0  0.61176878077E+02 -0.65051984729E+02  0.40861211934E+02  0.19784708019E+03  0.17175406071E+03 0.  0.
         24    2    3    3    0    0  0.88181140318E+02 -0.31862106895E+02  0.75297175886E+02  0.14272245971E+03  0.76869554732E+02 0.  0.
         -6    2    1    2    0  503 -0.61176878077E+02  0.65051984729E+02 -0.26937108906E+03  0.33048626512E+03  0.16936946798E+03 0.  0.
        -24    2    5    5    0    0  0.98718364008E+01  0.27021962668E+02 -0.22034844147E+03  0.23604309500E+03  0.79594393113E+02 0.  0.
          5    1    3    3  501    0 -0.27004262241E+02 -0.33189877834E+02 -0.34435963952E+02  0.55124620481E+02  0.47000000000E+01 0. -1.
        -13    1    4    4    0    0  0.67239883941E+02  0.13828863702E+02  0.29470845358E+02  0.74705891266E+02  0.00000000000E+00 0.  1.
         14    1    4    4    0    0  0.20941256377E+02 -0.45690970597E+02  0.45826330528E+02  0.68016568441E+02  0.00000000000E+00 0. -1.
         -5    1    5    5    0  503 -0.71048714477E+02  0.38030022061E+02 -0.49022647589E+02  0.94443170126E+02  0.47000000000E+01 0.  1.
         11    1    6    6    0    0  0.12571718916E+02 -0.11011945383E+02 -0.17907302182E+03  0.17985121129E+03  0.00000000000E+00 0. -1.
        -12    1    6    6    0    0 -0.26998825153E+01  0.38033908051E+02 -0.41275419654E+02  0.56191883710E+02  0.00000000000E+00 0.  1.
</event>
<event>
12    1  0.8798177E-003  0.1774440E+03  0.7818608E-02  0.1170450E+00
         21   -1    0    0  503  502  0.00000000000E+00  0.00000000000E+00  0.68653819840E+03  0.68653819840E+03  0.00000000000E+00 0. -1.
         21   -1    0    0  501  503 -0.00000000000E+00 -0.00000000000E+00 -0.50243488359E+02  0.50243488359E+02  0.00000000000E+00 0. -1.
          6    2    1    2  501    0  0.21297986767E+02 -0.34824489795E+02  0.20694459950E+03  0.27220886574E+03  0.17206176216E+03 0.  0.
         24    2    3    3    0    0 -0.22804255336E+02  0.34392988924E+02  0.10792934605E+03  0.14351474182E+03  0.85116541460E+02 0.  0.
         -6    2    1    2    0  502 -0.21297986767E+02  0.34824489795E+02  0.42935011055E+03  0.46457282102E+03  0.17268479746E+03 0.  0.
        -24    2    5    5    0    0 -0.42580687044E+02  0.83374600662E+02  0.31738317595E+03  0.34060205415E+03  0.80704646510E+02 0.  0.
          5    1    3    3  501    0  0.44102242103E+02 -0.69217478719E+02  0.99015253445E+02  0.12869412393E+03  0.47000000000E+01 0. -1.
        -11    1    4    4    0    0  0.23208218437E+02  0.20884759545E+02  0.84618698247E+02  0.90194892745E+02  0.00000000000E+00 0.  1.
         12    1    4    4    0    0 -0.46012473773E+02  0.13508229379E+02  0.23310647807E+02  0.53319849070E+02  0.00000000000E+00 0. -1.
         -5    1    5    5    0  502  0.21282700276E+02 -0.48550110867E+02  0.11196693460E+03  0.12397076687E+03  0.47000000000E+01 0.  1.
         13    1    6    6    0    0 -0.34325917860E+02  0.39414418541E+02  0.27164864777E+03  0.27663107718E+03  0.00000000000E+00 0. -1.
        -14    1    6    6    0    0 -0.82547691835E+01  0.43960182122E+02  0.45734528180E+02  0.63970976969E+02  0.00000000000E+00 0.  1.
</event>
<event>
12    1  0.8798177E-003  0.2475784E+03  0.7818608E-02  0.1115047E+00
         21   -1    0    0  503  502  0.00000000000E+00  0.00000000000E+00  0.38664922171E+02  0.38664922171E+02  0.00000000000E+00 0.  1.
         21   -1    0    0  501  503 -0.00000000000E+00 -0.00000000000E+00 -0.18364454175E+04  0.18364454175E+04  0.00000000000E+00 0. -1.
          6    2    1    2  501    0  0.51494124149E+02  0.16990819767E+03 -0.12491656244E+04  0.12732188605E+04  0.17073684169E+03 0.  0.
         24    2    3    3    0    0 -0.15786223720E+02  0.13209006578E+03 -0.62329564687E+03  0.64259046352E+03  0.82024691809E+02 0.  0.
         -6    2    1    2    0  502 -0.51494124149E+02 -0.16990819767E+03 -0.54861487095E+03  0.60189147919E+03  0.17255328345E+03 0.  0.
        -24    2    5    5    0    0 -0.29163177544E+02 -0.38056447819E+02 -0.35713843760E+03  0.36829167258E+03  0.76105902130E+02 0.  0.
          5    1    3    3  501    0  0.67280347869E+02  0.37818131894E+02 -0.62586997755E+03  0.63062839701E+03  0.47000000000E+01 0. -1.
        -13    1    4    4    0    0 -0.45324340078E+02  0.62272628575E+02 -0.38120035477E+03  0.38890344117E+03  0.00000000000E+00 0.  1.
         14    1    4    4    0    0  0.29538116358E+02  0.69817437204E+02 -0.24209529210E+03  0.25368702236E+03  0.00000000000E+00 0. -1.
         -5    1    5    5    0  502 -0.22330946605E+02 -0.13185174985E+03 -0.19147643335E+03  0.23359980660E+03  0.47000000000E+01 0.  1.
         13    1    6    6    0    0  0.18339964457E+02  0.31339509699E+01 -0.16686550357E+03  0.16789958972E+03  0.00000000000E+00 0. -1.
        -14    1    6    6    0    0 -0.47503142001E+02 -0.41190398789E+02 -0.19027293403E+03  0.20039208287E+03  0.00000000000E+00 0.  1.
</event>
<event>
12    1  0.8798177E-003  0.2347783E+03  0.7818608E-02  0.1123393E+00
         21   -1    0    0  501  502  0.00000000000E+00  0.00000000000E+00  0.43768281242E+02  0.43768281242E+02  0.00000000000E+00 0. -1.
         21   -1    0    0  502  503 -0.00000000000E+00 -0.00000000000E+00 -0.12571340619E+04  0.12571340619E+04  0.00000000000E+00 0.  1.
          6    2    1    2  501    0 -0.81682116219E+02 -0.13732972347E+03 -0.60835827052E+03  0.65208943943E+03  0.17201578604E+03 0.  0.
         24    2    3    3    0    0  0.29617113808E+01 -0.20220519593E+02 -0.14465618281E+03  0.16637258845E+03  0.79603930894E+02 0.  0.
         -6    2    1    2    0  503  0.81682116219E+02  0.13732972347E+03 -0.60500751016E+03  0.64881290373E+03  0.17144292241E+03 0.  0.
        -24    2    5    5    0    0  0.11195462778E+03  0.14077886511E+03 -0.56538180862E+03  0.59860724911E+03  0.79507997210E+02 0.  0.
          5    1    3    3  501    0 -0.84643827600E+02 -0.11710920387E+03 -0.46370208771E+03  0.48571685098E+03  0.47000000000E+01 0. -1.
        -13    1    4    4    0    0 -0.36814043925E+02 -0.44555727383E+01 -0.87014610833E+02  0.94586830251E+02  0.00000000000E+00 0.  1.
         14    1    4    4    0    0  0.39775755306E+02 -0.15764946855E+02 -0.57641571979E+02  0.71785758195E+02  0.00000000000E+00 0. -1.
         -5    1    5    5    0  503 -0.30272511561E+02 -0.34491416413E+01 -0.39625701538E+02  0.50205654628E+02  0.47000000000E+01 0.  1.
         11    1    6    6    0    0  0.24392942252E+02  0.60673468026E+02 -0.10957882646E+03  0.12760801136E+03  0.00000000000E+00 0. -1.
        -12    1    6    6    0    0  0.87561685529E+02  0.80105397082E+02 -0.45580298216E+03  0.47099923775E+03  0.00000000000E+00 0.  1.
</event>
<event>
12    1  0.8798177E-003  0.2568905E+03  0.7818608E-02  0.1109027E+00
         21   -1    0    0  503  502  0.00000000000E+00  0.00000000000E+00  0.87727059311E+02  0.87727059311E+02  0.00000000000E+00 0.  1.
         21   -1    0    0  501  503 -0.00000000000E+00 -0.00000000000E+00 -0.10665929044E+04  0.10665929044E+04  0.00000000000E+00 0.  1.
          6    2    1    2  501    0 -0.10016942416E+03 -0.16119014103E+03 -0.80277391498E+03  0.84287525236E+03  0.17313739450E+03 0.  0.
         24    2    3    3    0    0 -0.11714473982E+03 -0.14406989776E+03 -0.78959177944E+03  0.81499833057E+03  0.79297384326E+02 0.  0.
         -6    2    1    2    0  502  0.10016942416E+03  0.16119014103E+03 -0.17609193015E+03  0.31144471139E+03  0.17312788708E+03 0.  0.
        -24    2    5    5    0    0  0.39286793186E+02  0.14409649640E+03 -0.60441698393E+02  0.17955099074E+03  0.79234506226E+02 0.  0.
          5    1    3    3  501    0  0.16975315661E+02 -0.17120243263E+02 -0.13182135533E+02  0.27876921788E+02  0.47000000000E+01 0. -1.
        -13    1    4    4    0    0  0.76771199002E+01 -0.31399039537E+02 -0.16694155192E+03  0.17004211128E+03  0.00000000000E+00 0.  1.
         14    1    4    4    0    0 -0.12482185973E+03 -0.11267085823E+03 -0.62265022753E+03  0.64495621929E+03  0.00000000000E+00 0. -1.
         -5    1    5    5    0  502  0.60882630977E+02  0.17093644627E+02 -0.11565023176E+03  0.13189372065E+03  0.47000000000E+01 0.  1.
         13    1    6    6    0    0  0.11459787277E+02  0.12392316618E+03 -0.71396454375E+02  0.14347728579E+03  0.00000000000E+00 0. -1.
        -14    1    6    6    0    0  0.27827005909E+02  0.20173330218E+02  0.10954755982E+02  0.36073704947E+02  0.00000000000E+00 0.  1.
</event>
<event>
12    1  0.8798177E-003  0.1730713E+03  0.7818608E-02  0.1178556E+00
         21   -1    0    0  503  502  0.00000000000E+00  0.00000000000E+00  0.48761505919E+02  0.48761505919E+02  0.00000000000E+00 0.  1.
         21   -1    0    0  501  503 -0.00000000000E+00 -0.00000000000E+00 -0.57220148307E+03  0.57220148307E+03  0.00000000000E+00 0.  1.
          6    2    1    2  501    0  0.68103337956E+01  0.13694360000E+02 -0.28791028634E+03  0.32868243080E+03  0.15781600423E+03 0.  0.
         24    2    3    3    0    0 -0.44052537881E+02  0.28989148187E+02 -0.22928472239E+03  0.24943592292E+03  0.82860116572E+02 0.  0.
         -6    2    1    2    0  502 -0.68103337956E+01 -0.13694360000E+02 -0.23552969081E+03  0.29228055819E+03  0.17239423802E+03 0.  0.
        -24    2    5    5    0    0 -0.16291968786E+02  0.51665560739E+02 -0.18608733006E+03  0.20964607582E+03  0.79926367888E+02 0.  0.
          5    1    3    3  501    0  0.50862871676E+02 -0.15294788187E+02 -0.58625563954E+02  0.79246507871E+02  0.47000000000E+01 0. -1.
        -13    1    4    4    0    0  0.22382363478E+02 -0.59404739610E+01 -0.54894870186E+02  0.59579410861E+02  0.00000000000E+00 0.  1.
         14    1    4    4    0    0 -0.66434901359E+02  0.34929622148E+02 -0.17438985220E+03  0.18985651206E+03  0.00000000000E+00 0. -1.
         -5    1    5    5    0  502  0.94816349903E+01 -0.65359920739E+02 -0.49442360750E+02  0.82634482376E+02  0.47000000000E+01 0.  1.
         11    1    6    6    0    0  0.16291951987E+02 -0.79085965874E+01 -0.91108100228E+02  0.92890578245E+02  0.00000000000E+00 0. -1.
        -12    1    6    6    0    0 -0.32583920772E+02  0.59574157326E+02 -0.94979229829E+02  0.11675549757E+03  0.00000000000E+00 0.  1.
</event>
<event>
12    1  0.8798177E-003  0.1951856E+03  0.7818608E-02  0.1153979E+00
         21   -1    0    0  503  502  0.00000000000E+00  0.00000000000E+00  0.70604179534E+02  0.70604179534E+02  0.00000000000E+00 0.  1.
         21   -1    0    0  501  503 -0.00000000000E+00 -0.00000000000E+00 -0.53876468413E+03  0.53876468413E+03  0.00000000000E+00 0.  1.
          6    2    1    2  501    0 -0.90361542530E+02  0.90557831792E+01 -0.22356900130E+03  0.29644328023E+03  0.17218683013E+03 0.  0.
         24    2    3    3    0    0 -0.62830602903E+02  0.60115331581E+02 -0.84300160565E+02  0.14550312613E+03  0.80641830886E+02 0.  0.
         -6    2    1    2    0  502  0.90361542530E+02 -0.90557831792E+01 -0.24459150329E+03  0.31292558344E+03  0.17277210917E+03 0.  0.
        -24    2    5    5    0    0  0.70673740310E+02 -0.60006770702E+02 -0.22226550518E+03  0.25372969779E+03  0.79882505271E+02 0.  0.
          5    1    3    3  501    0 -0.27530939628E+02 -0.51059548402E+02 -0.13926884074E+03  0.15094015410E+03  0.47000000000E+01 0. -1.
        -11    1    4    4    0    0 -0.71522267987E+02  0.27784397085E+02 -0.81455606400E+02  0.11190363423E+03  0.00000000000E+00 0.  1.
         12    1    4    4    0    0  0.86916650844E+01  0.32330934496E+02 -0.28445541649E+01  0.33599491897E+02  0.00000000000E+00 0. -1.
         -5    1    5    5    0  502  0.19687802220E+02  0.50950987522E+02 -0.22325998115E+02  0.59195885647E+02  0.47000000000E+01 0.  1.
         11    1    6    6    0    0  0.22078968621E+02 -0.13069398088E+02 -0.49187725336E+01  0.26124401333E+02  0.00000000000E+00 0. -1.
        -12    1    6    6    0    0  0.48594771689E+02 -0.46937372613E+02 -0.21734673264E+03  0.22760529646E+03  0.00000000000E+00 0.  1.
</event>
<event>
12    1  0.8798177E-003  0.1688883E+03  0.7818608E-02  0.1180431E+00
         21   -1    0    0  503  502  0.00000000000E+00  0.00000000000E+00  0.97114288120E+03  0.97114288120E+03  0.00000000000E+00 0. -1.
         21   -1    0    0  501  503 -0.00000000000E+00 -0.00000000000E+00 -0.38608471890E+02  0.38608471890E+02  0.00000000000E+00 0. -1.
          6    2    1    2  501    0  0.79005919372E+01  0.20800886300E+02  0.20190531261E+03  0.25985660477E+03  0.16206357877E+03 0.  0.
         24    2    3    3    0    0 -0.12518522002E+02 -0.33115131355E+02  0.53936616539E+02  0.10098337799E+03  0.77686283914E+02 0.  0.
         -6    2    1    2    0  502 -0.79005919372E+01 -0.20800886300E+02  0.73062909670E+03  0.74989474832E+03  0.16741612938E+03 0.  0.
        -24    2    5    5    0    0 -0.50956651421E+02  0.18421937843E+02  0.29251722713E+03  0.30790339721E+03  0.79386558850E+02 0.  0.
          5    1    3    3  501    0  0.20419113940E+02  0.53916017655E+02  0.14796869607E+03  0.15887322679E+03  0.47000000000E+01 0. -1.
        -13    1    4    4    0    0 -0.40456575548E+02  0.16036602409E+01  0.30051817574E+02  0.50422395527E+02  0.00000000000E+00 0.  1.
         14    1    4    4    0    0  0.27938053546E+02 -0.34718791596E+02  0.23884798966E+02  0.50560982461E+02  0.00000000000E+00 0. -1.
         -5    1    5    5    0  502  0.43056059484E+02 -0.39222824143E+02  0.43811186957E+03  0.44199135111E+03  0.47000000000E+01 0.  1.
         13    1    6    6    0    0  0.52488869745E+01  0.48690895214E+01  0.19055734320E+03  0.19069179294E+03  0.00000000000E+00 0. -1.
        -14    1    6    6    0    0 -0.56205538396E+02  0.13552848321E+02  0.10195988393E+03  0.11721160427E+03  0.00000000000E+00 0.  1.
</event>
<event>
12    1  0.8798177E-003  0.1957935E+03  0.7818608E-02  0.1154725E+00
         21   -1    0    0  501  502  0.00000000000E+00  0.00000000000E+00  0.46267101512E+03  0.46267101512E+03  0.00000000000E+00 0. -1.
         21   -1    0    0  502  503 -0.00000000000E+00 -0.00000000000E+00 -0.13046020782E+03  0.13046020782E+03  0.00000000000E+00 0. -1.
          6    2    1    2  501    0 -0.52098466416E+02 -0.78267582828E+02  0.35180077387E+03  0.40261507064E+03  0.17174121780E+03 0.  0.
         24    2    3    3    0    0 -0.78170636767E+02 -0.85716727962E+02  0.34857239258E+03  0.37490658321E+03  0.74794567738E+02 0.  0.
         -6    2    1    2    0  503  0.52098466416E+02  0.78267582828E+02 -0.19589966571E+02  0.19051615230E+03  0.16453745097E+03 0.  0.
        -24    2    5    5    0    0 -0.29893449222E+02  0.93261212473E+01  0.98306172484E+01  0.79325954407E+02  0.72217526703E+02 0.  0.
          5    1    3    3  501    0  0.26072170351E+02  0.74491451339E+01  0.32283812892E+01  0.27708487432E+02  0.47000000000E+01 0. -1.
        -13    1    4    4    0    0 -0.55146734014E+02 -0.27719237259E+02  0.91512910828E+02  0.11038175227E+03  0.00000000000E+00 0.  1.
         14    1    4    4    0    0 -0.23023902753E+02 -0.57997490703E+02  0.25705948175E+03  0.26452483094E+03  0.00000000000E+00 0. -1.
         -5    1    5    5    0  503  0.81991915638E+02  0.68941461580E+02 -0.29420583820E+02  0.11119019789E+03  0.47000000000E+01 0.  1.
         11    1    6    6    0    0  0.21275485632E+02  0.11177253527E+02 -0.76512613262E+01  0.25221401333E+02  0.00000000000E+00 0. -1.
        -12    1    6    6    0    0 -0.51168934854E+02 -0.18511322793E+01  0.17481878575E+02  0.54104553074E+02  0.00000000000E+00 0.  1.
</event>
<event>
12    1  0.8798177E-003  0.2911500E+03  0.7818608E-02  0.1089778E+00
         21   -1    0    0  503  502  0.00000000000E+00  0.00000000000E+00  0.52469842746E+03  0.52469842746E+03  0.00000000000E+00 0.  1.
         21   -1    0    0  501  503 -0.00000000000E+00 -0.00000000000E+00 -0.16170817694E+03  0.16170817694E+03  0.00000000000E+00 0. -1.
          6    2    1    2  501    0  0.22611030266E+03  0.66104115827E+02  0.16735684098E+03  0.33563498104E+03  0.17072464723E+03 0.  0.
         24    2    3    3    0    0  0.13042871528E+03 -0.19484993428E+01  0.15427247713E+03  0.21740040414E+03  0.80296277026E+02 0.  0.
         -6    2    1    2    0  502 -0.22611030266E+03 -0.66104115827E+02  0.19563340954E+03  0.35077162336E+03  0.17109259988E+03 0.  0.
        -24    2    5    5    0    0 -0.80815970541E+02 -0.10788275385E+02  0.15038563005E+03  0.18878478224E+03  0.79851413887E+02 0.  0.
          5    1    3    3  501    0  0.95681587382E+02  0.68052615170E+02  0.13084363856E+02  0.11823457689E+03  0.47000000000E+01 0. -1.
        -13    1    4    4    0    0 -0.79039329526E+01 -0.11362635491E+02  0.20504744532E+02  0.24739163077E+02  0.00000000000E+00 0.  1.
         14    1    4    4    0    0  0.13833264823E+03  0.94141361486E+01  0.13376773260E+03  0.19266124107E+03  0.00000000000E+00 0. -1.
         -5    1    5    5    0  502 -0.14529433212E+03 -0.55315840442E+02  0.45247779492E+02  0.16198684113E+03  0.47000000000E+01 0.  1.
         13    1    6    6    0    0  0.54551522812E+01  0.15063408603E-01 -0.70634468014E+01  0.89247517632E+01  0.00000000000E+00 0. -1.
        -14    1    6    6    0    0 -0.86271122823E+02 -0.10803338794E+02  0.15744907685E+03  0.17986003047E+03  0.00000000000E+00 0.  1.
</event>
<event>
12    1  0.8798177E-003  0.2291904E+03  0.7818608E-02  0.1127382E+00
         21   -1    0    0  501  502  0.00000000000E+00  0.00000000000E+00  0.77795314008E+03  0.77795314008E+03  0.00000000000E+00 0. -1.
         21   -1    0    0  502  503 -0.00000000000E+00 -0.00000000000E+00 -0.79782579798E+02  0.79782579798E+02  0.00000000000E+00 0.  1.
          6    2    1    2  501    0 -0.14942764254E+03  0.18560008300E+02  0.51977081872E+03  0.56805803039E+03  0.17278636416E+03 0.  0.
         24    2    3    3    0    0 -0.16890420966E+02  0.31601748878E+02  0.28573068836E+03  0.29873837883E+03  0.79489847545E+02 0.  0.
         -6    2    1    2    0  503  0.14942764254E+03 -0.18560008300E+02  0.17839974156E+03  0.28967768948E+03  0.17150394086E+03 0.  0.
        -24    2    5    5    0    0  0.15855577879E+03 -0.72496350673E+01  0.83091221876E+02  0.19315281528E+03  0.72189796395E+02 0.  0.
          5    1    3    3  501    0 -0.13253722158E+03 -0.13041740578E+02  0.23404013035E+03  0.26931965156E+03  0.47000000000E+01 0. -1.
        -11    1    4    4    0    0  0.69287670432E+01 -0.10150332102E+02  0.39820959341E+01  0.12918751587E+02  0.00000000000E+00 0.  1.
         12    1    4    4    0    0 -0.23819188010E+02  0.41752080980E+02  0.28174859243E+03  0.28581962724E+03  0.00000000000E+00 0. -1.
         -5    1    5    5    0  503 -0.91281362457E+01 -0.11310373233E+02  0.95308519687E+02  0.96524874198E+02  0.47000000000E+01 0. -1.
         11    1    6    6    0    0 -0.73687549708E+00 -0.77942998383E+00 -0.89854470334E+01  0.90492405752E+01  0.00000000000E+00 0. -1.
        -12    1    6    6    0    0  0.15929265429E+03 -0.64702050835E+01  0.92076668909E+02  0.18410357471E+03  0.00000000000E+00 0.  1.
</event>
<event>
12    1  0.8798177E-003  0.1741562E+03  0.7818608E-02  0.1173675E+00
         21   -1    0    0  503  502  0.00000000000E+00  0.00000000000E+00  0.61934300487E+03  0.61934300487E+03  0.00000000000E+00 0. -1.
         21   -1    0    0  501  503 -0.00000000000E+00 -0.00000000000E+00 -0.49419994500E+02  0.49419994500E+02  0.00000000000E+00 0. -1.
          6    2    1    2  501    0 -0.14271362676E+01 -0.28682465909E+02  0.24993287417E+03  0.30462571031E+03  0.17177212004E+03 0.  0.
         24    2    3    3    0    0  0.13919079758E+02 -0.68151804191E+02  0.23798337608E+03  0.26037398136E+03  0.79499142663E+02 0.  0.
         -6    2    1    2    0  502  0.14271362676E+01  0.28682465909E+02  0.31999013620E+03  0.36413728906E+03  0.17139882569E+03 0.  0.
        -24    2    5    5    0    0  0.23456838231E+02  0.73095978315E+01  0.32122079613E+03  0.33306138549E+03  0.84518833162E+02 0.  0.
          5    1    3    3  501    0 -0.15346216025E+02  0.39469338282E+02  0.11949498095E+02  0.44251728955E+02  0.47000000000E+01 0. -1.
        -11    1    4    4    0    0 -0.68440564257E+01 -0.11464126700E+01  0.13834538212E+03  0.13851931318E+03  0.00000000000E+00 0.  1.
         12    1    4    4    0    0  0.20763136184E+02 -0.67005391521E+02  0.99637993960E+02  0.12185466818E+03  0.00000000000E+00 0. -1.
         -5    1    5    5    0  502 -0.22029701963E+02  0.21372868077E+02 -0.12306599342E+01  0.31075903564E+02  0.47000000000E+01 0.  1.
         13    1    6    6    0    0 -0.72561204741E+01  0.14732741435E+02  0.28297701445E+03  0.28345316309E+03  0.00000000000E+00 0. -1.
        -14    1    6    6    0    0  0.30712958705E+02 -0.74231436039E+01  0.38243781679E+02  0.49608222408E+02  0.00000000000E+00 0.  1.
</event>
<event>
12    1  0.8798177E-003  0.2180885E+03  0.7818608E-02  0.1135931E+00
         21   -1    0    0  501  502  0.00000000000E+00  0.00000000000E+00  0.76070547041E+02  0.76070547041E+02  0.00000000000E+00 0. -1.
         21   -1    0    0  502  503 -0.00000000000E+00 -0.00000000000E+00 -0.77189475041E+03  0.77189475041E+03  0.00000000000E+00 0. -1.
          6    2    1    2  501    0  0.12535263479E+03  0.28676143232E+02 -0.53636837836E+03  0.57780097740E+03  0.17212590722E+03 0.  0.
         24    2    3    3    0    0  0.11114907570E+03  0.52199538966E+01 -0.21461171910E+03  0.25484374852E+03  0.80658423203E+02 0.  0.
         -6    2    1    2    0  503 -0.12535263479E+03 -0.28676143232E+02 -0.15945582501E+03  0.27016432005E+03  0.17614481390E+03 0.  0.
        -24    2    5    5    0    0 -0.14056483575E+03 -0.26172474855E+02 -0.68053842430E+02  0.17735218813E+03  0.79868652636E+02 0.  0.
          5    1    3    3  501    0  0.14203559088E+02  0.23456189336E+02 -0.32175665926E+03  0.32295722888E+03  0.47000000000E+01 0. -1.
        -13    1    4    4    0    0  0.12398320098E+03  0.74167165093E+01 -0.19807735338E+03  0.23379794638E+03  0.00000000000E+00 0.  1.
         14    1    4    4    0    0 -0.12834125281E+02 -0.21967626127E+01 -0.16534365723E+02  0.21045802136E+02  0.00000000000E+00 0. -1.
         -5    1    5    5    0  503  0.15212200966E+02 -0.25036683773E+01 -0.91401982576E+02  0.92812131924E+02  0.47000000000E+01 0.  1.
         11    1    6    6    0    0 -0.65812238741E+02  0.61466822860E+00  0.93321725707E+01  0.66473438530E+02  0.00000000000E+00 0. -1.
        -12    1    6    6    0    0 -0.74752597012E+02 -0.26787143084E+02 -0.77386015000E+02  0.11087874960E+03  0.00000000000E+00 0.  1.
</event>
<event>
12    1  0.8798177E-003  0.1903156E+03  0.7818608E-02  0.1158582E+00
         21   -1    0    0  503  502  0.00000000000E+00  0.00000000000E+00  0.48606100922E+03  0.48606100922E+03  0.00000000000E+00 0.  1.
         21   -1    0    0  501  503 -0.00000000000E+00 -0.00000000000E+00 -0.74636585891E+02  0.74636585891E+02  0.00000000000E+00 0. -1.
          6    2    1    2  501    0 -0.18452648822E+02  0.76680584742E+02  0.23605027625E+03  0.30321566889E+03  0.17320391628E+03 0.  0.
         24    2    3    3    0    0 -0.17203682622E+02  0.41494485719E+01  0.21063593568E+03  0.22620719963E+03  0.80554423499E+02 0.  0.
         -6    2    1    2    0  502  0.18452648822E+02 -0.76680584742E+02  0.17537414708E+03  0.25748192623E+03  0.17123211890E+03 0.  0.
        -24    2    5    5    0    0  0.78214889854E+02 -0.61833224131E+02  0.10502439704E+03  0.16387024479E+03  0.76696913583E+02 0.  0.
          5    1    3    3  501    0 -0.12489661996E+01  0.72531136170E+02  0.25414340569E+02  0.77008469256E+02  0.47000000000E+01 0. -1.
        -13    1    4    4    0    0 -0.26132307180E+02  0.38519258666E+02  0.10807262688E+03  0.11767040175E+03  0.00000000000E+00 0.  1.
         14    1    4    4    0    0  0.89286245579E+01 -0.34369810094E+02  0.10256330880E+03  0.10853679788E+03  0.00000000000E+00 0. -1.
         -5    1    5    5    0  502 -0.59762241032E+02 -0.14847360611E+02  0.70349750037E+02  0.93611681432E+02  0.47000000000E+01 0.  1.
         13    1    6    6    0    0  0.41353529066E+02  0.96005083702E+01  0.53879900248E+02  0.68595391812E+02  0.00000000000E+00 0. -1.
        -14    1    6    6    0    0  0.36861360788E+02 -0.71433732501E+02  0.51144496796E+02  0.95274852982E+02  0.00000000000E+00 0.  1.
</event>
<event>
12    1  0.8798177E-003  0.2091609E+03  0.7818608E-02  0.1145687E+00
         21   -1    0    0  501  502  0.00000000000E+00  0.00000000000E+00  0.17018674597E+03  0.17018674597E+03  0.00000000000E+00 0.  1.
         21   -1    0    0  502  503 -0.00000000000E+00 -0.00000000000E+00 -0.31813006805E+03  0.31813006805E+03  0.00000000000E+00 0.  1.
          6    2    1    2  501    0 -0.83387987975E+02 -0.75853145286E+02  0.51489879821E+02  0.19931530128E+03  0.15610293210E+03 0.  0.
         24    2    3    3    0    0 -0.62570179265E+01 -0.39924986151E+02  0.69162167702E+02  0.11228416364E+03  0.78684008354E+02 0.  0.
         -6    2    1    2    0  503  0.83387987975E+02  0.75853145286E+02 -0.19943320190E+03  0.28900151274E+03  0.17618460818E+03 0.  0.
        -24    2    5    5    0    0  0.32485872184E+02  0.35292178496E+02 -0.15445990592E+02  0.93784706747E+02  0.79095656264E+02 0.  0.
          5    1    3    3  501    0 -0.77130970048E+02 -0.35928159135E+02 -0.17672287882E+02  0.87031137637E+02  0.47000000000E+01 0. -1.
        -13    1    4    4    0    0 -0.11625365898E+02 -0.51572510482E+02  0.79730851600E+02  0.95665467472E+02  0.00000000000E+00 0.  1.
         14    1    4    4    0    0  0.53683479710E+01  0.11647524331E+02 -0.10568683898E+02  0.16618696168E+02  0.00000000000E+00 0. -1.
         -5    1    5    5    0  503  0.50902115791E+02  0.40560966790E+02 -0.18398721131E+03  0.19521680599E+03  0.47000000000E+01 0.  1.
         13    1    6    6    0    0  0.55296540672E+02  0.39835730837E+02 -0.51397223782E+01  0.68344784788E+02  0.00000000000E+00 0. -1.
        -14    1    6    6    0    0 -0.22810668489E+02 -0.45435523410E+01 -0.10306268214E+02  0.25439921959E+02  0.00000000000E+00 0.  1.
</event>
<event>
12    1  0.8798177E-003  0.2270378E+03  0.7818608E-02  0.1128909E+00
         21   -1    0    0  501  502  0.00000000000E+00  0.00000000000E+00  0.17514521857E+02  0.17514521857E+02  0.00000000000E+00 0.  1.
         21   -1    0    0  502  503 -0.00000000000E+00 -0.00000000000E+00 -0.29412688881E+04  0.29412688881E+04  0.00000000000E+00 0.  1.
          6    2    1    2  501    0 -0.14728957378E+03  0.14413803671E+02 -0.13774515927E+04  0.13960369127E+04  0.17217489643E+03 0.  0.
         24    2    3    3    0    0 -0.11054126584E+03 -0.50444444637E+02 -0.10581129788E+04  0.10680791855E+04  0.80162690865E+02 0.  0.
         -6    2    1    2    0  503  0.14728957378E+03 -0.14413803671E+02 -0.15463027736E+04  0.15627464973E+04  0.17094552088E+03 0.  0.
        -24    2    5    5    0    0  0.10421360277E+03  0.54006779355E+02 -0.10910924885E+04  0.11003879686E+04  0.81201328599E+02 0.  0.
          5    1    3    3  501    0 -0.36748307937E+02  0.64858248307E+02 -0.31933861388E+03  0.32795772719E+03  0.47000000000E+01 0. -1.
        -11    1    4    4    0    0 -0.40917784349E+02 -0.25174054195E+02 -0.16368040850E+03  0.17058509374E+03  0.00000000000E+00 0.  1.
         12    1    4    4    0    0 -0.69623481489E+02 -0.25270390441E+02 -0.89443257033E+03  0.89749409172E+03  0.00000000000E+00 0. -1.
         -5    1    5    5    0  503  0.43075971009E+02 -0.68420583026E+02 -0.45521028505E+03  0.46235852871E+03  0.47000000000E+01 0.  1.
         13    1    6    6    0    0 -0.39172129671E+01  0.82861235313E+01 -0.12909665071E+02  0.15832367254E+02  0.00000000000E+00 0. -1.
        -14    1    6    6    0    0  0.10813081573E+03  0.45720655824E+02 -0.10781828234E+04  0.10845556014E+04  0.00000000000E+00 0.  1.
</event>
<event>
12    1  0.8798177E-003  0.1962055E+03  0.7818608E-02  0.1155899E+00
         21   -1    0    0  501  502  0.00000000000E+00  0.00000000000E+00  0.17242353106E+04  0.17242353106E+04  0.00000000000E+00 0.  1.
         21   -1    0    0  502  503 -0.00000000000E+00 -0.00000000000E+00 -0.34985435915E+02  0.34985435915E+02  0.00000000000E+00 0.  1.
          6    2    1    2  501    0 -0.46281020101E+02 -0.57504122232E+02  0.14204035610E+04  0.14338908211E+04  0.18179096155E+03 0.  0.
         24    2    3    3    0    0  0.20209159223E+01  0.27567794555E+02  0.92592932855E+03  0.92981030705E+03  0.80237261987E+02 0.  0.
         -6    2    1    2    0  503  0.46281020101E+02  0.57504122232E+02  0.26884631367E+03  0.32532992545E+03  0.16766801461E+03 0.  0.
        -24    2    5    5    0    0 -0.24314271038E+02 -0.11907471015E+02  0.11230509447E+03  0.14004930661E+03  0.79173242931E+02 0.  0.
          5    1    3    3  501    0 -0.48301936023E+02 -0.85071916787E+02  0.49447423247E+03  0.50408051403E+03  0.47000000000E+01 0. -1.
        -11    1    4    4    0    0  0.39595378439E+02  0.18846972815E+02  0.60139543205E+03  0.60299209619E+03  0.00000000000E+00 0.  1.
         12    1    4    4    0    0 -0.37574462517E+02  0.87208217397E+01  0.32453389651E+03  0.32681821086E+03  0.00000000000E+00 0. -1.
         -5    1    5    5    0  503  0.70595291139E+02  0.69411593247E+02  0.15654121920E+03  0.18528061884E+03  0.47000000000E+01 0.  1.
         13    1    6    6    0    0 -0.45922472924E+02  0.10589899427E+02  0.90354137309E+02  0.10190627860E+03  0.00000000000E+00 0. -1.
        -14    1    6    6    0    0  0.21608201885E+02 -0.22497370442E+02  0.21950957161E+02  0.38143028010E+02  0.00000000000E+00 0.  1.
</event>
<event>
12    1  0.8798177E-003  0.1769463E+03  0.7818608E-02  0.1171090E+00
         21   -1    0    0  501  502  0.00000000000E+00  0.00000000000E+00  0.41132173016E+03  0.41132173016E+03  0.00000000000E+00 0. -1.
         21   -1    0    0  502  503 -0.00000000000E+00 -0.00000000000E+00 -0.75782992772E+02  0.75782992772E+02  0.00000000000E+00 0. -1.
          6    2    1    2  501    0 -0.26989931613E+02 -0.15934443732E+02  0.18019449380E+03  0.25254714247E+03  0.17414832950E+03 0.  0.
         24    2    3    3    0    0  0.27217665171E+02 -0.47091070682E+02  0.15996237143E+03  0.18666370200E+03  0.79353683820E+02 0.  0.
         -6    2    1    2    0  503  0.26989931613E+02  0.15934443732E+02  0.15534424359E+03  0.23455758046E+03  0.17292501737E+03 0.  0.
        -24    2    5    5    0    0  0.63649781009E+02 -0.32590904822E+02  0.12958310003E+03  0.16834292553E+03  0.80212836036E+02 0.  0.
          5    1    3    3  501    0 -0.54207596784E+02  0.31156626950E+02  0.20232122368E+02  0.65883440465E+02  0.47000000000E+01 0. -1.
        -11    1    4    4    0    0 -0.40973424918E+01  0.18119838227E+02  0.63046996058E+02  0.65727014726E+02  0.00000000000E+00 0.  1.
         12    1    4    4    0    0  0.31315007663E+02 -0.65210908908E+02  0.96915375373E+02  0.12093668728E+03  0.00000000000E+00 0. -1.
         -5    1    5    5    0  503 -0.36659849396E+02  0.48525348554E+02  0.25761143560E+02  0.66214654930E+02  0.47000000000E+01 0.  1.
         11    1    6    6    0    0  0.18745962619E+01 -0.22176932553E+02  0.93363130587E+02  0.95979188378E+02  0.00000000000E+00 0. -1.
        -12    1    6    6    0    0  0.61775184747E+02 -0.10413972269E+02  0.36219969440E+02  0.72363737156E+02  0.00000000000E+00 0.  1.
</event>
<event>
12    1  0.8798177E-003  0.3200993E+03  0.7818608E-02  0.1075607E+00
         21   -1    0    0  501  502  0.00000000000E+00  0.00000000000E+00  0.24684519778E+03  0.24684519778E+03  0.00000000000E+00 0. -1.
         21   -1    0    0  502  503 -0.00000000000E+00 -0.00000000000E+00 -0.45671921802E+03  0.45671921802E+03  0.00000000000E+00 0.  1.
          6    2    1    2  501    0  0.14878708100E+03 -0.22601757279E+03  0.13082022670E+01  0.32010199823E+03  0.17100303855E+03 0.  0.
         24    2    3    3    0    0  0.16116606581E+02 -0.13843778038E+03 -0.72879106936E+01  0.16082972198E+03  0.79926977850E+02 0.  0.
         -6    2    1    2    0  503 -0.14878708100E+03  0.22601757279E+03 -0.21118222251E+03  0.38346241757E+03  0.17095015618E+03 0.  0.
        -24    2    5    5    0    0 -0.51437744443E+02  0.16793901738E+03 -0.18433341711E+03  0.26687356613E+03  0.79958342452E+02 0.  0.
          5    1    3    3  501    0  0.13267047442E+03 -0.87579792418E+02  0.85961129606E+01  0.15927227625E+03  0.47000000000E+01 0. -1.
        -11    1    4    4    0    0  0.15179040874E+02 -0.14222677071E+03 -0.22794532097E+02  0.14483938789E+03  0.00000000000E+00 0.  1.
         12    1    4    4    0    0  0.93756570713E+00  0.37889903385E+01  0.15506621403E+02  0.15990334098E+02  0.00000000000E+00 0. -1.
         -5    1    5    5    0  503 -0.97349336559E+02  0.58078555419E+02 -0.26848805407E+02  0.11658885144E+03  0.47000000000E+01 0.  1.
         13    1    6    6    0    0  0.14971882146E+02  0.63309052726E+02 -0.38887789893E+02  0.75792173836E+02  0.00000000000E+00 0. -1.
        -14    1    6    6    0    0 -0.66409626590E+02  0.10462996465E+03 -0.14544562721E+03  0.19108139230E+03  0.00000000000E+00 0.  1.
</event>
<event>
12    1  0.8798177E-003  0.2049074E+03  0.7818608E-02  0.1149025E+00
         21   -1    0    0  501  502  0.00000000000E+00  0.00000000000E+00  0.53367735050E+03  0.53367735050E+03  0.00000000000E+00 0. -1.
         21   -1    0    0  502  503 -0.00000000000E+00 -0.00000000000E+00 -0.96331517659E+02  0.96331517659E+02  0.00000000000E+00 0. -1.
          6    2    1    2  501    0 -0.45643580650E+02 -0.10152728314E+03  0.38106769830E+03  0.43266573354E+03  0.17203464946E+03 0.  0.
         24    2    3    3    0    0 -0.50117214820E+02 -0.13740916985E+03  0.33325797378E+03  0.37253767890E+03  0.79563998945E+02 0.  0.
         -6    2    1    2    0  503  0.45643580650E+02  0.10152728314E+03  0.56278134540E+02  0.19734313462E+03  0.15292468302E+03 0.  0.
        -24    2    5    5    0    0 -0.25341882563E+02  0.55779613124E+02  0.91374496741E+01  0.10051277022E+03  0.79156476288E+02 0.  0.
          5    1    3    3  501    0  0.44736341696E+01  0.35881886712E+02  0.47809724518E+02  0.60128054643E+02  0.47000000000E+01 0. -1.
        -13    1    4    4    0    0 -0.54153909046E+02 -0.73313537540E+02  0.12567705463E+03  0.15524897008E+03  0.00000000000E+00 0.  1.
         14    1    4    4    0    0  0.40366942259E+01 -0.64095632315E+02  0.20758091915E+03  0.21728870882E+03  0.00000000000E+00 0. -1.
         -5    1    5    5    0  503  0.70985463213E+02  0.45747670019E+02  0.47140684866E+02  0.96830364398E+02  0.47000000000E+01 0.  1.
         13    1    6    6    0    0  0.62505764978E+01  0.66359710771E+02  0.84666622528E+01  0.67189026559E+02  0.00000000000E+00 0. -1.
        -14    1    6    6    0    0 -0.31592459061E+02 -0.10580097647E+02  0.67078742130E+00  0.33323743660E+02  0.00000000000E+00 0.  1.
</event>
<event>
12    1  0.8798177E-003  0.2719849E+03  0.7818608E-02  0.1100359E+00
         21   -1    0    0  503  502  0.00000000000E+00  0.00000000000E+00  0.89565258957E+02  0.89565258957E+02  0.00000000000E+00 0. -1.
         21   -1    0    0  501  503 -0.00000000000E+00 -0.00000000000E+00 -0.83626208470E+03  0.83626208470E+03  0.00000000000E+00 0.  1.
          6    2    1    2  501    0 -0.13578618172E+02 -0.20751036696E+03 -0.31074770579E+03  0.41199135674E+03  0.17299656096E+03 0.  0.
         24    2    3    3    0    0 -0.30637592982E+01 -0.20596908834E+03 -0.32544470060E+03  0.39325557671E+03  0.79391709214E+02 0.  0.
         -6    2    1    2    0  502  0.13578618172E+02  0.20751036696E+03 -0.43594911995E+03  0.51383598692E+03  0.17530218197E+03 0.  0.
        -24    2    5    5    0    0  0.34108516672E+02  0.16714936484E+03 -0.20483149028E+03  0.27827721300E+03  0.79874694303E+02 0.  0.
          5    1    3    3  501    0 -0.10514858874E+02 -0.15412786197E+01  0.14696994806E+02  0.18735780028E+02  0.47000000000E+01 0. -1.
        -13    1    4    4    0    0  0.24638995131E+02 -0.90865971517E+02 -0.19836763379E+03  0.21957555191E+03  0.00000000000E+00 0.  1.
         14    1    4    4    0    0 -0.27702754429E+02 -0.11510311682E+03 -0.12707706681E+03  0.17368002480E+03  0.00000000000E+00 0. -1.
         -5    1    5    5    0  502 -0.20529898500E+02  0.40361002116E+02 -0.23111762968E+03  0.23555877392E+03  0.47000000000E+01 0.  1.
         13    1    6    6    0    0  0.81543422185E+01 -0.78911555113E+01 -0.14157714864E+02  0.18143994116E+02  0.00000000000E+00 0. -1.
        -14    1    6    6    0    0  0.25954174454E+02  0.17504052036E+03 -0.19067377541E+03  0.26013321889E+03  0.00000000000E+00 0.  1.
</event>
<event>
12    1  0.8798177E-003  0.1746978E+03  0.7818608E-02  0.1174297E+00
         21   -1    0    0  503  502  0.00000000000E+00  0.00000000000E+00  0.53304538427E+03  0.53304538427E+03  0.00000000000E+00 0. -1.
         21   -1    0    0  501  503 -0.00000000000E+00 -0.00000000000E+00 -0.56245384982E+02  0.56245384982E+02  0.00000000000E+00 0. -1.
          6    2    1    2  501    0  0.15119010097E+02 -0.73362830372E+01  0.26539454159E+03  0.31504346651E+03  0.16892518336E+03 0.  0.
         24    2    3    3    0    0 -0.20934177749E+02  0.33655884096E+02  0.73250428576E+02  0.11523946184E+03  0.79646405727E+02 0.  0.
         -6    2    1    2    0  502 -0.15119010097E+02  0.73362830372E+01  0.21140545770E+03  0.27424730274E+03  0.17388763613E+03 0.  0.
        -24    2    5    5    0    0 -0.18939947972E+02 -0.24746212395E+02  0.30837063375E+02  0.90750923733E+02  0.79458851135E+02 0.  0.
          5    1    3    3  501    0  0.36053187846E+02 -0.40992167134E+02  0.19214411301E+03  0.19980400468E+03  0.47000000000E+01 0. -1.
        -11    1    4    4    0    0 -0.48298326319E+02  0.43826159831E+01  0.34676916697E+02  0.59618991938E+02  0.00000000000E+00 0.  1.
         12    1    4    4    0    0  0.27364148570E+02  0.29273268113E+02  0.38573511879E+02  0.55620469898E+02  0.00000000000E+00 0. -1.
         -5    1    5    5    0  502  0.38209378752E+01  0.32082495432E+02  0.18056839433E+03  0.18349637901E+03  0.47000000000E+01 0.  1.
         11    1    6    6    0    0  0.20893060401E+02 -0.22397932236E+02 -0.11366266299E+02  0.32670772120E+02  0.00000000000E+00 0. -1.
        -12    1    6    6    0    0 -0.39833008373E+02 -0.23482801589E+01  0.42203329674E+02  0.58080151612E+02  0.00000000000E+00 0.  1.
</event>
<event>
12    1  0.8798177E-003  0.1952388E+03  0.7818608E-02  0.1153889E+00
         21   -1    0    0  503  502  0.00000000000E+00  0.00000000000E+00  0.21120735624E+03  0.21120735624E+03  0.00000000000E+00 0.  1.
         21   -1    0    0  501  503 -0.00000000000E+00 -0.00000000000E+00 -0.19716637818E+03  0.19716637818E+03  0.00000000000E+00 0.  1.
          6    2    1    2  501    0  0.91973629639E+02 -0.11131395935E+02 -0.52904911312E+02  0.20227977099E+03  0.17185784703E+03 0.  0.
         24    2    3    3    0    0  0.11286982859E+03 -0.32181609485E+02  0.12242685105E+01  0.14037806884E+03  0.77001618052E+02 0.  0.
         -6    2    1    2    0  502 -0.91973629639E+02  0.11131395935E+02  0.66945889372E+02  0.20609396344E+03  0.17149318685E+03 0.  0.
        -24    2    5    5    0    0 -0.10497573404E+03 -0.79471939695E+01  0.10013986375E+03  0.16538797804E+03  0.79007141069E+02 0.  0.
          5    1    3    3  501    0 -0.20896198949E+02  0.21050213550E+02 -0.54129179823E+02  0.61901702152E+02  0.47000000000E+01 0. -1.
        -11    1    4    4    0    0  0.70970410746E+02 -0.57345313118E+02 -0.32323095223E+01  0.91300229807E+02  0.00000000000E+00 0.  1.
         12    1    4    4    0    0  0.41899417843E+02  0.25163703633E+02  0.44565780328E+01  0.49077839030E+02  0.00000000000E+00 0. -1.
         -5    1    5    5    0  502  0.13002104403E+02  0.19078589904E+02 -0.33193974378E+02  0.40705985391E+02  0.47000000000E+01 0.  1.
         11    1    6    6    0    0 -0.13617556799E+02 -0.33148674635E+02  0.37003674508E+02  0.51512565558E+02  0.00000000000E+00 0. -1.
        -12    1    6    6    0    0 -0.91358177243E+02  0.25201480666E+02  0.63136189243E+02  0.11387541249E+03  0.00000000000E+00 0.  1.
</event>
<event>
12    1  0.8798177E-003  0.2217512E+03  0.7818608E-02  0.1132648E+00
         21   -1    0    0  501  502  0.00000000000E+00  0.00000000000E+00  0.23573820313E+04  0.23573820313E+04  0.00000000000E+00 0.  1.
         21   -1    0    0  502  503 -0.00000000000E+00 -0.00000000000E+00 -0.25063301915E+02  0.25063301915E+02  0.00000000000E+00 0.  1.
          6    2    1    2  501    0  0.11306695459E+03 -0.82374908412E+02  0.16551466457E+04  0.16698896200E+04  0.17161341008E+03 0.  0.
         24    2    3    3    0    0  0.32756620366E+02 -0.13272058828E+02  0.11716666148E+04  0.11749148895E+04  0.79832308850E+02 0.  0.
         -6    2    1    2    0  503 -0.11306695459E+03  0.82374908412E+02  0.67717208365E+03  0.71255571316E+03  0.17205769883E+03 0.  0.
        -24    2    5    5    0    0 -0.63245226339E+02  0.80174445691E+02  0.63135029818E+03  0.64466777119E+03  0.81027376876E+02 0.  0.
          5    1    3    3  501    0  0.80310334220E+02 -0.69102849584E+02  0.48348003088E+03  0.49497473053E+03  0.47000000000E+01 0. -1.
        -11    1    4    4    0    0  0.54788465837E+02  0.44149526885E+01  0.58757517199E+03  0.59014053456E+03  0.00000000000E+00 0.  1.
         12    1    4    4    0    0 -0.22031845472E+02 -0.17687011516E+02  0.58409144283E+03  0.58477435492E+03  0.00000000000E+00 0. -1.
         -5    1    5    5    0  503 -0.49821728246E+02  0.22004627204E+01  0.45821785479E+02  0.67887941979E+02  0.47000000000E+01 0.  1.
         11    1    6    6    0    0  0.11048577013E+02 -0.18216609441E+01  0.16464871561E+03  0.16502905519E+03  0.00000000000E+00 0. -1.
        -12    1    6    6    0    0 -0.74293803352E+02  0.81996106635E+02  0.46670158256E+03  0.47963871600E+03  0.00000000000E+00 0.  1.
</event>
<event>
12    1  0.8798177E-003  0.1827098E+03  0.7818608E-02  0.1166154E+00
         21   -1    0    0  501  502  0.00000000000E+00  0.00000000000E+00  0.97387045547E+03  0.97387045547E+03  0.00000000000E+00 0.  1.
         21   -1    0    0  502  503 -0.00000000000E+00 -0.00000000000E+00 -0.51483890848E+02  0.51483890848E+02  0.00000000000E+00 0.  1.
          6    2    1    2  501    0 -0.57293209954E+02 -0.97751916418E+01  0.76055299750E+03  0.78127861433E+03  0.16904835084E+03 0.  0.
         24    2    3    3    0    0 -0.29521045114E+02 -0.65083294664E+02  0.59470767706E+03  0.60419942382E+03  0.79198454778E+02 0.  0.
         -6    2    1    2    0  503  0.57293209954E+02  0.97751916418E+01  0.16183356711E+03  0.24407573198E+03  0.17321891704E+03 0.  0.
        -24    2    5    5    0    0 -0.14313009646E+02 -0.15095587030E+02  0.14417932337E+03  0.16610286081E+03  0.79810676526E+02 0.  0.
          5    1    3    3  501    0 -0.27772164840E+02  0.55308103022E+02  0.16584532045E+03  0.17707919052E+03  0.47000000000E+01 0. -1.
        -13    1    4    4    0    0  0.15056746776E+02 -0.57424895037E+02  0.27716006596E+03  0.28344669050E+03  0.00000000000E+00 0.  1.
         14    1    4    4    0    0 -0.44577791890E+02 -0.76583996273E+01  0.31754761110E+03  0.32075273331E+03  0.00000000000E+00 0. -1.
         -5    1    5    5    0  503  0.71606219601E+02  0.24870778672E+02  0.17654243743E+02  0.77972871176E+02  0.47000000000E+01 0.  1.
         13    1    6    6    0    0  0.15139818123E+02 -0.39647275581E+02  0.58872384476E+02  0.72574638874E+02  0.00000000000E+00 0. -1.
        -14    1    6    6    0    0 -0.29452827769E+02  0.24551688551E+02  0.85306938895E+02  0.93528221932E+02  0.00000000000E+00 0.  1.
</event>
<event>
12    1  0.8798177E-003  0.1801708E+03  0.7818608E-02  0.1168175E+00
         21   -1    0    0  501  502  0.00000000000E+00  0.00000000000E+00  0.35108507535E+03  0.35108507535E+03  0.00000000000E+00 0.  1.
         21   -1    0    0  502  503 -0.00000000000E+00 -0.00000000000E+00 -0.95731501880E+02  0.95731501880E+02  0.00000000000E+00 0. -1.
          6    2    1    2  501    0  0.41562016964E+02 -0.20264440139E+02  0.17632654474E+03  0.25209634543E+03  0.17413634949E+03 0.  0.
         24    2    3    3    0    0 -0.14795731271E+01 -0.55623959008E+02  0.40248081376E+02  0.10498308212E+03  0.79406079891E+02 0.  0.
         -6    2    1    2    0  503 -0.41562016964E+02  0.20264440139E+02  0.79027028732E+02  0.19472023180E+03  0.17185065788E+03 0.  0.
        -24    2    5    5    0    0  0.40156648833E+02  0.26903017669E+02  0.56844342940E+02  0.10965453601E+03  0.80352405927E+02 0.  0.
          5    1    3    3  501    0  0.43041590091E+02  0.35359518869E+02  0.13607846337E+03  0.14711326332E+03  0.47000000000E+01 0. -1.
        -11    1    4    4    0    0 -0.14345317931E+02 -0.70794255110E+02  0.44227466275E+02  0.84697600180E+02  0.00000000000E+00 0.  1.
         12    1    4    4    0    0  0.12865744804E+02  0.15170296102E+02 -0.39793848986E+01  0.20285481935E+02  0.00000000000E+00 0. -1.
         -5    1    5    5    0  503 -0.81718665797E+02 -0.66385775306E+01  0.22182685792E+02  0.85065695790E+02  0.47000000000E+01 0.  1.
         11    1    6    6    0    0  0.29027992910E+02  0.16471962540E+02 -0.14723604268E+02  0.36479233064E+02  0.00000000000E+00 0. -1.
        -12    1    6    6    0    0  0.11128655923E+02  0.10431055130E+02  0.71567947208E+02  0.73175302947E+02  0.00000000000E+00 0.  1.
</event>
<event>
12    1  0.8798177E-003  0.1878987E+03  0.7818608E-02  0.1160896E+00
         21   -1    0    0  501  502  0.00000000000E+00  0.00000000000E+00  0.11233497833E+04  0.11233497833E+04  0.00000000000E+00 0.  1.
         21   -1    0    0  502  503 -0.00000000000E+00 -0.00000000000E+00 -0.31329712637E+02  0.31329712637E+02  0.00000000000E+00 0.  1.
          6    2    1    2  501    0  0.26517035948E+02 -0.65267425530E+02  0.60403503517E+03  0.63258537872E+03  0.17419227199E+03 0.  0.
         24    2    3    3    0    0 -0.45014706536E+02 -0.51424104122E+02  0.25197028926E+03  0.27302995456E+03  0.79909743620E+02 0.  0.
         -6    2    1    2    0  503 -0.26517035948E+02  0.65267425530E+02  0.48798503551E+03  0.52209411723E+03  0.17172618421E+03 0.  0.
        -24    2    5    5    0    0  0.38377382440E+02  0.68632464257E+02  0.27910093886E+03  0.30328537688E+03  0.88890084509E+02 0.  0.
          5    1    3    3  501    0  0.71531742484E+02 -0.13843321408E+02  0.35206474591E+03  0.35955542416E+03  0.47000000000E+01 0. -1.
        -11    1    4    4    0    0 -0.27834864970E+02 -0.47691250091E+02  0.24918486832E+03  0.25522996227E+03  0.00000000000E+00 0.  1.
         12    1    4    4    0    0 -0.17179841566E+02 -0.37328540309E+01  0.27854209429E+01  0.17799992283E+02  0.00000000000E+00 0. -1.
         -5    1    5    5    0  503 -0.64894418388E+02 -0.33650387272E+01  0.20888409664E+03  0.21880874035E+03  0.47000000000E+01 0.  1.
         13    1    6    6    0    0  0.63274528201E+00  0.11220344542E+02 -0.40284668564E+01  0.11938385295E+02  0.00000000000E+00 0. -1.
        -14    1    6    6    0    0  0.37744637158E+02  0.57412119714E+02  0.28312940572E+03  0.29134699159E+03  0.00000000000E+00 0.  1.
</event>
<event>
12    1  0.8798177E-003  0.1963145E+03  0.7818608E-02  0.1153893E+00
         21   -1    0    0  501  502  0.00000000000E+00  0.00000000000E+00  0.42283257181E+03  0.42283257181E+03  0.00000000000E+00 0. -1.
         21   -1    0    0  502  503 -0.00000000000E+00 -0.00000000000E+00 -0.12065639704E+03  0.12065639704E+03  0.00000000000E+00 0.  1.
          6    2    1    2  501    0 -0.15799147472E+02 -0.87702884226E+02  0.28890310778E+03  0.34672625526E+03  0.16974298641E+03 0.  0.
         24    2    3    3    0    0 -0.11374163045E+02 -0.76727268323E+02  0.77472612652E+02  0.13491268415E+03  0.78631935912E+02 0.  0.
         -6    2    1    2    0  503  0.15799147472E+02  0.87702884226E+02  0.13273066985E+02  0.19676271360E+03  0.17492278923E+03 0.  0.
        -24    2    5    5    0    0 -0.24687983708E+02 -0.14664205117E+02 -0.51422399067E+00  0.85720342567E+02  0.80766188794E+02 0.  0.
          5    1    3    3  501    0 -0.44249844275E+01 -0.10975615903E+02  0.21143049513E+03  0.21181357110E+03  0.47000000000E+01 0. -1.
        -11    1    4    4    0    0 -0.22482930809E+02  0.74799352955E+01  0.27759922231E+02  0.36497190194E+02  0.00000000000E+00 0.  1.
         12    1    4    4    0    0  0.11108767764E+02 -0.84207203618E+02  0.49712690421E+02  0.98415493960E+02  0.00000000000E+00 0. -1.
         -5    1    5    5    0  503  0.40487131180E+02  0.10236708934E+03  0.13787290976E+02  0.11104237103E+03  0.47000000000E+01 0.  1.
         13    1    6    6    0    0 -0.26117341747E+02  0.48711641761E+01  0.35728108141E+02  0.44523493705E+02  0.00000000000E+00 0. -1.
        -14    1    6    6    0    0  0.14293580391E+01 -0.19535369293E+02 -0.36242332132E+02  0.41196848862E+02  0.00000000000E+00 0.  1.
</event>
<event>
12    1  0.8798177E-003  0.2641891E+03  0.7818608E-02  0.1104851E+00
         21   -1    0    0  501  502  0.00000000000E+00  0.00000000000E+00  0.10556682845E+03  0.10556682845E+03  0.00000000000E+00 0. -1.
         21   -1    0    0  502  503 -0.00000000000E+00 -0.00000000000E+00 -0.66202082846E+03  0.66202082846E+03  0.00000000000E+00 0. -1.
          6    2    1    2  501    0  0.15364574191E+01 -0.19918105519E+03 -0.24823103122E+03  0.36251143007E+03  0.17355240886E+03 0.  0.
         24    2    3    3    0    0 -0.60382908918E+02 -0.10425144438E+03 -0.17871620084E+03  0.22946993061E+03  0.78756010984E+02 0.  0.
         -6    2    1    2    0  503 -0.15364574191E+01  0.19918105519E+03 -0.30822296878E+03  0.40507622684E+03  0.17149314160E+03 0.  0.
        -24    2    5    5    0    0  0.57910058746E+02  0.70452030413E+02 -0.14487929010E+03  0.18872397362E+03  0.79433406248E+02 0.  0.
          5    1    3    3  501    0  0.61919366337E+02 -0.94929610811E+02 -0.69514830381E+02  0.13304149946E+03  0.47000000000E+01 0. -1.
        -11    1    4    4    0    0 -0.30052705676E+02 -0.15466242979E+02 -0.80964385120E+01  0.34755173815E+02  0.00000000000E+00 0.  1.
         12    1    4    4    0    0 -0.30330203242E+02 -0.88785201403E+02 -0.17061976232E+03  0.19471475679E+03  0.00000000000E+00 0. -1.
         -5    1    5    5    0  503 -0.59446516165E+02  0.12872902478E+03 -0.16334367869E+03  0.21635225322E+03  0.47000000000E+01 0.  1.
         11    1    6    6    0    0  0.52669747468E+01  0.64232161527E+02 -0.56708201272E+02  0.85844811660E+02  0.00000000000E+00 0. -1.
        -12    1    6    6    0    0  0.52643083999E+02  0.62198688862E+01 -0.88171088825E+02  0.10287916196E+03  0.00000000000E+00 0.  1.
</event>
<event>
12    1  0.8798177E-003  0.2119049E+03  0.7818608E-02  0.1140167E+00
         21   -1    0    0  501  502  0.00000000000E+00  0.00000000000E+00  0.18365044332E+03  0.18365044332E+03  0.00000000000E+00 0.  1.
         21   -1    0    0  502  503 -0.00000000000E+00 -0.00000000000E+00 -0.28109807093E+03  0.28109807093E+03  0.00000000000E+00 0.  1.
          6    2    1    2  501    0 -0.56837282530E+02  0.10986957867E+03 -0.13318983662E+03  0.24985039597E+03  0.17141728848E+03 0.  0.
         24    2    3    3    0    0 -0.42226133273E+02 -0.94218189354E+01 -0.54294668489E+02  0.10600860518E+03  0.80113022305E+02 0.  0.
         -6    2    1    2    0  503  0.56837282530E+02 -0.10986957867E+03  0.35742209010E+02  0.21489811828E+03  0.17205201170E+03 0.  0.
        -24    2    5    5    0    0 -0.28931447360E+00  0.89938220254E+01  0.62903148829E+01  0.79689168212E+02  0.78929227359E+02 0.  0.
          5    1    3    3  501    0 -0.14611149257E+02  0.11929139760E+03 -0.78895168126E+02  0.14384179079E+03  0.47000000000E+01 0. -1.
        -13    1    4    4    0    0 -0.36973935900E+02  0.30928821745E+02 -0.40755375561E+02  0.63124199699E+02  0.00000000000E+00 0.  1.
         14    1    4    4    0    0 -0.52521973728E+01 -0.40350640681E+02 -0.13539292928E+02  0.42884405482E+02  0.00000000000E+00 0. -1.
         -5    1    5    5    0  503  0.57126597003E+02 -0.11886340069E+03  0.29451894127E+02  0.13520895006E+03  0.47000000000E+01 0.  1.
         13    1    6    6    0    0  0.21678082955E+02  0.87200680800E+01 -0.29537431760E+02  0.37662165934E+02  0.00000000000E+00 0. -1.
        -14    1    6    6    0    0 -0.21967397428E+02  0.27375394536E+00  0.35827746642E+02  0.42027002278E+02  0.00000000000E+00 0.  1.
</event>
<event>
12    1  0.8798177E-003  0.2220380E+03  0.7818608E-02  0.1132398E+00
         21   -1    0    0  501  502  0.00000000000E+00  0.00000000000E+00  0.20541351187E+03  0.20541351187E+03  0.00000000000E+00 0.  1.
         21   -1    0    0  502  503 -0.00000000000E+00 -0.00000000000E+00 -0.33761388735E+03  0.33761388735E+03  0.00000000000E+00 0. -1.
          6    2    1    2  501    0  0.78585393785E+02 -0.11696189238E+03  0.79983782824E+02  0.23600483674E+03  0.17159583056E+03 0.  0.
         24    2    3    3    0    0  0.11507068909E+03 -0.56872393255E+02  0.56587450601E+02  0.16176601240E+03  0.80562836335E+02 0.  0.
         -6    2    1    2    0  503 -0.78585393785E+02  0.11696189238E+03 -0.21218415830E+03  0.30702256248E+03  0.17142050184E+03 0.  0.
        -24    2    5    5    0    0  0.22865947645E+02  0.25282727558E+02 -0.77645265865E+02  0.11513653506E+03  0.77881747026E+02 0.  0.
          5    1    3    3  501    0 -0.36485295309E+02 -0.60089499124E+02  0.23396332223E+02  0.74238824346E+02  0.47000000000E+01 0. -1.
        -13    1    4    4    0    0  0.38683997375E+00 -0.86818924808E+01  0.34305077752E+02  0.35388744846E+02  0.00000000000E+00 0.  1.
         14    1    4    4    0    0  0.11468384912E+03 -0.48190500774E+02  0.22282372849E+02  0.12637726755E+03  0.00000000000E+00 0. -1.
         -5    1    5    5    0  503 -0.10145134143E+03  0.91679164821E+02 -0.13453889243E+03  0.19188602742E+03  0.47000000000E+01 0.  1.
         11    1    6    6    0    0  0.11645830439E+02  0.53440231242E+02 -0.49094506843E+02  0.73496627705E+02  0.00000000000E+00 0. -1.
        -12    1    6    6    0    0  0.11220117205E+02 -0.28157503684E+02 -0.28550759022E+02  0.41639907355E+02  0.00000000000E+00 0.  1.
</event>
<event>
12    1  0.8798177E-003  0.1733886E+03  0.7818608E-02  0.1174436E+00
         21   -1    0    0  501  502  0.00000000000E+00  0.00000000000E+00  0.53222668604E+02  0.53222668604E+02  0.00000000000E+00 0.  1.
         21   -1    0    0  502  503 -0.00000000000E+00 -0.00000000000E+00 -0.83301415205E+03  0.83301415205E+03  0.00000000000E+00 0.  1.
          6    2    1    2  501    0  0.47524716901E+01 -0.25719163284E+01 -0.13825717206E+03  0.22176263316E+03  0.17330441166E+03 0.  0.
         24    2    3    3    0    0  0.14491145402E+01  0.52817691539E+02 -0.13630080231E+03  0.16604155806E+03  0.78740598297E+02 0.  0.
         -6    2    1    2    0  503 -0.47524716901E+01  0.25719163284E+01 -0.64153431139E+03  0.66447418749E+03  0.17300425549E+03 0.  0.
        -24    2    5    5    0    0 -0.30401683568E+02 -0.35860696859E+02 -0.23107940975E+03  0.25140002454E+03  0.87143713384E+02 0.  0.
          5    1    3    3  501    0  0.33033571498E+01 -0.55389607868E+02 -0.19563697523E+01  0.55721075104E+02  0.47000000000E+01 0. -1.
        -11    1    4    4    0    0 -0.36175468504E+02  0.94699770081E+01 -0.51662648952E+02  0.63775969477E+02  0.00000000000E+00 0.  1.
         12    1    4    4    0    0  0.37624583044E+02  0.43347714531E+02 -0.84638153355E+02  0.10226558858E+03  0.00000000000E+00 0. -1.
         -5    1    5    5    0  503  0.25649211878E+02  0.38432613188E+02 -0.41045490164E+03  0.41307416296E+03  0.47000000000E+01 0.  1.
         13    1    6    6    0    0  0.24835624368E+02 -0.64700626276E+01 -0.24233627758E+02  0.35297856344E+02  0.00000000000E+00 0. -1.
        -14    1    6    6    0    0 -0.55237307936E+02 -0.29390634232E+02 -0.20684578200E+03  0.21610216819E+03  0.00000000000E+00 0.  1.
</event>
<event>
12    1  0.8798177E-003  0.2130999E+03  0.7818608E-02  0.1140400E+00
         21   -1    0    0  501  502  0.00000000000E+00  0.00000000000E+00  0.39975996333E+03  0.39975996333E+03  0.00000000000E+00 0. -1.
         21   -1    0    0  502  503 -0.00000000000E+00 -0.00000000000E+00 -0.11951647962E+03  0.11951647962E+03  0.00000000000E+00 0.  1.
          6    2    1    2  501    0  0.10143860771E+03 -0.55326109365E+02  0.21455902269E+03  0.30240228234E+03  0.17905528932E+03 0.  0.
         24    2    3    3    0    0  0.61395297633E+02  0.38982957822E+02  0.85803843827E+02  0.13778863491E+03  0.79588659512E+02 0.  0.
         -6    2    1    2    0  503 -0.10143860771E+03  0.55326109365E+02  0.65684461022E+02  0.21687416061E+03  0.17137439601E+03 0.  0.
        -24    2    5    5    0    0 -0.49565553149E+02  0.85416130829E+02  0.86753215546E+02  0.15313872620E+03  0.78566466072E+02 0.  0.
          5    1    3    3  501    0  0.40043310077E+02 -0.94309067187E+02  0.12875517886E+03  0.16461364743E+03  0.47000000000E+01 0. -1.
        -13    1    4    4    0    0  0.30004657144E+02  0.15280663661E+02 -0.92489595737E+01  0.34918782703E+02  0.00000000000E+00 0.  1.
         14    1    4    4    0    0  0.31390640489E+02  0.23702294160E+02  0.95052803401E+02  0.10286985221E+03  0.00000000000E+00 0. -1.
         -5    1    5    5    0  503 -0.51873054561E+02 -0.30090021464E+02 -0.21068754524E+02  0.63735434401E+02  0.47000000000E+01 0.  1.
         13    1    6    6    0    0  0.17506654162E+02  0.30692654854E+02  0.44472603144E+02  0.56800831264E+02  0.00000000000E+00 0. -1.
        -14    1    6    6    0    0 -0.67072207311E+02  0.54723475975E+02  0.42280612402E+02  0.96337894940E+02  0.00000000000E+00 0.  1.
</event>
<event>
12    1  0.8798177E-003  0.1960069E+03  0.7818608E-02  0.1153205E+00
         21   -1    0    0  501  502  0.00000000000E+00  0.00000000000E+00  0.83080343584E+03  0.83080343584E+03  0.00000000000E+00 0. -1.
         21   -1    0    0  502  503 -0.00000000000E+00 -0.00000000000E+00 -0.49711414907E+02  0.49711414907E+02  0.00000000000E+00 0. -1.
          6    2    1    2  501    0  0.92230713867E+02 -0.19441892106E+02  0.27352566202E+03  0.33650410132E+03  0.17185526083E+03 0.  0.
         24    2    3    3    0    0  0.80203507476E+02 -0.44272741963E+02  0.90596083989E+02  0.15144587990E+03  0.79596016308E+02 0.  0.
         -6    2    1    2    0  503 -0.92230713867E+02  0.19441892106E+02  0.50756635892E+03  0.54401074943E+03  0.17157970462E+03 0.  0.
        -24    2    5    5    0    0 -0.66658906083E+02 -0.50201599396E+02  0.24735636538E+03  0.27339023284E+03  0.81199985072E+02 0.  0.
          5    1    3    3  501    0  0.12027206391E+02  0.24830849858E+02  0.18292957803E+03  0.18505822142E+03  0.47000000000E+01 0. -1.
        -11    1    4    4    0    0  0.28920186113E+02 -0.74427681802E+01  0.82564402548E+02  0.87798932403E+02  0.00000000000E+00 0.  1.
         12    1    4    4    0    0  0.51283321363E+02 -0.36829973783E+02  0.80316814406E+01  0.63646947496E+02  0.00000000000E+00 0. -1.
         -5    1    5    5    0  503 -0.25571807784E+02  0.69643491502E+02  0.26020999353E+03  0.27062051658E+03  0.47000000000E+01 0.  1.
         13    1    6    6    0    0 -0.16497563063E+02  0.15042185790E+02  0.11785707872E+03  0.11995302391E+03  0.00000000000E+00 0. -1.
        -14    1    6    6    0    0 -0.50161343021E+02 -0.65243785187E+02  0.12949928666E+03  0.15343720893E+03  0.00000000000E+00 0.  1.
</event>
<event>
12    1  0.8798177E-003  0.2351710E+03  0.7818608E-02  0.1123497E+00
         21   -1    0    0  503  502  0.00000000000E+00  0.00000000000E+00  0.20261261039E+03  0.20261261039E+03  0.00000000000E+00 0.  1.
         21   -1    0    0  501  503 -0.00000000000E+00 -0.00000000000E+00 -0.27033259863E+03  0.27033259863E+03  0.00000000000E+00 0. -1.
          6    2    1    2  501    0 -0.72057539624E+02 -0.14384002070E+03 -0.42703401142E+02  0.23901666880E+03  0.17153176652E+03 0.  0.
         24    2    3    3    0    0 -0.11619987845E+03 -0.11418169994E+03 -0.24395999726E+02  0.18257720554E+03  0.78736261192E+02 0.  0.
         -6    2    1    2    0  502  0.72057539624E+02  0.14384002070E+03 -0.25016587095E+02  0.23392854022E+03  0.16797169919E+03 0.  0.
        -24    2    5    5    0    0 -0.11581617238E+02  0.66452588773E+02 -0.51927450191E+02  0.11675086430E+03  0.79901338036E+02 0.  0.
          5    1    3    3  501    0  0.44142338826E+02 -0.29658320763E+02 -0.18307401416E+02  0.56439463270E+02  0.47000000000E+01 0. -1.
        -11    1    4    4    0    0 -0.42647385866E+02 -0.56269475557E+02  0.27226093481E+02  0.75672409549E+02  0.00000000000E+00 0.  1.
         12    1    4    4    0    0 -0.73552492584E+02 -0.57912224378E+02 -0.51622093207E+02  0.10690479599E+03  0.00000000000E+00 0. -1.
         -5    1    5    5    0  502  0.83639156863E+02  0.77387431926E+02  0.26910863096E+02  0.11717767592E+03  0.47000000000E+01 0.  1.
         11    1    6    6    0    0  0.32304996565E+02  0.20718100299E+02 -0.32959850058E+02  0.50588577751E+02  0.00000000000E+00 0. -1.
        -12    1    6    6    0    0 -0.43886613803E+02  0.45734488474E+02 -0.18967600133E+02  0.66162286553E+02  0.00000000000E+00 0.  1.
</event>
<event>
12    1  0.8798177E-003  0.3845567E+03  0.7818608E-02  0.1049284E+00
         21   -1    0    0  503  502  0.00000000000E+00  0.00000000000E+00  0.10555822868E+03  0.10555822868E+03  0.00000000000E+00 0. -1.
         21   -1    0    0  501  503 -0.00000000000E+00 -0.00000000000E+00 -0.14125639402E+04  0.14125639402E+04  0.00000000000E+00 0. -1.
          6    2    1    2  501    0 -0.14731234745E+03  0.31046332760E+03 -0.72457420309E+03  0.82018929453E+03  0.17208805183E+03 0.  0.
         24    2    3    3    0    0 -0.81107668164E+02  0.20473246686E+03 -0.31761732602E+03  0.39451563518E+03  0.79170599272E+02 0.  0.
         -6    2    1    2    0  502  0.14731234745E+03 -0.31046332760E+03 -0.58243150848E+03  0.69793287439E+03  0.17261352667E+03 0.  0.
        -24    2    5    5    0    0  0.13157680406E+03 -0.32404134971E+03 -0.51756332765E+03  0.62965446716E+03  0.79231926596E+02 0.  0.
          5    1    3    3  501    0 -0.66204679286E+02  0.10573086074E+03 -0.40695687707E+03  0.42567365935E+03  0.47000000000E+01 0. -1.
        -13    1    4    4    0    0 -0.63334666715E+02  0.60737295333E+02 -0.13921958175E+03  0.16456728410E+03  0.00000000000E+00 0.  1.
         14    1    4    4    0    0 -0.17773001448E+02  0.14399517153E+03 -0.17839774427E+03  0.22994835108E+03  0.00000000000E+00 0. -1.
         -5    1    5    5    0  502  0.15735543389E+02  0.13578022115E+02 -0.64868180823E+02  0.68278407228E+02  0.47000000000E+01 0.  1.
         13    1    6    6    0    0  0.34341625222E+02 -0.18454374479E+03 -0.24993185183E+03  0.31257266599E+03  0.00000000000E+00 0. -1.
        -14    1    6    6    0    0  0.97235178838E+02 -0.13949760493E+03 -0.26763147583E+03  0.31708180118E+03  0.00000000000E+00 0.  1.
</event>
<event>
12    1  0.8798177E-003  0.1888261E+03  0.7818608E-02  0.1160398E+00
         21   -1    0    0  503  502  0.00000000000E+00  0.00000000000E+00  0.38656032978E+03  0.38656032978E+03  0.00000000000E+00 0. -1.
         21   -1    0    0  501  503 -0.00000000000E+00 -0.00000000000E+00 -0.10199061084E+03  0.10199061084E+03  0.00000000000E+00 0. -1.
          6    2    1    2  501    0  0.68611104135E+02  0.73593573061E+01  0.58622296190E+02  0.19408952271E+03  0.17167564027E+03 0.  0.
         24    2    3    3    0    0 -0.26955220688E+02 -0.47881620923E+01  0.78451398152E+01  0.85090007675E+02  0.80182621364E+02 0.  0.
         -6    2    1    2    0  502 -0.68611104135E+02 -0.73593573061E+01  0.22594742276E+03  0.29446141792E+03  0.17576588133E+03 0.  0.
        -24    2    5    5    0    0 -0.95463042868E+02  0.20119506070E+02  0.22060049205E+03  0.25538720373E+03  0.83905063362E+02 0.  0.
          5    1    3    3  501    0  0.95566324823E+02  0.12147519398E+02  0.50777156375E+02  0.10899951503E+03  0.47000000000E+01 0. -1.
        -11    1    4    4    0    0  0.62012649972E+01 -0.34002370202E+02  0.19098569456E+02  0.39488887325E+02  0.00000000000E+00 0.  1.
         12    1    4    4    0    0 -0.33156485686E+02  0.29214208109E+02 -0.11253429641E+02  0.45601120350E+02  0.00000000000E+00 0. -1.
         -5    1    5    5    0  502  0.26851938733E+02 -0.27478863376E+02  0.53469307017E+01  0.39074214184E+02  0.47000000000E+01 0.  1.
         11    1    6    6    0    0 -0.28000566998E+02 -0.31159954677E+02  0.95544123398E+02  0.10432475279E+03  0.00000000000E+00 0. -1.
        -12    1    6    6    0    0 -0.67462475870E+02  0.51279460747E+02  0.12505636866E+03  0.15106245095E+03  0.00000000000E+00 0.  1.
</event>
<event>
12    1  0.8798177E-003  0.1899170E+03  0.7818608E-02  0.1158638E+00
         21   -1    0    0  503  502  0.00000000000E+00  0.00000000000E+00  0.44626143010E+03  0.44626143010E+03  0.00000000000E+00 0. -1.
         21   -1    0    0  501  503 -0.00000000000E+00 -0.00000000000E+00 -0.87017555589E+02  0.87017555589E+02  0.00000000000E+00 0. -1.
          6    2    1    2  501    0  0.65823700462E+02  0.46057996760E+02  0.10758995043E+03  0.21827517686E+03  0.17208822387E+03 0.  0.
         24    2    3    3    0    0  0.10468715714E+03  0.62667669801E+02  0.68087686929E+02  0.16023408517E+03  0.78437180146E+02 0.  0.
         -6    2    1    2    0  502 -0.65823700462E+02 -0.46057996760E+02  0.25165392408E+03  0.31500380882E+03  0.17159138515E+03 0.  0.
        -24    2    5    5    0    0 -0.73261955302E+02 -0.57001138400E+02  0.87577085874E+02  0.15032722026E+03  0.79448620554E+02 0.  0.
          5    1    3    3  501    0 -0.38863456682E+02 -0.16609673040E+02  0.39502263498E+02  0.58041091696E+02  0.47000000000E+01 0. -1.
        -11    1    4    4    0    0 -0.16786579592E+01  0.20198296595E+02 -0.90003806013E+01  0.22176472417E+02  0.00000000000E+00 0.  1.
         12    1    4    4    0    0  0.10636581510E+03  0.42469373205E+02  0.77088067531E+02  0.13805761275E+03  0.00000000000E+00 0. -1.
         -5    1    5    5    0  502  0.74382548396E+01  0.10943141640E+02  0.16407683821E+03  0.16467658856E+03  0.47000000000E+01 0.  1.
         13    1    6    6    0    0 -0.28909400435E+02 -0.43391991744E+02  0.10542180013E+01  0.52151028337E+02  0.00000000000E+00 0. -1.
        -14    1    6    6    0    0 -0.44352554867E+02 -0.13609146656E+02  0.86522867873E+02  0.98176191925E+02  0.00000000000E+00 0.  1.
</event>
<event>
12    1  0.8798177E-003  0.1779899E+03  0.7818608E-02  0.1170578E+00
         21   -1    0    0  501  502  0.00000000000E+00  0.00000000000E+00  0.30679859846E+03  0.30679859846E+03  0.00000000000E+00 0. -1.
         21   -1    0    0  502  503 -0.00000000000E+00 -0.00000000000E+00 -0.12530270736E+03  0.12530270736E+03  0.00000000000E+00 0. -1.
          6    2    1    2  501    0 -0.14376571539E+02  0.46120284115E+02  0.18586238376E+03  0.25734263589E+03  0.17130861079E+03 0.  0.
         24    2    3    3    0    0 -0.57077775526E+02 -0.12029462776E+02  0.74904048316E+02  0.12490915035E+03  0.81173265024E+02 0.  0.
         -6    2    1    2    0  503  0.14376571539E+02 -0.46120284115E+02 -0.43664926698E+01  0.17475866993E+03  0.16789210834E+03 0.  0.
        -24    2    5    5    0    0 -0.28331030524E+02 -0.42540930719E+02  0.49124228444E+02  0.10605569845E+03  0.78881197234E+02 0.  0.
          5    1    3    3  501    0  0.42701203987E+02  0.58149746891E+02  0.11095833545E+03  0.13243348554E+03  0.47000000000E+01 0. -1.
        -13    1    4    4    0    0 -0.41987911085E+01 -0.25645243181E+02 -0.65934655105E+01  0.26810112496E+02  0.00000000000E+00 0.  1.
         14    1    4    4    0    0 -0.52878984417E+02  0.13615780405E+02  0.81497513826E+02  0.98099037859E+02  0.00000000000E+00 0. -1.
         -5    1    5    5    0  503  0.42707602063E+02 -0.35793533960E+01 -0.53490721114E+02  0.68702971479E+02  0.47000000000E+01 0.  1.
         13    1    6    6    0    0  0.53885172185E+01  0.13991532026E+02 -0.96329740802E+01  0.17821146873E+02  0.00000000000E+00 0. -1.
        -14    1    6    6    0    0 -0.33719547742E+02 -0.56532462745E+02  0.58757202524E+02  0.88234551580E+02  0.00000000000E+00 0.  1.
</event>
<event>
12    1  0.8798177E-003  0.1870561E+03  0.7818608E-02  0.1161350E+00
         21   -1    0    0  503  502  0.00000000000E+00  0.00000000000E+00  0.78275598052E+03  0.78275598052E+03  0.00000000000E+00 0.  1.
         21   -1    0    0  501  503 -0.00000000000E+00 -0.00000000000E+00 -0.45169788788E+02  0.45169788788E+02  0.00000000000E+00 0.  1.
          6    2    1    2  501    0 -0.40189358368E+02 -0.62160593440E+02  0.31880032027E+03  0.36962633945E+03  0.17178726003E+03 0.  0.
         24    2    3    3    0    0 -0.11244868029E+02 -0.42087321354E+01  0.28494572328E+03  0.29638410104E+03  0.80655499822E+02 0.  0.
         -6    2    1    2    0  502  0.40189358368E+02  0.62160593440E+02  0.41878587147E+03  0.45829942986E+03  0.17081462867E+03 0.  0.
        -24    2    5    5    0    0  0.43150200175E+02 -0.30474215053E+01  0.35712599566E+03  0.36838345752E+03  0.79348399156E+02 0.  0.
          5    1    3    3  501    0 -0.28944490339E+02 -0.57951861304E+02  0.33854596990E+02  0.73242238408E+02  0.47000000000E+01 0. -1.
        -13    1    4    4    0    0 -0.46302637624E+02 -0.37637823071E+01  0.16624247239E+03  0.17261129724E+03  0.00000000000E+00 0.  1.
         14    1    4    4    0    0  0.35057769595E+02 -0.44494982827E+00  0.11870325089E+03  0.12377280380E+03  0.00000000000E+00 0. -1.
         -5    1    5    5    0  502 -0.29608418061E+01  0.65208014945E+02  0.61659875813E+02  0.89915972344E+02  0.47000000000E+01 0.  1.
         11    1    6    6    0    0  0.13117219411E+02  0.37496582697E+02  0.16935195960E+03  0.17394867455E+03  0.00000000000E+00 0. -1.
        -12    1    6    6    0    0  0.30032980763E+02 -0.40544004202E+02  0.18777403606E+03  0.19443478297E+03  0.00000000000E+00 0.  1.
</event>
<event>
12    1  0.8798177E-003  0.2615915E+03  0.7818608E-02  0.1109857E+00
         21   -1    0    0  503  502  0.00000000000E+00  0.00000000000E+00  0.53707597035E+03  0.53707597035E+03  0.00000000000E+00 0. -1.
         21   -1    0    0  501  503 -0.00000000000E+00 -0.00000000000E+00 -0.12632590219E+03  0.12632590219E+03  0.00000000000E+00 0.  1.
          6    2    1    2  501    0 -0.68304965110E+02  0.16385989217E+03  0.12073054706E+03  0.28810759582E+03  0.19213143744E+03 0.  0.
         24    2    3    3    0    0 -0.51805597246E+02  0.14769216828E+03  0.11633549598E+02  0.17649277023E+03  0.80731418850E+02 0.  0.
         -6    2    1    2    0  502  0.68304965110E+02 -0.16385989217E+03  0.29001952110E+03  0.37529427672E+03  0.15880440484E+03 0.  0.
        -24    2    5    5    0    0  0.21269402268E+02 -0.13628247040E+03  0.11894361948E+03  0.19567826274E+03  0.71533898829E+02 0.  0.
          5    1    3    3  501    0 -0.16499367865E+02  0.16167723888E+02  0.10909699746E+03  0.11161482559E+03  0.47000000000E+01 0. -1.
        -13    1    4    4    0    0 -0.56218201326E+02  0.14851610256E+03  0.26470782132E+02  0.16099136992E+03  0.00000000000E+00 0.  1.
         14    1    4    4    0    0  0.44126040806E+01 -0.82393427865E+00 -0.14837232535E+02  0.15501400316E+02  0.00000000000E+00 0. -1.
         -5    1    5    5    0  502  0.47035562842E+02 -0.27577421770E+02  0.17107590162E+03  0.17961601398E+03  0.47000000000E+01 0.  1.
         13    1    6    6    0    0 -0.23198274534E+02 -0.78329670531E+02  0.71612773930E+02  0.10863740892E+03  0.00000000000E+00 0. -1.
        -14    1    6    6    0    0  0.44467676802E+02 -0.57952799870E+02  0.47330845553E+02  0.87040853820E+02  0.00000000000E+00 0.  1.
</event>
<event>
12    1  0.8798177E-003  0.1934813E+03  0.7818608E-02  0.1155888E+00
         21   -1    0    0  501  502  0.00000000000E+00  0.00000000000E+00  0.72244619371E+03  0.72244619371E+03  0.00000000000E+00 0. -1.
         21   -1    0    0  502  503 -0.00000000000E+00 -0.00000000000E+00 -0.55730648630E+02  0.55730648630E+02  0.00000000000E+00 0. -1.
          6    2    1    2  501    0  0.39681601395E+02  0.72503868075E+02  0.22025650652E+03  0.29159623344E+03  0.17229043595E+03 0.  0.
         24    2    3    3    0    0  0.83076841060E+02  0.87421201078E+02  0.16474424243E+03  0.21942023249E+03  0.80376271952E+02 0.  0.
         -6    2    1    2    0  503 -0.39681601395E+02 -0.72503868075E+02  0.44645903856E+03  0.48658060890E+03  0.17493877634E+03 0.  0.
        -24    2    5    5    0    0 -0.28433774227E+02 -0.96847463495E+02  0.19499756389E+03  0.23364961535E+03  0.79876042262E+02 0.  0.
          5    1    3    3  501    0 -0.43395239665E+02 -0.14917333002E+02  0.55512264088E+02  0.72176000954E+02  0.47000000000E+01 0. -1.
        -13    1    4    4    0    0 -0.13763087983E+01  0.27069272783E+02  0.30501590129E+01  0.27275322636E+02  0.00000000000E+00 0.  1.
         14    1    4    4    0    0  0.84453149858E+02  0.60351928295E+02  0.16169408342E+03  0.19214490985E+03  0.00000000000E+00 0. -1.
         -5    1    5    5    0  503 -0.11247827168E+02  0.24343595419E+02  0.25146147467E+03  0.25293099354E+03  0.47000000000E+01 0.  1.
         13    1    6    6    0    0  0.18797653275E+02 -0.49213913146E+02  0.12989584263E+03  0.14017236158E+03  0.00000000000E+00 0. -1.
        -14    1    6    6    0    0 -0.47231427502E+02 -0.47633550349E+02  0.65101721258E+02  0.93477253776E+02  0.00000000000E+00 0.  1.
</event>
<event>
12    1  0.8798177E-003  0.2711283E+03  0.7818608E-02  0.1100645E+00
         21   -1    0    0  503  502  0.00000000000E+00  0.00000000000E+00  0.10556682335E+04  0.10556682335E+04  0.00000000000E+00 0. -1.
         21   -1    0    0  501  503 -0.00000000000E+00 -0.00000000000E+00 -0.73931823958E+02  0.73931823958E+02  0.00000000000E+00 0. -1.
          6    2    1    2  501    0 -0.20836545987E+03 -0.20878589978E+02  0.35435526936E+03  0.44613998988E+03  0.17210796978E+03 0.  0.
         24    2    3    3    0    0 -0.22317997524E+03 -0.18846544707E+02  0.26836803469E+03  0.35873579318E+03  0.80656516627E+02 0.  0.
         -6    2    1    2    0  502  0.20836545987E+03  0.20878589978E+02  0.62738114021E+03  0.68346006760E+03  0.17221640029E+03 0.  0.
        -24    2    5    5    0    0  0.20690757028E+03  0.60779113351E+02  0.54995371180E+03  0.59621745257E+03  0.80754704937E+02 0.  0.
          5    1    3    3  501    0  0.14814515368E+02 -0.20320452715E+01  0.85987234671E+02  0.87404196695E+02  0.47000000000E+01 0. -1.
        -11    1    4    4    0    0 -0.59814535927E+02  0.30703638275E+02  0.71077132610E+02  0.97838902751E+02  0.00000000000E+00 0.  1.
         12    1    4    4    0    0 -0.16336543932E+03 -0.49550182982E+02  0.19729090208E+03  0.26089689043E+03  0.00000000000E+00 0. -1.
         -5    1    5    5    0  502  0.14578895990E+01 -0.39900523373E+02  0.77427428413E+02  0.87242615036E+02  0.47000000000E+01 0.  1.
         11    1    6    6    0    0  0.16684970020E+03  0.32584635262E+02  0.49083304746E+03  0.51943975723E+03  0.00000000000E+00 0. -1.
        -12    1    6    6    0    0  0.40057870075E+02  0.28194478090E+02  0.59120664337E+02  0.76777695338E+02  0.00000000000E+00 0.  1.
</event>
<event>
12    1  0.8798177E-003  0.1780179E+03  0.7818608E-02  0.1169750E+00
         21   -1    0    0  503  502  0.00000000000E+00  0.00000000000E+00  0.49553309040E+02  0.49553309040E+02  0.00000000000E+00 0.  1.
         21   -1    0    0  501  503 -0.00000000000E+00 -0.00000000000E+00 -0.90423296158E+03  0.90423296158E+03  0.00000000000E+00 0.  1.
          6    2    1    2  501    0  0.30782461456E+02 -0.29556470292E+02 -0.68552716175E+03  0.70826398479E+03  0.17282719053E+03 0.  0.
         24    2    3    3    0    0  0.40290709199E+02  0.43429741892E+02 -0.47407179550E+03  0.48431565178E+03  0.79423545247E+02 0.  0.
         -6    2    1    2    0  502 -0.30782461456E+02  0.29556470292E+02 -0.16915249079E+03  0.24552228583E+03  0.17276424059E+03 0.  0.
        -24    2    5    5    0    0 -0.61314908014E+01  0.47025499461E+02 -0.18815311126E+03  0.20952296760E+03  0.79052437653E+02 0.  0.
          5    1    3    3  501    0 -0.95082477431E+01 -0.72986212184E+02 -0.21145536625E+03  0.22394833301E+03  0.47000000000E+01 0. -1.
        -11    1    4    4    0    0  0.34377087928E+01  0.36331461005E+02 -0.74223198671E+02  0.82709589054E+02  0.00000000000E+00 0.  1.
         12    1    4    4    0    0  0.36853000406E+02  0.70982808876E+01 -0.39984859683E+03  0.40160606272E+03  0.00000000000E+00 0. -1.
         -5    1    5    5    0  502 -0.24650970654E+02 -0.17469029169E+02  0.19000620469E+02  0.35999318223E+02  0.47000000000E+01 0.  1.
         13    1    6    6    0    0  0.23102471491E+02 -0.97814823837E+01 -0.30999350419E+02  0.39879334410E+02  0.00000000000E+00 0. -1.
        -14    1    6    6    0    0 -0.29233962292E+02  0.56806981844E+02 -0.15715376084E+03  0.16964363319E+03  0.00000000000E+00 0.  1.
</event>
<event>
12    1  0.8798177E-003  0.3389726E+03  0.7818608E-02  0.1067393E+00
         21   -1    0    0  503  502  0.00000000000E+00  0.00000000000E+00  0.27515254979E+03  0.27515254979E+03  0.00000000000E+00 0. -1.
         21   -1    0    0  501  503 -0.00000000000E+00 -0.00000000000E+00 -0.43135915338E+03  0.43135915338E+03  0.00000000000E+00 0.  1.
          6    2    1    2  501    0 -0.65669347720E+01  0.29094728060E+03 -0.11115536017E+02  0.33915485019E+03  0.17380740071E+03 0.  0.
         24    2    3    3    0    0 -0.59721073551E+02  0.12626981826E+03  0.36356748111E+02  0.15965627963E+03  0.68246911003E+02 0.  0.
         -6    2    1    2    0  502  0.65669347720E+01 -0.29094728060E+03 -0.14509106757E+03  0.36735685299E+03  0.17089820019E+03 0.  0.
        -24    2    5    5    0    0  0.60917686664E+02 -0.14479450971E+03 -0.35872643361E+02  0.17692211126E+03  0.73062797098E+02 0.  0.
          5    1    3    3  501    0  0.53154138779E+02  0.16467746234E+03 -0.47472284128E+02  0.17949857056E+03  0.47000000000E+01 0. -1.
        -13    1    4    4    0    0 -0.12496236863E+02  0.43180469630E+01 -0.14241851701E+02  0.19432750839E+02  0.00000000000E+00 0.  1.
         14    1    4    4    0    0 -0.47224836688E+02  0.12195177130E+03  0.50598599811E+02  0.14022352879E+03  0.00000000000E+00 0. -1.
         -5    1    5    5    0  502 -0.54350751892E+02 -0.14615277089E+03 -0.10921842421E+03  0.19043474173E+03  0.47000000000E+01 0.  1.
         11    1    6    6    0    0 -0.12167163618E+02 -0.16924124375E+01 -0.11800468163E-01  0.12284309896E+02  0.00000000000E+00 0. -1.
        -12    1    6    6    0    0  0.73084850282E+02 -0.14310209727E+03 -0.35860842893E+02  0.16463780136E+03  0.00000000000E+00 0.  1.
</event>
<event>
12    1  0.8798177E-003  0.1982425E+03  0.7818608E-02  0.1151769E+00
         21   -1    0    0  503  502  0.00000000000E+00  0.00000000000E+00  0.59462488171E+03  0.59462488171E+03  0.00000000000E+00 0.  1.
         21   -1    0    0  501  503 -0.00000000000E+00 -0.00000000000E+00 -0.72604620356E+02  0.72604620356E+02  0.00000000000E+00 0.  1.
          6    2    1    2  501    0 -0.97441737851E+02  0.68469041826E+01  0.15639336970E+03  0.25250540422E+03  0.17250600193E+03 0.  0.
         24    2    3    3    0    0 -0.55749619888E+02 -0.96817450268E+01  0.17624484478E+03  0.20323472320E+03  0.83906800079E+02 0.  0.
         -6    2    1    2    0  502  0.97441737851E+02 -0.68469041826E+01  0.36562689165E+03  0.41472409785E+03  0.16962099240E+03 0.  0.
        -24    2    5    5    0    0  0.89248228266E+02  0.46073686219E+02  0.17784936359E+03  0.21940330393E+03  0.80121051156E+02 0.  0.
          5    1    3    3  501    0 -0.41692117963E+02  0.16528649209E+02 -0.19851475080E+02  0.49270681016E+02  0.47000000000E+01 0. -1.
        -13    1    4    4    0    0 -0.67290395971E+02 -0.60789432332E+01  0.73713971675E+02  0.99993502593E+02  0.00000000000E+00 0.  1.
         14    1    4    4    0    0  0.11540776083E+02 -0.36028017936E+01  0.10253087310E+03  0.10324122061E+03  0.00000000000E+00 0. -1.
         -5    1    5    5    0  502  0.81935095853E+01 -0.52920590402E+02  0.18777752807E+03  0.19532079391E+03  0.47000000000E+01 0.  1.
         13    1    6    6    0    0  0.63630671700E+02  0.61738676715E+02  0.89031368235E+02  0.12564677120E+03  0.00000000000E+00 0. -1.
        -14    1    6    6    0    0  0.25617556566E+02 -0.15664990496E+02  0.88817995352E+02  0.93756532732E+02  0.00000000000E+00 0.  1.
</event>
<event>
12    1  0.8798177E-003  0.1793274E+03  0.7818608E-02  0.1168922E+00
         21   -1    0    0  503  502  0.00000000000E+00  0.00000000000E+00  0.54302573117E+02  0.54302573117E+02  0.00000000000E+00 0.  1.
         21   -1    0    0  501  503 -0.00000000000E+00 -0.00000000000E+00 -0.61554021020E+03  0.61554021020E+03  0.00000000000E+00 0.  1.
          6    2    1    2  501    0  0.41107889340E+02 -0.18020259490E+02 -0.20858733739E+03  0.27507636516E+03  0.17361952952E+03 0.  0.
         24    2    3    3    0    0  0.67550090138E+02 -0.28052818290E+02 -0.60505298582E+02  0.12424459650E+03  0.80161420343E+02 0.  0.
         -6    2    1    2    0  502 -0.41107889340E+02  0.18020259490E+02 -0.35265029969E+03  0.39476641816E+03  0.17164994236E+03 0.  0.
        -24    2    5    5    0    0 -0.91253364721E+02  0.29566041367E+02 -0.23119837905E+03  0.26277955211E+03  0.79994219532E+02 0.  0.
          5    1    3    3  501    0 -0.26442200798E+02  0.10032558799E+02 -0.14808203881E+03  0.15083176866E+03  0.47000000000E+01 0. -1.
        -11    1    4    4    0    0  0.55776795847E+02  0.19830347579E+02 -0.32164683107E+02  0.67371065595E+02  0.00000000000E+00 0.  1.
         12    1    4    4    0    0  0.11773294291E+02 -0.47883165869E+02 -0.28340615476E+02  0.56873530905E+02  0.00000000000E+00 0. -1.
         -5    1    5    5    0  502  0.50145475381E+02 -0.11545781877E+02 -0.12145192065E+03  0.13198686605E+03  0.47000000000E+01 0.  1.
         13    1    6    6    0    0 -0.24936038162E+02 -0.91759321598E+01 -0.96052841637E+01  0.28253587632E+02  0.00000000000E+00 0. -1.
        -14    1    6    6    0    0 -0.66317326559E+02  0.38741973527E+02 -0.22159309488E+03  0.23452596448E+03  0.00000000000E+00 0.  1.
</event>
<event>
12    1  0.8798177E-003  0.2097471E+03  0.7818608E-02  0.1141892E+00
         21   -1    0    0  503  502  0.00000000000E+00  0.00000000000E+00  0.81055975970E+02  0.81055975970E+02  0.00000000000E+00 0. -1.
         21   -1    0    0  501  503 -0.00000000000E+00 -0.00000000000E+00 -0.54196648404E+03  0.54196648404E+03  0.00000000000E+00 0.  1.
          6    2    1    2  501    0  0.21917043352E+02 -0.11779775952E+03 -0.24238370886E+03  0.32012348471E+03  0.17138411305E+03 0.  0.
         24    2    3    3    0    0  0.39272985491E+02 -0.13264670416E+03 -0.24882150706E+03  0.29593143788E+03  0.80782164098E+02 0.  0.
         -6    2    1    2    0  502 -0.21917043352E+02  0.11779775952E+03 -0.21852679921E+03  0.30289897530E+03  0.17215446066E+03 0.  0.
        -24    2    5    5    0    0 -0.98830338053E+01  0.13711104041E+03 -0.22786838201E+03  0.27785550562E+03  0.79890992755E+02 0.  0.
          5    1    3    3  501    0 -0.17355942139E+02  0.14848944640E+02  0.64377981951E+01  0.24192046835E+02  0.47000000000E+01 0. -1.
        -13    1    4    4    0    0  0.35300703630E+02 -0.13376445183E+02 -0.87254708089E+02  0.95070779139E+02  0.00000000000E+00 0.  1.
         14    1    4    4    0    0  0.39722818606E+01 -0.11927025898E+03 -0.16156679897E+03  0.20086065874E+03  0.00000000000E+00 0. -1.
         -5    1    5    5    0  502 -0.12034009547E+02 -0.19313280888E+02  0.93415827972E+01  0.25043469679E+02  0.47000000000E+01 0.  1.
         11    1    6    6    0    0 -0.29673083839E+02  0.69257504521E+02 -0.62072202269E+02  0.97621985902E+02  0.00000000000E+00 0. -1.
        -12    1    6    6    0    0  0.19790050034E+02  0.67853535890E+02 -0.16579617974E+03  0.18023351971E+03  0.00000000000E+00 0.  1.
</event>
<event>
12    1  0.8798177E-003  0.2498967E+03  0.7818608E-02  0.1113709E+00
         21   -1    0    0  501  502  0.00000000000E+00  0.00000000000E+00  0.97559189532E+03  0.97559189532E+03  0.00000000000E+00 0.  1.
         21   -1    0    0  502  503 -0.00000000000E+00 -0.00000000000E+00 -0.65295877001E+02  0.65295877001E+02  0.00000000000E+00 0. -1.
          6    2    1    2  501    0  0.27956555902E+02  0.17758882598E+03  0.54418314080E+03  0.59881853826E+03  0.17357704599E+03 0.  0.
         24    2    3    3    0    0  0.34024348629E+01  0.19684265984E+03  0.50878773064E+03  0.55139976519E+03  0.80113275485E+02 0.  0.
         -6    2    1    2    0  503 -0.27956555902E+02 -0.17758882598E+03  0.36611287752E+03  0.44206923406E+03  0.17049108039E+03 0.  0.
        -24    2    5    5    0    0  0.26428774920E+02 -0.12393565575E+03  0.14963585206E+03  0.21245908743E+03  0.81789050015E+02 0.  0.
          5    1    3    3  501    0  0.24554121039E+02 -0.19253833858E+02  0.35395410160E+02  0.47418773062E+02  0.47000000000E+01 0. -1.
        -13    1    4    4    0    0  0.28736376746E+02  0.15093856554E+03  0.31250417700E+03  0.34823424668E+03  0.00000000000E+00 0.  1.
         14    1    4    4    0    0 -0.25333941883E+02  0.45904094303E+02  0.19628355364E+03  0.20316551852E+03  0.00000000000E+00 0. -1.
         -5    1    5    5    0  503 -0.54385330823E+02 -0.53653170238E+02  0.21647702546E+03  0.22961014663E+03  0.47000000000E+01 0.  1.
         11    1    6    6    0    0  0.83575930170E+01 -0.12576794360E+03  0.14773129377E+03  0.19419567492E+03  0.00000000000E+00 0. -1.
        -12    1    6    6    0    0  0.18071181903E+02  0.18322878588E+01  0.19045582861E+01  0.18263412508E+02  0.00000000000E+00 0.  1.
</event>
<event>
12    1  0.8798177E-003  0.2224951E+03  0.7818608E-02  0.1132133E+00
         21   -1    0    0  501  502  0.00000000000E+00  0.00000000000E+00  0.37932321635E+03  0.37932321635E+03  0.00000000000E+00 0. -1.
         21   -1    0    0  502  503 -0.00000000000E+00 -0.00000000000E+00 -0.13467104015E+03  0.13467104015E+03  0.00000000000E+00 0. -1.
          6    2    1    2  501    0 -0.10641765836E+03  0.91497738108E+02  0.16930535975E+03  0.27958611484E+03  0.17264859305E+03 0.  0.
         24    2    3    3    0    0 -0.21753750931E+02  0.91630649592E+02  0.49061652221E+02  0.13245136678E+03  0.79163863091E+02 0.  0.
         -6    2    1    2    0  503  0.10641765836E+03 -0.91497738108E+02  0.75346816446E+02  0.23440814166E+03  0.17196941600E+03 0.  0.
        -24    2    5    5    0    0  0.74144221844E+02 -0.12878989277E+03  0.69337135038E+02  0.18450337460E+03  0.84555631575E+02 0.  0.
          5    1    3    3  501    0 -0.84663907429E+02 -0.13291148392E+00  0.12024370753E+03  0.14713474806E+03  0.47000000000E+01 0. -1.
        -13    1    4    4    0    0  0.14726037973E+02 -0.68824185042E+01  0.14721729815E+02  0.21930645398E+02  0.00000000000E+00 0.  1.
         14    1    4    4    0    0 -0.36479788904E+02  0.98513068097E+02  0.34339922406E+02  0.11052072138E+03  0.00000000000E+00 0. -1.
         -5    1    5    5    0  503  0.32273436517E+02  0.37292154667E+02  0.60096814075E+01  0.49904767056E+02  0.47000000000E+01 0.  1.
         11    1    6    6    0    0  0.99482268558E+00 -0.69376556897E+02  0.56332291013E+02  0.89372385723E+02  0.00000000000E+00 0. -1.
        -12    1    6    6    0    0  0.73149399158E+02 -0.59413335878E+02  0.13004844026E+02  0.95130988881E+02  0.00000000000E+00 0.  1.
</event>
<event>
12    1  0.8798177E-003  0.1765687E+03  0.7818608E-02  0.1171575E+00
         21   -1    0    0  503  502  0.00000000000E+00  0.00000000000E+00  0.26010271065E+02  0.26010271065E+02  0.00000000000E+00 0. -1.
         21   -1    0    0  501  503 -0.00000000000E+00 -0.00000000000E+00 -0.11878703484E+04  0.11878703484E+04  0.00000000000E+00 0. -1.
          6    2    1    2  501    0  0.21856246813E+01  0.35316396729E+02 -0.58883657926E+03  0.61427036933E+03  0.17131125101E+03 0.  0.
         24    2    3    3    0    0  0.54480760559E+01  0.64507645955E+02 -0.20790377326E+03  0.23217788666E+03  0.80570926513E+02 0.  0.
         -6    2    1    2    0  502 -0.21856246813E+01 -0.35316396729E+02 -0.57302349803E+03  0.59961025009E+03  0.17298698764E+03 0.  0.
        -24    2    5    5    0    0  0.19453336464E+02  0.21630249399E+02 -0.15472838152E+03  0.17687622067E+03  0.80610330604E+02 0.  0.
          5    1    3    3  501    0 -0.32624513746E+01 -0.29191249227E+02 -0.38093280601E+03  0.38209248267E+03  0.47000000000E+01 0. -1.
        -13    1    4    4    0    0 -0.10307765699E+02 -0.13945671522E+02 -0.13588624267E+02  0.22031397990E+02  0.00000000000E+00 0.  1.
         14    1    4    4    0    0  0.15755841755E+02  0.78453317478E+02 -0.19431514899E+03  0.21014648867E+03  0.00000000000E+00 0. -1.
         -5    1    5    5    0  502 -0.21638961145E+02 -0.56946646127E+02 -0.41829511650E+03  0.42273402942E+03  0.47000000000E+01 0.  1.
         11    1    6    6    0    0  0.29370813106E+02 -0.23457407463E+01 -0.14682616250E+03  0.14975336109E+03  0.00000000000E+00 0. -1.
        -12    1    6    6    0    0 -0.99174766421E+01  0.23975990145E+02 -0.79022190242E+01  0.27122859582E+02  0.00000000000E+00 0.  1.
</event>
<event>
12    1  0.8798177E-003  0.1750370E+03  0.7818608E-02  0.1172952E+00
         21   -1    0    0  503  502  0.00000000000E+00  0.00000000000E+00  0.95041935350E+03  0.95041935350E+03  0.00000000000E+00 0.  1.
         21   -1    0    0  501  503 -0.00000000000E+00 -0.00000000000E+00 -0.39191580300E+02  0.39191580300E+02  0.00000000000E+00 0.  1.
          6    2    1    2  501    0 -0.27656004712E+02 -0.30096172046E+01  0.24327346246E+03  0.29910321624E+03  0.17177556297E+03 0.  0.
         24    2    3    3    0    0 -0.47765890455E+02 -0.33876321163E+01  0.52863693914E+02  0.10757640256E+03  0.80529844850E+02 0.  0.
         -6    2    1    2    0  502  0.27656004712E+02  0.30096172046E+01  0.66795431075E+03  0.69050771757E+03  0.17281213610E+03 0.  0.
        -24    2    5    5    0    0  0.18764905291E+02  0.49773880411E+02  0.21855667033E+03  0.23857157476E+03  0.79497278552E+02 0.  0.
          5    1    3    3  501    0  0.20109885742E+02  0.37801491175E+00  0.19040976854E+03  0.19152681368E+03  0.47000000000E+01 0. -1.
        -11    1    4    4    0    0 -0.38434654830E+02 -0.39863339253E+02  0.25105485971E+02  0.60799621167E+02  0.00000000000E+00 0.  1.
         12    1    4    4    0    0 -0.93312356248E+01  0.36475707136E+02  0.27758207943E+02  0.46776781394E+02  0.00000000000E+00 0. -1.
         -5    1    5    5    0  502  0.88910994216E+01 -0.46764263206E+02  0.44939764042E+03  0.45193614280E+03  0.47000000000E+01 0.  1.
         11    1    6    6    0    0  0.38296432381E+02  0.13398356312E+02  0.17028334069E+03  0.17505013226E+03  0.00000000000E+00 0. -1.
        -12    1    6    6    0    0 -0.19531527090E+02  0.36375524099E+02  0.48273329637E+02  0.63521442507E+02  0.00000000000E+00 0.  1.
</event>
<event>
12    1  0.8798177E-003  0.1982470E+03  0.7818608E-02  0.1152078E+00
         21   -1    0    0  501  502  0.00000000000E+00  0.00000000000E+00  0.11351197588E+03  0.11351197588E+03  0.00000000000E+00 0.  1.
         21   -1    0    0  502  503 -0.00000000000E+00 -0.00000000000E+00 -0.44404357596E+03  0.44404357596E+03  0.00000000000E+00 0.  1.
          6    2    1    2  501    0  0.32945251135E+02 -0.91615858011E+02 -0.31191435298E+02  0.20068574832E+03  0.17269339574E+03 0.  0.
         24    2    3    3    0    0  0.30450634197E+02 -0.15733290672E+02  0.40802526500E+02  0.95949853444E+02  0.79791920949E+02 0.  0.
         -6    2    1    2    0  503 -0.32945251135E+02  0.91615858011E+02 -0.29934016478E+03  0.35686980352E+03  0.16814478108E+03 0.  0.
        -24    2    5    5    0    0  0.21442074690E+02  0.38306550214E+01 -0.15983140396E+03  0.18323510820E+03  0.86917148478E+02 0.  0.
          5    1    3    3  501    0  0.24946169382E+01 -0.75882567339E+02 -0.71993961798E+02  0.10473589487E+03  0.47000000000E+01 0. -1.
        -13    1    4    4    0    0 -0.26457918943E+02  0.79271834412E+00  0.57084665209E+01  0.27078339447E+02  0.00000000000E+00 0.  1.
         14    1    4    4    0    0  0.56908553140E+02 -0.16526009016E+02  0.35094059979E+02  0.68871513997E+02  0.00000000000E+00 0. -1.
         -5    1    5    5    0  503 -0.54387325825E+02  0.87785202990E+02 -0.13950876082E+03  0.17363469532E+03  0.47000000000E+01 0.  1.
         11    1    6    6    0    0  0.51149687365E+01  0.22687917130E+02 -0.18875878600E+01  0.23333826879E+02  0.00000000000E+00 0. -1.
        -12    1    6    6    0    0  0.16327105953E+02 -0.18857262109E+02 -0.15794381610E+03  0.15990128132E+03  0.00000000000E+00 0.  1.
</event>
<event>
12    1  0.8798177E-003  0.1782279E+03  0.7818608E-02  0.1169921E+00
         21   -1    0    0  503  502  0.00000000000E+00  0.00000000000E+00  0.45139709853E+02  0.45139709853E+02  0.00000000000E+00 0. -1.
         21   -1    0    0  501  503 -0.00000000000E+00 -0.00000000000E+00 -0.74052328909E+03  0.74052328909E+03  0.00000000000E+00 0. -1.
          6    2    1    2  501    0 -0.42436791853E+02 -0.71435634139E+01 -0.44097604694E+03  0.47503723485E+03  0.17131429807E+03 0.  0.
         24    2    3    3    0    0 -0.90009847592E+01 -0.70110836078E+02 -0.25259214218E+03  0.27355915616E+03  0.77687029583E+02 0.  0.
         -6    2    1    2    0  502  0.42436791853E+02  0.71435634139E+01 -0.25440753230E+03  0.31062576409E+03  0.17295450565E+03 0.  0.
        -24    2    5    5    0    0  0.85386863217E+02  0.97094604109E+00 -0.23472744904E+03  0.26274878097E+03  0.81535804542E+02 0.  0.
          5    1    3    3  501    0 -0.33435807094E+02  0.62967272664E+02 -0.18838390476E+03  0.20147807869E+03  0.47000000000E+01 0. -1.
        -13    1    4    4    0    0 -0.40061193398E+02 -0.28036663467E+02 -0.85738944310E+02  0.98702179744E+02  0.00000000000E+00 0.  1.
         14    1    4    4    0    0  0.31060208639E+02 -0.42074172611E+02 -0.16685319787E+03  0.17485697642E+03  0.00000000000E+00 0. -1.
         -5    1    5    5    0  502 -0.42950071363E+02  0.61726173728E+01 -0.19680083258E+02  0.47876983117E+02  0.47000000000E+01 0.  1.
         11    1    6    6    0    0  0.46236821180E+02 -0.39812450770E+02 -0.10950488765E+03  0.12535627343E+03  0.00000000000E+00 0. -1.
        -12    1    6    6    0    0  0.39150042037E+02  0.40783396811E+02 -0.12522256139E+03  0.13739250754E+03  0.00000000000E+00 0.  1.
</event>
<event>
12    1  0.8798177E-003  0.1746964E+03  0.7818608E-02  0.1173430E+00
         21   -1    0    0  501  502  0.00000000000E+00  0.00000000000E+00  0.54875993810E+03  0.54875993810E+03  0.00000000000E+00 0.  1.
         21   -1    0    0  502  503 -0.00000000000E+00 -0.00000000000E+00 -0.64008546076E+02  0.64008546076E+02  0.00000000000E+00 0.  1.
          6    2    1    2  501    0  0.48413139687E+01 -0.33238016824E+02  0.35561035500E+03  0.39552153383E+03  0.16985392269E+03 0.  0.
         24    2    3    3    0    0  0.55716424431E+02 -0.42065452513E+02  0.21480018730E+03  0.24546889702E+03  0.96135512135E+02 0.  0.
         -6    2    1    2    0  503 -0.48413139687E+01  0.33238016824E+02  0.12914103703E+03  0.21724695035E+03  0.17143694441E+03 0.  0.
        -24    2    5    5    0    0  0.21859310759E+02  0.43292404319E+02  0.15328484239E+03  0.17957697018E+03  0.79997397304E+02 0.  0.
          5    1    3    3  501    0 -0.50875110462E+02  0.88274356893E+01  0.14081016770E+03  0.15005263680E+03  0.47000000000E+01 0. -1.
        -11    1    4    4    0    0  0.52764997395E+02 -0.54472224561E+02  0.21922356440E+03  0.23197055716E+03  0.00000000000E+00 0.  1.
         12    1    4    4    0    0  0.29514270360E+01  0.12406772048E+02 -0.44233770980E+01  0.13498339866E+02  0.00000000000E+00 0. -1.
         -5    1    5    5    0  503 -0.26700624728E+02 -0.10054387495E+02 -0.24143805359E+02  0.37669980170E+02  0.47000000000E+01 0.  1.
         11    1    6    6    0    0 -0.26092643746E+02  0.15547766727E+02  0.23308131578E+02  0.38286134638E+02  0.00000000000E+00 0. -1.
        -12    1    6    6    0    0  0.47951954505E+02  0.27744637593E+02  0.12997671081E+03  0.14129083554E+03  0.00000000000E+00 0.  1.
</event>
<event>
12    1  0.8798177E-003  0.1915385E+03  0.7818608E-02  0.1157272E+00
         21   -1    0    0  501  502  0.00000000000E+00  0.00000000000E+00  0.10255723896E+03  0.10255723896E+03  0.00000000000E+00 0.  1.
         21   -1    0    0  502  503 -0.00000000000E+00 -0.00000000000E+00 -0.37920295294E+03  0.37920295294E+03  0.00000000000E+00 0.  1.
          6    2    1    2  501    0 -0.79900441547E+02  0.24035760876E+02 -0.78616438936E+02  0.20625591270E+03  0.17146182867E+03 0.  0.
         24    2    3    3    0    0 -0.10277933549E+03 -0.39508797259E+01 -0.12838021630E+02  0.13105228231E+03  0.80191549706E+02 0.  0.
         -6    2    1    2    0  503  0.79900441547E+02 -0.24035760876E+02 -0.19802927504E+03  0.27550427920E+03  0.17241002211E+03 0.  0.
        -24    2    5    5    0    0  0.22849929231E+02  0.45301454899E+02 -0.60054476274E+02  0.11081807595E+03  0.78100990741E+02 0.  0.
          5    1    3    3  501    0  0.22878893944E+02  0.27986640602E+02 -0.65778417306E+02  0.75203630389E+02  0.47000000000E+01 0. -1.
        -13    1    4    4    0    0 -0.67115697454E+02 -0.28807503483E+01 -0.46737341141E+02  0.81836389365E+02  0.00000000000E+00 0.  1.
         14    1    4    4    0    0 -0.35663638037E+02 -0.10701293776E+01  0.33899319511E+02  0.49215892944E+02  0.00000000000E+00 0. -1.
         -5    1    5    5    0  503  0.57050512316E+02 -0.69337215776E+02 -0.13797479877E+03  0.16468620325E+03  0.47000000000E+01 0.  1.
         11    1    6    6    0    0 -0.14624952311E+02 -0.13164321207E+02 -0.28272423721E+02  0.34445878215E+02  0.00000000000E+00 0. -1.
        -12    1    6    6    0    0  0.37474881542E+02  0.58465776106E+02 -0.31782052552E+02  0.76372197734E+02  0.00000000000E+00 0.  1.
</event>
<event>
12    1  0.8798177E-003  0.2019420E+03  0.7818608E-02  0.1148822E+00
         21   -1    0    0  503  502  0.00000000000E+00  0.00000000000E+00  0.56388844422E+02  0.56388844422E+02  0.00000000000E+00 0.  1.
         21   -1    0    0  501  503 -0.00000000000E+00 -0.00000000000E+00 -0.77250821650E+03  0.77250821650E+03  0.00000000000E+00 0.  1.
          6    2    1    2  501    0 -0.10274287890E+03  0.23674838086E+02 -0.23845254752E+03  0.31029685465E+03  0.16824958682E+03 0.  0.
         24    2    3    3    0    0 -0.10590542102E+03 -0.19009518270E+02 -0.10489999087E+03  0.16997461359E+03  0.79435767719E+02 0.  0.
         -6    2    1    2    0  502  0.10274287890E+03 -0.23674838086E+02 -0.47766682456E+03  0.51860020627E+03  0.17223234754E+03 0.  0.
        -24    2    5    5    0    0 -0.15481897397E+02 -0.17683818371E+02 -0.20088895260E+03  0.21753365142E+03  0.80075661981E+02 0.  0.
          5    1    3    3  501    0  0.31625421178E+01  0.42684356357E+02 -0.13355255665E+03  0.14032224107E+03  0.47000000000E+01 0. -1.
        -13    1    4    4    0    0 -0.94735370146E+00 -0.93352624733E+00 -0.50251619598E+02  0.50269217445E+02  0.00000000000E+00 0.  1.
         14    1    4    4    0    0 -0.10495806732E+03 -0.18075992023E+02 -0.54648371272E+02  0.11970539614E+03  0.00000000000E+00 0. -1.
         -5    1    5    5    0  502  0.11822477630E+03 -0.59910197152E+01 -0.27677787195E+03  0.30106655485E+03  0.47000000000E+01 0.  1.
         11    1    6    6    0    0 -0.21495848075E+02 -0.11819268242E+02 -0.10049795724E+02  0.26509714830E+02  0.00000000000E+00 0. -1.
        -12    1    6    6    0    0  0.60139506782E+01 -0.58645501288E+01 -0.19083915688E+03  0.19102393659E+03  0.00000000000E+00 0.  1.
</event>
<event>
12    1  0.8798177E-003  0.1832313E+03  0.7818608E-02  0.1164741E+00
         21   -1    0    0  503  502  0.00000000000E+00  0.00000000000E+00  0.56958485117E+02  0.56958485117E+02  0.00000000000E+00 0. -1.
         21   -1    0    0  501  503 -0.00000000000E+00 -0.00000000000E+00 -0.65156852936E+03  0.65156852936E+03  0.00000000000E+00 0. -1.
          6    2    1    2  501    0 -0.58450946931E+02 -0.14844026756E+02 -0.40713737479E+03  0.44646898078E+03  0.17302268786E+03 0.  0.
         24    2    3    3    0    0  0.26696101652E+02  0.25630234365E+01 -0.10820522424E+03  0.13512424272E+03  0.76360588565E+02 0.  0.
         -6    2    1    2    0  502  0.58450946931E+02  0.14844026756E+02 -0.18747266945E+03  0.26205803370E+03  0.17289173754E+03 0.  0.
        -24    2    5    5    0    0  0.69464146237E+01  0.60469198978E+02 -0.52938006258E+02  0.11087589591E+03  0.76067437746E+02 0.  0.
          5    1    3    3  501    0 -0.85147048582E+02 -0.17407050193E+02 -0.29893215056E+03  0.31134473806E+03  0.47000000000E+01 0. -1.
        -13    1    4    4    0    0  0.98862133009E+01  0.39132955004E+02 -0.48153705271E+02  0.62832354023E+02  0.00000000000E+00 0.  1.
         14    1    4    4    0    0  0.16809888351E+02 -0.36569931568E+02 -0.60051518965E+02  0.72291888696E+02  0.00000000000E+00 0. -1.
         -5    1    5    5    0  502  0.51504532307E+02 -0.45625172221E+02 -0.13453466319E+03  0.15118213779E+03  0.47000000000E+01 0.  1.
         13    1    6    6    0    0 -0.15041461752E+01  0.56818023490E+02  0.30922677349E+00  0.56838770837E+02  0.00000000000E+00 0. -1.
        -14    1    6    6    0    0  0.84505607989E+01  0.36511754878E+01 -0.53247233031E+02  0.54037125069E+02  0.00000000000E+00 0.  1.
</event>
<event>
12    1  0.8798177E-003  0.1732866E+03  0.7818608E-02  0.1174981E+00
         21   -1    0    0  501  502  0.00000000000E+00  0.00000000000E+00  0.26304191656E+03  0.26304191656E+03  0.00000000000E+00 0. -1.
         21   -1    0    0  502  503 -0.00000000000E+00 -0.00000000000E+00 -0.11337562809E+03  0.11337562809E+03  0.00000000000E+00 0. -1.
          6    2    1    2  501    0  0.57243000495E+01 -0.50384347776E+01  0.62197096656E+02  0.18411063047E+03  0.17311872222E+03 0.  0.
         24    2    3    3    0    0  0.38057044986E+02  0.42271822048E+02 -0.26942626721E+01  0.97412041600E+02  0.79035442588E+02 0.  0.
         -6    2    1    2    0  503 -0.57243000495E+01  0.50384347776E+01  0.87469191810E+02  0.19230691418E+03  0.17109335548E+03 0.  0.
        -24    2    5    5    0    0  0.23799284311E+02 -0.85125931029E+01  0.11996621607E+03  0.14611796555E+03  0.79496519943E+02 0.  0.
          5    1    3    3  501    0 -0.32332744937E+02 -0.47310256826E+02  0.64891359328E+02  0.86698588867E+02  0.47000000000E+01 0. -1.
        -13    1    4    4    0    0  0.46023100107E+02  0.46305331630E+01 -0.25365931297E+02  0.52754128288E+02  0.00000000000E+00 0.  1.
         14    1    4    4    0    0 -0.79660551211E+01  0.37641288885E+02  0.22671668625E+02  0.44657913312E+02  0.00000000000E+00 0. -1.
         -5    1    5    5    0  503 -0.29523584361E+02  0.13551027880E+02 -0.32497024259E+02  0.46188948633E+02  0.47000000000E+01 0.  1.
         11    1    6    6    0    0 -0.23465582527E+02  0.12129070435E+02  0.18352856339E+02  0.32164813830E+02  0.00000000000E+00 0. -1.
        -12    1    6    6    0    0  0.47264866838E+02 -0.20641663538E+02  0.10161335973E+03  0.11395315172E+03  0.00000000000E+00 0.  1.
</event>
<event>
12    1  0.8798177E-003  0.1822506E+03  0.7818608E-02  0.1165819E+00
         21   -1    0    0  503  502  0.00000000000E+00  0.00000000000E+00  0.69889976939E+02  0.69889976939E+02  0.00000000000E+00 0. -1.
         21   -1    0    0  501  503 -0.00000000000E+00 -0.00000000000E+00 -0.72292942646E+03  0.72292942646E+03  0.00000000000E+00 0. -1.
          6    2    1    2  501    0  0.44286154626E+02  0.42898840595E+02 -0.55901476757E+03  0.58774397636E+03  0.17071583809E+03 0.  0.
         24    2    3    3    0    0 -0.26896325467E+02 -0.10035210091E+02 -0.36003119958E+03  0.36983227515E+03  0.79557082080E+02 0.  0.
         -6    2    1    2    0  502 -0.44286154626E+02 -0.42898840595E+02 -0.94024681957E+02  0.20507542704E+03  0.17150427383E+03 0.  0.
        -24    2    5    5    0    0  0.12896506540E+01 -0.83898610100E+02 -0.83297120096E+02  0.14266304277E+03  0.79835415585E+02 0.  0.
          5    1    3    3  501    0  0.71182480093E+02  0.52934050686E+02 -0.19898356799E+03  0.21791170121E+03  0.47000000000E+01 0. -1.
        -11    1    4    4    0    0 -0.37759965920E+02 -0.34073750322E+02 -0.15548883597E+03  0.16359588503E+03  0.00000000000E+00 0.  1.
         12    1    4    4    0    0  0.10863640453E+02  0.24038540230E+02 -0.20454236361E+03  0.20623639012E+03  0.00000000000E+00 0. -1.
         -5    1    5    5    0  502 -0.45575805280E+02  0.40999769505E+02 -0.10727561861E+02  0.62412384267E+02  0.47000000000E+01 0.  1.
         13    1    6    6    0    0  0.34686323437E+02 -0.32132061357E+02 -0.12683370042E+02  0.48953838218E+02  0.00000000000E+00 0. -1.
        -14    1    6    6    0    0 -0.33396672783E+02 -0.51766548743E+02 -0.70613750054E+02  0.93709204555E+02  0.00000000000E+00 0.  1.
</event>
<event>
12    1  0.8798177E-003  0.2269786E+03  0.7818608E-02  0.1128994E+00
         21   -1    0    0  503  502  0.00000000000E+00  0.00000000000E+00  0.77510435409E+03  0.77510435409E+03  0.00000000000E+00 0.  1.
         21   -1    0    0  501  503 -0.00000000000E+00 -0.00000000000E+00 -0.72577258055E+02  0.72577258055E+02  0.00000000000E+00 0.  1.
          6    2    1    2  501    0  0.14068416656E+03  0.40408933788E+02  0.22573259549E+03  0.32011638371E+03  0.17347731206E+03 0.  0.
         24    2    3    3    0    0  0.74884219268E+02 -0.47780052553E+02  0.10782765344E+03  0.15877638329E+03  0.75449037944E+02 0.  0.
         -6    2    1    2    0  502 -0.14068416656E+03 -0.40408933788E+02  0.47679450054E+03  0.52756522844E+03  0.17195103331E+03 0.  0.
        -24    2    5    5    0    0 -0.76725306234E+02  0.64401689793E+01  0.40706488231E+03  0.42187755696E+03  0.79690691175E+02 0.  0.
          5    1    3    3  501    0  0.65799947289E+02  0.88188986341E+02  0.11790494205E+03  0.16134000042E+03  0.47000000000E+01 0. -1.
        -13    1    4    4    0    0  0.86164954264E+02 -0.37341248608E+02  0.10836976255E+03  0.14339725809E+03  0.00000000000E+00 0.  1.
         14    1    4    4    0    0 -0.11280734996E+02 -0.10438803945E+02 -0.54210910722E+00  0.15379125207E+02  0.00000000000E+00 0. -1.
         -5    1    5    5    0  502 -0.63958860324E+02 -0.46849102767E+02  0.69729618233E+02  0.10568767148E+03  0.47000000000E+01 0.  1.
         11    1    6    6    0    0 -0.16002094422E+02  0.36956299597E+02  0.11005751635E+03  0.11719424905E+03  0.00000000000E+00 0. -1.
        -12    1    6    6    0    0 -0.60723211812E+02 -0.30516130618E+02  0.29700736596E+03  0.30468330791E+03  0.00000000000E+00 0.  1.
</event>
<event>
12    1  0.8798177E-003  0.1934846E+03  0.7818608E-02  0.1155557E+00
         21   -1    0    0  501  502  0.00000000000E+00  0.00000000000E+00  0.27402963888E+03  0.27402963888E+03  0.00000000000E+00 0.  1.
         21   -1    0    0  502  503 -0.00000000000E+00 -0.00000000000E+00 -0.14315913518E+03  0.14315913518E+03  0.00000000000E+00 0.  1.
          6    2    1    2  501    0 -0.61667317383E+02 -0.61379637045E+02  0.18539584544E+02  0.19346011030E+03  0.17179284096E+03 0.  0.
         24    2    3    3    0    0 -0.29482439089E+02 -0.10018433485E+03  0.42384821304E+02  0.13749265298E+03  0.78750500846E+02 0.  0.
         -6    2    1    2    0  503  0.61667317383E+02  0.61379637045E+02  0.11233091916E+03  0.22372866377E+03  0.17281771239E+03 0.  0.
        -24    2    5    5    0    0  0.86372458516E+02 -0.55415491219E+01  0.89321780879E+02  0.14862673569E+03  0.81367165779E+02 0.  0.
          5    1    3    3  501    0 -0.32184878294E+02  0.38804697800E+02 -0.23845236761E+02  0.55967457315E+02  0.47000000000E+01 0. -1.
        -11    1    4    4    0    0  0.14828709303E+02 -0.69322302170E+02  0.35510274367E+01  0.70979447684E+02  0.00000000000E+00 0.  1.
         12    1    4    4    0    0 -0.44311148391E+02 -0.30862032676E+02  0.38833793868E+02  0.66513205297E+02  0.00000000000E+00 0. -1.
         -5    1    5    5    0  503 -0.24705141133E+02  0.66921186167E+02  0.23009138280E+02  0.75101928076E+02  0.47000000000E+01 0.  1.
         11    1    6    6    0    0  0.48777363408E+01 -0.19239607434E+02  0.56193408464E+02  0.59595754554E+02  0.00000000000E+00 0. -1.
        -12    1    6    6    0    0  0.81494722175E+02  0.13698058313E+02  0.33128372415E+02  0.89030981140E+02  0.00000000000E+00 0.  1.
</event>
<event>
12    1  0.8798177E-003  0.2206661E+03  0.7818608E-02  0.1133400E+00
         21   -1    0    0  503  502  0.00000000000E+00  0.00000000000E+00  0.24223531238E+03  0.24223531238E+03  0.00000000000E+00 0.  1.
         21   -1    0    0  501  503 -0.00000000000E+00 -0.00000000000E+00 -0.21553254318E+03  0.21553254318E+03  0.00000000000E+00 0.  1.
          6    2    1    2  501    0 -0.10827388589E+03 -0.86062773569E+02 -0.46165635908E+02  0.22544354726E+03  0.17194037252E+03 0.  0.
         24    2    3    3    0    0 -0.12844338581E+03 -0.10099062704E+03 -0.65217479162E+02  0.19358899864E+03  0.80787193895E+02 0.  0.
         -6    2    1    2    0  502  0.10827388589E+03  0.86062773569E+02  0.72868405116E+02  0.23232430830E+03  0.17185675547E+03 0.  0.
        -24    2    5    5    0    0  0.46916324795E+02  0.84324204436E+02  0.10469103311E+03  0.16302392894E+03  0.79403249362E+02 0.  0.
          5    1    3    3  501    0  0.20169499919E+02  0.14927853474E+02  0.19051843255E+02  0.31854548619E+02  0.47000000000E+01 0. -1.
        -11    1    4    4    0    0 -0.10711436766E+03 -0.10877378074E+03 -0.36469218258E+02  0.15695613086E+03  0.00000000000E+00 0.  1.
         12    1    4    4    0    0 -0.21329018153E+02  0.77831536933E+01 -0.28748260905E+02  0.36632867781E+02  0.00000000000E+00 0. -1.
         -5    1    5    5    0  502  0.61357561099E+02  0.17385691324E+01 -0.31822627991E+02  0.69300379356E+02  0.47000000000E+01 0.  1.
         11    1    6    6    0    0 -0.21141833982E+02  0.79387702247E+01  0.16775505571E+02  0.28132166713E+02  0.00000000000E+00 0. -1.
        -12    1    6    6    0    0  0.68058158777E+02  0.76385434212E+02  0.87915527536E+02  0.13489176223E+03  0.00000000000E+00 0.  1.
</event>
<event>
12    1  0.8798177E-003  0.1728658E+03  0.7818608E-02  0.1175620E+00
         21   -1    0    0  503  502  0.00000000000E+00  0.00000000000E+00  0.22038990321E+03  0.22038990321E+03  0.00000000000E+00 0. -1.
         21   -1    0    0  501  503 -0.00000000000E+00 -0.00000000000E+00 -0.14016670927E+03  0.14016670927E+03  0.00000000000E+00 0. -1.
          6    2    1    2  501    0  0.40564015475E+01 -0.14970484530E+01  0.75280452358E+00  0.17286748302E+03  0.17281176009E+03 0.  0.
         24    2    3    3    0    0  0.61927441187E+02 -0.33010885908E+02  0.24573329493E+02  0.10264151496E+03  0.70758077356E+02 0.  0.
         -6    2    1    2    0  502 -0.40564015475E+01  0.14970484530E+01  0.79470389413E+02  0.18768912946E+03  0.16997932514E+03 0.  0.
        -24    2    5    5    0    0  0.55001264198E+02 -0.82243977960E+01  0.82110272370E+02  0.12759442601E+03  0.80283628078E+02 0.  0.
          5    1    3    3  501    0 -0.57871039640E+02  0.31513837455E+02 -0.23820524969E+02  0.70225968060E+02  0.47000000000E+01 0. -1.
        -11    1    4    4    0    0 -0.12234627866E+02 -0.19039760179E+02 -0.17902910730E+01  0.22702504901E+02  0.00000000000E+00 0.  1.
         12    1    4    4    0    0  0.74162069053E+02 -0.13971125730E+02  0.26363620566E+02  0.79939010062E+02  0.00000000000E+00 0. -1.
         -5    1    5    5    0  502 -0.59057665746E+02  0.97214462490E+01 -0.26398829567E+01  0.60094703448E+02  0.47000000000E+01 0.  1.
         13    1    6    6    0    0 -0.25164494847E+01 -0.21599245198E+02 -0.50399447781E+01  0.22321759664E+02  0.00000000000E+00 0. -1.
        -14    1    6    6    0    0  0.57517713683E+02  0.13374847402E+02  0.87150217148E+02  0.10527266634E+03  0.00000000000E+00 0.  1.
</event>
<event>
12    1  0.8798177E-003  0.2123271E+03  0.7818608E-02  0.1141869E+00
         21   -1    0    0  503  502  0.00000000000E+00  0.00000000000E+00  0.64538697636E+03  0.64538697636E+03  0.00000000000E+00 0. -1.
         21   -1    0    0  501  503 -0.00000000000E+00 -0.00000000000E+00 -0.83093278967E+02  0.83093278967E+02  0.00000000000E+00 0. -1.
          6    2    1    2  501    0  0.93256833966E+02  0.47859332939E+02  0.12370100831E+03  0.24573306370E+03  0.18464952290E+03 0.  0.
         24    2    3    3    0    0  0.42287297123E+02  0.50626205001E+02  0.15558510086E+03  0.18536556728E+03  0.76173760533E+02 0.  0.
         -6    2    1    2    0  502 -0.93256833966E+02 -0.47859332939E+02  0.43859268908E+03  0.48274719163E+03  0.17231932937E+03 0.  0.
        -24    2    5    5    0    0 -0.89154423563E+02 -0.34120125376E+02  0.44820584898E+03  0.46485589657E+03  0.78037345635E+02 0.  0.
          5    1    3    3  501    0  0.50969536844E+02 -0.27668720619E+01 -0.31884092544E+02  0.60367496423E+02  0.47000000000E+01 0. -1.
        -11    1    4    4    0    0 -0.21666167882E+02  0.17165592486E+02  0.55094868814E+02  0.61640286873E+02  0.00000000000E+00 0.  1.
         12    1    4    4    0    0  0.63953465004E+02  0.33460612515E+02  0.10049023204E+03  0.12372528041E+03  0.00000000000E+00 0. -1.
         -5    1    5    5    0  502 -0.41024104030E+01 -0.13739207563E+02 -0.96131599005E+01  0.17891295058E+02  0.47000000000E+01 0.  1.
         11    1    6    6    0    0 -0.92832623682E+02 -0.91336080284E+01  0.39632128352E+03  0.40715092851E+03  0.00000000000E+00 0. -1.
        -12    1    6    6    0    0  0.36782001181E+01 -0.24986517348E+02  0.51884565469E+02  0.57704968063E+02  0.00000000000E+00 0.  1.
</event>
<event>
12    1  0.8798177E-003  0.2387055E+03  0.7818608E-02  0.1120730E+00
         21   -1    0    0  501  502  0.00000000000E+00  0.00000000000E+00  0.11723383668E+03  0.11723383668E+03  0.00000000000E+00 0.  1.
         21   -1    0    0  502  503 -0.00000000000E+00 -0.00000000000E+00 -0.48517549842E+03  0.48517549842E+03  0.00000000000E+00 0. -1.
          6    2    1    2  501    0  0.82462460399E+02  0.14283040681E+03 -0.18274829253E+03  0.30028865410E+03  0.17197602994E+03 0.  0.
         24    2    3    3    0    0  0.48668928499E+02  0.72076529914E+02 -0.18676298293E+03  0.22163548103E+03  0.81720155990E+02 0.  0.
         -6    2    1    2    0  503 -0.82462460399E+02 -0.14283040681E+03 -0.18519336921E+03  0.30212068100E+03  0.17256807180E+03 0.  0.
        -24    2    5    5    0    0 -0.10290736237E+03 -0.15033290773E+03 -0.11822454951E+03  0.23154310419E+03  0.80282355569E+02 0.  0.
          5    1    3    3  501    0  0.33793531900E+02  0.70753876897E+02  0.40146903982E+01  0.78653173065E+02  0.47000000000E+01 0. -1.
        -13    1    4    4    0    0  0.70456623517E+02  0.57083719878E+02 -0.12480895307E+03  0.15427236188E+03  0.00000000000E+00 0.  1.
         14    1    4    4    0    0 -0.21787695018E+02  0.14992810036E+02 -0.61954029850E+02  0.67363119150E+02  0.00000000000E+00 0. -1.
         -5    1    5    5    0  503  0.20444901969E+02  0.75025009153E+01 -0.66968819701E+02  0.70577576812E+02  0.47000000000E+01 0.  1.
         11    1    6    6    0    0 -0.48538957100E+02 -0.99041689598E+02 -0.11095022939E+03  0.15644564563E+03  0.00000000000E+00 0. -1.
        -12    1    6    6    0    0 -0.54368405269E+02 -0.51291218128E+02 -0.72743201159E+01  0.75097458556E+02  0.00000000000E+00 0.  1.
</event>
<event>
12    1  0.8798177E-003  0.1896969E+03  0.7818608E-02  0.1158911E+00
         21   -1    0    0  503  502  0.00000000000E+00  0.00000000000E+00  0.26743448737E+02  0.26743448737E+02  0.00000000000E+00 0. -1.
         21   -1    0    0  501  503 -0.00000000000E+00 -0.00000000000E+00 -0.15072452960E+04  0.15072452960E+04  0.00000000000E+00 0. -1.
          6    2    1    2  501    0 -0.24392711837E+02  0.73271795923E+02 -0.99435646794E+03  0.10121437149E+04  0.17241332286E+03 0.  0.
         24    2    3    3    0    0 -0.47739836785E+02  0.41374378474E+02 -0.30888005712E+03  0.32551242140E+03  0.80997009759E+02 0.  0.
         -6    2    1    2    0  502  0.24392711837E+02 -0.73271795923E+02 -0.48614537930E+03  0.52184502977E+03  0.17326610981E+03 0.  0.
        -24    2    5    5    0    0  0.19386780404E+02 -0.29334567078E+02 -0.10010033645E+03  0.13324703114E+03  0.80612219111E+02 0.  0.
          5    1    3    3  501    0  0.23347124948E+02  0.31897417450E+02 -0.68547641082E+03  0.68663129354E+03  0.47000000000E+01 0. -1.
        -11    1    4    4    0    0 -0.69272054962E+02  0.19374008866E+02 -0.21469421387E+03  0.22642344244E+03  0.00000000000E+00 0.  1.
         12    1    4    4    0    0  0.21532218176E+02  0.22000369608E+02 -0.94185843244E+02  0.99088978954E+02  0.00000000000E+00 0. -1.
         -5    1    5    5    0  502  0.50059314337E+01 -0.43937228846E+02 -0.38604504286E+03  0.38859799863E+03  0.47000000000E+01 0.  1.
         13    1    6    6    0    0 -0.30516343701E+02 -0.12392877615E+02 -0.24317285780E+02  0.40940945717E+02  0.00000000000E+00 0. -1.
        -14    1    6    6    0    0  0.49903124105E+02 -0.16941689463E+02 -0.75783050667E+02  0.92306085420E+02  0.00000000000E+00 0.  1.
</event>
<event>
12    1  0.8798177E-003  0.1860003E+03  0.7818608E-02  0.1162373E+00
         21   -1    0    0  501  502  0.00000000000E+00  0.00000000000E+00  0.10806662910E+03  0.10806662910E+03  0.00000000000E+00 0. -1.
         21   -1    0    0  502  503 -0.00000000000E+00 -0.00000000000E+00 -0.36980539614E+03  0.36980539614E+03  0.00000000000E+00 0. -1.
          6    2    1    2  501    0 -0.40415315545E+02  0.57133335980E+02 -0.41334618396E+02  0.18947281089E+03  0.17115425668E+03 0.  0.
         24    2    3    3    0    0  0.16327180972E+02  0.87884749488E+02 -0.30222261157E+02  0.12381510131E+03  0.80165380388E+02 0.  0.
         -6    2    1    2    0  503  0.40415315545E+02 -0.57133335980E+02 -0.22040414864E+03  0.28839921435E+03  0.17233253404E+03 0.  0.
        -24    2    5    5    0    0 -0.34126795644E+02 -0.33512593076E+02 -0.17512291342E+03  0.19791746979E+03  0.78838810027E+02 0.  0.
          5    1    3    3  501    0 -0.56742496517E+02 -0.30751413508E+02 -0.11112357239E+02  0.65657709579E+02  0.47000000000E+01 0. -1.
        -11    1    4    4    0    0 -0.13419355837E+02  0.46711711802E+02 -0.49607188798E+02  0.69447363600E+02  0.00000000000E+00 0.  1.
         12    1    4    4    0    0  0.29746536809E+02  0.41173037686E+02  0.19384927641E+02  0.54367737714E+02  0.00000000000E+00 0. -1.
         -5    1    5    5    0  503  0.74542111190E+02 -0.23620742904E+02 -0.45281235212E+02  0.90481744558E+02  0.47000000000E+01 0.  1.
         13    1    6    6    0    0 -0.22921537532E+02  0.23476250727E+02 -0.47849019941E+02  0.58017755388E+02  0.00000000000E+00 0. -1.
        -14    1    6    6    0    0 -0.11205258112E+02 -0.56988843803E+02 -0.12727389348E+03  0.13989971440E+03  0.00000000000E+00 0.  1.
</event>
<event>
12    1  0.8798177E-003  0.1944447E+03  0.7818608E-02  0.1155404E+00
         21   -1    0    0  503  502  0.00000000000E+00  0.00000000000E+00  0.23406010696E+02  0.23406010696E+02  0.00000000000E+00 0. -1.
         21   -1    0    0  501  503 -0.00000000000E+00 -0.00000000000E+00 -0.18974648311E+04  0.18974648311E+04  0.00000000000E+00 0. -1.
          6    2    1    2  501    0  0.61545872920E+02 -0.71855100343E+02 -0.13367654744E+04  0.13508333229E+04  0.16987549252E+03 0.  0.
         24    2    3    3    0    0 -0.31165333582E+02 -0.17835770215E+02 -0.43231294504E+03  0.44002603067E+03  0.73749796583E+02 0.  0.
         -6    2    1    2    0  502 -0.61545872920E+02  0.71855100343E+02 -0.53729334602E+03  0.57003751885E+03  0.16525006293E+03 0.  0.
        -24    2    5    5    0    0  0.24357948340E+01  0.92875478998E+02 -0.31087385973E+03  0.33376779185E+03  0.78272565520E+02 0.  0.
          5    1    3    3  501    0  0.92711206502E+02 -0.54019330129E+02 -0.90445252933E+03  0.91080729227E+03  0.47000000000E+01 0. -1.
        -13    1    4    4    0    0  0.17825632565E+02  0.97565222866E+01 -0.56773215774E+02  0.60300422327E+02  0.00000000000E+00 0.  1.
         14    1    4    4    0    0 -0.48990966148E+02 -0.27592292501E+02 -0.37553972927E+03  0.37972560834E+03  0.00000000000E+00 0. -1.
         -5    1    5    5    0  502 -0.63981667754E+02 -0.21020378655E+02 -0.22641948628E+03  0.23626972700E+03  0.47000000000E+01 0.  1.
         11    1    6    6    0    0 -0.20923607022E+02  0.43602615537E+02 -0.23736386461E+03  0.24224076790E+03  0.00000000000E+00 0. -1.
        -12    1    6    6    0    0  0.23359401856E+02  0.49272863461E+02 -0.73509995125E+02  0.91527023943E+02  0.00000000000E+00 0.  1.
</event>
<event>
12    1  0.8798177E-003  0.2257877E+03  0.7818608E-02  0.1130237E+00
         21   -1    0    0  501  502  0.00000000000E+00  0.00000000000E+00  0.37445975703E+03  0.37445975703E+03  0.00000000000E+00 0.  1.
         21   -1    0    0  502  503 -0.00000000000E+00 -0.00000000000E+00 -0.21066653045E+03  0.21066653045E+03  0.00000000000E+00 0.  1.
          6    2    1    2  501    0  0.12917956395E+03  0.63084589674E+02  0.25780981870E+03  0.34054662587E+03  0.16982071891E+03 0.  0.
         24    2    3    3    0    0  0.15598489172E+02  0.19922153888E+02  0.17443364352E+03  0.19311076524E+03  0.78895288703E+02 0.  0.
         -6    2    1    2    0  503 -0.12917956395E+03 -0.63084589674E+02 -0.94016592124E+02  0.24457966162E+03  0.17410647916E+03 0.  0.
        -24    2    5    5    0    0 -0.59553836295E+02 -0.74817542447E+02 -0.11546191732E+03  0.17063781889E+03  0.81495317720E+02 0.  0.
          5    1    3    3  501    0  0.11358107478E+03  0.43162435786E+02  0.83376175185E+02  0.14743586063E+03  0.47000000000E+01 0. -1.
        -13    1    4    4    0    0  0.45365066652E+02  0.82597813641E+01  0.13306932778E+03  0.14083202497E+03  0.00000000000E+00 0.  1.
         14    1    4    4    0    0 -0.29766577480E+02  0.11662372524E+02  0.41364315739E+02  0.52278740271E+02  0.00000000000E+00 0. -1.
         -5    1    5    5    0  503 -0.69625727655E+02  0.11732952772E+02  0.21445325198E+02  0.73941842721E+02  0.47000000000E+01 0.  1.
         13    1    6    6    0    0  0.67550254229E+01 -0.46674243304E+02 -0.20443144257E+02  0.51400753920E+02  0.00000000000E+00 0. -1.
        -14    1    6    6    0    0 -0.66308861718E+02 -0.28143299143E+02 -0.95018773065E+02  0.11923706497E+03  0.00000000000E+00 0.  1.
</event>
<event>
12    1  0.8798177E-003  0.1862011E+03  0.7818608E-02  0.1163968E+00
         21   -1    0    0  501  502  0.00000000000E+00  0.00000000000E+00  0.13062672884E+04  0.13062672884E+04  0.00000000000E+00 0. -1.
         21   -1    0    0  502  503 -0.00000000000E+00 -0.00000000000E+00 -0.27281881623E+02  0.27281881623E+02  0.00000000000E+00 0.  1.
          6    2    1    2  501    0  0.56239674227E+02  0.35417532578E+02  0.47538028974E+03  0.51054606475E+03  0.17393551043E+03 0.  0.
         24    2    3    3    0    0 -0.87774978102E+01  0.42513749559E+02  0.12937437882E+03  0.15838165805E+03  0.80390026387E+02 0.  0.
         -6    2    1    2    0  503 -0.56239674227E+02 -0.35417532578E+02  0.80360511703E+03  0.82300310527E+03  0.16472894278E+03 0.  0.
        -24    2    5    5    0    0  0.21056345685E+02 -0.19199621169E+02  0.24662067900E+03  0.26042737743E+03  0.78668065039E+02 0.  0.
          5    1    3    3  501    0  0.65017172037E+02 -0.70962169817E+01  0.34600591092E+03  0.35216440670E+03  0.47000000000E+01 0. -1.
        -11    1    4    4    0    0 -0.10915646806E+01  0.57498135100E+02  0.12933148191E+03  0.14154101619E+03  0.00000000000E+00 0.  1.
         12    1    4    4    0    0 -0.76859331296E+01 -0.14984385541E+02  0.42896918417E-01  0.16840641860E+02  0.00000000000E+00 0. -1.
         -5    1    5    5    0  503 -0.77296019912E+02 -0.16217911409E+02  0.55698443803E+03  0.56257572784E+03  0.47000000000E+01 0.  1.
         11    1    6    6    0    0  0.81683188376E+01 -0.49578437558E+02  0.16140414722E+03  0.16904449604E+03  0.00000000000E+00 0. -1.
        -12    1    6    6    0    0  0.12888026848E+02  0.30378816389E+02  0.85216531785E+02  0.91382881388E+02  0.00000000000E+00 0.  1.
</event>
<event>
12    1  0.8798177E-003  0.2058058E+03  0.7818608E-02  0.1145519E+00
         21   -1    0    0  501  502  0.00000000000E+00  0.00000000000E+00  0.42477383159E+03  0.42477383159E+03  0.00000000000E+00 0. -1.
         21   -1    0    0  502  503 -0.00000000000E+00 -0.00000000000E+00 -0.10528602554E+03  0.10528602554E+03  0.00000000000E+00 0. -1.
          6    2    1    2  501    0 -0.77523859652E+02 -0.80757062906E+02  0.92662590159E+02  0.22570420422E+03  0.17269736582E+03 0.  0.
         24    2    3    3    0    0  0.93165242529E+01 -0.22125348988E+02 -0.23675434107E+01  0.84170651870E+02  0.80639721493E+02 0.  0.
         -6    2    1    2    0  503  0.77523859652E+02  0.80757062906E+02  0.22682521590E+03  0.30435565291E+03  0.16926615984E+03 0.  0.
        -24    2    5    5    0    0  0.39310515099E+02  0.11454621626E+03  0.19724673305E+03  0.24520378706E+03  0.80947336166E+02 0.  0.
          5    1    3    3  501    0 -0.86840383905E+02 -0.58631713918E+02  0.95030133569E+02  0.14153355235E+03  0.47000000000E+01 0. -1.
        -13    1    4    4    0    0  0.10774982982E+02 -0.16222896095E+02  0.38344678610E+02  0.43006941227E+02  0.00000000000E+00 0.  1.
         14    1    4    4    0    0 -0.14584587289E+01 -0.59024528931E+01 -0.40712222021E+02  0.41163710643E+02  0.00000000000E+00 0. -1.
         -5    1    5    5    0  503  0.38213344554E+02 -0.33789153355E+02  0.29578482851E+02  0.59151865855E+02  0.47000000000E+01 0.  1.
         11    1    6    6    0    0 -0.12202823060E+02  0.82838896767E+02  0.97206023650E+02  0.12829732165E+03  0.00000000000E+00 0. -1.
        -12    1    6    6    0    0  0.51513338159E+02  0.31707319494E+02  0.10004070940E+03  0.11690646541E+03  0.00000000000E+00 0.  1.
</event>
<event>
12    1  0.8798177E-003  0.1989666E+03  0.7818608E-02  0.1150728E+00
         21   -1    0    0  501  502  0.00000000000E+00  0.00000000000E+00  0.19976874414E+03  0.19976874414E+03  0.00000000000E+00 0. -1.
         21   -1    0    0  502  503 -0.00000000000E+00 -0.00000000000E+00 -0.19765930400E+03  0.19765930400E+03  0.00000000000E+00 0. -1.
          6    2    1    2  501    0 -0.81120874106E+02  0.57435918975E+02 -0.11536318894E+01  0.19843464467E+03  0.17174252919E+03 0.  0.
         24    2    3    3    0    0 -0.75696213854E+02 -0.13199573364E+02  0.47979156357E+02  0.11209276261E+03  0.66020015563E+02 0.  0.
         -6    2    1    2    0  503  0.81120874106E+02 -0.57435918975E+02  0.32630720348E+01  0.19899340348E+03  0.17236080176E+03 0.  0.
        -24    2    5    5    0    0 -0.17919857557E+02 -0.70275103642E+01 -0.17576764073E+02  0.85827759590E+02  0.81773800720E+02 0.  0.
          5    1    3    3  501    0 -0.54246602518E+01  0.70635492340E+02 -0.49132788246E+02  0.86341882061E+02  0.47000000000E+01 0. -1.
        -13    1    4    4    0    0 -0.23936718322E+02  0.20270133170E+02 -0.37954296189E+01  0.31595095644E+02  0.00000000000E+00 0.  1.
         14    1    4    4    0    0 -0.51759495532E+02 -0.33469706535E+02  0.51774585976E+02  0.80497666961E+02  0.00000000000E+00 0. -1.
         -5    1    5    5    0  503  0.99040731663E+02 -0.50408408611E+02  0.20839836108E+02  0.11316564389E+03  0.47000000000E+01 0.  1.
         11    1    6    6    0    0 -0.16610685368E+02 -0.11919101407E+02  0.30919720114E+02  0.37067626558E+02  0.00000000000E+00 0. -1.
        -12    1    6    6    0    0 -0.13091721891E+01  0.48915910430E+01 -0.48496484187E+02  0.48760133032E+02  0.00000000000E+00 0.  1.
</event>
<event>
12    1  0.8798177E-003  0.1745070E+03  0.7818608E-02  0.1173428E+00
         21   -1    0    0  503  502  0.00000000000E+00  0.00000000000E+00  0.17671146962E+04  0.17671146962E+04  0.00000000000E+00 0.  1.
         21   -1    0    0  501  503 -0.00000000000E+00 -0.00000000000E+00 -0.24790607990E+02  0.24790607990E+02  0.00000000000E+00 0.  1.
          6    2    1    2  501    0 -0.17847874906E+02 -0.21810979544E+02  0.37254679424E+03  0.41105682270E+03  0.17141275367E+03 0.  0.
         24    2    3    3    0    0 -0.68520218937E+02  0.20640949323E+02  0.23206771569E+03  0.25573034644E+03  0.80134363644E+02 0.  0.
         -6    2    1    2    0  502  0.17847874906E+02  0.21810979544E+02  0.13697772940E+04  0.13808484815E+04  0.17221622541E+03 0.  0.
        -24    2    5    5    0    0  0.10145425788E+02  0.19016052683E+01  0.29288955618E+03  0.30373892314E+03  0.79790322341E+02 0.  0.
          5    1    3    3  501    0  0.50672344031E+02 -0.42451928866E+02  0.14047907855E+03  0.15532647625E+03  0.47000000000E+01 0. -1.
        -11    1    4    4    0    0 -0.49395936473E+02 -0.16433204669E+02  0.63671348054E+02  0.82243840613E+02  0.00000000000E+00 0.  1.
         12    1    4    4    0    0 -0.19124282464E+02  0.37074153992E+02  0.16839636763E+03  0.17348650583E+03  0.00000000000E+00 0. -1.
         -5    1    5    5    0  502  0.77024491171E+01  0.19909374275E+02  0.10768877378E+04  0.10771095584E+04  0.47000000000E+01 0.  1.
         11    1    6    6    0    0 -0.68146679996E+01 -0.58147165269E+01  0.28203026047E+03  0.28217249769E+03  0.00000000000E+00 0. -1.
        -12    1    6    6    0    0  0.16960093788E+02  0.77163217953E+01  0.10859295711E+02  0.21566425450E+02  0.00000000000E+00 0.  1.
</event>
<event>
12    1  0.8798177E-003  0.1749193E+03  0.7818608E-02  0.1173054E+00
         21   -1    0    0  501  502  0.00000000000E+00  0.00000000000E+00  0.92388889968E+02  0.92388889968E+02  0.00000000000E+00 0.  1.
         21   -1    0    0  502  503 -0.00000000000E+00 -0.00000000000E+00 -0.33186660594E+03  0.33186660594E+03  0.00000000000E+00 0.  1.
          6    2    1    2  501    0 -0.24212583938E+02  0.31452103826E+01 -0.13849752606E+03  0.22311053404E+03  0.17320682465E+03 0.  0.
         24    2    3    3    0    0 -0.34952743304E+02  0.17504146586E+02 -0.12406514949E+02  0.95664219246E+02  0.86427031759E+02 0.  0.
         -6    2    1    2    0  503  0.24212583938E+02 -0.31452103826E+01 -0.10098018992E+03  0.20114496187E+03  0.17223865815E+03 0.  0.
        -24    2    5    5    0    0 -0.46615489016E+02  0.23777301952E+02 -0.74011113842E+02  0.12057909656E+03  0.79519240759E+02 0.  0.
          5    1    3    3  501    0  0.10740159365E+02 -0.14358936203E+02 -0.12609101111E+03  0.12744631479E+03  0.47000000000E+01 0. -1.
        -11    1    4    4    0    0  0.23044242495E+02  0.16056118254E+02  0.14619168481E+02  0.31663166813E+02  0.00000000000E+00 0.  1.
         12    1    4    4    0    0 -0.57996985798E+02  0.14480283318E+01 -0.27025683430E+02  0.64001052434E+02  0.00000000000E+00 0. -1.
         -5    1    5    5    0  503  0.70828072954E+02 -0.26922512334E+02 -0.26969076075E+02  0.80565865310E+02  0.47000000000E+01 0.  1.
         11    1    6    6    0    0  0.11513471943E+02  0.30089651245E+02 -0.96661125521E+01  0.33636005710E+02  0.00000000000E+00 0. -1.
        -12    1    6    6    0    0 -0.58128960959E+02 -0.63123492932E+01 -0.64345001290E+02  0.86943090851E+02  0.00000000000E+00 0.  1.
</event>
<event>
12    1  0.8798177E-003  0.2621847E+03  0.7818608E-02  0.1105863E+00
         21   -1    0    0  503  502  0.00000000000E+00  0.00000000000E+00  0.16298590671E+03  0.16298590671E+03  0.00000000000E+00 0. -1.
         21   -1    0    0  501  503 -0.00000000000E+00 -0.00000000000E+00 -0.46570600932E+03  0.46570600932E+03  0.00000000000E+00 0. -1.
          6    2    1    2  501    0 -0.75886661516E+02  0.18298152913E+03 -0.24826706485E+03  0.36107805371E+03  0.17175505811E+03 0.  0.
         24    2    3    3    0    0 -0.15925030823E+02  0.64351820134E+02 -0.36206945583E+02  0.11075827983E+03  0.81004260888E+02 0.  0.
         -6    2    1    2    0  502  0.75886661516E+02 -0.18298152913E+03 -0.54453037755E+02  0.26761386231E+03  0.17149641566E+03 0.  0.
        -24    2    5    5    0    0 -0.26047056665E+02 -0.92223709610E+02 -0.20918636086E+02  0.12699341287E+03  0.80660249205E+02 0.  0.
          5    1    3    3  501    0 -0.59961630693E+02  0.11862970899E+03 -0.21206011927E+03  0.25031977388E+03  0.47000000000E+01 0. -1.
        -11    1    4    4    0    0 -0.16541099367E+02 -0.12516667263E+02  0.78246053894E+01  0.22169785230E+02  0.00000000000E+00 0.  1.
         12    1    4    4    0    0  0.61606854454E+00  0.76868487397E+02 -0.44031550972E+02  0.88588494604E+02  0.00000000000E+00 0. -1.
         -5    1    5    5    0  502  0.10193371818E+03 -0.90757819519E+02 -0.33534401669E+02  0.14062044944E+03  0.47000000000E+01 0.  1.
         13    1    6    6    0    0 -0.32889859778E+02 -0.16365070964E+02 -0.33592344875E+02  0.49779554619E+02  0.00000000000E+00 0. -1.
        -14    1    6    6    0    0  0.68428031133E+01 -0.75858638646E+02  0.12673708789E+02  0.77213858252E+02  0.00000000000E+00 0.  1.
</event>
<event>
12    1  0.8798177E-003  0.1901162E+03  0.7818608E-02  0.1159974E+00
         21   -1    0    0  501  502  0.00000000000E+00  0.00000000000E+00  0.25740397994E+02  0.25740397994E+02  0.00000000000E+00 0. -1.
         21   -1    0    0  502  503 -0.00000000000E+00 -0.00000000000E+00 -0.15489180073E+04  0.15489180073E+04  0.00000000000E+00 0.  1.
          6    2    1    2  501    0 -0.37376797733E+01  0.60385265501E+02 -0.46886246702E+03  0.50333931393E+03  0.17279496934E+03 0.  0.
         24    2    3    3    0    0 -0.38532856419E+02 -0.18682548349E+02 -0.30653135799E+03  0.31939393491E+03  0.78849182544E+02 0.  0.
         -6    2    1    2    0  503  0.37376797733E+01 -0.60385265501E+02 -0.10543151423E+04  0.10713190913E+04  0.18023269883E+03 0.  0.
        -24    2    5    5    0    0 -0.68462220985E+02 -0.20996527734E+02 -0.66313297879E+03  0.67155682030E+03  0.78200290586E+02 0.  0.
          5    1    3    3  501    0  0.34795176646E+02  0.79067813850E+02 -0.16233110903E+03  0.18394537902E+03  0.47000000000E+01 0. -1.
        -13    1    4    4    0    0  0.20156242521E+02 -0.23019000317E+02 -0.11716184023E+03  0.12109106199E+03  0.00000000000E+00 0.  1.
         14    1    4    4    0    0 -0.58689098940E+02  0.43364519683E+01 -0.18936951776E+03  0.19830287292E+03  0.00000000000E+00 0. -1.
         -5    1    5    5    0  503  0.72199900758E+02 -0.39388737767E+02 -0.39118216346E+03  0.39976227104E+03  0.47000000000E+01 0.  1.
         11    1    6    6    0    0 -0.34622016427E+02  0.12083906910E+02 -0.10127549289E+03  0.10770993588E+03  0.00000000000E+00 0. -1.
        -12    1    6    6    0    0 -0.33840204557E+02 -0.33080434644E+02 -0.56185748590E+03  0.56384688441E+03  0.00000000000E+00 0.  1.
</event>
<event>
12    1  0.8798177E-003  0.1785940E+03  0.7818608E-02  0.1169191E+00
         21   -1    0    0  501  502  0.00000000000E+00  0.00000000000E+00  0.45855971593E+02  0.45855971593E+02  0.00000000000E+00 0.  1.
         21   -1    0    0  502  503 -0.00000000000E+00 -0.00000000000E+00 -0.12861913920E+04  0.12861913920E+04  0.00000000000E+00 0.  1.
          6    2    1    2  501    0 -0.54355156087E+01  0.48620880310E+02 -0.16879310682E+03  0.24573752126E+03  0.17176228228E+03 0.  0.
         24    2    3    3    0    0  0.45898838077E+02  0.72660985631E+02 -0.81656814398E+02  0.14168000837E+03  0.77582647955E+02 0.  0.
         -6    2    1    2    0  503  0.54355156087E+01 -0.48620880310E+02 -0.10715423136E+04  0.10863098423E+04  0.17167588331E+03 0.  0.
        -24    2    5    5    0    0 -0.37609350911E+02  0.24458800902E+02 -0.65506673225E+03  0.66125984505E+03  0.78354723901E+02 0.  0.
          5    1    3    3  501    0 -0.51334353686E+02 -0.24040105322E+02 -0.87136292418E+02  0.10405751289E+03  0.47000000000E+01 0. -1.
        -13    1    4    4    0    0  0.29504541411E+02  0.29910600585E+02 -0.85974211794E+02  0.95690788923E+02  0.00000000000E+00 0.  1.
         14    1    4    4    0    0  0.16394296667E+02  0.42750385047E+02  0.43173973959E+01  0.45989219445E+02  0.00000000000E+00 0. -1.
         -5    1    5    5    0  503  0.43044866520E+02 -0.73079681212E+02 -0.41647558131E+03  0.42504999726E+03  0.47000000000E+01 0.  1.
         13    1    6    6    0    0 -0.26248241478E+02  0.39296484590E+02 -0.18899073615E+03  0.19480934843E+03  0.00000000000E+00 0. -1.
        -14    1    6    6    0    0 -0.11361109433E+02 -0.14837683688E+02 -0.46607599610E+03  0.46645049663E+03  0.00000000000E+00 0.  1.
</event>
<event>
12    1  0.8798177E-003  0.2145159E+03  0.7818608E-02  0.1138193E+00
         21   -1    0    0  503  502  0.00000000000E+00  0.00000000000E+00  0.24938631075E+03  0.24938631075E+03  0.00000000000E+00 0. -1.
         21   -1    0    0  501  503 -0.00000000000E+00 -0.00000000000E+00 -0.18874351227E+03  0.18874351227E+03  0.00000000000E+00 0. -1.
          6    2    1    2  501    0 -0.49799266440E+02  0.11713953353E+03  0.65708934972E+02  0.22435405609E+03  0.17267148316E+03 0.  0.
         24    2    3    3    0    0 -0.92532467975E+02  0.99271169252E+02  0.79541277243E+02  0.17578628233E+03  0.78466423374E+02 0.  0.
         -6    2    1    2    0  502  0.49799266440E+02 -0.11713953353E+03 -0.50661364999E+01  0.21377576693E+03  0.17167636859E+03 0.  0.
        -24    2    5    5    0    0  0.15113970784E+02 -0.48009689433E+02 -0.68006520987E+02  0.11394797982E+03  0.76327536415E+02 0.  0.
          5    1    3    3  501    0  0.42733201534E+02  0.17868364278E+02 -0.13832342271E+02  0.48567773760E+02  0.47000000000E+01 0. -1.
        -11    1    4    4    0    0 -0.35772239178E+02  0.26524432777E+02 -0.11676519059E+02  0.46038459219E+02  0.00000000000E+00 0.  1.
         12    1    4    4    0    0 -0.56760228797E+02  0.72746736475E+02  0.91217796302E+02  0.12974782311E+03  0.00000000000E+00 0. -1.
         -5    1    5    5    0  502  0.34685295656E+02 -0.69129844098E+02  0.62940384487E+02  0.99827787109E+02  0.47000000000E+01 0.  1.
         11    1    6    6    0    0 -0.78809461459E+01 -0.37585182018E+02 -0.77884022587E+02  0.86837066935E+02  0.00000000000E+00 0. -1.
        -12    1    6    6    0    0  0.22994916930E+02 -0.10424507415E+02  0.98775015998E+01  0.27110912882E+02  0.00000000000E+00 0.  1.
</event>
<event>
12    1  0.8798177E-003  0.2782097E+03  0.7818608E-02  0.1096761E+00
         21   -1    0    0  503  502  0.00000000000E+00  0.00000000000E+00  0.22432808509E+03  0.22432808509E+03  0.00000000000E+00 0. -1.
         21   -1    0    0  501  503 -0.00000000000E+00 -0.00000000000E+00 -0.34938506077E+03  0.34938506077E+03  0.00000000000E+00 0.  1.
          6    2    1    2  501    0  0.56265499290E+01  0.21840996319E+03 -0.97469045897E+02  0.29478951698E+03  0.17223842291E+03 0.  0.
         24    2    3    3    0    0  0.12873602270E+02  0.21976982422E+03 -0.41146488786E+02  0.23779224135E+03  0.79922532706E+02 0.  0.
         -6    2    1    2    0  502 -0.56265499290E+01 -0.21840996319E+03 -0.27587929778E+02  0.27892362889E+03  0.17118039256E+03 0.  0.
        -24    2    5    5    0    0 -0.48408826418E+02 -0.21177689846E+03 -0.88658859396E+01  0.23152188151E+03  0.79567006277E+02 0.  0.
          5    1    3    3  501    0 -0.72470523406E+01 -0.13598610269E+01 -0.56322557111E+02  0.56997275629E+02  0.47000000000E+01 0. -1.
        -13    1    4    4    0    0  0.20038031891E+02  0.95799619897E+01 -0.12645469356E+02  0.25557900716E+02  0.00000000000E+00 0.  1.
         14    1    4    4    0    0 -0.71644296212E+01  0.21018986223E+03 -0.28501019431E+02  0.21223434063E+03  0.00000000000E+00 0. -1.
         -5    1    5    5    0  502  0.42782276489E+02 -0.66330647349E+01 -0.18722043839E+02  0.47401747381E+02  0.47000000000E+01 0.  1.
         11    1    6    6    0    0 -0.30360831732E+01 -0.48683435895E+02  0.30749336516E+02  0.57661221178E+02  0.00000000000E+00 0. -1.
        -12    1    6    6    0    0 -0.45372743244E+02 -0.16309346256E+03 -0.39615222455E+02  0.17386066033E+03  0.00000000000E+00 0.  1.
</event>
<event>
12    1  0.8798177E-003  0.1958715E+03  0.7818608E-02  0.1153803E+00
         21   -1    0    0  503  502  0.00000000000E+00  0.00000000000E+00  0.84677155242E+03  0.84677155242E+03  0.00000000000E+00 0.  1.
         21   -1    0    0  501  503 -0.00000000000E+00 -0.00000000000E+00 -0.52274280296E+02  0.52274280296E+02  0.00000000000E+00 0.  1.
          6    2    1    2  501    0 -0.83792588942E+02  0.30075206776E+02  0.56571881767E+03  0.59787275128E+03  0.17172166440E+03 0.  0.
         24    2    3    3    0    0  0.59986822990E+01  0.41023354118E+02  0.38267610025E+03  0.39364478864E+03  0.82439809245E+02 0.  0.
         -6    2    1    2    0  502  0.83792588942E+02 -0.30075206776E+02  0.22877845445E+03  0.30117308144E+03  0.17447042081E+03 0.  0.
        -24    2    5    5    0    0 -0.14742716995E+02 -0.33684213936E+02  0.67306052558E+02  0.11191754514E+03  0.81507412089E+02 0.  0.
          5    1    3    3  501    0 -0.89791271241E+02 -0.10948147342E+02  0.18304271742E+03  0.20422796264E+03  0.47000000000E+01 0. -1.
        -11    1    4    4    0    0 -0.21796768309E+02  0.46251309512E+02  0.32922939555E+03  0.33317604601E+03  0.00000000000E+00 0.  1.
         12    1    4    4    0    0  0.27795450608E+02 -0.52279553937E+01  0.53446704704E+02  0.60468742635E+02  0.00000000000E+00 0. -1.
         -5    1    5    5    0  502  0.98535305937E+02  0.36090071598E+01  0.16147240190E+03  0.18925553631E+03  0.47000000000E+01 0.  1.
         13    1    6    6    0    0 -0.27283274635E+02  0.16517006114E+02  0.73664641307E+01  0.32733062178E+02  0.00000000000E+00 0. -1.
        -14    1    6    6    0    0  0.12540557639E+02 -0.50201220050E+02  0.59939588428E+02  0.79184482958E+02  0.00000000000E+00 0.  1.
</event>
<event>
12    1  0.8798177E-003  0.2483513E+03  0.7818608E-02  0.1114388E+00
         21   -1    0    0  503  502  0.00000000000E+00  0.00000000000E+00  0.10513058771E+03  0.10513058771E+03  0.00000000000E+00 0. -1.
         21   -1    0    0  501  503 -0.00000000000E+00 -0.00000000000E+00 -0.58796532853E+03  0.58796532853E+03  0.00000000000E+00 0. -1.
          6    2    1    2  501    0 -0.13469952629E+03  0.11798368740E+03 -0.22198243735E+03  0.33292611178E+03  0.17175412816E+03 0.  0.
         24    2    3    3    0    0  0.34863090109E+01  0.68767677613E+02 -0.87254598644E+02  0.13369955427E+03  0.74303822194E+02 0.  0.
         -6    2    1    2    0  502  0.13469952629E+03 -0.11798368740E+03 -0.26085230347E+03  0.36016980445E+03  0.17208791630E+03 0.  0.
        -24    2    5    5    0    0  0.40346016664E+02  0.86955449964E+01 -0.81112324025E+02  0.12083998410E+03  0.79496409256E+02 0.  0.
          5    1    3    3  501    0 -0.13818583530E+03  0.49216009789E+02 -0.13472783870E+03  0.19922655751E+03  0.47000000000E+01 0. -1.
        -13    1    4    4    0    0 -0.24842142524E+02  0.21508163772E+02 -0.29573423717E+01  0.32992105539E+02  0.00000000000E+00 0.  1.
         14    1    4    4    0    0  0.28328451534E+02  0.47259513842E+02 -0.84297256272E+02  0.10070744873E+03  0.00000000000E+00 0. -1.
         -5    1    5    5    0  502  0.94353509626E+02 -0.12667923240E+03 -0.17973997945E+03  0.23932982036E+03  0.47000000000E+01 0.  1.
         13    1    6    6    0    0  0.43639422173E+02 -0.19147481193E+02 -0.79584051191E+02  0.92761233323E+02  0.00000000000E+00 0. -1.
        -14    1    6    6    0    0 -0.32934055087E+01  0.27843026189E+02 -0.15282728336E+01  0.28078750775E+02  0.00000000000E+00 0.  1.
</event>
<event>
12    1  0.8798177E-003  0.2039187E+03  0.7818608E-02  0.1146693E+00
         21   -1    0    0  501  502  0.00000000000E+00  0.00000000000E+00  0.10863341971E+03  0.10863341971E+03  0.00000000000E+00 0. -1.
         21   -1    0    0  502  503 -0.00000000000E+00 -0.00000000000E+00 -0.51990415866E+03  0.51990415866E+03  0.00000000000E+00 0. -1.
          6    2    1    2  501    0 -0.10876601570E+03 -0.13739693626E+02 -0.42681821265E+02  0.20730057935E+03  0.17068382167E+03 0.  0.
         24    2    3    3    0    0 -0.89614759897E+02 -0.57127564544E+01 -0.93423260523E+02  0.15227344080E+03  0.79974085735E+02 0.  0.
         -6    2    1    2    0  503  0.10876601570E+03  0.13739693626E+02 -0.36858891768E+03  0.42123699901E+03  0.17194183244E+03 0.  0.
        -24    2    5    5    0    0  0.13156361178E+03  0.44801006353E+02 -0.32762750054E+03  0.36480595056E+03  0.80171618023E+02 0.  0.
          5    1    3    3  501    0 -0.19151255804E+02 -0.80269371721E+01  0.50741439258E+02  0.55027138552E+02  0.47000000000E+01 0. -1.
        -11    1    4    4    0    0 -0.46904568680E+02  0.37076818294E+02 -0.46616677915E+02  0.75814534738E+02  0.00000000000E+00 0.  1.
         12    1    4    4    0    0 -0.42710191218E+02 -0.42789574748E+02 -0.46806582608E+02  0.76458906064E+02  0.00000000000E+00 0. -1.
         -5    1    5    5    0  503 -0.22797596074E+02 -0.31061312726E+02 -0.40961417139E+02  0.56431048449E+02  0.47000000000E+01 0.  1.
         11    1    6    6    0    0  0.96410169144E+02  0.12315641230E+02 -0.28352162643E+03  0.29971838180E+03  0.00000000000E+00 0. -1.
        -12    1    6    6    0    0  0.35153442631E+02  0.32485365123E+02 -0.44105874116E+02  0.65087568764E+02  0.00000000000E+00 0.  1.
</event>
<event>
12    1  0.8798177E-003  0.1866213E+03  0.7818608E-02  0.1163764E+00
         21   -1    0    0  503  502  0.00000000000E+00  0.00000000000E+00  0.74165875150E+03  0.74165875150E+03  0.00000000000E+00 0. -1.
         21   -1    0    0  501  503 -0.00000000000E+00 -0.00000000000E+00 -0.51170545924E+02  0.51170545924E+02  0.00000000000E+00 0.  1.
          6    2    1    2  501    0  0.35509225573E+02 -0.64821798040E+02  0.21135100222E+03  0.28195166312E+03  0.17136138303E+03 0.  0.
         24    2    3    3    0    0  0.27261703296E+02  0.32807336602E+02  0.11304995269E+03  0.14308245886E+03  0.76634042223E+02 0.  0.
         -6    2    1    2    0  502 -0.35509225573E+02  0.64821798040E+02  0.47913720335E+03  0.51087763430E+03  0.16112332851E+03 0.  0.
        -24    2    5    5    0    0  0.16732939709E+02  0.77618547797E+02  0.23368794595E+03  0.25956024812E+03  0.80354440376E+02 0.  0.
          5    1    3    3  501    0  0.82475222771E+01 -0.97629134641E+02  0.98301049531E+02  0.13886920427E+03  0.47000000000E+01 0. -1.
        -11    1    4    4    0    0 -0.14631335852E+02  0.42282895292E+02  0.58845226532E+02  0.73923473327E+02  0.00000000000E+00 0.  1.
         12    1    4    4    0    0  0.41893039148E+02 -0.94755586901E+01  0.54204726161E+02  0.69158985532E+02  0.00000000000E+00 0. -1.
         -5    1    5    5    0  502 -0.52242165282E+02 -0.12796749758E+02  0.24544925740E+03  0.25131738618E+03  0.47000000000E+01 0.  1.
         13    1    6    6    0    0  0.12886497036E+02 -0.15175949973E+02  0.35853664312E+02  0.41010443890E+02  0.00000000000E+00 0. -1.
        -14    1    6    6    0    0  0.38464426726E+01  0.92794497770E+02  0.19783428164E+03  0.21854980423E+03  0.00000000000E+00 0.  1.
</event>
<event>
12    1  0.8798177E-003  0.1923270E+03  0.7818608E-02  0.1156490E+00
         21   -1    0    0  503  502  0.00000000000E+00  0.00000000000E+00  0.70325830687E+03  0.70325830687E+03  0.00000000000E+00 0.  1.
         21   -1    0    0  501  503 -0.00000000000E+00 -0.00000000000E+00 -0.94699648932E+02  0.94699648932E+02  0.00000000000E+00 0.  1.
          6    2    1    2  501    0  0.63525686030E+02  0.57197833400E+02  0.37603067421E+02  0.19547978613E+03  0.17173016967E+03 0.  0.
         24    2    3    3    0    0 -0.26621012543E+02  0.30283871419E+02  0.46997636981E+02  0.10081650629E+03  0.79557519333E+02 0.  0.
         -6    2    1    2    0  502 -0.63525686030E+02 -0.57197833400E+02  0.57095559052E+03  0.60247816967E+03  0.17228625497E+03 0.  0.
        -24    2    5    5    0    0 -0.57094519745E+02  0.89823899607E+01  0.21344589906E+03  0.23880736888E+03  0.90162853153E+02 0.  0.
          5    1    3    3  501    0  0.90146698573E+02  0.26913961981E+02 -0.93945695592E+01  0.94663279842E+02  0.47000000000E+01 0. -1.
        -11    1    4    4    0    0  0.72903979473E+00  0.21798074681E+01 -0.21642273399E+02  0.21763985331E+02  0.00000000000E+00 0.  1.
         12    1    4    4    0    0 -0.27350052338E+02  0.28104063951E+02  0.68639910380E+02  0.79052520962E+02  0.00000000000E+00 0. -1.
         -5    1    5    5    0  502 -0.64311662848E+01 -0.66180223361E+02  0.35750969146E+03  0.36367080079E+03  0.47000000000E+01 0.  1.
         11    1    6    6    0    0  0.20204729775E+02 -0.14652876124E+02  0.35861084423E+02  0.43691592555E+02  0.00000000000E+00 0. -1.
        -12    1    6    6    0    0 -0.77299249519E+02  0.23635266084E+02  0.17758481464E+03  0.19511577632E+03  0.00000000000E+00 0.  1.
</event>
<event>
12    1  0.8798177E-003  0.1926609E+03  0.7818608E-02  0.1156602E+00
         21   -1    0    0  501  502  0.00000000000E+00  0.00000000000E+00  0.26126428811E+03  0.26126428811E+03  0.00000000000E+00 0.  1.
         21   -1    0    0  502  503 -0.00000000000E+00 -0.00000000000E+00 -0.16262398506E+03  0.16262398506E+03  0.00000000000E+00 0. -1.
          6    2    1    2  501    0 -0.74566151380E+02 -0.31886310062E+02  0.12748029651E+03  0.22908072317E+03  0.17219147491E+03 0.  0.
         24    2    3    3    0    0 -0.59584655750E+02  0.17120200780E+02  0.10857128591E+02  0.10160862187E+03  0.79768429352E+02 0.  0.
         -6    2    1    2    0  503  0.74566151380E+02  0.31886310062E+02 -0.28839993457E+02  0.19480754999E+03  0.17476094704E+03 0.  0.
        -24    2    5    5    0    0 -0.84578812639E+01  0.49806393845E+02  0.18810195834E+02  0.97304986239E+02  0.81007556786E+02 0.  0.
          5    1    3    3  501    0 -0.14981495630E+02 -0.49006510842E+02  0.11662316792E+03  0.12747210131E+03  0.47000000000E+01 0. -1.
        -11    1    4    4    0    0 -0.38339682898E+02 -0.10028551497E+02  0.40118173770E+02  0.56391231556E+02  0.00000000000E+00 0.  1.
         12    1    4    4    0    0 -0.21244972852E+02  0.27148752277E+02 -0.29261045179E+02  0.45217390312E+02  0.00000000000E+00 0. -1.
         -5    1    5    5    0  503  0.83024032644E+02 -0.17920083783E+02 -0.47650189292E+02  0.97502563755E+02  0.47000000000E+01 0.  1.
         13    1    6    6    0    0  0.35538786535E+02  0.12239626092E+02  0.85840855166E+01  0.38555159440E+02  0.00000000000E+00 0. -1.
        -14    1    6    6    0    0 -0.43996667799E+02  0.37566767753E+02  0.10226110318E+02  0.58749826800E+02  0.00000000000E+00 0.  1.
</event>
<event>
12    1  0.8798177E-003  0.1782214E+03  0.7818608E-02  0.1169553E+00
         21   -1    0    0  501  502  0.00000000000E+00  0.00000000000E+00  0.19186973128E+02  0.19186973128E+02  0.00000000000E+00 0.  1.
         21   -1    0    0  502  503 -0.00000000000E+00 -0.00000000000E+00 -0.17973353009E+04  0.17973353009E+04  0.00000000000E+00 0.  1.
          6    2    1    2  501    0  0.40876338344E+00  0.46611123335E+02 -0.11450436955E+04  0.11588304113E+04  0.17201771288E+03 0.  0.
         24    2    3    3    0    0 -0.48792856928E+02  0.72285458005E+02 -0.89027846296E+03  0.89804815608E+03  0.79302072541E+02 0.  0.
         -6    2    1    2    0  503 -0.40876338344E+00 -0.46611123335E+02 -0.63310463225E+03  0.65769186275E+03  0.17194285983E+03 0.  0.
        -24    2    5    5    0    0  0.24498986881E+02 -0.85037492330E+02 -0.35977123443E+03  0.38050921859E+03  0.86719944950E+02 0.  0.
          5    1    3    3  501    0  0.49201620312E+02 -0.25674334671E+02 -0.25476523258E+03  0.26078225521E+03  0.47000000000E+01 0. -1.
        -11    1    4    4    0    0 -0.10207492043E+02  0.78111828242E+02 -0.61046486693E+03  0.61552660735E+03  0.00000000000E+00 0.  1.
         12    1    4    4    0    0 -0.38585364885E+02 -0.58263702371E+01 -0.27981359603E+03  0.28252154873E+03  0.00000000000E+00 0. -1.
         -5    1    5    5    0  503 -0.24907750265E+02  0.38426368995E+02 -0.27333339782E+03  0.27718264416E+03  0.47000000000E+01 0.  1.
         13    1    6    6    0    0 -0.32400421098E+02 -0.38679300789E+02 -0.14115270312E+03  0.14989983721E+03  0.00000000000E+00 0. -1.
        -14    1    6    6    0    0  0.56899407980E+02 -0.46358191541E+02 -0.21861853131E+03  0.23060938138E+03  0.00000000000E+00 0.  1.
</event>
<event>
12    1  0.8798177E-003  0.2362606E+03  0.7818608E-02  0.1122404E+00
         21   -1    0    0  501  502  0.00000000000E+00  0.00000000000E+00  0.21212464672E+03  0.21212464672E+03  0.00000000000E+00 0. -1.
         21   -1    0    0  502  503 -0.00000000000E+00 -0.00000000000E+00 -0.27749740078E+03  0.27749740078E+03  0.00000000000E+00 0. -1.
          6    2    1    2  501    0  0.15532225846E+03  0.31347658061E+02  0.24140854334E+02  0.23749070505E+03  0.17524661052E+03 0.  0.
         24    2    3    3    0    0  0.87844154823E+02  0.27190529318E+02 -0.52624407313E+02  0.13509162505E+03  0.83812281274E+02 0.  0.
         -6    2    1    2    0  503 -0.15532225846E+03 -0.31347658061E+02 -0.89513608387E+02  0.25213134245E+03  0.17449884849E+03 0.  0.
        -24    2    5    5    0    0 -0.61917372130E+01 -0.16539186787E+01 -0.15720347513E+01  0.76411562979E+02  0.76126096754E+02 0.  0.
          5    1    3    3  501    0  0.67478103633E+02  0.41571287426E+01  0.76765261647E+02  0.10239908000E+03  0.47000000000E+01 0. -1.
        -13    1    4    4    0    0 -0.70152520987E+01 -0.49775270625E+01  0.12822579895E+02  0.15440469320E+02  0.00000000000E+00 0.  1.
         14    1    4    4    0    0  0.94859406922E+02  0.32168056381E+02 -0.65446987208E+02  0.11965115573E+03  0.00000000000E+00 0. -1.
         -5    1    5    5    0  503 -0.14913052124E+03 -0.29693739382E+02 -0.87941573636E+02  0.17571977947E+03  0.47000000000E+01 0.  1.
         11    1    6    6    0    0 -0.15743772698E+02  0.33505534501E+02  0.97073319340E+01  0.38271654188E+02  0.00000000000E+00 0. -1.
        -12    1    6    6    0    0  0.95520354855E+01 -0.35159453180E+02 -0.11279366685E+02  0.38139908792E+02  0.00000000000E+00 0.  1.
</event>
<event>
12    1  0.8798177E-003  0.2369153E+03  0.7818608E-02  0.1122328E+00
         21   -1    0    0  501  502  0.00000000000E+00  0.00000000000E+00  0.27283981062E+02  0.27283981062E+02  0.00000000000E+00 0. -1.
         21   -1    0    0  502  503 -0.00000000000E+00 -0.00000000000E+00 -0.20377225262E+04  0.20377225262E+04  0.00000000000E+00 0.  1.
          6    2    1    2  501    0  0.19274726076E+02  0.15732348448E+03 -0.96491582283E+03  0.99357505540E+03  0.17608705725E+03 0.  0.
         24    2    3    3    0    0  0.71402027350E+02  0.75803212962E+02 -0.68715638829E+03  0.69940639004E+03  0.78364659429E+02 0.  0.
         -6    2    1    2    0  503 -0.19274726076E+02 -0.15732348448E+03 -0.10455227223E+04  0.10714314518E+04  0.17241055461E+03 0.  0.
        -24    2    5    5    0    0 -0.77617605498E+02 -0.11964386482E+03 -0.76653785166E+03  0.78389311813E+03  0.81049340192E+02 0.  0.
          5    1    3    3  501    0 -0.52127301274E+02  0.81520271519E+02 -0.27775943453E+03  0.29416866536E+03  0.47000000000E+01 0. -1.
        -11    1    4    4    0    0  0.44654805536E+02  0.49804448402E+02 -0.61052887938E+03  0.61418242183E+03  0.00000000000E+00 0.  1.
         12    1    4    4    0    0  0.26747221814E+02  0.25998764559E+02 -0.76627508919E+02  0.85223968204E+02  0.00000000000E+00 0. -1.
         -5    1    5    5    0  503  0.58342879422E+02 -0.37679619663E+02 -0.27898487060E+03  0.28753833369E+03  0.47000000000E+01 0.  1.
         11    1    6    6    0    0  0.14161165344E+02 -0.38216721049E+02 -0.22121700517E+03  0.22494003589E+03  0.00000000000E+00 0. -1.
        -12    1    6    6    0    0 -0.91778770843E+02 -0.81427143769E+02 -0.54532084649E+03  0.55895308224E+03  0.00000000000E+00 0.  1.
</event>
<event>
12    1  0.8798177E-003  0.2112083E+03  0.7818608E-02  0.1140781E+00
         21   -1    0    0  503  502  0.00000000000E+00  0.00000000000E+00  0.66130459731E+03  0.66130459731E+03  0.00000000000E+00 0. -1.
         21   -1    0    0  501  503 -0.00000000000E+00 -0.00000000000E+00 -0.68878790586E+02  0.68878790586E+02  0.00000000000E+00 0. -1.
          6    2    1    2  501    0  0.11993316548E+03  0.64959223694E+01  0.23834831163E+03  0.31789730697E+03  0.17269226656E+03 0.  0.
         24    2    3    3    0    0  0.40550971022E+02 -0.18317852071E+02  0.21150584216E+03  0.23037665588E+03  0.79741816837E+02 0.  0.
         -6    2    1    2    0  502 -0.11993316548E+03 -0.64959223694E+01  0.35407749509E+03  0.41228608093E+03  0.17373191650E+03 0.  0.
        -24    2    5    5    0    0 -0.89049285480E+01  0.35452800564E+02  0.19372444530E+03  0.21273118791E+03  0.79932463884E+02 0.  0.
          5    1    3    3  501    0  0.79382194456E+02  0.24813774441E+02  0.26842469474E+02  0.87520651084E+02  0.47000000000E+01 0. -1.
        -11    1    4    4    0    0 -0.17297612468E+02 -0.18001543216E+02  0.25937225023E+02  0.36000036071E+02  0.00000000000E+00 0.  1.
         12    1    4    4    0    0  0.57848583489E+02 -0.31630885500E+00  0.18556861714E+03  0.19437661981E+03  0.00000000000E+00 0. -1.
         -5    1    5    5    0  502 -0.11102823693E+03 -0.41948722934E+02  0.16035304979E+03  0.19955489302E+03  0.47000000000E+01 0.  1.
         13    1    6    6    0    0 -0.29474306321E+02  0.15117181706E+02  0.17537775757E+03  0.17847863111E+03  0.00000000000E+00 0. -1.
        -14    1    6    6    0    0  0.20569377773E+02  0.20335618859E+02  0.18346687739E+02  0.34252556800E+02  0.00000000000E+00 0.  1.
</event>
<event>
12    1  0.8798177E-003  0.1765608E+03  0.7818608E-02  0.1172982E+00
         21   -1    0    0  503  502  0.00000000000E+00  0.00000000000E+00  0.43258235861E+03  0.43258235861E+03  0.00000000000E+00 0. -1.
         21   -1    0    0  501  503 -0.00000000000E+00 -0.00000000000E+00 -0.72221300259E+02  0.72221300259E+02  0.00000000000E+00 0. -1.
          6    2    1    2  501    0  0.14005021656E+02  0.34032770137E+02  0.13198148443E+03  0.22043783958E+03  0.17268282721E+03 0.  0.
         24    2    3    3    0    0 -0.48124269964E+01 -0.38433394185E+02  0.35123352912E+02  0.97926497310E+02  0.82798935461E+02 0.  0.
         -6    2    1    2    0  502 -0.14005021656E+02 -0.34032770137E+02  0.22837957393E+03  0.28436581929E+03  0.16538536609E+03 0.  0.
        -24    2    5    5    0    0  0.28469020250E+01 -0.82886075768E+02  0.17933225107E+03  0.21296299944E+03  0.79466826092E+02 0.  0.
          5    1    3    3  501    0  0.18817448652E+02  0.72466164322E+02  0.96858131515E+02  0.12251134227E+03  0.47000000000E+01 0. -1.
        -13    1    4    4    0    0 -0.11673541209E+02 -0.55446758597E+02  0.49010983578E+02  0.74917895823E+02  0.00000000000E+00 0.  1.
         14    1    4    4    0    0  0.68611142127E+01  0.17013364412E+02 -0.13887630666E+02  0.23008601487E+02  0.00000000000E+00 0. -1.
         -5    1    5    5    0  502 -0.16851923681E+02  0.48853305631E+02  0.49047322853E+02  0.71402819845E+02  0.47000000000E+01 0.  1.
         13    1    6    6    0    0 -0.19272360920E+02  0.45832537351E+01  0.12872830921E+02  0.23624984363E+02  0.00000000000E+00 0. -1.
        -14    1    6    6    0    0  0.22119262945E+02 -0.87469329503E+02  0.16645942015E+03  0.18933801508E+03  0.00000000000E+00 0.  1.
</event>
<event>
12    1  0.8798177E-003  0.1801643E+03  0.7818608E-02  0.1168265E+00
         21   -1    0    0  503  502  0.00000000000E+00  0.00000000000E+00  0.52252025623E+03  0.52252025623E+03  0.00000000000E+00 0.  1.
         21   -1    0    0  501  503 -0.00000000000E+00 -0.00000000000E+00 -0.61325298438E+02  0.61325298438E+02  0.00000000000E+00 0.  1.
          6    2    1    2  501    0 -0.28538618320E+02  0.39849243340E+02  0.24283682512E+03  0.30237214869E+03  0.17336890650E+03 0.  0.
         24    2    3    3    0    0 -0.59132276799E+02  0.41268852916E+02  0.73144639239E+02  0.12987427862E+03  0.79482360418E+02 0.  0.
         -6    2    1    2    0  502  0.28538618320E+02 -0.39849243340E+02  0.21835813268E+03  0.28147340598E+03  0.17071786443E+03 0.  0.
        -24    2    5    5    0    0  0.64249971853E+02  0.11866460561E+02  0.85394272517E+02  0.13432962286E+03  0.80519525772E+02 0.  0.
          5    1    3    3  501    0  0.30593658479E+02 -0.14196095756E+01  0.16969218588E+03  0.17249787007E+03  0.47000000000E+01 0. -1.
        -11    1    4    4    0    0 -0.45069373496E+02  0.63550961526E+02  0.40141223789E+02  0.87642974536E+02  0.00000000000E+00 0.  1.
         12    1    4    4    0    0 -0.14062903303E+02 -0.22282108610E+02  0.33003415450E+02  0.42231304086E+02  0.00000000000E+00 0. -1.
         -5    1    5    5    0  502 -0.35711353533E+02 -0.51715703901E+02  0.13296386016E+03  0.14714378312E+03  0.47000000000E+01 0.  1.
         11    1    6    6    0    0  0.20776929136E+02 -0.62460989053E+01 -0.12966834124E+02  0.25275152285E+02  0.00000000000E+00 0. -1.
        -12    1    6    6    0    0  0.43473042717E+02  0.18112559466E+02  0.98361106640E+02  0.10905447058E+03  0.00000000000E+00 0.  1.
</event>
<event>
12    1  0.8798177E-003  0.1863455E+03  0.7818608E-02  0.1162482E+00
         21   -1    0    0  503  502  0.00000000000E+00  0.00000000000E+00  0.11390960464E+03  0.11390960464E+03  0.00000000000E+00 0. -1.
         21   -1    0    0  501  503 -0.00000000000E+00 -0.00000000000E+00 -0.31339425113E+03  0.31339425113E+03  0.00000000000E+00 0. -1.
          6    2    1    2  501    0  0.29674665816E+02  0.56800568491E+02 -0.14454086643E+03  0.23583195548E+03  0.17497930959E+03 0.  0.
         24    2    3    3    0    0  0.32070937120E+02  0.89435307892E+02 -0.15512133301E+03  0.20112166010E+03  0.85790878894E+02 0.  0.
         -6    2    1    2    0  502 -0.29674665816E+02 -0.56800568491E+02 -0.54943780050E+02  0.19147190030E+03  0.17185976628E+03 0.  0.
        -24    2    5    5    0    0  0.17431370846E+02 -0.39045630302E+02 -0.91506351513E+02  0.12907696338E+03  0.80368129094E+02 0.  0.
          5    1    3    3  501    0 -0.23962713043E+01 -0.32634739400E+02  0.10580466580E+02  0.34710295374E+02  0.47000000000E+01 0. -1.
        -13    1    4    4    0    0  0.37393157146E+02  0.35981431514E+02 -0.19824991709E+02  0.55551254814E+02  0.00000000000E+00 0.  1.
         14    1    4    4    0    0 -0.53222200254E+01  0.53453876378E+02 -0.13529634130E+03  0.14557040529E+03  0.00000000000E+00 0. -1.
         -5    1    5    5    0  502 -0.47106036662E+02 -0.17754938189E+02  0.36562571463E+02  0.62394936911E+02  0.47000000000E+01 0.  1.
         13    1    6    6    0    0  0.17301627760E+02 -0.50156236437E+02 -0.19981836376E+02  0.56694516151E+02  0.00000000000E+00 0. -1.
        -14    1    6    6    0    0  0.12974308598E+00  0.11110606135E+02 -0.71524515136E+02  0.72382447233E+02  0.00000000000E+00 0.  1.
</event>
<event>
12    1  0.8798177E-003  0.1748449E+03  0.7818608E-02  0.1177130E+00
         21   -1    0    0  501  502  0.00000000000E+00  0.00000000000E+00  0.60654736816E+03  0.60654736816E+03  0.00000000000E+00 0. -1.
         21   -1    0    0  502  503 -0.00000000000E+00 -0.00000000000E+00 -0.49742731659E+02  0.49742731659E+02  0.00000000000E+00 0. -1.
          6    2    1    2  501    0  0.23174475201E+01  0.29283643056E+02  0.38202865428E+03  0.42013880873E+03  0.17235957646E+03 0.  0.
         24    2    3    3    0    0 -0.13547964128E+00  0.79923053275E+02  0.18505816404E+03  0.21669390036E+03  0.79511065729E+02 0.  0.
         -6    2    1    2    0  503 -0.23174475201E+01 -0.29283643056E+02  0.17477598223E+03  0.23615129109E+03  0.15607013170E+03 0.  0.
        -24    2    5    5    0    0  0.37562942674E+02 -0.42560573726E+02  0.61366498720E+02  0.11511194477E+03  0.79136183663E+02 0.  0.
          5    1    3    3  501    0  0.24529271614E+01 -0.50639410219E+02  0.19697049023E+03  0.20344490837E+03  0.47000000000E+01 0. -1.
        -13    1    4    4    0    0 -0.29389938926E+02  0.22489856520E+02  0.26445846608E+02  0.45485656631E+02  0.00000000000E+00 0.  1.
         14    1    4    4    0    0  0.29254459285E+02  0.57433196755E+02  0.15861231744E+03  0.17120824373E+03  0.00000000000E+00 0. -1.
         -5    1    5    5    0  503 -0.39880390194E+02  0.13276930670E+02  0.11340948351E+03  0.12103934633E+03  0.47000000000E+01 0.  1.
         11    1    6    6    0    0 -0.47086274349E+01  0.15714068937E+02  0.34624232131E+02  0.38313712761E+02  0.00000000000E+00 0. -1.
        -12    1    6    6    0    0  0.42271570109E+02 -0.58274642664E+02  0.26742266589E+02  0.76798232007E+02  0.00000000000E+00 0.  1.
</event>
<event>
12    1  0.8798177E-003  0.1736414E+03  0.7818608E-02  0.1174186E+00
         21   -1    0    0  503  502  0.00000000000E+00  0.00000000000E+00  0.27429884361E+03  0.27429884361E+03  0.00000000000E+00 0. -1.
         21   -1    0    0  501  503 -0.00000000000E+00 -0.00000000000E+00 -0.14449492237E+03  0.14449492237E+03  0.00000000000E+00 0. -1.
          6    2    1    2  501    0 -0.22825019269E+02 -0.30156517458E+01 -0.37784955831E+02  0.17770487401E+03  0.17210823252E+03 0.  0.
         24    2    3    3    0    0 -0.35482449733E+02  0.30581669030E+02  0.33544346251E+02  0.97711437751E+02  0.78918053588E+02 0.  0.
         -6    2    1    2    0  502  0.22825019269E+02  0.30156517458E+01  0.16758887707E+03  0.24108889197E+03  0.17177818969E+03 0.  0.
        -24    2    5    5    0    0  0.30159525533E+02  0.66863610612E+02  0.11439939917E+03  0.15753311782E+03  0.79681373460E+02 0.  0.
          5    1    3    3  501    0  0.12657430464E+02 -0.33597320776E+02 -0.71329302082E+02  0.79993436261E+02  0.47000000000E+01 0. -1.
        -13    1    4    4    0    0 -0.74332314192E+01  0.54093969934E+02  0.25374813241E+02  0.60210394946E+02  0.00000000000E+00 0.  1.
         14    1    4    4    0    0 -0.28049218314E+02 -0.23512300904E+02  0.81695330102E+01  0.37501042804E+02  0.00000000000E+00 0. -1.
         -5    1    5    5    0  502 -0.73345062639E+01 -0.63847958866E+02  0.53189477907E+02  0.83555774149E+02  0.47000000000E+01 0.  1.
         11    1    6    6    0    0  0.42126044845E+02  0.20815809991E+01  0.49900858744E+02  0.65337832357E+02  0.00000000000E+00 0. -1.
        -12    1    6    6    0    0 -0.11966519312E+02  0.64782029613E+02  0.64498540424E+02  0.92195285465E+02  0.00000000000E+00 0.  1.
</event>
<event>
12    1  0.8798177E-003  0.1897137E+03  0.7818608E-02  0.1158958E+00
         21   -1    0    0  501  502  0.00000000000E+00  0.00000000000E+00  0.27479911918E+03  0.27479911918E+03  0.00000000000E+00 0.  1.
         21   -1    0    0  502  503 -0.00000000000E+00 -0.00000000000E+00 -0.15083109020E+03  0.15083109020E+03  0.00000000000E+00 0.  1.
          6    2    1    2  501    0 -0.73167716394E+02 -0.26848980446E+02  0.14044821235E+03  0.23520201242E+03  0.17181357286E+03 0.  0.
         24    2    3    3    0    0 -0.11363084096E+03 -0.15457282148E+01  0.11772182613E+03  0.18213509566E+03  0.80002546409E+02 0.  0.
         -6    2    1    2    0  503  0.73167716394E+02  0.26848980446E+02 -0.16480183371E+02  0.19042819697E+03  0.17296508111E+03 0.  0.
        -24    2    5    5    0    0  0.25550579634E+02 -0.16918334390E+02  0.49333746479E+02  0.98034837231E+02  0.78980685050E+02 0.  0.
          5    1    3    3  501    0  0.40463124565E+02 -0.25303252231E+02  0.22726386227E+02  0.53066916756E+02  0.47000000000E+01 0. -1.
        -13    1    4    4    0    0 -0.83898740571E+02 -0.36857315499E+02  0.66776547991E+02  0.11338680583E+03  0.00000000000E+00 0.  1.
         14    1    4    4    0    0 -0.29732100388E+02  0.35311587284E+02  0.50945278136E+02  0.68748289829E+02  0.00000000000E+00 0. -1.
         -5    1    5    5    0  503  0.47617136759E+02  0.43767314836E+02 -0.65813929850E+02  0.92393359737E+02  0.47000000000E+01 0.  1.
         13    1    6    6    0    0  0.10788117665E+02 -0.44272310360E+02  0.49050146354E+02  0.66950263665E+02  0.00000000000E+00 0. -1.
        -14    1    6    6    0    0  0.14762461969E+02  0.27353975970E+02  0.28360012465E+00  0.31084573566E+02  0.00000000000E+00 0.  1.
</event>
<event>
12    1  0.8798177E-003  0.2118864E+03  0.7818608E-02  0.1140163E+00
         21   -1    0    0  501  502  0.00000000000E+00  0.00000000000E+00  0.19837925205E+03  0.19837925205E+03  0.00000000000E+00 0. -1.
         21   -1    0    0  502  503 -0.00000000000E+00 -0.00000000000E+00 -0.27094993255E+03  0.27094993255E+03  0.00000000000E+00 0. -1.
          6    2    1    2  501    0  0.73307544763E+02  0.98564827373E+02  0.59405602383E+02  0.22005656247E+03  0.17264658635E+03 0.  0.
         24    2    3    3    0    0  0.52526620940E+02 -0.13342351415E+02  0.41631957803E+02  0.10476104694E+03  0.79401465964E+02 0.  0.
         -6    2    1    2    0  503 -0.73307544763E+02 -0.98564827373E+02 -0.13197628289E+03  0.24927262212E+03  0.17213390015E+03 0.  0.
        -24    2    5    5    0    0  0.90079464626E+01 -0.98302649852E+02 -0.96037963386E+02  0.15933063170E+03  0.80114953159E+02 0.  0.
          5    1    3    3  501    0  0.20780923822E+02  0.11190717879E+03  0.17773644580E+02  0.11529551553E+03  0.47000000000E+01 0. -1.
        -11    1    4    4    0    0 -0.57480456658E+01 -0.33856801166E+02  0.15674316097E+02  0.37749267533E+02  0.00000000000E+00 0.  1.
         12    1    4    4    0    0  0.58274666606E+02  0.20514449751E+02  0.25957641706E+02  0.67011779409E+02  0.00000000000E+00 0. -1.
         -5    1    5    5    0  503 -0.82315491225E+02 -0.26217752117E+00 -0.35938319501E+02  0.89941990423E+02  0.47000000000E+01 0.  1.
         13    1    6    6    0    0 -0.27572964803E+02 -0.65272146805E+01 -0.21714621610E+02  0.35698707416E+02  0.00000000000E+00 0. -1.
        -14    1    6    6    0    0  0.36580911265E+02 -0.91775435172E+02 -0.74323341776E+02  0.12363192429E+03  0.00000000000E+00 0.  1.
</event>
<event>
12    1  0.8798177E-003  0.1780584E+03  0.7818608E-02  0.1169939E+00
         21   -1    0    0  503  502  0.00000000000E+00  0.00000000000E+00  0.15559324265E+03  0.15559324265E+03  0.00000000000E+00 0. -1.
         21   -1    0    0  501  503 -0.00000000000E+00 -0.00000000000E+00 -0.20405413674E+03  0.20405413674E+03  0.00000000000E+00 0. -1.
          6    2    1    2  501    0 -0.40362663428E+02 -0.21734417822E+02 -0.93066543107E+01  0.17830146571E+03  0.17205600642E+03 0.  0.
         24    2    3    3    0    0  0.27291594233E+02 -0.58538443170E+02 -0.18936672740E+02  0.10054246549E+03  0.74690088680E+02 0.  0.
         -6    2    1    2    0  502  0.40362663428E+02  0.21734417822E+02 -0.39154239783E+02  0.18134591367E+03  0.17103144856E+03 0.  0.
        -24    2    5    5    0    0  0.64852392794E+02  0.26443143827E+02  0.27224281519E+02  0.11028173820E+03  0.80720676225E+02 0.  0.
          5    1    3    3  501    0 -0.67654257661E+02  0.36804025348E+02  0.96300184291E+01  0.77759000228E+02  0.47000000000E+01 0. -1.
        -13    1    4    4    0    0 -0.13369108929E+02 -0.35314996560E+02  0.17103196319E+02  0.41453605150E+02  0.00000000000E+00 0.  1.
         14    1    4    4    0    0  0.40660703163E+02 -0.23223446611E+02 -0.36039869059E+02  0.59088860337E+02  0.00000000000E+00 0. -1.
         -5    1    5    5    0  502 -0.24489729366E+02 -0.47087260052E+01 -0.66378521301E+02  0.71064175470E+02  0.47000000000E+01 0.  1.
         13    1    6    6    0    0 -0.13319637865E+01 -0.21146304252E+02  0.18806500120E+02  0.28330632852E+02  0.00000000000E+00 0. -1.
        -14    1    6    6    0    0  0.66184356581E+02  0.47589448079E+02  0.84177813983E+01  0.81951105350E+02  0.00000000000E+00 0.  1.
</event>
<event>
12    1  0.8798177E-003  0.1903288E+03  0.7818608E-02  0.1158286E+00
         21   -1    0    0  501  502  0.00000000000E+00  0.00000000000E+00  0.37515523807E+03  0.37515523807E+03  0.00000000000E+00 0.  1.
         21   -1    0    0  502  503 -0.00000000000E+00 -0.00000000000E+00 -0.14305735410E+03  0.14305735410E+03  0.00000000000E+00 0.  1.
          6    2    1    2  501    0  0.59962310975E+02 -0.52915406744E+02  0.26430927895E+03  0.32570608662E+03  0.17271230677E+03 0.  0.
         24    2    3    3    0    0  0.43757914975E+02 -0.80902655271E+02  0.26582087781E+03  0.29299151095E+03  0.81995680726E+02 0.  0.
         -6    2    1    2    0  503 -0.59962310975E+02  0.52915406744E+02 -0.32211394976E+02  0.19250650555E+03  0.17212106700E+03 0.  0.
        -24    2    5    5    0    0 -0.23412532101E+02  0.57230063958E+02  0.41891709096E+02  0.10963393689E+03  0.80257447928E+02 0.  0.
          5    1    3    3  501    0  0.16204396001E+02  0.27987248526E+02 -0.15115988585E+01  0.32714575665E+02  0.47000000000E+01 0. -1.
        -13    1    4    4    0    0  0.62340251546E+02 -0.66998300793E+02  0.15701752410E+03  0.18174042518E+03  0.00000000000E+00 0.  1.
         14    1    4    4    0    0 -0.18582336571E+02 -0.13904354478E+02  0.10880335371E+03  0.11125108577E+03  0.00000000000E+00 0. -1.
         -5    1    5    5    0  503 -0.36549778875E+02 -0.43146572140E+01 -0.74103104072E+02  0.82872568657E+02  0.47000000000E+01 0.  1.
         11    1    6    6    0    0 -0.33076534180E+02  0.60410866503E+02  0.24668217036E+01  0.68917451450E+02  0.00000000000E+00 0. -1.
        -12    1    6    6    0    0  0.96640020795E+01 -0.31808025449E+01  0.39424887392E+02  0.40716485444E+02  0.00000000000E+00 0.  1.
</event>
<event>
12    1  0.8798177E-003  0.2387651E+03  0.7818608E-02  0.1120750E+00
         21   -1    0    0  503  502  0.00000000000E+00  0.00000000000E+00  0.43631270914E+02  0.43631270914E+02  0.00000000000E+00 0.  1.
         21   -1    0    0  501  503 -0.00000000000E+00 -0.00000000000E+00 -0.13048394905E+04  0.13048394905E+04  0.00000000000E+00 0. -1.
          6    2    1    2  501    0  0.14857337576E+03 -0.73212945023E+02 -0.66128921115E+03  0.70307340004E+03  0.17197267734E+03 0.  0.
         24    2    3    3    0    0  0.66449154467E+02  0.22972533983E+02 -0.39030055905E+03  0.40398650019E+03  0.76989210234E+02 0.  0.
         -6    2    1    2    0  502 -0.14857337576E+03  0.73212945023E+02 -0.59991900841E+03  0.64539736135E+03  0.17088228137E+03 0.  0.
        -24    2    5    5    0    0 -0.79427439074E+02  0.46500521974E+02 -0.52831218690E+03  0.54222594578E+03  0.80151062520E+02 0.  0.
          5    1    3    3  501    0  0.82124221293E+02 -0.96185479005E+02 -0.27098865210E+03  0.29908689985E+03  0.47000000000E+01 0. -1.
        -13    1    4    4    0    0  0.71603700963E+02 -0.56271427818E+01 -0.22609373385E+03  0.23722801524E+03  0.00000000000E+00 0.  1.
         14    1    4    4    0    0 -0.51545464960E+01  0.28599676764E+02 -0.16420682520E+03  0.16675848495E+03  0.00000000000E+00 0. -1.
         -5    1    5    5    0  502 -0.69145936685E+02  0.26712423049E+02 -0.71606821508E+02  0.10317141557E+03  0.47000000000E+01 0.  1.
         13    1    6    6    0    0 -0.64103994041E+02  0.32638319117E+02 -0.18808201495E+03  0.20136888110E+03  0.00000000000E+00 0. -1.
        -14    1    6    6    0    0 -0.15323445033E+02  0.13862202857E+02 -0.34023017195E+03  0.34085706468E+03  0.00000000000E+00 0.  1.
</event>
<event>
12    1  0.8798177E-003  0.1809377E+03  0.7818608E-02  0.1166951E+00
         21   -1    0    0  501  502  0.00000000000E+00  0.00000000000E+00  0.71901331575E+03  0.71901331575E+03  0.00000000000E+00 0.  1.
         21   -1    0    0  502  503 -0.00000000000E+00 -0.00000000000E+00 -0.48975824453E+02  0.48975824453E+02  0.00000000000E+00 0.  1.
          6    2    1    2  501    0 -0.52934389826E+02  0.20851748627E+02  0.43745537514E+03  0.47331491531E+03  0.17153121808E+03 0.  0.
         24    2    3    3    0    0 -0.86809124163E+02  0.57334890264E+02  0.30839200612E+03  0.33490263091E+03  0.78936867659E+02 0.  0.
         -6    2    1    2    0  503  0.52934389826E+02 -0.20851748627E+02  0.23258211616E+03  0.29467422489E+03  0.17176033596E+03 0.  0.
        -24    2    5    5    0    0 -0.19577710701E+02  0.34221077310E+02  0.11693048459E+03  0.14740436795E+03  0.80628410466E+02 0.  0.
          5    1    3    3  501    0  0.33874734337E+02 -0.36483141637E+02  0.12906336902E+03  0.13841228440E+03  0.47000000000E+01 0. -1.
        -13    1    4    4    0    0 -0.56767721265E+02  0.38781484481E+02  0.87857734897E+02  0.11155966698E+03  0.00000000000E+00 0.  1.
         14    1    4    4    0    0 -0.30041402898E+02  0.18553405783E+02  0.22053427122E+03  0.22334296393E+03  0.00000000000E+00 0. -1.
         -5    1    5    5    0  503  0.72512100527E+02 -0.55072825938E+02  0.11565163157E+03  0.14726985694E+03  0.47000000000E+01 0.  1.
         11    1    6    6    0    0 -0.19219688323E+02 -0.21953421347E+02  0.63472999190E+02  0.69858218946E+02  0.00000000000E+00 0. -1.
        -12    1    6    6    0    0 -0.35802237836E+00  0.56174498658E+02  0.53457485404E+02  0.77546149003E+02  0.00000000000E+00 0.  1.
</event>
<event>
12    1  0.8798177E-003  0.1756558E+03  0.7818608E-02  0.1172112E+00
         21   -1    0    0  501  502  0.00000000000E+00  0.00000000000E+00  0.48637006683E+02  0.48637006683E+02  0.00000000000E+00 0.  1.
         21   -1    0    0  502  503 -0.00000000000E+00 -0.00000000000E+00 -0.69345764026E+03  0.69345764026E+03  0.00000000000E+00 0.  1.
          6    2    1    2  501    0  0.35782837155E+02 -0.13555933623E+02 -0.21375562074E+03  0.27667022766E+03  0.17143737838E+03 0.  0.
         24    2    3    3    0    0  0.36338853859E+02 -0.30590502167E+02 -0.23270427003E+03  0.25075446045E+03  0.80437746237E+02 0.  0.
         -6    2    1    2    0  503 -0.35782837155E+02  0.13555933623E+02 -0.43106501285E+03  0.46542441929E+03  0.17128534671E+03 0.  0.
        -24    2    5    5    0    0  0.12861591833E+02 -0.46476478815E+02 -0.20146215466E+03  0.22312350410E+03  0.82895203080E+02 0.  0.
          5    1    3    3  501    0 -0.55601670417E+00  0.17034568544E+02  0.18948649296E+02  0.25915767213E+02  0.47000000000E+01 0. -1.
        -11    1    4    4    0    0  0.97116108018E+01 -0.26417322529E+02 -0.21846756793E+03  0.22027316802E+03  0.00000000000E+00 0.  1.
         12    1    4    4    0    0  0.26627243057E+02 -0.41731796383E+01 -0.14236702107E+02  0.30481292427E+02  0.00000000000E+00 0. -1.
         -5    1    5    5    0  503 -0.48644428988E+02  0.60032412438E+02 -0.22960285818E+03  0.24230091519E+03  0.47000000000E+01 0.  1.
         13    1    6    6    0    0 -0.26339574344E+02 -0.44502496226E+02 -0.78111166387E+02  0.93678170676E+02  0.00000000000E+00 0. -1.
        -14    1    6    6    0    0  0.39201166177E+02 -0.19739825890E+01 -0.12335098828E+03  0.12944533342E+03  0.00000000000E+00 0.  1.
</event>
<event>
12    1  0.8798177E-003  0.2235943E+03  0.7818608E-02  0.1132685E+00
         21   -1    0    0  501  502  0.00000000000E+00  0.00000000000E+00  0.85874285785E+02  0.85874285785E+02  0.00000000000E+00 0.  1.
         21   -1    0    0  502  503 -0.00000000000E+00 -0.00000000000E+00 -0.56510602091E+03  0.56510602091E+03  0.00000000000E+00 0.  1.
          6    2    1    2  501    0 -0.12413109312E+03 -0.38528398476E+02 -0.21131622344E+03  0.30202026541E+03  0.17224612815E+03 0.  0.
         24    2    3    3    0    0 -0.10579077048E+02 -0.25874979324E+02 -0.34416564085E+02  0.91378985390E+02  0.79901111765E+02 0.  0.
         -6    2    1    2    0  503  0.12413109312E+03  0.38528398476E+02 -0.26791551168E+03  0.34896004128E+03  0.18193796536E+03 0.  0.
        -24    2    5    5    0    0  0.35706020267E+02 -0.46805146369E+02 -0.13459680262E+03  0.16758535845E+03  0.80640631701E+02 0.  0.
          5    1    3    3  501    0 -0.11355201607E+03 -0.12653419152E+02 -0.17689965935E+03  0.21064128002E+03  0.47000000000E+01 0. -1.
        -11    1    4    4    0    0  0.70015447619E+01 -0.77263975940E+01 -0.56723380123E+02  0.57673743605E+02  0.00000000000E+00 0.  1.
         12    1    4    4    0    0 -0.17580621810E+02 -0.18148581730E+02  0.22306816038E+02  0.33705241785E+02  0.00000000000E+00 0. -1.
         -5    1    5    5    0  503  0.88425072855E+02  0.85333544844E+02 -0.13331870907E+03  0.18137468283E+03  0.47000000000E+01 0.  1.
         11    1    6    6    0    0  0.22500658302E+02 -0.29164980861E+02 -0.14010958117E+03  0.14487087516E+03  0.00000000000E+00 0. -1.
        -12    1    6    6    0    0  0.13205361965E+02 -0.17640165508E+02  0.55127785541E+01  0.22714483291E+02  0.00000000000E+00 0.  1.
</event>
<event>
12    1  0.8798177E-003  0.2072040E+03  0.7818608E-02  0.1146824E+00
         21   -1    0    0  501  502  0.00000000000E+00  0.00000000000E+00  0.89029817756E+03  0.89029817756E+03  0.00000000000E+00 0.  1.
         21   -1    0    0  502  503 -0.00000000000E+00 -0.00000000000E+00 -0.47025641161E+02  0.47025641161E+02  0.00000000000E+00 0. -1.
          6    2    1    2  501    0  0.32466756533E+02 -0.11136363707E+03  0.50618049594E+03  0.54164146648E+03  0.15395075120E+03 0.  0.
         24    2    3    3    0    0  0.29842855483E+02 -0.98289569208E+02  0.51026709128E+03  0.52692391340E+03  0.82005308562E+02 0.  0.
         -6    2    1    2    0  503 -0.32466756533E+02  0.11136363707E+03  0.33709204045E+03  0.39568235224E+03  0.17169021578E+03 0.  0.
        -24    2    5    5    0    0  0.44951293478E+02  0.89313573549E+02  0.21601405668E+03  0.25021164067E+03  0.77111991544E+02 0.  0.
          5    1    3    3  501    0  0.26239010497E+01 -0.13074067861E+02 -0.40865953360E+01  0.14717553077E+02  0.47000000000E+01 0. -1.
        -13    1    4    4    0    0  0.21237605410E+02 -0.10796836433E+03  0.36881356380E+03  0.38487874509E+03  0.00000000000E+00 0.  1.
         14    1    4    4    0    0  0.86052500736E+01  0.96787951233E+01  0.14145352748E+03  0.14204516831E+03  0.00000000000E+00 0. -1.
         -5    1    5    5    0  503 -0.77418050011E+02  0.22050063519E+02  0.12107798377E+03  0.14547071156E+03  0.47000000000E+01 0.  1.
         11    1    6    6    0    0 -0.58089376317E+01  0.67986478873E+02  0.14586540224E+03  0.16103608489E+03  0.00000000000E+00 0. -1.
        -12    1    6    6    0    0  0.50760231110E+02  0.21327094677E+02  0.70148654440E+02  0.89175555784E+02  0.00000000000E+00 0.  1.
</event>
<event>
12    1  0.8798177E-003  0.1769096E+03  0.7818608E-02  0.1171028E+00
         21   -1    0    0  501  502  0.00000000000E+00  0.00000000000E+00  0.13563938404E+03  0.13563938404E+03  0.00000000000E+00 0.  1.
         21   -1    0    0  502  503 -0.00000000000E+00 -0.00000000000E+00 -0.22976588952E+03  0.22976588952E+03  0.00000000000E+00 0.  1.
          6    2    1    2  501    0 -0.39974996971E+01 -0.38737801739E+02 -0.43520127195E+02  0.18139979442E+03  0.17174191875E+03 0.  0.
         24    2    3    3    0    0 -0.65792344902E+02  0.20385259079E+00 -0.65315465762E+01  0.99391865336E+02  0.74211910032E+02 0.  0.
         -6    2    1    2    0  503  0.39974996971E+01  0.38737801739E+02 -0.50606378286E+02  0.18400547915E+03  0.17257002505E+03 0.  0.
        -24    2    5    5    0    0 -0.47292202773E+02  0.59986376145E+02 -0.60578105996E+02  0.12740458828E+03  0.82020146444E+02 0.  0.
          5    1    3    3  501    0  0.61794845205E+02 -0.38941654330E+02 -0.36988580619E+02  0.82007929081E+02  0.47000000000E+01 0. -1.
        -11    1    4    4    0    0 -0.35376474982E+01  0.11088623685E+02 -0.29841505869E+02  0.32031047401E+02  0.00000000000E+00 0.  1.
         12    1    4    4    0    0 -0.62254697404E+02 -0.10884771094E+02  0.23309959293E+02  0.67360817935E+02  0.00000000000E+00 0. -1.
         -5    1    5    5    0  503  0.51289702470E+02 -0.21248574406E+02  0.99717277097E+01  0.56600890870E+02  0.47000000000E+01 0.  1.
         11    1    6    6    0    0  0.16216976691E+02  0.25217829799E+02 -0.43806013674E+02  0.53083859193E+02  0.00000000000E+00 0. -1.
        -12    1    6    6    0    0 -0.63509179464E+02  0.34768546346E+02 -0.16772092321E+02  0.74320729087E+02  0.00000000000E+00 0.  1.
</event>
<event>
12    1  0.8798177E-003  0.2217039E+03  0.7818608E-02  0.1133560E+00
         21   -1    0    0  503  502  0.00000000000E+00  0.00000000000E+00  0.34177935193E+02  0.34177935193E+02  0.00000000000E+00 0. -1.
         21   -1    0    0  501  503 -0.00000000000E+00 -0.00000000000E+00 -0.16761834958E+04  0.16761834958E+04  0.00000000000E+00 0.  1.
          6    2    1    2  501    0 -0.64496482106E+02 -0.12347324848E+03 -0.48537578513E+03  0.53361246357E+03  0.17247367681E+03 0.  0.
         24    2    3    3    0    0 -0.93129659214E+02 -0.11723321363E+03 -0.46723977936E+03  0.49883026163E+03  0.90010325520E+02 0.  0.
         -6    2    1    2    0  502  0.64496482106E+02  0.12347324848E+03 -0.11566297755E+04  0.11767489674E+04  0.16595257008E+03 0.  0.
        -24    2    5    5    0    0  0.72254303122E+02  0.26092558942E+02 -0.77474236621E+03  0.78253675827E+03  0.78971755103E+02 0.  0.
          5    1    3    3  501    0  0.28633177108E+02 -0.62400348518E+01 -0.18136005765E+02  0.34782201933E+02  0.47000000000E+01 0. -1.
        -13    1    4    4    0    0 -0.59201147007E+02 -0.55360206074E+02 -0.12211924370E+03  0.14656956678E+03  0.00000000000E+00 0.  1.
         14    1    4    4    0    0 -0.33928512207E+02 -0.61873007554E+02 -0.34512053567E+03  0.35226069486E+03  0.00000000000E+00 0. -1.
         -5    1    5    5    0  502 -0.77578210168E+01  0.97380689539E+02 -0.38188740929E+03  0.39421220916E+03  0.47000000000E+01 0.  1.
         11    1    6    6    0    0  0.37976518624E+02  0.37450139269E+02 -0.21091695323E+03  0.21755617679E+03  0.00000000000E+00 0. -1.
        -12    1    6    6    0    0  0.34277784499E+02 -0.11357580327E+02 -0.56382541297E+03  0.56498058149E+03  0.00000000000E+00 0.  1.
</event>
<event>
12    1  0.8798177E-003  0.3031098E+03  0.7818608E-02  0.1083843E+00
         21   -1    0    0  501  502  0.00000000000E+00  0.00000000000E+00  0.64707280136E+03  0.64707280136E+03  0.00000000000E+00 0.  1.
         21   -1    0    0  502  503 -0.00000000000E+00 -0.00000000000E+00 -0.14405871948E+03  0.14405871948E+03  0.00000000000E+00 0. -1.
          6    2    1    2  501    0 -0.20586446374E+03 -0.13902548811E+03  0.19761461282E+03  0.36084743779E+03  0.17161315330E+03 0.  0.
         24    2    3    3    0    0 -0.22149747465E+03 -0.10671301668E+03  0.19607569648E+03  0.32461285343E+03  0.80492401220E+02 0.  0.
         -6    2    1    2    0  503  0.20586446374E+03  0.13902548811E+03  0.30539946907E+03  0.43028408305E+03  0.17368734162E+03 0.  0.
        -24    2    5    5    0    0  0.21087297488E+03  0.10802976476E+03  0.19722287656E+03  0.31754506932E+03  0.76158823541E+02 0.  0.
          5    1    3    3  501    0  0.15633010914E+02 -0.32312471429E+02  0.15389163349E+01  0.36234584358E+02  0.47000000000E+01 0. -1.
        -11    1    4    4    0    0 -0.70099269917E+02 -0.55274403796E+02  0.30257170635E+02  0.94258494221E+02  0.00000000000E+00 0.  1.
         12    1    4    4    0    0 -0.15139820474E+03 -0.51438612888E+02  0.16581852585E+03  0.23035435921E+03  0.00000000000E+00 0. -1.
         -5    1    5    5    0  503 -0.50085111367E+01  0.30995723357E+02  0.10817659250E+03  0.11273901373E+03  0.47000000000E+01 0.  1.
         11    1    6    6    0    0  0.42368305342E+02  0.40294321300E+02  0.15188941985E+02  0.60410343362E+02  0.00000000000E+00 0. -1.
        -12    1    6    6    0    0  0.16850466953E+03  0.67735443456E+02  0.18203393458E+03  0.25713472596E+03  0.00000000000E+00 0.  1.
</event>
<event>
12    1  0.8798177E-003  0.1839069E+03  0.7818608E-02  0.1164759E+00
         21   -1    0    0  501  502  0.00000000000E+00  0.00000000000E+00  0.13591412165E+03  0.13591412165E+03  0.00000000000E+00 0.  1.
         21   -1    0    0  502  503 -0.00000000000E+00 -0.00000000000E+00 -0.31285337038E+03  0.31285337038E+03  0.00000000000E+00 0.  1.
          6    2    1    2  501    0  0.21195611149E+02 -0.54849413818E+02  0.15509373584E+02  0.18455975878E+03  0.17425283861E+03 0.  0.
         24    2    3    3    0    0  0.80737068033E+02 -0.23088128414E+02  0.10051981783E+02  0.11669343824E+03  0.80403857875E+02 0.  0.
         -6    2    1    2    0  503 -0.21195611149E+02  0.54849413818E+02 -0.19244862232E+03  0.26420773325E+03  0.17120613876E+03 0.  0.
        -24    2    5    5    0    0 -0.64730164487E+01  0.37511406215E+02 -0.21456617839E+03  0.23213535278E+03  0.79994822128E+02 0.  0.
          5    1    3    3  501    0 -0.59541456884E+02 -0.31761285404E+02  0.54573918011E+01  0.67866320540E+02  0.47000000000E+01 0. -1.
        -13    1    4    4    0    0 -0.12808124663E+02  0.10456579278E+02 -0.17070441644E+01  0.16622337602E+02  0.00000000000E+00 0.  1.
         14    1    4    4    0    0  0.93545192697E+02 -0.33544707692E+02  0.11759025947E+02  0.10007110063E+03  0.00000000000E+00 0. -1.
         -5    1    5    5    0  503 -0.14722594700E+02  0.17338007602E+02  0.22117556069E+02  0.32072380467E+02  0.47000000000E+01 0.  1.
         13    1    6    6    0    0  0.34299125655E+02  0.30156284667E+02 -0.91167180594E+02  0.10196708461E+03  0.00000000000E+00 0. -1.
        -14    1    6    6    0    0 -0.40772142103E+02  0.73551215486E+01 -0.12339899779E+03  0.13016826818E+03  0.00000000000E+00 0.  1.
</event>
<event>
12    1  0.8798177E-003  0.2350179E+03  0.7818608E-02  0.1123229E+00
         21   -1    0    0  501  502  0.00000000000E+00  0.00000000000E+00  0.36146112360E+03  0.36146112360E+03  0.00000000000E+00 0.  1.
         21   -1    0    0  502  503 -0.00000000000E+00 -0.00000000000E+00 -0.34337461236E+03  0.34337461236E+03  0.00000000000E+00 0.  1.
          6    2    1    2  501    0  0.28265190628E+02 -0.15668966392E+03  0.27177128819E+03  0.35901876497E+03  0.17229123232E+03 0.  0.
         24    2    3    3    0    0 -0.90912277879E-01 -0.10912373089E+03  0.74579224407E+02  0.15414469005E+03  0.79312847941E+02 0.  0.
         -6    2    1    2    0  503 -0.28265190628E+02  0.15668966392E+03 -0.25368477695E+03  0.34581697099E+03  0.17286653691E+03 0.  0.
        -24    2    5    5    0    0 -0.81244591584E+02  0.12386438344E+03 -0.21307567203E+03  0.27128170841E+03  0.79053489245E+02 0.  0.
          5    1    3    3  501    0  0.28356102906E+02 -0.47565933035E+02  0.19719206378E+03  0.20487407492E+03  0.47000000000E+01 0. -1.
        -11    1    4    4    0    0  0.29542982433E+02 -0.35317683749E+02  0.55947220106E+02  0.72458388293E+02  0.00000000000E+00 0.  1.
         12    1    4    4    0    0 -0.29633894710E+02 -0.73806047139E+02  0.18632004301E+02  0.81686301754E+02  0.00000000000E+00 0. -1.
         -5    1    5    5    0  503  0.52979400957E+02  0.32825280483E+02 -0.40609104925E+02  0.74535262576E+02  0.47000000000E+01 0.  1.
         13    1    6    6    0    0  0.43799383091E+01  0.83471988357E+01 -0.62013329246E+02  0.62725693238E+02  0.00000000000E+00 0. -1.
        -14    1    6    6    0    0 -0.85624529894E+02  0.11551718460E+03 -0.15106234278E+03  0.20855601517E+03  0.00000000000E+00 0.  1.
</event>
<event>
12    1  0.8798177E-003  0.2008443E+03  0.7818608E-02  0.1149090E+00
         21   -1    0    0  503  502  0.00000000000E+00  0.00000000000E+00  0.18907735919E+03  0.18907735919E+03  0.00000000000E+00 0. -1.
         21   -1    0    0  501  503 -0.00000000000E+00 -0.00000000000E+00 -0.26633259755E+03  0.26633259755E+03  0.00000000000E+00 0. -1.
          6    2    1    2  501    0 -0.42132372910E+02  0.93389734981E+02 -0.14047103642E+03  0.24485195751E+03  0.17240530612E+03 0.  0.
         24    2    3    3    0    0  0.55367366910E+01  0.45308074774E+02 -0.41235943126E+01  0.92546655478E+02  0.80401506933E+02 0.  0.
         -6    2    1    2    0  502  0.42132372910E+02 -0.93389734981E+02  0.63215798062E+02  0.21055799923E+03  0.17274737181E+03 0.  0.
        -24    2    5    5    0    0 -0.43364278917E+02 -0.45415890073E+02  0.31535386827E+02  0.10742262351E+03  0.81253157857E+02 0.  0.
          5    1    3    3  501    0 -0.47669109601E+02  0.48081660207E+02 -0.13634744211E+03  0.15230530204E+03  0.47000000000E+01 0. -1.
        -11    1    4    4    0    0 -0.82217390780E+01 -0.22125792803E+02 -0.66769340360E-01  0.23604070810E+02  0.00000000000E+00 0.  1.
         12    1    4    4    0    0  0.13758475769E+02  0.67433867577E+02 -0.40568249722E+01  0.68942584668E+02  0.00000000000E+00 0. -1.
         -5    1    5    5    0  502  0.85496651827E+02 -0.47973844908E+02  0.31680411235E+02  0.10313537572E+03  0.47000000000E+01 0.  1.
         13    1    6    6    0    0  0.13073384205E+02  0.12589912816E+02  0.17634710188E+02  0.25306170842E+02  0.00000000000E+00 0. -1.
        -14    1    6    6    0    0 -0.56437663121E+02 -0.58005802889E+02  0.13900676639E+02  0.82116452666E+02  0.00000000000E+00 0.  1.
</event>
<event>
12    1  0.8798177E-003  0.2021424E+03  0.7818608E-02  0.1148203E+00
         21   -1    0    0  501  502  0.00000000000E+00  0.00000000000E+00  0.24905342761E+02  0.24905342761E+02  0.00000000000E+00 0.  1.
         21   -1    0    0  502  503 -0.00000000000E+00 -0.00000000000E+00 -0.21521561609E+04  0.21521561609E+04  0.00000000000E+00 0. -1.
          6    2    1    2  501    0  0.46014203906E+02 -0.93953831817E+02 -0.53025114766E+03  0.56747495909E+03  0.17296508356E+03 0.  0.
         24    2    3    3    0    0  0.58361010471E+02 -0.68196683598E+02 -0.52459660250E+03  0.53798024435E+03  0.78513392263E+02 0.  0.
         -6    2    1    2    0  503 -0.46014203906E+02  0.93953831817E+02 -0.15969996705E+04  0.16095865446E+04  0.17151171232E+03 0.  0.
        -24    2    5    5    0    0 -0.98452144138E+02  0.61143515179E+02 -0.10466195775E+04  0.10557214065E+04  0.75523466106E+02 0.  0.
          5    1    3    3  501    0 -0.12346806565E+02 -0.25757148219E+02 -0.56545451618E+01  0.29494714742E+02  0.47000000000E+01 0. -1.
        -13    1    4    4    0    0  0.69164550964E+02 -0.25921855299E+02 -0.28331380512E+03  0.29278386203E+03  0.00000000000E+00 0.  1.
         14    1    4    4    0    0 -0.10803540493E+02 -0.42274828299E+02 -0.24128279738E+03  0.24519638232E+03  0.00000000000E+00 0. -1.
         -5    1    5    5    0  503  0.52437940232E+02  0.32810316638E+02 -0.55038009298E+03  0.55386513810E+03  0.47000000000E+01 0.  1.
         13    1    6    6    0    0 -0.12107314113E+02  0.44900103224E+02 -0.49110724315E+03  0.49330409546E+03  0.00000000000E+00 0. -1.
        -14    1    6    6    0    0 -0.86344830025E+02  0.16243411955E+02 -0.55551233436E+03  0.56241731102E+03  0.00000000000E+00 0.  1.
</event>
<event>
12    1  0.8798177E-003  0.1923425E+03  0.7818608E-02  0.1157098E+00
         21   -1    0    0  503  502  0.00000000000E+00  0.00000000000E+00  0.28925367840E+03  0.28925367840E+03  0.00000000000E+00 0. -1.
         21   -1    0    0  501  503 -0.00000000000E+00 -0.00000000000E+00 -0.15042573797E+03  0.15042573797E+03  0.00000000000E+00 0.  1.
          6    2    1    2  501    0 -0.28257177419E+02  0.78337019746E+02 -0.19154636364E+02  0.19329387094E+03  0.17337953660E+03 0.  0.
         24    2    3    3    0    0 -0.66440367558E+02  0.83283813188E+02  0.23655245953E+02  0.13552534319E+03  0.80355659444E+02 0.  0.
         -6    2    1    2    0  502  0.28257177419E+02 -0.78337019746E+02  0.15798257680E+03  0.24638554543E+03  0.16974152611E+03 0.  0.
        -24    2    5    5    0    0 -0.16407308368E+02 -0.18986945465E+02  0.19461852376E+02  0.89135970862E+02  0.83287176310E+02 0.  0.
          5    1    3    3  501    0  0.38183190139E+02 -0.49467934415E+01 -0.42809882317E+02  0.57768527751E+02  0.47000000000E+01 0. -1.
        -13    1    4    4    0    0 -0.46438577166E+02  0.67085801591E+02 -0.20761006524E+02  0.84190650409E+02  0.00000000000E+00 0.  1.
         14    1    4    4    0    0 -0.20001790392E+02  0.16198011597E+02  0.44416252478E+02  0.51334692779E+02  0.00000000000E+00 0. -1.
         -5    1    5    5    0  502  0.44664485787E+02 -0.59350074282E+02  0.13852072442E+03  0.15724957457E+03  0.47000000000E+01 0.  1.
         11    1    6    6    0    0  0.12615062421E+02 -0.38121979928E+01  0.45453403794E+02  0.47325305809E+02  0.00000000000E+00 0. -1.
        -12    1    6    6    0    0 -0.29022370789E+02 -0.15174747472E+02 -0.25991551418E+02  0.41810665053E+02  0.00000000000E+00 0.  1.
</event>
<event>
12    1  0.8798177E-003  0.1753430E+03  0.7818608E-02  0.1172836E+00
         21   -1    0    0  501  502  0.00000000000E+00  0.00000000000E+00  0.21473564676E+03  0.21473564676E+03  0.00000000000E+00 0.  1.
         21   -1    0    0  502  503 -0.00000000000E+00 -0.00000000000E+00 -0.14275575188E+03  0.14275575188E+03  0.00000000000E+00 0.  1.
          6    2    1    2  501    0 -0.25750149259E+02  0.23598103640E+02  0.51342194690E+02  0.18270519158E+03  0.17182905863E+03 0.  0.
         24    2    3    3    0    0 -0.18344016501E+02  0.20524208080E+02 -0.38599693760E+02  0.92284325985E+02  0.79175213327E+02 0.  0.
         -6    2    1    2    0  503  0.25750149259E+02 -0.23598103640E+02  0.20637700192E+02  0.17478620706E+03  0.17001283136E+03 0.  0.
        -24    2    5    5    0    0 -0.20220164611E+02  0.41723351948E+02  0.20142976692E+02  0.94770601900E+02  0.80162549360E+02 0.  0.
          5    1    3    3  501    0 -0.74061327577E+01  0.30738955603E+01  0.89941888450E+02  0.90420865591E+02  0.47000000000E+01 0. -1.
        -11    1    4    4    0    0  0.24608567272E+02 -0.12979410501E+02 -0.21590947627E+02  0.35216696318E+02  0.00000000000E+00 0.  1.
         12    1    4    4    0    0 -0.42952583772E+02  0.33503618581E+02 -0.17008746134E+02  0.57067629667E+02  0.00000000000E+00 0. -1.
         -5    1    5    5    0  503  0.45970313870E+02 -0.65321455588E+02  0.49472350026E+00  0.80015605158E+02  0.47000000000E+01 0.  1.
         11    1    6    6    0    0  0.10020978640E+02  0.30368389974E+02 -0.24062218974E+02  0.40020613494E+02  0.00000000000E+00 0. -1.
        -12    1    6    6    0    0 -0.30241143251E+02  0.11354961974E+02  0.44205195666E+02  0.54749988406E+02  0.00000000000E+00 0.  1.
</event>
<event>
12    1  0.8798177E-003  0.2316524E+03  0.7818608E-02  0.1125518E+00
         21   -1    0    0  501  502  0.00000000000E+00  0.00000000000E+00  0.40471406218E+02  0.40471406218E+02  0.00000000000E+00 0.  1.
         21   -1    0    0  502  503 -0.00000000000E+00 -0.00000000000E+00 -0.19296815329E+04  0.19296815329E+04  0.00000000000E+00 0. -1.
          6    2    1    2  501    0  0.75850983472E+02  0.13516290076E+03 -0.39278297068E+03  0.45590161582E+03  0.17188786989E+03 0.  0.
         24    2    3    3    0    0  0.86287404518E+02  0.61317443234E+02 -0.14318888866E+03  0.19536108872E+03  0.80358895756E+02 0.  0.
         -6    2    1    2    0  503 -0.75850983472E+02 -0.13516290076E+03 -0.14964271560E+04  0.15142513233E+04  0.17216403649E+03 0.  0.
        -24    2    5    5    0    0 -0.53942574874E+02 -0.16486407542E+03 -0.13340807433E+04  0.13476962697E+04  0.80148868496E+02 0.  0.
          5    1    3    3  501    0 -0.10436421047E+02  0.73845457523E+02 -0.24959408202E+03  0.26054052710E+03  0.47000000000E+01 0. -1.
        -11    1    4    4    0    0 -0.90714993759E+01  0.31241717565E+02 -0.28995957463E+02  0.43578693951E+02  0.00000000000E+00 0.  1.
         12    1    4    4    0    0  0.95358903894E+02  0.30075725670E+02 -0.11419293120E+03  0.15178239477E+03  0.00000000000E+00 0. -1.
         -5    1    5    5    0  503 -0.21908408597E+02  0.29701174667E+02 -0.16234641270E+03  0.16655505354E+03  0.47000000000E+01 0.  1.
         11    1    6    6    0    0 -0.48421589135E+02 -0.12839603415E+03 -0.74986081883E+03  0.76231321613E+03  0.00000000000E+00 0. -1.
        -12    1    6    6    0    0 -0.55209857393E+01 -0.36468041277E+02 -0.58421992446E+03  0.58538305361E+03  0.00000000000E+00 0.  1.
</event>
<event>
12    1  0.8798177E-003  0.1832854E+03  0.7818608E-02  0.1167126E+00
         21   -1    0    0  503  502  0.00000000000E+00  0.00000000000E+00  0.22674650041E+03  0.22674650041E+03  0.00000000000E+00 0. -1.
         21   -1    0    0  501  503 -0.00000000000E+00 -0.00000000000E+00 -0.19618042834E+03  0.19618042834E+03  0.00000000000E+00 0.  1.
          6    2    1    2  501    0 -0.13360143187E+02  0.62340457967E+02 -0.98068746623E+02  0.19900624973E+03  0.16100056597E+03 0.  0.
         24    2    3    3    0    0  0.52654362677E+02  0.37781912666E+02 -0.48303397510E+02  0.11263659589E+03  0.78446349119E+02 0.  0.
         -6    2    1    2    0  502  0.13360143187E+02 -0.62340457967E+02  0.12863481870E+03  0.22392067902E+03  0.17183924984E+03 0.  0.
        -24    2    5    5    0    0  0.46241389546E+02 -0.14174209979E+02  0.13629405895E+03  0.16491290183E+03  0.79252888590E+02 0.  0.
          5    1    3    3  501    0 -0.66014505864E+02  0.24558545301E+02 -0.49765349114E+02  0.86369653839E+02  0.47000000000E+01 0. -1.
        -13    1    4    4    0    0 -0.11702211392E+02  0.27320729497E+02 -0.35309309777E+02  0.46153129565E+02  0.00000000000E+00 0.  1.
         14    1    4    4    0    0  0.64356574069E+02  0.10461183169E+02 -0.12994087733E+02  0.66483466330E+02  0.00000000000E+00 0. -1.
         -5    1    5    5    0  502 -0.32881246359E+02 -0.48166247988E+02 -0.76592402518E+01  0.59007777187E+02  0.47000000000E+01 0.  1.
         13    1    6    6    0    0 -0.17617743079E+02 -0.18749837625E+02  0.21746123114E+02  0.33687314417E+02  0.00000000000E+00 0. -1.
        -14    1    6    6    0    0  0.63859132626E+02  0.45756276455E+01  0.11454793584E+03  0.13122558741E+03  0.00000000000E+00 0.  1.
</event>
<event>
12    1  0.8798177E-003  0.2366616E+03  0.7818608E-02  0.1122051E+00
         21   -1    0    0  503  502  0.00000000000E+00  0.00000000000E+00  0.35127168799E+02  0.35127168799E+02  0.00000000000E+00 0.  1.
         21   -1    0    0  501  503 -0.00000000000E+00 -0.00000000000E+00 -0.15948579271E+04  0.15948579271E+04  0.00000000000E+00 0. -1.
          6    2    1    2  501    0 -0.14362889268E+03 -0.76316459903E+02 -0.80014384617E+03  0.83440929117E+03  0.17191634524E+03 0.  0.
         24    2    3    3    0    0 -0.21843114647E+02 -0.55732075321E+02 -0.23192504211E+03  0.25290246240E+03  0.81161841111E+02 0.  0.
         -6    2    1    2    0  502  0.14362889268E+03  0.76316459903E+02 -0.75958691215E+03  0.79557580474E+03  0.17179965985E+03 0.  0.
        -24    2    5    5    0    0  0.58908501699E+02 -0.19798403759E+02 -0.24182681358E+03  0.26217799698E+03  0.79968155960E+02 0.  0.
          5    1    3    3  501    0 -0.12178577804E+03 -0.20584384582E+02 -0.56821880406E+03  0.58150682877E+03  0.47000000000E+01 0. -1.
        -11    1    4    4    0    0  0.44385491533E+01 -0.19698322479E+02 -0.39110239505E+01  0.20567467890E+02  0.00000000000E+00 0.  1.
         12    1    4    4    0    0 -0.26281663800E+02 -0.36033752842E+02 -0.22801401816E+03  0.23233499451E+03  0.00000000000E+00 0. -1.
         -5    1    5    5    0  502  0.84720390983E+02  0.96114863662E+02 -0.51776009856E+03  0.53339780776E+03  0.47000000000E+01 0.  1.
         11    1    6    6    0    0  0.66956449874E+02  0.12119510273E+02 -0.15301661121E+03  0.16746382300E+03  0.00000000000E+00 0. -1.
        -12    1    6    6    0    0 -0.80479481751E+01 -0.31917914032E+02 -0.88810202372E+02  0.94714173973E+02  0.00000000000E+00 0.  1.
</event>
<event>
12    1  0.8798177E-003  0.1854270E+03  0.7818608E-02  0.1163121E+00
         21   -1    0    0  501  502  0.00000000000E+00  0.00000000000E+00  0.17095487367E+03  0.17095487367E+03  0.00000000000E+00 0. -1.
         21   -1    0    0  502  503 -0.00000000000E+00 -0.00000000000E+00 -0.24158576842E+03  0.24158576842E+03  0.00000000000E+00 0.  1.
          6    2    1    2  501    0  0.57569744520E+02 -0.36261385514E+02  0.51173760719E+02  0.19235888542E+03  0.17249354611E+03 0.  0.
         24    2    3    3    0    0  0.98931610221E+02 -0.46201989740E+02  0.61040117830E+02  0.14843788191E+03  0.79911334894E+02 0.  0.
         -6    2    1    2    0  503 -0.57569744520E+02  0.36261385514E+02 -0.12180465548E+03  0.22018175667E+03  0.17033633878E+03 0.  0.
        -24    2    5    5    0    0 -0.33082094508E+02  0.88570961630E+02 -0.60941711851E+02  0.13614411829E+03  0.76694774800E+02 0.  0.
          5    1    3    3  501    0 -0.41361865701E+02  0.99406042265E+01 -0.98663571109E+01  0.43921003510E+02  0.47000000000E+01 0. -1.
        -11    1    4    4    0    0  0.24565058232E+02 -0.24018489746E+02 -0.17041709088E+02  0.38350355726E+02  0.00000000000E+00 0.  1.
         12    1    4    4    0    0  0.74366551989E+02 -0.22183499994E+02  0.78081826918E+02  0.11008752619E+03  0.00000000000E+00 0. -1.
         -5    1    5    5    0  503 -0.24487650012E+02 -0.52309576117E+02 -0.60862943628E+02  0.84037638375E+02  0.47000000000E+01 0.  1.
         11    1    6    6    0    0 -0.53607060193E+02  0.85594006218E+02 -0.49975469324E+02  0.11268362054E+03  0.00000000000E+00 0. -1.
        -12    1    6    6    0    0  0.20524965685E+02  0.29769554122E+01 -0.10966242527E+02  0.23460497758E+02  0.00000000000E+00 0.  1.
</event>
<event>
12    1  0.8798177E-003  0.1958810E+03  0.7818608E-02  0.1154298E+00
         21   -1    0    0  501  502  0.00000000000E+00  0.00000000000E+00  0.60708750442E+03  0.60708750442E+03  0.00000000000E+00 0.  1.
         21   -1    0    0  502  503 -0.00000000000E+00 -0.00000000000E+00 -0.66091917483E+02  0.66091917483E+02  0.00000000000E+00 0.  1.
          6    2    1    2  501    0 -0.68801971479E+02  0.55819073259E+02  0.35429936580E+03  0.40257852565E+03  0.16938697851E+03 0.  0.
         24    2    3    3    0    0 -0.11195019157E+03  0.41482291040E+02  0.23776643983E+03  0.27740135098E+03  0.78517537894E+02 0.  0.
         -6    2    1    2    0  503  0.68801971479E+02 -0.55819073259E+02  0.18669622114E+03  0.27060089625E+03  0.17469941570E+03 0.  0.
        -24    2    5    5    0    0  0.21616931178E+02 -0.88117972408E+02  0.17389010465E+03  0.21181540881E+03  0.79974559328E+02 0.  0.
          5    1    3    3  501    0  0.43148220092E+02  0.14336782219E+02  0.11653292597E+03  0.12517717467E+03  0.47000000000E+01 0. -1.
        -11    1    4    4    0    0 -0.40641483721E+02 -0.58604104072E+01  0.14706407001E+03  0.15268894949E+03  0.00000000000E+00 0.  1.
         12    1    4    4    0    0 -0.71308707849E+02  0.47342701447E+02  0.90702369819E+02  0.12471240149E+03  0.00000000000E+00 0. -1.
         -5    1    5    5    0  503  0.47185040301E+02  0.32298899149E+02  0.12806116487E+02  0.58785487443E+02  0.47000000000E+01 0.  1.
         13    1    6    6    0    0  0.26592816269E+02  0.54871838561E+01  0.36413335592E+02  0.45422660344E+02  0.00000000000E+00 0. -1.
        -14    1    6    6    0    0 -0.49758850915E+01 -0.93605156264E+02  0.13747676906E+03  0.16639274847E+03  0.00000000000E+00 0.  1.
</event>
<event>
12    1  0.8798177E-003  0.3101111E+03  0.7818608E-02  0.1080381E+00
         21   -1    0    0  503  502  0.00000000000E+00  0.00000000000E+00  0.49859509612E+03  0.49859509612E+03  0.00000000000E+00 0.  1.
         21   -1    0    0  501  503 -0.00000000000E+00 -0.00000000000E+00 -0.19507342102E+03  0.19507342102E+03  0.00000000000E+00 0.  1.
          6    2    1    2  501    0 -0.19000114356E+03  0.17338449806E+03  0.19236079126E+03  0.36492681617E+03  0.17322323292E+03 0.  0.
         24    2    3    3    0    0 -0.18190479937E+03  0.18289030623E+03  0.12781308447E+03  0.29901469566E+03  0.80841718888E+02 0.  0.
         -6    2    1    2    0  502  0.19000114356E+03 -0.17338449806E+03  0.11116088384E+03  0.32874170097E+03  0.17190621030E+03 0.  0.
        -24    2    5    5    0    0  0.13356845043E+03 -0.19171656994E+03  0.69671783473E+02  0.25618724444E+03  0.78625521699E+02 0.  0.
          5    1    3    3  501    0 -0.80963441827E+01 -0.95058081685E+01  0.64547706785E+02  0.65912120504E+02  0.47000000000E+01 0. -1.
        -13    1    4    4    0    0 -0.15041631543E+03  0.98198055235E+02  0.91978439215E+02  0.20181169262E+03  0.00000000000E+00 0.  1.
         14    1    4    4    0    0 -0.31488483946E+02  0.84692250991E+02  0.35834645260E+02  0.97203003040E+02  0.00000000000E+00 0. -1.
         -5    1    5    5    0  502  0.56432693120E+02  0.18332071879E+02  0.41489100370E+02  0.72554456525E+02  0.47000000000E+01 0.  1.
         13    1    6    6    0    0  0.30303963101E+02 -0.43634568993E+02 -0.17201124084E+02  0.55840706126E+02  0.00000000000E+00 0. -1.
        -14    1    6    6    0    0  0.10326448733E+03 -0.14808200094E+03  0.86872907557E+02  0.20034653832E+03  0.00000000000E+00 0.  1.
</event>
<event>
12    1  0.8798177E-003  0.1738225E+03  0.7818608E-02  0.1174205E+00
         21   -1    0    0  503  502  0.00000000000E+00  0.00000000000E+00  0.93373059571E+02  0.93373059571E+02  0.00000000000E+00 0. -1.
         21   -1    0    0  501  503 -0.00000000000E+00 -0.00000000000E+00 -0.33066249310E+03  0.33066249310E+03  0.00000000000E+00 0. -1.
          6    2    1    2  501    0  0.58087541698E+01 -0.21484462478E+02 -0.83724495757E+02  0.19293534378E+03  0.17239179777E+03 0.  0.
         24    2    3    3    0    0  0.18317622346E+02  0.52643138756E+02 -0.37117963068E+02  0.10435977189E+03  0.80039886677E+02 0.  0.
         -6    2    1    2    0  502 -0.58087541698E+01  0.21484462478E+02 -0.15356493777E+03  0.23110020888E+03  0.17125943093E+03 0.  0.
        -24    2    5    5    0    0 -0.16426900353E+02  0.74821399915E+02 -0.72696761701E+02  0.13353317642E+03  0.81720285746E+02 0.  0.
          5    1    3    3  501    0 -0.12508868176E+02 -0.74127601234E+02 -0.46606532689E+02  0.88575571898E+02  0.47000000000E+01 0. -1.
        -13    1    4    4    0    0 -0.26044528651E+02  0.44870896586E+02 -0.14011601822E+02  0.53740485843E+02  0.00000000000E+00 0.  1.
         14    1    4    4    0    0  0.44362150997E+02  0.77722421704E+01 -0.23106361246E+02  0.50619286043E+02  0.00000000000E+00 0. -1.
         -5    1    5    5    0  502  0.10618146183E+02 -0.53336937436E+02 -0.80868176065E+02  0.97567032463E+02  0.47000000000E+01 0.  1.
         11    1    6    6    0    0  0.43142417488E+01 -0.12068854902E+01  0.14985349102E+02  0.15640650311E+02  0.00000000000E+00 0. -1.
        -12    1    6    6    0    0 -0.20741142102E+02  0.76028285405E+02 -0.87682110803E+02  0.11789252611E+03  0.00000000000E+00 0.  1.
</event>
<event>
12    1  0.8798177E-003  0.1951542E+03  0.7818608E-02  0.1154460E+00
         21   -1    0    0  503  502  0.00000000000E+00  0.00000000000E+00  0.37583982508E+03  0.37583982508E+03  0.00000000000E+00 0. -1.
         21   -1    0    0  501  503 -0.00000000000E+00 -0.00000000000E+00 -0.10243853234E+03  0.10243853234E+03  0.00000000000E+00 0. -1.
          6    2    1    2  501    0 -0.90378765551E+01 -0.87918999003E+02  0.17451510550E+03  0.26180275622E+03  0.17399346975E+03 0.  0.
         24    2    3    3    0    0 -0.24501131242E+02 -0.77956457432E+02  0.32979086120E+02  0.11899904736E+03  0.79972735757E+02 0.  0.
         -6    2    1    2    0  502  0.90378765551E+01  0.87918999003E+02  0.98886187232E+02  0.21647560120E+03  0.17108995965E+03 0.  0.
        -24    2    5    5    0    0 -0.21124664964E+02  0.11698209704E+03  0.97632532619E+02  0.17430802802E+03  0.81976305789E+02 0.  0.
          5    1    3    3  501    0  0.15463254686E+02 -0.99625415704E+01  0.14153601938E+03  0.14280370886E+03  0.47000000000E+01 0. -1.
        -11    1    4    4    0    0 -0.60555663684E+01 -0.88512009371E+02  0.12698922580E+02  0.89623146127E+02  0.00000000000E+00 0.  1.
         12    1    4    4    0    0 -0.18445564873E+02  0.10555551939E+02  0.20280163540E+02  0.29375901236E+02  0.00000000000E+00 0. -1.
         -5    1    5    5    0  502  0.30162541519E+02 -0.29063098033E+02  0.12536546136E+01  0.42167573182E+02  0.47000000000E+01 0.  1.
         13    1    6    6    0    0 -0.39089876908E+01 -0.40287658847E+01 -0.99842935916E+01  0.11454137150E+02  0.00000000000E+00 0. -1.
        -14    1    6    6    0    0 -0.17215677273E+02  0.12101086292E+03  0.10761682621E+03  0.16285389087E+03  0.00000000000E+00 0.  1.
</event>
<event>
12    1  0.8798177E-003  0.1846303E+03  0.7818608E-02  0.1164351E+00
         21   -1    0    0  503  502  0.00000000000E+00  0.00000000000E+00  0.14166780973E+02  0.14166780973E+02  0.00000000000E+00 0.  1.
         21   -1    0    0  501  503 -0.00000000000E+00 -0.00000000000E+00 -0.25135840468E+04  0.25135840468E+04  0.00000000000E+00 0.  1.
          6    2    1    2  501    0 -0.27735078472E+02 -0.56410346719E+02 -0.15811116277E+04  0.15918550010E+04  0.17360012476E+03 0.  0.
         24    2    3    3    0    0  0.32108194693E+02 -0.45098108926E+01 -0.11615473378E+04  0.11648524644E+04  0.81472518413E+02 0.  0.
         -6    2    1    2    0  502  0.27735078472E+02  0.56410346719E+02 -0.91830563816E+03  0.93589582675E+03  0.16930561619E+03 0.  0.
        -24    2    5    5    0    0 -0.22007112840E+02  0.15124650434E+02 -0.76351459402E+03  0.76808297964E+03  0.79270803290E+02 0.  0.
          5    1    3    3  501    0 -0.59843273165E+02 -0.51900535826E+02 -0.41956428988E+03  0.42700253665E+03  0.47000000000E+01 0. -1.
        -13    1    4    4    0    0  0.30976813506E+02 -0.18884499399E+02 -0.11246903944E+04  0.11252753754E+04  0.00000000000E+00 0.  1.
         14    1    4    4    0    0  0.11313811869E+01  0.14374688507E+02 -0.36856943439E+02  0.39577088987E+02  0.00000000000E+00 0. -1.
         -5    1    5    5    0  502  0.49742191312E+02  0.41285696285E+02 -0.15479104413E+03  0.16781284712E+03  0.47000000000E+01 0.  1.
         13    1    6    6    0    0 -0.41608864756E+02 -0.11963226433E+02 -0.27117876357E+03  0.27461307002E+03  0.00000000000E+00 0. -1.
        -14    1    6    6    0    0  0.19601751916E+02  0.27087876866E+02 -0.49233583045E+03  0.49346990962E+03  0.00000000000E+00 0.  1.
</event>
<event>
12    1  0.8798177E-003  0.2916539E+03  0.7818608E-02  0.1089571E+00
         21   -1    0    0  503  502  0.00000000000E+00  0.00000000000E+00  0.11432334219E+03  0.11432334219E+03  0.00000000000E+00 0.  1.
         21   -1    0    0  501  503 -0.00000000000E+00 -0.00000000000E+00 -0.80797843586E+03  0.80797843586E+03  0.00000000000E+00 0.  1.
          6    2    1    2  501    0 -0.20005259210E+03 -0.12500603857E+03 -0.47852063780E+03  0.56039626346E+03  0.17150633228E+03 0.  0.
         24    2    3    3    0    0 -0.55917880569E+02 -0.10243401865E+03 -0.18499457000E+03  0.23257931205E+03  0.79060786244E+02 0.  0.
         -6    2    1    2    0  502  0.20005259210E+03  0.12500603857E+03 -0.21513445587E+03  0.36190551459E+03  0.17042657686E+03 0.  0.
        -24    2    5    5    0    0  0.47904697620E+02  0.93976004455E+02 -0.70132939520E+02  0.14939816282E+03  0.79213839574E+02 0.  0.
          5    1    3    3  501    0 -0.14413471153E+03 -0.22572019930E+02 -0.29352606780E+03  0.32781695141E+03  0.47000000000E+01 0. -1.
        -11    1    4    4    0    0  0.12879318462E+02 -0.31060433104E+02 -0.17397519964E+02  0.37858962606E+02  0.00000000000E+00 0.  1.
         12    1    4    4    0    0 -0.68797199030E+02 -0.71373585541E+02 -0.16759705004E+03  0.19472034945E+03  0.00000000000E+00 0. -1.
         -5    1    5    5    0  502  0.15214789448E+03  0.31030034120E+02 -0.14500151635E+03  0.21250735177E+03  0.47000000000E+01 0.  1.
         11    1    6    6    0    0 -0.12932995536E+02  0.19919113156E+02 -0.44092472974E+02  0.50081729357E+02  0.00000000000E+00 0. -1.
        -12    1    6    6    0    0  0.60837693155E+02  0.74056891299E+02 -0.26040466546E+02  0.99316433460E+02  0.00000000000E+00 0.  1.
</event>
<event>
12    1  0.8798177E-003  0.1812475E+03  0.7818608E-02  0.1166632E+00
         21   -1    0    0  503  502  0.00000000000E+00  0.00000000000E+00  0.71459855871E+02  0.71459855871E+02  0.00000000000E+00 0. -1.
         21   -1    0    0  501  503 -0.00000000000E+00 -0.00000000000E+00 -0.49324454785E+03  0.49324454785E+03  0.00000000000E+00 0. -1.
          6    2    1    2  501    0 -0.47580394482E+02 -0.28996972370E+02 -0.13697782196E+03  0.22718620606E+03  0.17247008486E+03 0.  0.
         24    2    3    3    0    0 -0.67117823658E+02  0.28394823036E+02 -0.12419845445E+03  0.16504981131E+03  0.80654298695E+02 0.  0.
         -6    2    1    2    0  502  0.47580394482E+02  0.28996972370E+02 -0.28480687002E+03  0.33751819766E+03  0.17233357825E+03 0.  0.
        -24    2    5    5    0    0  0.51975746064E+02 -0.74014249950E+01 -0.66133863064E+02  0.11574322969E+03  0.79161531716E+02 0.  0.
          5    1    3    3  501    0  0.19537429175E+02 -0.57391795406E+02 -0.12779367501E+02  0.62136394749E+02  0.47000000000E+01 0. -1.
        -13    1    4    4    0    0  0.15945227583E+02  0.15400068702E+02 -0.13181757749E+02  0.25790911888E+02  0.00000000000E+00 0.  1.
         14    1    4    4    0    0 -0.83063051240E+02  0.12994754334E+02 -0.11101669671E+03  0.13925889942E+03  0.00000000000E+00 0. -1.
         -5    1    5    5    0  502 -0.43953515817E+01  0.36398397365E+02 -0.21867300696E+03  0.22177496797E+03  0.47000000000E+01 0.  1.
         13    1    6    6    0    0  0.45494562617E+02 -0.16271181651E+02 -0.82750542605E+02  0.95823582074E+02  0.00000000000E+00 0. -1.
        -14    1    6    6    0    0  0.64811834471E+01  0.88697566559E+01  0.16616679542E+02  0.19919647612E+02  0.00000000000E+00 0.  1.
</event>
<event>
12    1  0.8798177E-003  0.2587437E+03  0.7818608E-02  0.1108009E+00
         21   -1    0    0  503  502  0.00000000000E+00  0.00000000000E+00  0.57125406138E+03  0.57125406138E+03  0.00000000000E+00 0. -1.
         21   -1    0    0  501  503 -0.00000000000E+00 -0.00000000000E+00 -0.17335534212E+03  0.17335534212E+03  0.00000000000E+00 0. -1.
          6    2    1    2  501    0  0.66614210765E+02 -0.18159933799E+03 -0.13755755240E+02  0.25839164356E+03  0.17076664787E+03 0.  0.
         24    2    3    3    0    0  0.10913516372E+03 -0.11131947860E+03 -0.18829101754E+01  0.17526316152E+03  0.80069470831E+02 0.  0.
         -6    2    1    2    0  502 -0.66614210765E+02  0.18159933799E+03  0.41165447450E+03  0.48621775994E+03  0.17185031589E+03 0.  0.
        -24    2    5    5    0    0 -0.37229491291E+02  0.16008571386E+03  0.41155636702E+03  0.44949722908E+03  0.75204021890E+02 0.  0.
          5    1    3    3  501    0 -0.42520952954E+02 -0.70279859392E+02 -0.11872845065E+02  0.83128482040E+02  0.47000000000E+01 0. -1.
        -11    1    4    4    0    0  0.11244337503E+03 -0.12024119803E+03 -0.63582250276E+01  0.16474794480E+03  0.00000000000E+00 0.  1.
         12    1    4    4    0    0 -0.33082113059E+01  0.89217194289E+01  0.44753148522E+01  0.10515216719E+02  0.00000000000E+00 0. -1.
         -5    1    5    5    0  502 -0.29384719475E+02  0.21513624130E+02  0.98107479593E-01  0.36720530864E+02  0.47000000000E+01 0.  1.
         11    1    6    6    0    0 -0.42145430325E+02  0.88232109151E+02  0.15710043116E+03  0.18504509681E+03  0.00000000000E+00 0. -1.
        -12    1    6    6    0    0  0.49159390348E+01  0.71853604712E+02  0.25445593586E+03  0.26445213227E+03  0.00000000000E+00 0.  1.
</event>
<event>
12    1  0.8798177E-003  0.1753480E+03  0.7818608E-02  0.1174590E+00
         21   -1    0    0  503  502  0.00000000000E+00  0.00000000000E+00  0.36715892580E+03  0.36715892580E+03  0.00000000000E+00 0. -1.
         21   -1    0    0  501  503 -0.00000000000E+00 -0.00000000000E+00 -0.85790283290E+02  0.85790283290E+02  0.00000000000E+00 0. -1.
          6    2    1    2  501    0  0.20738662985E+02  0.22197186564E+02  0.83613131565E+02  0.19426292056E+03  0.17269661056E+03 0.  0.
         24    2    3    3    0    0  0.73196199633E+02 -0.17111172484E+02  0.50908507180E+02  0.12085568182E+03  0.79774330842E+02 0.  0.
         -6    2    1    2    0  502 -0.20738662985E+02 -0.22197186564E+02  0.19775551094E+03  0.25868628853E+03  0.16397727444E+03 0.  0.
        -24    2    5    5    0    0 -0.49348883442E+02 -0.21286572014E+02  0.49303608375E+02  0.10742680516E+03  0.78874851652E+02 0.  0.
          5    1    3    3  501    0 -0.52457536648E+02  0.39308359049E+02  0.32704624385E+02  0.73407238734E+02  0.47000000000E+01 0. -1.
        -13    1    4    4    0    0  0.75527382195E+02 -0.10747012677E+02  0.68171709092E+02  0.10230965577E+03  0.00000000000E+00 0.  1.
         14    1    4    4    0    0 -0.23311825624E+01 -0.63641598074E+01 -0.17263201913E+02  0.18546026056E+02  0.00000000000E+00 0. -1.
         -5    1    5    5    0  502  0.28610220457E+02 -0.91061455010E+00  0.14845190257E+03  0.15125948337E+03  0.47000000000E+01 0.  1.
         11    1    6    6    0    0 -0.39995934576E+02 -0.32550917666E+02  0.66943440612E+02  0.84502433483E+02  0.00000000000E+00 0. -1.
        -12    1    6    6    0    0 -0.93529488660E+01  0.11264345652E+02 -0.17639832237E+02  0.22924371677E+02  0.00000000000E+00 0.  1.
</event>
<event>
12    1  0.8798177E-003  0.1901810E+03  0.7818608E-02  0.1159086E+00
         21   -1    0    0  501  502  0.00000000000E+00  0.00000000000E+00  0.12737115999E+03  0.12737115999E+03  0.00000000000E+00 0.  1.
         21   -1    0    0  502  503 -0.00000000000E+00 -0.00000000000E+00 -0.28352448674E+03  0.28352448674E+03  0.00000000000E+00 0.  1.
          6    2    1    2  501    0 -0.67343822938E+02  0.34152539356E+02 -0.52300171078E+02  0.19724129172E+03  0.17454865463E+03 0.  0.
         24    2    3    3    0    0 -0.15088794772E+01 -0.24506189963E+02  0.16223334260E+02  0.85470780896E+02  0.80244798889E+02 0.  0.
         -6    2    1    2    0  503  0.67343822938E+02 -0.34152539356E+02 -0.10385315567E+03  0.21365435501E+03  0.17076627021E+03 0.  0.
        -24    2    5    5    0    0  0.39696786257E+02 -0.12881383971E+02  0.13683615016E+02  0.90960414035E+02  0.79654194550E+02 0.  0.
          5    1    3    3  501    0 -0.65834943460E+02  0.58658729319E+02 -0.68523505338E+02  0.11177051082E+03  0.47000000000E+01 0. -1.
        -13    1    4    4    0    0 -0.22141692495E+02  0.21184746033E+02 -0.49651369725E+01  0.31043527444E+02  0.00000000000E+00 0.  1.
         14    1    4    4    0    0  0.20632813017E+02 -0.45690935996E+02  0.21188471232E+02  0.54427253452E+02  0.00000000000E+00 0. -1.
         -5    1    5    5    0  503  0.27647036680E+02 -0.21271155385E+02 -0.11753677069E+03  0.12269394098E+03  0.47000000000E+01 0.  1.
         11    1    6    6    0    0  0.57187342631E+02 -0.29451151028E+02  0.24368757618E+01  0.64371583929E+02  0.00000000000E+00 0. -1.
        -12    1    6    6    0    0 -0.17490556374E+02  0.16569767057E+02  0.11246739254E+02  0.26588830106E+02  0.00000000000E+00 0.  1.
</event>
<event>
12    1  0.8798177E-003  0.2058030E+03  0.7818608E-02  0.1144941E+00
         21   -1    0    0  501  502  0.00000000000E+00  0.00000000000E+00  0.26850122248E+03  0.26850122248E+03  0.00000000000E+00 0. -1.
         21   -1    0    0  502  503 -0.00000000000E+00 -0.00000000000E+00 -0.19642089762E+03  0.19642089762E+03  0.00000000000E+00 0. -1.
          6    2    1    2  501    0 -0.97581484141E+02  0.53414463443E+02  0.13923446825E+03  0.24847757464E+03  0.17314623009E+03 0.  0.
         24    2    3    3    0    0 -0.18359280425E+02  0.29897329688E+02  0.14059738997E+03  0.16569375558E+03  0.80348497632E+02 0.  0.
         -6    2    1    2    0  503  0.97581484141E+02 -0.53414463443E+02 -0.67154143393E+02  0.21644454546E+03  0.17309913730E+03 0.  0.
        -24    2    5    5    0    0  0.28673625354E+02 -0.16037918068E+02 -0.98636777958E+02  0.13183635776E+03  0.81069227548E+02 0.  0.
          5    1    3    3  501    0 -0.79222203716E+02  0.23517133755E+02 -0.13629217176E+01  0.82783819055E+02  0.47000000000E+01 0. -1.
        -11    1    4    4    0    0  0.24127062996E+02  0.12670947527E+02  0.13164790395E+02  0.30265157957E+02  0.00000000000E+00 0.  1.
         12    1    4    4    0    0 -0.42486343421E+02  0.17226382161E+02  0.12743259958E+03  0.13542859763E+03  0.00000000000E+00 0. -1.
         -5    1    5    5    0  503  0.68907858786E+02 -0.37376545375E+02  0.31482634565E+02  0.84608187700E+02  0.47000000000E+01 0.  1.
         13    1    6    6    0    0 -0.11793938205E+02 -0.39127691825E+02 -0.44851825691E+02  0.60677504182E+02  0.00000000000E+00 0. -1.
        -14    1    6    6    0    0  0.40467563560E+02  0.23089773756E+02 -0.53784952267E+02  0.71158853581E+02  0.00000000000E+00 0.  1.
</event>
<event>
12    1  0.8798177E-003  0.1734589E+03  0.7818608E-02  0.1175908E+00
         21   -1    0    0  501  502  0.00000000000E+00  0.00000000000E+00  0.14069680484E+03  0.14069680484E+03  0.00000000000E+00 0.  1.
         21   -1    0    0  502  503 -0.00000000000E+00 -0.00000000000E+00 -0.20755966336E+03  0.20755966336E+03  0.00000000000E+00 0.  1.
          6    2    1    2  501    0 -0.13061398597E+02 -0.14735422890E+02 -0.18774659758E+02  0.16825517575E+03  0.16604090910E+03 0.  0.
         24    2    3    3    0    0  0.39371349261E+01 -0.61447083108E+02  0.23965242230E+02  0.10253060984E+03  0.78402474864E+02 0.  0.
         -6    2    1    2    0  503  0.13061398597E+02  0.14735422890E+02 -0.48088198754E+02  0.18000129245E+03  0.17233762678E+03 0.  0.
        -24    2    5    5    0    0  0.55129161811E+01  0.52647028333E+02  0.23922960908E+02  0.98135753120E+02  0.79096246084E+02 0.  0.
          5    1    3    3  501    0 -0.16998533523E+02  0.46711660218E+02 -0.42739901988E+02  0.65724565911E+02  0.47000000000E+01 0. -1.
        -13    1    4    4    0    0  0.16277911806E+02 -0.39429389211E+02  0.50367850761E+02  0.66004299379E+02  0.00000000000E+00 0.  1.
         14    1    4    4    0    0 -0.12340776880E+02 -0.22017693896E+02 -0.26402608530E+02  0.36526310459E+02  0.00000000000E+00 0. -1.
         -5    1    5    5    0  503  0.75484824162E+01 -0.37911605443E+02 -0.72011159663E+02  0.81865539331E+02  0.47000000000E+01 0.  1.
         11    1    6    6    0    0  0.24890469947E+02  0.57965178005E+02 -0.45940726821E+01  0.63250319043E+02  0.00000000000E+00 0. -1.
        -12    1    6    6    0    0 -0.19377553766E+02 -0.53181496721E+01  0.28517033590E+02  0.34885434076E+02  0.00000000000E+00 0.  1.
</event>
<event>
12    1  0.8798177E-003  0.1969609E+03  0.7818608E-02  0.1152786E+00
         21   -1    0    0  501  502  0.00000000000E+00  0.00000000000E+00  0.77780268183E+02  0.77780268183E+02  0.00000000000E+00 0. -1.
         21   -1    0    0  502  503 -0.00000000000E+00 -0.00000000000E+00 -0.53589224013E+03  0.53589224013E+03  0.00000000000E+00 0. -1.
          6    2    1    2  501    0  0.82744375363E+02  0.34954168668E+02 -0.31657269424E+03  0.37284292725E+03  0.17528591529E+03 0.  0.
         24    2    3    3    0    0  0.95933689090E+02 -0.14343520496E+02 -0.13292600529E+03  0.18217983035E+03  0.78173898608E+02 0.  0.
         -6    2    1    2    0  503 -0.82744375363E+02 -0.34954168668E+02 -0.14153927770E+03  0.24082958106E+03  0.17290776275E+03 0.  0.
        -24    2    5    5    0    0  0.16608971819E+02 -0.30507006884E+02 -0.33020433241E+02  0.93556723932E+02  0.80349089401E+02 0.  0.
          5    1    3    3  501    0 -0.13189313728E+02  0.49297689164E+02 -0.18364668896E+03  0.19066309690E+03  0.47000000000E+01 0. -1.
        -13    1    4    4    0    0  0.33520666381E+02 -0.43557696520E+02 -0.68681167653E+02  0.87965963821E+02  0.00000000000E+00 0.  1.
         14    1    4    4    0    0  0.62413022710E+02  0.29214176024E+02 -0.64244837634E+02  0.94213866533E+02  0.00000000000E+00 0. -1.
         -5    1    5    5    0  503 -0.99353347182E+02 -0.44471617841E+01 -0.10851884446E+03  0.14727285713E+03  0.47000000000E+01 0.  1.
         11    1    6    6    0    0 -0.15171140107E+02 -0.38518108608E+02  0.68324716958E+01  0.41958203636E+02  0.00000000000E+00 0. -1.
        -12    1    6    6    0    0  0.31780111926E+02  0.80111017242E+01 -0.39852904937E+02  0.51598520296E+02  0.00000000000E+00 0.  1.
</event>
<event>
12    1  0.8798177E-003  0.2561610E+03  0.7818608E-02  0.1109565E+00
         21   -1    0    0  503  502  0.00000000000E+00  0.00000000000E+00  0.29960977875E+03  0.29960977875E+03  0.00000000000E+00 0.  1.
         21   -1    0    0  501  503 -0.00000000000E+00 -0.00000000000E+00 -0.37000568934E+03  0.37000568934E+03  0.00000000000E+00 0. -1.
          6    2    1    2  501    0 -0.40213571116E+02  0.18474915744E+03 -0.24946688191E+03  0.35756420905E+03  0.17282666445E+03 0.  0.
         24    2    3    3    0    0 -0.62634811118E+02  0.83794839594E+02 -0.65410377889E+02  0.14639277876E+03  0.78788536174E+02 0.  0.
         -6    2    1    2    0  502  0.40213571116E+02 -0.18474915744E+03  0.17907097132E+03  0.31205125904E+03  0.17193077973E+03 0.  0.
        -24    2    5    5    0    0  0.91382146778E+02 -0.15265114617E+03  0.13830247744E+03  0.23902615680E+03  0.79704825403E+02 0.  0.
          5    1    3    3  501    0  0.22421240002E+02  0.10095431785E+03 -0.18405650403E+03  0.21117143029E+03  0.47000000000E+01 0. -1.
        -13    1    4    4    0    0 -0.55600170298E+01  0.59049829692E+02 -0.59324038970E+02  0.83887649721E+02  0.00000000000E+00 0.  1.
         14    1    4    4    0    0 -0.57074794088E+02  0.24745009902E+02 -0.60863389185E+01  0.62505129043E+02  0.00000000000E+00 0. -1.
         -5    1    5    5    0  502 -0.51168575662E+02 -0.32098011268E+02  0.40768493886E+02  0.73025102235E+02  0.47000000000E+01 0.  1.
         11    1    6    6    0    0  0.69578946260E+02 -0.90376221458E+02  0.40472838236E+02  0.12102537669E+03  0.00000000000E+00 0. -1.
        -12    1    6    6    0    0  0.21803200518E+02 -0.62274924714E+02  0.97829639203E+02  0.11800078011E+03  0.00000000000E+00 0.  1.
</event>
<event>
12    1  0.8798177E-003  0.1899658E+03  0.7818608E-02  0.1158710E+00
         21   -1    0    0  503  502  0.00000000000E+00  0.00000000000E+00  0.26790586413E+03  0.26790586413E+03  0.00000000000E+00 0. -1.
         21   -1    0    0  501  503 -0.00000000000E+00 -0.00000000000E+00 -0.13490200804E+03  0.13490200804E+03  0.00000000000E+00 0.  1.
          6    2    1    2  501    0  0.75212938725E+02  0.16477217045E+02  0.50027361244E+02  0.19551075030E+03  0.17260716027E+03 0.  0.
         24    2    3    3    0    0  0.81717750210E+02  0.23644854763E+02 -0.30957876910E+02  0.11381383235E+03  0.68980638117E+02 0.  0.
         -6    2    1    2    0  502 -0.75212938725E+02 -0.16477217045E+02  0.82976494848E+02  0.20729712188E+03  0.17366206612E+03 0.  0.
        -24    2    5    5    0    0 -0.69601974190E+02 -0.60110064398E+02  0.10205963556E+03  0.15911450519E+03  0.80272049307E+02 0.  0.
          5    1    3    3  501    0 -0.65048114853E+01 -0.71676377188E+01  0.80985238155E+02  0.81696917946E+02  0.47000000000E+01 0. -1.
        -11    1    4    4    0    0  0.58752026212E+02  0.34480991716E+02  0.66377464743E+01  0.68445591910E+02  0.00000000000E+00 0.  1.
         12    1    4    4    0    0  0.22965723998E+02 -0.10836136952E+02 -0.37595623385E+02  0.45368240438E+02  0.00000000000E+00 0. -1.
         -5    1    5    5    0  502 -0.56109645348E+01  0.43632847354E+02 -0.19083140710E+02  0.48182616684E+02  0.47000000000E+01 0.  1.
         11    1    6    6    0    0  0.12510435206E+02 -0.14830429807E+01  0.36943624479E+02  0.39032573514E+02  0.00000000000E+00 0. -1.
        -12    1    6    6    0    0 -0.82112409396E+02 -0.58627021418E+02  0.65116011079E+02  0.12008193168E+03  0.00000000000E+00 0.  1.
</event>
<event>
12    1  0.8798177E-003  0.1785113E+03  0.7818608E-02  0.1169470E+00
         21   -1    0    0  501  502  0.00000000000E+00  0.00000000000E+00  0.63039296856E+03  0.63039296856E+03  0.00000000000E+00 0.  1.
         21   -1    0    0  502  503 -0.00000000000E+00 -0.00000000000E+00 -0.83699986017E+02  0.83699986017E+02  0.00000000000E+00 0.  1.
          6    2    1    2  501    0  0.93976578434E+01  0.46424688586E+02  0.47386456162E+02  0.18383519889E+03  0.17119093562E+03 0.  0.
         24    2    3    3    0    0 -0.16667433094E+02  0.87979657611E+02  0.54593262361E+02  0.13403326648E+03  0.83464176435E+02 0.  0.
         -6    2    1    2    0  503 -0.93976578434E+01 -0.46424688586E+02  0.49930652639E+03  0.53025775569E+03  0.17211249954E+03 0.  0.
        -24    2    5    5    0    0 -0.65254521273E+02 -0.54571145554E+01  0.23946055762E+03  0.26129614356E+03  0.81525353979E+02 0.  0.
          5    1    3    3  501    0  0.26065090937E+02 -0.41554969025E+02 -0.72068061994E+01  0.49801932411E+02  0.47000000000E+01 0. -1.
        -13    1    4    4    0    0  0.32239974026E+02  0.51964210751E+02  0.33562942750E+02  0.69757911739E+02  0.00000000000E+00 0.  1.
         14    1    4    4    0    0 -0.48907407120E+02  0.36015446860E+02  0.21030319611E+02  0.64275354738E+02  0.00000000000E+00 0. -1.
         -5    1    5    5    0  503  0.55856863429E+02 -0.40967574031E+02  0.25984596877E+03  0.26896161213E+03  0.47000000000E+01 0.  1.
         11    1    6    6    0    0 -0.59070347904E+02 -0.60354831727E+01  0.24553241876E+03  0.25261017739E+03  0.00000000000E+00 0. -1.
        -12    1    6    6    0    0 -0.61841733690E+01  0.57836861733E+00 -0.60718611476E+01  0.86859661703E+01  0.00000000000E+00 0.  1.
</event>
<event>
12    1  0.8798177E-003  0.2221576E+03  0.7818608E-02  0.1132590E+00
         21   -1    0    0  501  502  0.00000000000E+00  0.00000000000E+00  0.47802079256E+03  0.47802079256E+03  0.00000000000E+00 0. -1.
         21   -1    0    0  502  503 -0.00000000000E+00 -0.00000000000E+00 -0.11326272072E+03  0.11326272072E+03  0.00000000000E+00 0.  1.
          6    2    1    2  501    0 -0.15259639076E+02  0.13993424848E+03  0.90542144782E+02  0.23836937993E+03  0.16972810853E+03 0.  0.
         24    2    3    3    0    0 -0.32539190552E+02  0.15187807987E+03  0.34100686148E+02  0.17796270596E+03  0.79888158398E+02 0.  0.
         -6    2    1    2    0  503  0.15259639076E+02 -0.13993424848E+03  0.27421592706E+03  0.35291413334E+03  0.17187076649E+03 0.  0.
        -24    2    5    5    0    0 -0.43231344697E+02 -0.13135689745E+03  0.22630292954E+03  0.27667430474E+03  0.78816694379E+02 0.  0.
          5    1    3    3  501    0  0.17279551476E+02 -0.11943831386E+02  0.56441458634E+02  0.60406673971E+02  0.47000000000E+01 0. -1.
        -11    1    4    4    0    0 -0.52375341324E+02  0.10129952563E+03  0.41762691846E+00  0.11403922432E+03  0.00000000000E+00 0.  1.
         12    1    4    4    0    0  0.19836150772E+02  0.50578554238E+02  0.33683059229E+02  0.63923481643E+02  0.00000000000E+00 0. -1.
         -5    1    5    5    0  503  0.58490983773E+02 -0.85773510261E+01  0.47912997522E+02  0.76239828600E+02  0.47000000000E+01 0.  1.
         11    1    6    6    0    0 -0.14380956547E+02 -0.12839728979E+03  0.17209848480E+03  0.21519889500E+03  0.00000000000E+00 0. -1.
        -12    1    6    6    0    0 -0.28850388150E+02 -0.29596076630E+01  0.54204444731E+02  0.61475409739E+02  0.00000000000E+00 0.  1.
</event>
<event>
12    1  0.8798177E-003  0.2634966E+03  0.7818608E-02  0.1105211E+00
         21   -1    0    0  503  502  0.00000000000E+00  0.00000000000E+00  0.11503148469E+04  0.11503148469E+04  0.00000000000E+00 0.  1.
         21   -1    0    0  501  503 -0.00000000000E+00 -0.00000000000E+00 -0.68300458436E+02  0.68300458436E+02  0.00000000000E+00 0.  1.
          6    2    1    2  501    0  0.47814506328E+02  0.19252029015E+03  0.32928523338E+03  0.42109937662E+03  0.17188842583E+03 0.  0.
         24    2    3    3    0    0  0.80563874596E+02  0.18024095302E+03  0.22009555007E+03  0.30634842811E+03  0.80187088812E+02 0.  0.
         -6    2    1    2    0  502 -0.47814506328E+02 -0.19252029015E+03  0.75272915511E+03  0.79751592874E+03  0.17343640477E+03 0.  0.
        -24    2    5    5    0    0 -0.32011687602E+02 -0.16999711000E+03  0.39385179512E+03  0.43755471939E+03  0.80069534698E+02 0.  0.
          5    1    3    3  501    0 -0.32749368268E+02  0.12279337131E+02  0.10918968331E+03  0.11475094851E+03  0.47000000000E+01 0. -1.
        -13    1    4    4    0    0  0.65433607224E+02  0.18574495807E+03  0.20527423720E+03  0.28446486402E+03  0.00000000000E+00 0.  1.
         14    1    4    4    0    0  0.15130267372E+02 -0.55040050502E+01  0.14821312868E+02  0.21883564095E+02  0.00000000000E+00 0. -1.
         -5    1    5    5    0  502 -0.15802818726E+02 -0.22523180156E+02  0.35887735999E+03  0.35996120935E+03  0.47000000000E+01 0.  1.
         11    1    6    6    0    0 -0.44725957447E+01 -0.14625446371E+03  0.25477995634E+03  0.29380809795E+03  0.00000000000E+00 0. -1.
        -12    1    6    6    0    0 -0.27539091858E+02 -0.23742646291E+02  0.13907183878E+03  0.14374662144E+03  0.00000000000E+00 0.  1.
</event>
<event>
12    1  0.8798177E-003  0.1822071E+03  0.7818608E-02  0.1165687E+00
         21   -1    0    0  501  502  0.00000000000E+00  0.00000000000E+00  0.82210772183E+02  0.82210772183E+02  0.00000000000E+00 0.  1.
         21   -1    0    0  502  503 -0.00000000000E+00 -0.00000000000E+00 -0.45672664960E+03  0.45672664960E+03  0.00000000000E+00 0.  1.
          6    2    1    2  501    0  0.43427698532E+02 -0.39674777435E+02 -0.95538928607E+02  0.20573553229E+03  0.17245106379E+03 0.  0.
         24    2    3    3    0    0  0.89860521431E+02 -0.95023918987E+01 -0.88489558573E+02  0.14971621857E+03  0.80120754882E+02 0.  0.
         -6    2    1    2    0  503 -0.43427698532E+02  0.39674777435E+02 -0.27897694881E+03  0.33320188949E+03  0.17243928854E+03 0.  0.
        -24    2    5    5    0    0  0.35409975338E+01  0.76057013558E+02 -0.23084548522E+03  0.25659605876E+03  0.82186929314E+02 0.  0.
          5    1    3    3  501    0 -0.46432822899E+02 -0.30172385536E+02 -0.70493700348E+01  0.56019313716E+02  0.47000000000E+01 0. -1.
        -13    1    4    4    0    0  0.89070238117E+02 -0.23690497015E+01 -0.34971371112E+02  0.95718945419E+02  0.00000000000E+00 0.  1.
         14    1    4    4    0    0  0.79028331418E+00 -0.71333421971E+01 -0.53518187461E+02  0.53997273151E+02  0.00000000000E+00 0. -1.
         -5    1    5    5    0  503 -0.46968696066E+02 -0.36382236123E+02 -0.48131463588E+02  0.76605830735E+02  0.47000000000E+01 0.  1.
         11    1    6    6    0    0 -0.75670154293E+01 -0.26264935417E+01  0.37962043629E+01  0.88639358299E+01  0.00000000000E+00 0. -1.
        -12    1    6    6    0    0  0.11108012963E+02  0.78683507099E+02 -0.23464168958E+03  0.24773212293E+03  0.00000000000E+00 0.  1.
</event>
<event>
12    1  0.8798177E-003  0.2162534E+03  0.7818608E-02  0.1136782E+00
         21   -1    0    0  501  502  0.00000000000E+00  0.00000000000E+00  0.72213549150E+02  0.72213549150E+02  0.00000000000E+00 0.  1.
         21   -1    0    0  502  503 -0.00000000000E+00 -0.00000000000E+00 -0.67169202974E+03  0.67169202974E+03  0.00000000000E+00 0. -1.
          6    2    1    2  501    0 -0.66544304277E+02 -0.11408433970E+03 -0.22734615444E+03  0.31350109256E+03  0.17074331640E+03 0.  0.
         24    2    3    3    0    0 -0.71276502883E+02 -0.75079342950E+01 -0.83143574452E+02  0.13406475853E+03  0.76966204050E+02 0.  0.
         -6    2    1    2    0  503  0.66544304277E+02  0.11408433970E+03 -0.37213232615E+03  0.43040448633E+03  0.17123718257E+03 0.  0.
        -24    2    5    5    0    0  0.19523378859E+02  0.10225729262E+03 -0.13580368331E+03  0.18910764861E+03  0.80506808071E+02 0.  0.
          5    1    3    3  501    0  0.47321986062E+01 -0.10657640541E+03 -0.14420257999E+03  0.17943633403E+03  0.47000000000E+01 0. -1.
        -11    1    4    4    0    0 -0.42875094908E+02 -0.42217135867E+02 -0.51155567357E+02  0.78977543617E+02  0.00000000000E+00 0.  1.
         12    1    4    4    0    0 -0.28401407976E+02  0.34709201572E+02 -0.31988007095E+02  0.55087214911E+02  0.00000000000E+00 0. -1.
         -5    1    5    5    0  503  0.47020925418E+02  0.11827047082E+02 -0.23632864284E+03  0.24129683773E+03  0.47000000000E+01 0.  1.
         13    1    6    6    0    0 -0.43927381989E+01  0.49719722183E+02 -0.11891062152E+03  0.12896155564E+03  0.00000000000E+00 0. -1.
        -14    1    6    6    0    0  0.23916117058E+02  0.52537570438E+02 -0.16893061787E+02  0.60146092967E+02  0.00000000000E+00 0.  1.
</event>
<event>
12    1  0.8798177E-003  0.2175371E+03  0.7818608E-02  0.1135890E+00
         21   -1    0    0  501  502  0.00000000000E+00  0.00000000000E+00  0.60886316978E+03  0.60886316978E+03  0.00000000000E+00 0. -1.
         21   -1    0    0  502  503 -0.00000000000E+00 -0.00000000000E+00 -0.87886558170E+02  0.87886558170E+02  0.00000000000E+00 0. -1.
          6    2    1    2  501    0 -0.15982273090E+02  0.13138416702E+03  0.38111059620E+03  0.43882534920E+03  0.17264173358E+03 0.  0.
         24    2    3    3    0    0 -0.82543809338E+01 -0.55899748594E+01  0.14467535350E+03  0.16542939120E+03  0.79602405371E+02 0.  0.
         -6    2    1    2    0  503  0.15982273090E+02 -0.13138416702E+03  0.13986601541E+03  0.25792437874E+03  0.17159618436E+03 0.  0.
        -24    2    5    5    0    0  0.66746321156E+02 -0.85518028504E+02  0.13138334325E+03  0.18882490722E+03  0.81393231376E+02 0.  0.
          5    1    3    3  501    0 -0.77278921565E+01  0.13697414188E+03  0.23643524270E+03  0.27339595800E+03  0.47000000000E+01 0. -1.
        -13    1    4    4    0    0 -0.24762418256E+02  0.50759444280E+01  0.68215528132E+01  0.26181599503E+02  0.00000000000E+00 0.  1.
         14    1    4    4    0    0  0.16508037323E+02 -0.10665919287E+02  0.13785380068E+03  0.13924779170E+03  0.00000000000E+00 0. -1.
         -5    1    5    5    0  503 -0.50764048065E+02 -0.45866138516E+02  0.84826721567E+01  0.69099471527E+02  0.47000000000E+01 0.  1.
         11    1    6    6    0    0  0.51003565138E+02 -0.85412936286E+02  0.60983836483E+02  0.11668659586E+03  0.00000000000E+00 0. -1.
        -12    1    6    6    0    0  0.15742756017E+02 -0.10509221757E+00  0.70399506771E+02  0.72138311354E+02  0.00000000000E+00 0.  1.
</event>
<event>
12    1  0.8798177E-003  0.1832638E+03  0.7818608E-02  0.1164737E+00
         21   -1    0    0  501  502  0.00000000000E+00  0.00000000000E+00  0.97999305293E+03  0.97999305293E+03  0.00000000000E+00 0. -1.
         21   -1    0    0  502  503 -0.00000000000E+00 -0.00000000000E+00 -0.45496788291E+02  0.45496788291E+02  0.00000000000E+00 0. -1.
          6    2    1    2  501    0 -0.62634916181E+02  0.16118223832E+02  0.72266516976E+03  0.74554045868E+03  0.17147214958E+03 0.  0.
         24    2    3    3    0    0 -0.15968350211E+02 -0.54307057622E+02  0.38446778870E+03  0.39691881965E+03  0.80776383464E+02 0.  0.
         -6    2    1    2    0  503  0.62634916181E+02 -0.16118223832E+02  0.21183109488E+03  0.27994938254E+03  0.17122007523E+03 0.  0.
        -24    2    5    5    0    0  0.10329643755E+03  0.58489466644E+01  0.18478836208E+03  0.22619703099E+03  0.79460643621E+02 0.  0.
          5    1    3    3  501    0 -0.46666565970E+02  0.70425281453E+02  0.33819738105E+03  0.34862163903E+03  0.47000000000E+01 0. -1.
        -11    1    4    4    0    0 -0.45493941971E+02 -0.51885118315E+02  0.26701561336E+03  0.27578814702E+03  0.00000000000E+00 0.  1.
         12    1    4    4    0    0  0.29525591760E+02 -0.24219393069E+01  0.11745217534E+03  0.12113067263E+03  0.00000000000E+00 0. -1.
         -5    1    5    5    0  503 -0.40661521366E+02 -0.21967170496E+02  0.27042732802E+02  0.53752351547E+02  0.47000000000E+01 0.  1.
         13    1    6    6    0    0  0.92015138628E+02  0.15046177564E+02  0.87628046777E+02  0.12795252158E+03  0.00000000000E+00 0. -1.
        -14    1    6    6    0    0  0.11281298919E+02 -0.91972308999E+01  0.97160315299E+02  0.98244509417E+02  0.00000000000E+00 0.  1.
</event>
<event>
12    1  0.8798177E-003  0.2385706E+03  0.7818608E-02  0.1120786E+00
         21   -1    0    0  501  502  0.00000000000E+00  0.00000000000E+00  0.45043880375E+03  0.45043880375E+03  0.00000000000E+00 0.  1.
         21   -1    0    0  502  503 -0.00000000000E+00 -0.00000000000E+00 -0.12802196197E+03  0.12802196197E+03  0.00000000000E+00 0.  1.
          6    2    1    2  501    0  0.61673691236E+02  0.15240436640E+03  0.12715941217E+03  0.27034321216E+03  0.17287336743E+03 0.  0.
         24    2    3    3    0    0  0.10581498114E+03  0.11770743530E+03  0.71548810389E+02  0.19117908182E+03  0.79864626075E+02 0.  0.
         -6    2    1    2    0  503 -0.61673691236E+02 -0.15240436640E+03  0.19525742960E+03  0.30811755357E+03  0.17256948720E+03 0.  0.
        -24    2    5    5    0    0 -0.35151508788E+02 -0.38250947589E+02  0.21116251268E+02  0.98161202913E+02  0.80566507484E+02 0.  0.
          5    1    3    3  501    0 -0.44141289902E+02  0.34696931101E+02  0.55610601781E+02  0.79164130340E+02  0.47000000000E+01 0. -1.
        -13    1    4    4    0    0  0.45027410956E+02  0.33303968473E+01  0.46308107864E+01  0.45387263512E+02  0.00000000000E+00 0.  1.
         14    1    4    4    0    0  0.60787570181E+02  0.11437703845E+03  0.66917999603E+02  0.14579181830E+03  0.00000000000E+00 0. -1.
         -5    1    5    5    0  503 -0.26522182448E+02 -0.11415341881E+03  0.17414117834E+03  0.20995635066E+03  0.47000000000E+01 0.  1.
         11    1    6    6    0    0 -0.17211820154E+02  0.17912046877E+02  0.29548002632E+02  0.38602754253E+02  0.00000000000E+00 0. -1.
        -12    1    6    6    0    0 -0.17939688634E+02 -0.56162994467E+02 -0.84317513639E+01  0.59558448660E+02  0.00000000000E+00 0.  1.
</event>
<event>
12    1  0.8798177E-003  0.2011639E+03  0.7818608E-02  0.1149637E+00
         21   -1    0    0  501  502  0.00000000000E+00  0.00000000000E+00  0.40363925177E+02  0.40363925177E+02  0.00000000000E+00 0. -1.
         21   -1    0    0  502  503 -0.00000000000E+00 -0.00000000000E+00 -0.11888088559E+04  0.11888088559E+04  0.00000000000E+00 0. -1.
          6    2    1    2  501    0  0.98430773256E+02  0.34024307717E+02 -0.31298608225E+03  0.36983675166E+03  0.16725030510E+03 0.  0.
         24    2    3    3    0    0  0.38455058218E+02 -0.32871635601E+02 -0.22982756096E+03  0.24732314715E+03  0.76083476596E+02 0.  0.
         -6    2    1    2    0  503 -0.98430773256E+02 -0.34024307717E+02 -0.83545884844E+03  0.85933602938E+03  0.17210651737E+03 0.  0.
        -24    2    5    5    0    0 -0.54069057388E+00 -0.10740706694E+02 -0.19173887673E+03  0.20778243501E+03  0.79335290521E+02 0.  0.
          5    1    3    3  501    0  0.59975715038E+02  0.66895943319E+02 -0.83158521295E+02  0.12251360451E+03  0.47000000000E+01 0. -1.
        -13    1    4    4    0    0  0.14830943320E+02 -0.23634476649E+02 -0.16341832883E+02  0.32335752167E+02  0.00000000000E+00 0.  1.
         14    1    4    4    0    0  0.23624114898E+02 -0.92371589529E+01 -0.21348572807E+03  0.21498739498E+03  0.00000000000E+00 0. -1.
         -5    1    5    5    0  503 -0.97890082682E+02 -0.23283601023E+02 -0.64371997170E+03  0.65155359437E+03  0.47000000000E+01 0.  1.
         13    1    6    6    0    0  0.23941093651E+02 -0.29282244438E+02 -0.15665274399E+03  0.16115429875E+03  0.00000000000E+00 0. -1.
        -14    1    6    6    0    0 -0.24481784225E+02  0.18541537744E+02 -0.35086132740E+02  0.46628136263E+02  0.00000000000E+00 0.  1.
</event>
<event>
12    1  0.8798177E-003  0.3813162E+03  0.7818608E-02  0.1051007E+00
         21   -1    0    0  501  502  0.00000000000E+00  0.00000000000E+00  0.14461447894E+04  0.14461447894E+04  0.00000000000E+00 0.  1.
         21   -1    0    0  502  503 -0.00000000000E+00 -0.00000000000E+00 -0.98966810496E+02  0.98966810496E+02  0.00000000000E+00 0.  1.
          6    2    1    2  501    0  0.24367398356E+03  0.22954480167E+03  0.66300728755E+03  0.76185454590E+03  0.16963448804E+03 0.  0.
         24    2    3    3    0    0  0.16103828987E+03  0.23144152506E+03  0.49581054557E+03  0.57528258670E+03  0.74989646871E+02 0.  0.
         -6    2    1    2    0  503 -0.24367398356E+03 -0.22954480167E+03  0.68417069139E+03  0.78325705403E+03  0.18257670031E+03 0.  0.
        -24    2    5    5    0    0 -0.10319186305E+03 -0.52017997787E+02  0.37183278474E+03  0.39747466691E+03  0.79825173593E+02 0.  0.
          5    1    3    3  501    0  0.82635693692E+02 -0.18967233920E+01  0.16719674198E+03  0.18657195920E+03  0.47000000000E+01 0. -1.
        -13    1    4    4    0    0  0.21390230185E+02  0.72618647571E+02  0.17920913624E+03  0.19454286015E+03  0.00000000000E+00 0.  1.
         14    1    4    4    0    0  0.13964805968E+03  0.15882287749E+03  0.31660140933E+03  0.38073972656E+03  0.00000000000E+00 0. -1.
         -5    1    5    5    0  503 -0.14048212051E+03 -0.17752680388E+03  0.31233790665E+03  0.38578238712E+03  0.47000000000E+01 0.  1.
         13    1    6    6    0    0 -0.96038068767E+02 -0.71322984586E+02  0.32498523790E+03  0.34630287847E+03  0.00000000000E+00 0. -1.
        -14    1    6    6    0    0 -0.71537942824E+01  0.19304986799E+02  0.46847546834E+02  0.51171788442E+02  0.00000000000E+00 0.  1.
</event>
<event>
12    1  0.8798177E-003  0.1769370E+03  0.7818608E-02  0.1171366E+00
         21   -1    0    0  501  502  0.00000000000E+00  0.00000000000E+00  0.10649468173E+03  0.10649468173E+03  0.00000000000E+00 0. -1.
         21   -1    0    0  502  503 -0.00000000000E+00 -0.00000000000E+00 -0.29046018119E+03  0.29046018119E+03  0.00000000000E+00 0. -1.
          6    2    1    2  501    0 -0.15841279787E+02 -0.38723371766E+02 -0.86856777679E+02  0.19710609982E+03  0.17191936799E+03 0.  0.
         24    2    3    3    0    0 -0.39610748574E+02 -0.43030174928E+02  0.66124682852E+01  0.10045142512E+03  0.81401208310E+02 0.  0.
         -6    2    1    2    0  503  0.15841279787E+02  0.38723371766E+02 -0.97108721782E+02  0.19984876311E+03  0.16958472397E+03 0.  0.
        -24    2    5    5    0    0 -0.15481763494E+02 -0.12196686157E+02  0.57046188393E+01  0.80824990904E+02  0.78177313362E+02 0.  0.
          5    1    3    3  501    0  0.23769468787E+02  0.43068031621E+01 -0.93469245965E+02  0.96654674698E+02  0.47000000000E+01 0. -1.
        -13    1    4    4    0    0 -0.36737814286E+02  0.11627884762E+02 -0.15346051215E+02  0.41477415426E+02  0.00000000000E+00 0.  1.
         14    1    4    4    0    0 -0.28729342877E+01 -0.54658059690E+02  0.21958519500E+02  0.58974009691E+02  0.00000000000E+00 0. -1.
         -5    1    5    5    0  503  0.31323043281E+02  0.50920057923E+02 -0.10281334062E+03  0.11902377220E+03  0.47000000000E+01 0.  1.
         11    1    6    6    0    0  0.31752243274E+02 -0.18937531331E+01 -0.19945787247E+01  0.31871140521E+02  0.00000000000E+00 0. -1.
        -12    1    6    6    0    0 -0.47234006767E+02 -0.10302933024E+02  0.76991975640E+01  0.48953850383E+02  0.00000000000E+00 0.  1.
</event>
<event>
12    1  0.8798177E-003  0.2283233E+03  0.7818608E-02  0.1127956E+00
         21   -1    0    0  503  502  0.00000000000E+00  0.00000000000E+00  0.76072654350E+03  0.76072654350E+03  0.00000000000E+00 0. -1.
         21   -1    0    0  501  503 -0.00000000000E+00 -0.00000000000E+00 -0.68484174890E+02  0.68484174890E+02  0.00000000000E+00 0. -1.
          6    2    1    2  501    0  0.13548064062E+03  0.60922240446E+02  0.32567346711E+03  0.39773699836E+03  0.17339258729E+03 0.  0.
         24    2    3    3    0    0  0.72317763671E+02  0.10379701370E+03  0.19934005859E+03  0.25005485553E+03  0.82385027877E+02 0.  0.
         -6    2    1    2    0  502 -0.13548064062E+03 -0.60922240446E+02  0.36656890150E+03  0.43147372002E+03  0.17242473187E+03 0.  0.
        -24    2    5    5    0    0 -0.87983723191E+02  0.21767899203E+02  0.13465238310E+03  0.18067304645E+03  0.79350541618E+02 0.  0.
          5    1    3    3  501    0  0.63162876949E+02 -0.42874773251E+02  0.12633340851E+03  0.14768214284E+03  0.47000000000E+01 0. -1.
        -11    1    4    4    0    0 -0.13659895110E+02  0.20004637647E+02  0.10768001664E+02  0.26509019628E+02  0.00000000000E+00 0.  1.
         12    1    4    4    0    0  0.85977658781E+02  0.83792376050E+02  0.18857205693E+03  0.22354583590E+03  0.00000000000E+00 0. -1.
         -5    1    5    5    0  502 -0.47496917429E+02 -0.82690139649E+02  0.23191651840E+03  0.25080067358E+03  0.47000000000E+01 0.  1.
         13    1    6    6    0    0  0.11216728679E+02  0.17921170131E+02  0.21762027594E+02  0.30340883081E+02  0.00000000000E+00 0. -1.
        -14    1    6    6    0    0 -0.99200451870E+02  0.38467290719E+01  0.11289035551E+03  0.15033216337E+03  0.00000000000E+00 0.  1.
</event>
<event>
12    1  0.8798177E-003  0.1788226E+03  0.7818608E-02  0.1169647E+00
         21   -1    0    0  501  502  0.00000000000E+00  0.00000000000E+00  0.46871447941E+03  0.46871447941E+03  0.00000000000E+00 0. -1.
         21   -1    0    0  502  503 -0.00000000000E+00 -0.00000000000E+00 -0.81279964336E+02  0.81279964336E+02  0.00000000000E+00 0. -1.
          6    2    1    2  501    0 -0.26719274218E+02 -0.29790101503E+02  0.30967773303E+03  0.35760009284E+03  0.17428757357E+03 0.  0.
         24    2    3    3    0    0 -0.43661640965E+02  0.42409914868E+02  0.21908954933E+03  0.24043271179E+03  0.78119898252E+02 0.  0.
         -6    2    1    2    0  503  0.26719274218E+02  0.29790101503E+02  0.77756782038E+02  0.19239435090E+03  0.17137123255E+03 0.  0.
        -24    2    5    5    0    0  0.75529110198E+02 -0.13323378019E+02  0.45254712255E+02  0.11945844243E+03  0.79625194487E+02 0.  0.
          5    1    3    3  501    0  0.16942366746E+02 -0.72200016371E+02  0.90588183700E+02  0.11716738105E+03  0.47000000000E+01 0. -1.
        -13    1    4    4    0    0  0.20154637456E+02 -0.26808942814E+01  0.56354497473E+02  0.59910149312E+02  0.00000000000E+00 0.  1.
         14    1    4    4    0    0 -0.63816278421E+02  0.45090809149E+02  0.16273505186E+03  0.18052256248E+03  0.00000000000E+00 0. -1.
         -5    1    5    5    0  503 -0.48809835980E+02  0.43113479523E+02  0.32502069783E+02  0.72935908475E+02  0.47000000000E+01 0.  1.
         13    1    6    6    0    0  0.16057316764E+02 -0.41383578071E+02  0.13252800794E+02  0.46325745375E+02  0.00000000000E+00 0. -1.
        -14    1    6    6    0    0  0.59471793434E+02  0.28060200052E+02  0.32001911461E+02  0.73132697054E+02  0.00000000000E+00 0.  1.
</event>
<event>
12    1  0.8798177E-003  0.1799660E+03  0.7818608E-02  0.1169084E+00
         21   -1    0    0  501  502  0.00000000000E+00  0.00000000000E+00  0.92435283215E+02  0.92435283215E+02  0.00000000000E+00 0.  1.
         21   -1    0    0  502  503 -0.00000000000E+00 -0.00000000000E+00 -0.49525133208E+03  0.49525133208E+03  0.00000000000E+00 0.  1.
          6    2    1    2  501    0 -0.26847961100E+02 -0.73444830066E+01 -0.35215670715E+02  0.17839723312E+03  0.17265768120E+03 0.  0.
         24    2    3    3    0    0 -0.42946445727E+02 -0.52674444768E+01 -0.85831364316E+02  0.12503513295E+03  0.79966356667E+02 0.  0.
         -6    2    1    2    0  503  0.26847961100E+02  0.73444830066E+01 -0.36760037815E+03  0.40928938218E+03  0.17780046653E+03 0.  0.
        -24    2    5    5    0    0  0.30673882458E+02 -0.53137749572E+02 -0.13437247233E+03  0.16827053605E+03  0.80588488563E+02 0.  0.
          5    1    3    3  501    0  0.16098484627E+02 -0.20770385298E+01  0.50615693601E+02  0.53362100175E+02  0.47000000000E+01 0. -1.
        -11    1    4    4    0    0 -0.23507147503E+02  0.29083453359E+02 -0.87042276508E+01  0.38395270829E+02  0.00000000000E+00 0.  1.
         12    1    4    4    0    0 -0.19439298224E+02 -0.34350897836E+02 -0.77127136666E+02  0.86639862118E+02  0.00000000000E+00 0. -1.
         -5    1    5    5    0  503 -0.38259213581E+01  0.60482232578E+02 -0.23322790583E+03  0.24101884613E+03  0.47000000000E+01 0.  1.
         13    1    6    6    0    0  0.13387064146E+01 -0.28585127351E+02 -0.12587112384E+03  0.12908307967E+03  0.00000000000E+00 0. -1.
        -14    1    6    6    0    0  0.29335176044E+02 -0.24552622221E+02 -0.85013484878E+01  0.39187456380E+02  0.00000000000E+00 0.  1.
</event>
<event>
12    1  0.8798177E-003  0.4607980E+03  0.7818608E-02  0.1024566E+00
         21   -1    0    0  503  502  0.00000000000E+00  0.00000000000E+00  0.28634592362E+03  0.28634592362E+03  0.00000000000E+00 0.  1.
         21   -1    0    0  501  503 -0.00000000000E+00 -0.00000000000E+00 -0.74650974931E+03  0.74650974931E+03  0.00000000000E+00 0. -1.
          6    2    1    2  501    0  0.39177547648E+03 -0.17006304851E+03 -0.27366526885E+03  0.53574755954E+03  0.17240447713E+03 0.  0.
         24    2    3    3    0    0  0.26287584311E+03 -0.14785706212E+03 -0.25755587233E+03  0.40387707773E+03  0.76264322196E+02 0.  0.
         -6    2    1    2    0  502 -0.39177547648E+03  0.17006304851E+03 -0.18649855684E+03  0.49710811340E+03  0.17298930678E+03 0.  0.
        -24    2    5    5    0    0 -0.12037184979E+03  0.20930754413E+02 -0.94711204878E+02  0.17407966619E+03  0.80037735786E+02 0.  0.
          5    1    3    3  501    0  0.12889963337E+03 -0.22205986389E+02 -0.16109396522E+02  0.13187048180E+03  0.47000000000E+01 0. -1.
        -13    1    4    4    0    0  0.10411922703E+02 -0.99474986948E+01 -0.42009436286E+02  0.44408936057E+02  0.00000000000E+00 0.  1.
         14    1    4    4    0    0  0.25246392041E+03 -0.13790956342E+03 -0.21554643604E+03  0.35946814168E+03  0.00000000000E+00 0. -1.
         -5    1    5    5    0  502 -0.27140362669E+03  0.14913229409E+03 -0.91787351965E+02  0.32302844721E+03  0.47000000000E+01 0.  1.
         13    1    6    6    0    0 -0.25617697772E+02  0.40425766151E+02 -0.43241983090E+02  0.64500993090E+02  0.00000000000E+00 0. -1.
        -14    1    6    6    0    0 -0.94754152016E+02 -0.19495011738E+02 -0.51469221787E+02  0.10957867310E+03  0.00000000000E+00 0.  1.
</event>
<event>
12    1  0.8798177E-003  0.2242244E+03  0.7818608E-02  0.1131097E+00
         21   -1    0    0  501  502  0.00000000000E+00  0.00000000000E+00  0.63071769048E+03  0.63071769048E+03  0.00000000000E+00 0. -1.
         21   -1    0    0  502  503 -0.00000000000E+00 -0.00000000000E+00 -0.93429187824E+02  0.93429187824E+02  0.00000000000E+00 0.  1.
          6    2    1    2  501    0  0.59599424136E+01 -0.14105530609E+03  0.41143580026E+03  0.46856802688E+03  0.17419660671E+03 0.  0.
         24    2    3    3    0    0  0.10513114801E+02 -0.12184177554E+02  0.24221370436E+03  0.25576129087E+03  0.80544270842E+02 0.  0.
         -6    2    1    2    0  503 -0.59599424136E+01  0.14105530609E+03  0.12585270239E+03  0.25557885142E+03  0.17189975656E+03 0.  0.
        -24    2    5    5    0    0  0.57756914415E+02  0.56184114483E+02  0.64148881767E+02  0.13272768745E+03  0.83720034054E+02 0.  0.
          5    1    3    3  501    0 -0.45531723874E+01 -0.12887112853E+03  0.16922209591E+03  0.21280673601E+03  0.47000000000E+01 0. -1.
        -13    1    4    4    0    0 -0.32299668830E+02  0.94728502606E+01  0.11395876695E+03  0.11882594020E+03  0.00000000000E+00 0.  1.
         14    1    4    4    0    0  0.42812783631E+02 -0.21657027815E+02  0.12825493740E+03  0.13693535067E+03  0.00000000000E+00 0. -1.
         -5    1    5    5    0  503 -0.63716856829E+02  0.84871191603E+02  0.61703820623E+02  0.12285116397E+03  0.47000000000E+01 0.  1.
         11    1    6    6    0    0 -0.17187052100E+02  0.29812853765E+02  0.32096961622E+02  0.47057581268E+02  0.00000000000E+00 0. -1.
        -12    1    6    6    0    0  0.74943966515E+02  0.26371260718E+02  0.32051920145E+02  0.85670106186E+02  0.00000000000E+00 0.  1.
</event>
<event>
12    1  0.8798177E-003  0.2091705E+03  0.7818608E-02  0.1142544E+00
         21   -1    0    0  503  502  0.00000000000E+00  0.00000000000E+00  0.39465420194E+02  0.39465420194E+02  0.00000000000E+00 0. -1.
         21   -1    0    0  501  503 -0.00000000000E+00 -0.00000000000E+00 -0.11291910507E+04  0.11291910507E+04  0.00000000000E+00 0. -1.
          6    2    1    2  501    0 -0.10615767689E+03 -0.54610805528E+02 -0.63652001763E+03  0.66950955540E+03  0.16980435652E+03 0.  0.
         24    2    3    3    0    0 -0.35243527336E+02 -0.83444176816E+02 -0.31652368289E+03  0.34045040547E+03  0.86684484737E+02 0.  0.
         -6    2    1    2    0  502  0.10615767689E+03  0.54610805528E+02 -0.45320561293E+03  0.49914691554E+03  0.17175716363E+03 0.  0.
        -24    2    5    5    0    0  0.80364286515E+02  0.79173068180E+02 -0.20615057432E+03  0.24949338395E+03  0.83797947885E+02 0.  0.
          5    1    3    3  501    0 -0.70914149559E+02  0.28833371289E+02 -0.31999633474E+03  0.32905914993E+03  0.47000000000E+01 0. -1.
        -11    1    4    4    0    0 -0.22510655254E+02 -0.89494865791E+02 -0.31242538084E+03  0.32576936504E+03  0.00000000000E+00 0.  1.
         12    1    4    4    0    0 -0.12732872082E+02  0.60506889742E+01 -0.40983020414E+01  0.14681040431E+02  0.00000000000E+00 0. -1.
         -5    1    5    5    0  502  0.25793390379E+02 -0.24562262652E+02 -0.24705503860E+03  0.24965353158E+03  0.47000000000E+01 0.  1.
         11    1    6    6    0    0  0.57267197000E+02  0.77099482803E+02 -0.20487431578E+03  0.22626830836E+03  0.00000000000E+00 0. -1.
        -12    1    6    6    0    0  0.23097089516E+02  0.20735853763E+01 -0.12762585415E+01  0.23225075592E+02  0.00000000000E+00 0.  1.
</event>
<event>
12    1  0.8798177E-003  0.2380102E+03  0.7818608E-02  0.1121656E+00
         21   -1    0    0  503  502  0.00000000000E+00  0.00000000000E+00  0.85968564102E+02  0.85968564102E+02  0.00000000000E+00 0. -1.
         21   -1    0    0  501  503 -0.00000000000E+00 -0.00000000000E+00 -0.65172022416E+03  0.65172022416E+03  0.00000000000E+00 0. -1.
          6    2    1    2  501    0  0.10742362573E+03 -0.11700544330E+03 -0.26763882122E+03  0.35816112983E+03  0.17725334176E+03 0.  0.
         24    2    3    3    0    0  0.12061120970E+03 -0.31342027841E+02 -0.14568102220E+03  0.20846835157E+03  0.81894485555E+02 0.  0.
         -6    2    1    2    0  502 -0.10742362573E+03  0.11700544330E+03 -0.29811283883E+03  0.37952765843E+03  0.17303141250E+03 0.  0.
        -24    2    5    5    0    0 -0.13395893343E+03  0.54394537235E+02 -0.19019385722E+03  0.25188423046E+03  0.79801006902E+02 0.  0.
          5    1    3    3  501    0 -0.13187583968E+02 -0.85663415460E+02 -0.12195779902E+03  0.14969277825E+03  0.47000000000E+01 0. -1.
        -13    1    4    4    0    0  0.84883120180E+02 -0.43210236308E+02 -0.54307598152E+02  0.10964298350E+03  0.00000000000E+00 0.  1.
         14    1    4    4    0    0  0.35728089516E+02  0.11868208467E+02 -0.91373424049E+02  0.98825368075E+02  0.00000000000E+00 0. -1.
         -5    1    5    5    0  502  0.26535307699E+02  0.62610906066E+02 -0.10791898161E+03  0.12764342798E+03  0.47000000000E+01 0.  1.
         13    1    6    6    0    0 -0.39670989668E+02  0.55466006602E+02 -0.58097048244E+02  0.89585335431E+02  0.00000000000E+00 0. -1.
        -14    1    6    6    0    0 -0.94287943759E+02 -0.10714693672E+01 -0.13209680898E+03  0.16229889503E+03  0.00000000000E+00 0.  1.
</event>
<event>
12    1  0.8798177E-003  0.2027144E+03  0.7818608E-02  0.1147491E+00
         21   -1    0    0  503  502  0.00000000000E+00  0.00000000000E+00  0.18928089183E+03  0.18928089183E+03  0.00000000000E+00 0. -1.
         21   -1    0    0  501  503 -0.00000000000E+00 -0.00000000000E+00 -0.27239114112E+03  0.27239114112E+03  0.00000000000E+00 0.  1.
          6    2    1    2  501    0 -0.66403626173E+02 -0.85850329464E+02 -0.14566826955E+03  0.24962446881E+03  0.17121159434E+03 0.  0.
         24    2    3    3    0    0  0.13702682641E+02 -0.62524446054E+02 -0.25253196399E+02  0.10305367571E+03  0.76715489198E+02 0.  0.
         -6    2    1    2    0  502  0.66403626173E+02  0.85850329464E+02  0.62558020259E+02  0.21204756414E+03  0.17108753000E+03 0.  0.
        -24    2    5    5    0    0  0.92185687917E+02  0.31567390210E+02  0.94474982111E+01  0.13170971656E+03  0.88110686256E+02 0.  0.
          5    1    3    3  501    0 -0.80106308814E+02 -0.23325883410E+02 -0.12041507315E+03  0.14657079310E+03  0.47000000000E+01 0. -1.
        -13    1    4    4    0    0  0.29477001357E+02 -0.59659975518E+02 -0.42928866526E+02  0.79190238471E+02  0.00000000000E+00 0.  1.
         14    1    4    4    0    0 -0.15774318716E+02 -0.28644705355E+01  0.17675670127E+02  0.23863437238E+02  0.00000000000E+00 0. -1.
         -5    1    5    5    0  502 -0.25782061744E+02  0.54282939254E+02  0.53110522048E+02  0.80337847582E+02  0.47000000000E+01 0.  1.
         13    1    6    6    0    0 -0.93354634505E+01  0.26963034016E+02 -0.52946509750E+01  0.29020499825E+02  0.00000000000E+00 0. -1.
        -14    1    6    6    0    0  0.10152115137E+03  0.46043561940E+01  0.14742149186E+02  0.10268921673E+03  0.00000000000E+00 0.  1.
</event>
<event>
12    1  0.8798177E-003  0.2325774E+03  0.7818608E-02  0.1125357E+00
         21   -1    0    0  501  502  0.00000000000E+00  0.00000000000E+00  0.74517636112E+03  0.74517636112E+03  0.00000000000E+00 0.  1.
         21   -1    0    0  502  503 -0.00000000000E+00 -0.00000000000E+00 -0.10253562013E+03  0.10253562013E+03  0.00000000000E+00 0. -1.
          6    2    1    2  501    0 -0.15008120692E+03  0.40548510179E+02  0.55243825125E+03  0.59825511419E+03  0.16897517527E+03 0.  0.
         24    2    3    3    0    0 -0.15804518187E+03  0.38560702602E+01  0.51610142656E+03  0.54579355804E+03  0.80850335300E+02 0.  0.
         -6    2    1    2    0  503  0.15008120692E+03 -0.40548510179E+02  0.90202489734E+02  0.24945686706E+03  0.17298464967E+03 0.  0.
        -24    2    5    5    0    0  0.13104250418E+03 -0.43952569368E+02  0.39069980093E+01  0.16089580500E+03  0.82269248063E+02 0.  0.
          5    1    3    3  501    0  0.79639749517E+01  0.36692439919E+02  0.36336824699E+02  0.52461556148E+02  0.47000000000E+01 0. -1.
        -13    1    4    4    0    0 -0.84186826443E+02 -0.30600120115E+02  0.19632279975E+03  0.21579256428E+03  0.00000000000E+00 0.  1.
         14    1    4    4    0    0 -0.73858355424E+02  0.34456190375E+02  0.31977862681E+03  0.33000099376E+03  0.00000000000E+00 0. -1.
         -5    1    5    5    0  503  0.19038702737E+02  0.34040591888E+01  0.86295491725E+02  0.88561062058E+02  0.47000000000E+01 0.  1.
         11    1    6    6    0    0  0.34633941999E+02  0.40407423910E+01  0.34386231877E+02  0.48971935638E+02  0.00000000000E+00 0. -1.
        -12    1    6    6    0    0  0.96408562180E+02 -0.47993311759E+02 -0.30479233868E+02  0.11192386936E+03  0.00000000000E+00 0.  1.
</event>
<event>
12    1  0.8798177E-003  0.1750112E+03  0.7818608E-02  0.1173638E+00
         21   -1    0    0  503  502  0.00000000000E+00  0.00000000000E+00  0.29853805349E+03  0.29853805349E+03  0.00000000000E+00 0.  1.
         21   -1    0    0  501  503 -0.00000000000E+00 -0.00000000000E+00 -0.11935734949E+03  0.11935734949E+03  0.00000000000E+00 0.  1.
          6    2    1    2  501    0  0.69035832127E+01  0.12350950288E+02  0.57301895992E+01  0.17149330715E+03  0.17081251093E+03 0.  0.
         24    2    3    3    0    0 -0.46888783135E+02 -0.35163815428E+02  0.31328062404E+01  0.99520339738E+02  0.80370589442E+02 0.  0.
         -6    2    1    2    0  502 -0.69035832127E+01 -0.12350950288E+02  0.17345051441E+03  0.24640209583E+03  0.17443825969E+03 0.  0.
        -24    2    5    5    0    0 -0.79178202723E+01 -0.33757702374E+02  0.17858272171E+02  0.89270579076E+02  0.80299713923E+02 0.  0.
          5    1    3    3  501    0  0.53792366347E+02  0.47514765716E+02  0.25973833588E+01  0.71972967416E+02  0.47000000000E+01 0. -1.
        -13    1    4    4    0    0 -0.63351099828E+02 -0.77661613600E+01 -0.10657910685E+02  0.64709088788E+02  0.00000000000E+00 0.  1.
         14    1    4    4    0    0  0.16462316693E+02 -0.27397654068E+02  0.13790716925E+02  0.34811250949E+02  0.00000000000E+00 0. -1.
         -5    1    5    5    0  502  0.10142370596E+01  0.21406752086E+02  0.15559224224E+03  0.15713151675E+03  0.47000000000E+01 0.  1.
         11    1    6    6    0    0 -0.22610559191E+02 -0.52297700785E+02 -0.39271818896E+01  0.57111379356E+02  0.00000000000E+00 0. -1.
        -12    1    6    6    0    0  0.14692738919E+02  0.18539998411E+02  0.21785454060E+02  0.32159199720E+02  0.00000000000E+00 0.  1.
</event>
<event>
12    1  0.8798177E-003  0.2451777E+03  0.7818608E-02  0.1116402E+00
         21   -1    0    0  503  502  0.00000000000E+00  0.00000000000E+00  0.49490213522E+03  0.49490213522E+03  0.00000000000E+00 0.  1.
         21   -1    0    0  501  503 -0.00000000000E+00 -0.00000000000E+00 -0.15927019398E+03  0.15927019398E+03  0.00000000000E+00 0.  1.
          6    2    1    2  501    0  0.17384415863E+03 -0.20735753481E+02  0.32726963766E+03  0.40892241780E+03  0.17164021989E+03 0.  0.
         24    2    3    3    0    0  0.18915439486E+03 -0.41691211133E+02  0.24615497494E+03  0.32362755835E+03  0.81393996456E+02 0.  0.
         -6    2    1    2    0  502 -0.17384415863E+03  0.20735753481E+02  0.83623035795E+01  0.24524991140E+03  0.17153958132E+03 0.  0.
        -24    2    5    5    0    0 -0.19093238820E+03  0.25561597338E+02  0.36752007433E+02  0.21143628037E+03  0.79031756187E+02 0.  0.
          5    1    3    3  501    0 -0.15310236232E+02  0.20955457652E+02  0.81114662726E+02  0.85294859447E+02  0.47000000000E+01 0. -1.
        -11    1    4    4    0    0  0.92498978341E+02 -0.52695623271E+02  0.88799081682E+02  0.13862960223E+03  0.00000000000E+00 0.  1.
         12    1    4    4    0    0  0.96655416522E+02  0.11004412138E+02  0.15735589325E+03  0.18499795613E+03  0.00000000000E+00 0. -1.
         -5    1    5    5    0  502  0.17088229566E+02 -0.48258438572E+01 -0.28389703854E+02  0.33813631031E+02  0.47000000000E+01 0.  1.
         13    1    6    6    0    0 -0.97359200689E+02  0.41928593230E+02  0.46873294998E+02  0.11590481730E+03  0.00000000000E+00 0. -1.
        -14    1    6    6    0    0 -0.93573187508E+02 -0.16366995892E+02 -0.10121287565E+02  0.95531463073E+02  0.00000000000E+00 0.  1.
</event>
<event>
12    1  0.8798177E-003  0.1876103E+03  0.7818608E-02  0.1160777E+00
         21   -1    0    0  501  502  0.00000000000E+00  0.00000000000E+00  0.10366775455E+03  0.10366775455E+03  0.00000000000E+00 0.  1.
         21   -1    0    0  502  503 -0.00000000000E+00 -0.00000000000E+00 -0.34653633886E+03  0.34653633886E+03  0.00000000000E+00 0.  1.
          6    2    1    2  501    0 -0.29070056634E+01  0.72416119775E+02 -0.87142576614E+02  0.20686097456E+03  0.17304649390E+03 0.  0.
         24    2    3    3    0    0  0.47781258244E+02  0.26288527515E+02 -0.12140626411E+02  0.10515336717E+03  0.89082548797E+02 0.  0.
         -6    2    1    2    0  503  0.29070056634E+01 -0.72416119775E+02 -0.15572600770E+03  0.24334311885E+03  0.17237383483E+03 0.  0.
        -24    2    5    5    0    0  0.94978066638E+01 -0.60048658402E+02 -0.14985627241E+02  0.10182867630E+03  0.80302307481E+02 0.  0.
          5    1    3    3  501    0 -0.50688263908E+02  0.46127592260E+02 -0.75001950203E+02  0.10170760738E+03  0.47000000000E+01 0. -1.
        -13    1    4    4    0    0  0.66722112337E+02  0.39028650621E+02 -0.21879969077E+02  0.80335601640E+02  0.00000000000E+00 0.  1.
         14    1    4    4    0    0 -0.18940854093E+02 -0.12740123107E+02  0.97393426656E+01  0.24817765534E+02  0.00000000000E+00 0. -1.
         -5    1    5    5    0  503 -0.65908010004E+01 -0.12367461372E+02 -0.14074038046E+03  0.14151444255E+03  0.47000000000E+01 0.  1.
         11    1    6    6    0    0 -0.34422848565E+01 -0.13382537113E+02  0.31688721519E+02  0.34570459878E+02  0.00000000000E+00 0. -1.
        -12    1    6    6    0    0  0.12940091520E+02 -0.46666121289E+02 -0.46674348760E+02  0.67258216427E+02  0.00000000000E+00 0.  1.
</event>
<event>
12    1  0.8798177E-003  0.2372738E+03  0.7818608E-02  0.1121692E+00
         21   -1    0    0  501  502  0.00000000000E+00  0.00000000000E+00  0.49067763680E+02  0.49067763680E+02  0.00000000000E+00 0.  1.
         21   -1    0    0  502  503 -0.00000000000E+00 -0.00000000000E+00 -0.12221720691E+04  0.12221720691E+04  0.00000000000E+00 0.  1.
          6    2    1    2  501    0 -0.12476797087E+03 -0.10555110716E+03 -0.42770678371E+03  0.48911342497E+03  0.17201967003E+03 0.  0.
         24    2    3    3    0    0 -0.57671900150E+02 -0.12942248848E+03 -0.26971745042E+03  0.31575124632E+03  0.82916330734E+02 0.  0.
         -6    2    1    2    0  503  0.12476797087E+03  0.10555110716E+03 -0.74539752176E+03  0.78212640785E+03  0.17145311210E+03 0.  0.
        -24    2    5    5    0    0  0.11553853773E+03  0.42682633880E+02 -0.65117785023E+03  0.66838519338E+03  0.86805605575E+02 0.  0.
          5    1    3    3  501    0 -0.67096070718E+02  0.23871381323E+02 -0.15798933329E+03  0.17336217865E+03  0.47000000000E+01 0. -1.
        -11    1    4    4    0    0 -0.43582481236E+00  0.79203825269E+01 -0.25327280798E+00  0.79364066021E+01  0.00000000000E+00 0.  1.
         12    1    4    4    0    0 -0.57236075337E+02 -0.13734287101E+03 -0.26946417761E+03  0.30781483972E+03  0.00000000000E+00 0. -1.
         -5    1    5    5    0  503  0.92294331341E+01  0.62868473278E+02 -0.94219671523E+02  0.11374121448E+03  0.47000000000E+01 0.  1.
         13    1    6    6    0    0  0.83486527774E+01 -0.21955430044E+02 -0.14914137305E+03  0.15097976708E+03  0.00000000000E+00 0. -1.
        -14    1    6    6    0    0  0.10718988496E+03  0.64638063924E+02 -0.50203647718E+03  0.51740542630E+03  0.00000000000E+00 0.  1.
</event>
<event>
12    1  0.8798177E-003  0.1941977E+03  0.7818608E-02  0.1154737E+00
         21   -1    0    0  503  502  0.00000000000E+00  0.00000000000E+00  0.16680573141E+04  0.16680573141E+04  0.00000000000E+00 0.  1.
         21   -1    0    0  501  503 -0.00000000000E+00 -0.00000000000E+00 -0.25891803518E+02  0.25891803518E+02  0.00000000000E+00 0.  1.
          6    2    1    2  501    0 -0.60602092731E+01 -0.90142475290E+02  0.51935041564E+03  0.55447054616E+03  0.17190212434E+03 0.  0.
         24    2    3    3    0    0  0.52239312576E+02 -0.75310946906E+02  0.42609259712E+03  0.44339435971E+03  0.81504431795E+02 0.  0.
         -6    2    1    2    0  502  0.60602092731E+01  0.90142475290E+02  0.11228150950E+04  0.11394785715E+04  0.17185832939E+03 0.  0.
        -24    2    5    5    0    0 -0.57373739408E+02  0.23150409155E+02  0.54432722747E+03  0.55366110365E+03  0.80129892742E+02 0.  0.
          5    1    3    3  501    0 -0.58299521849E+02 -0.14831528384E+02  0.93257818514E+02  0.11107618645E+03  0.47000000000E+01 0. -1.
        -13    1    4    4    0    0  0.27551848126E+02 -0.14218446267E+02  0.34864652427E+02  0.46656323669E+02  0.00000000000E+00 0.  1.
         14    1    4    4    0    0  0.24687464450E+02 -0.61092500639E+02  0.39122794469E+03  0.39673803605E+03  0.00000000000E+00 0. -1.
         -5    1    5    5    0  502  0.63433948681E+02  0.66992066135E+02  0.57848786748E+03  0.58581746782E+03  0.47000000000E+01 0.  1.
         11    1    6    6    0    0  0.11044068143E+02  0.12859939248E+02  0.28092340174E+02  0.32810502206E+02  0.00000000000E+00 0. -1.
        -12    1    6    6    0    0 -0.68417807552E+02  0.10290469908E+02  0.51623488730E+03  0.52085060145E+03  0.00000000000E+00 0.  1.
</event>
<event>
12    1  0.8798177E-003  0.1851030E+03  0.7818608E-02  0.1163341E+00
         21   -1    0    0  503  502  0.00000000000E+00  0.00000000000E+00  0.66245180459E+02  0.66245180459E+02  0.00000000000E+00 0.  1.
         21   -1    0    0  501  503 -0.00000000000E+00 -0.00000000000E+00 -0.51395280493E+03  0.51395280493E+03  0.00000000000E+00 0.  1.
          6    2    1    2  501    0 -0.48286905982E+01  0.64023422339E+02 -0.23967063236E+03  0.30282855520E+03  0.17361107961E+03 0.  0.
         24    2    3    3    0    0  0.40070847796E+02  0.37200752990E+02 -0.22985412476E+03  0.24940685586E+03  0.79882990771E+02 0.  0.
         -6    2    1    2    0  502  0.48286905982E+01 -0.64023422339E+02 -0.20803699211E+03  0.27736943019E+03  0.17184904963E+03 0.  0.
        -24    2    5    5    0    0 -0.56901563196E+02 -0.52474660583E+01 -0.98556323209E+02  0.13854096001E+03  0.78834795375E+02 0.  0.
          5    1    3    3  501    0 -0.44899538394E+02  0.26822669349E+02 -0.98165076080E+01  0.53421699342E+02  0.47000000000E+01 0. -1.
        -13    1    4    4    0    0  0.34622533958E+01  0.48576904151E+02 -0.18026544549E+03  0.18672796698E+03  0.00000000000E+00 0.  1.
         14    1    4    4    0    0  0.36608594400E+02 -0.11376151161E+02 -0.49588679267E+02  0.62678888875E+02  0.00000000000E+00 0. -1.
         -5    1    5    5    0  502  0.61730253794E+02 -0.58775956281E+02 -0.10948066890E+03  0.13882847018E+03  0.47000000000E+01 0.  1.
         11    1    6    6    0    0 -0.53685398687E+02 -0.30980242924E+02 -0.38097897354E+02  0.72755393385E+02  0.00000000000E+00 0. -1.
        -12    1    6    6    0    0 -0.32161645088E+01  0.25732776865E+02 -0.60458425855E+02  0.65785566625E+02  0.00000000000E+00 0.  1.
</event>
<event>
12    1  0.8798177E-003  0.1739967E+03  0.7818608E-02  0.1174049E+00
         21   -1    0    0  503  502  0.00000000000E+00  0.00000000000E+00  0.32547045540E+02  0.32547045540E+02  0.00000000000E+00 0. -1.
         21   -1    0    0  501  503 -0.00000000000E+00 -0.00000000000E+00 -0.10896685179E+04  0.10896685179E+04  0.00000000000E+00 0. -1.
          6    2    1    2  501    0  0.17342516957E+02 -0.87982836300E+01 -0.74594868352E+03  0.76569999984E+03  0.17169414267E+03 0.  0.
         24    2    3    3    0    0  0.12344838711E+02 -0.65839737807E+01 -0.15317311482E+03  0.17288059665E+03  0.78930056638E+02 0.  0.
         -6    2    1    2    0  502 -0.17342516957E+02  0.87982836300E+01 -0.31117278888E+03  0.35651556364E+03  0.17290653512E+03 0.  0.
        -24    2    5    5    0    0 -0.47879376672E+02  0.13975816057E+02 -0.31078541153E+03  0.32518591786E+03  0.81673441267E+02 0.  0.
          5    1    3    3  501    0  0.49976782453E+01 -0.22143098493E+01 -0.59277556870E+03  0.59281940319E+03  0.47000000000E+01 0. -1.
        -11    1    4    4    0    0  0.40350920675E+02  0.14839324352E+02 -0.65143725410E+02  0.78051952614E+02  0.00000000000E+00 0.  1.
         12    1    4    4    0    0 -0.28006081964E+02 -0.21423298133E+02 -0.88029389409E+02  0.94828644035E+02  0.00000000000E+00 0. -1.
         -5    1    5    5    0  502  0.30536859715E+02 -0.51775324274E+01 -0.38737735025E+00  0.31329645777E+02  0.47000000000E+01 0.  1.
         13    1    6    6    0    0 -0.67233006831E+02  0.10529861152E+02 -0.17130944205E+03  0.18433144094E+03  0.00000000000E+00 0. -1.
        -14    1    6    6    0    0  0.19353630159E+02  0.34459549054E+01 -0.13947596948E+03  0.14085447692E+03  0.00000000000E+00 0.  1.
</event>
<event>
12    1  0.8798177E-003  0.1855416E+03  0.7818608E-02  0.1165746E+00
         21   -1    0    0  501  502  0.00000000000E+00  0.00000000000E+00  0.13271417049E+03  0.13271417049E+03  0.00000000000E+00 0. -1.
         21   -1    0    0  502  503 -0.00000000000E+00 -0.00000000000E+00 -0.24186574711E+03  0.24186574711E+03  0.00000000000E+00 0.  1.
          6    2    1    2  501    0  0.83791134473E+01  0.34020572363E+02 -0.62148169848E+02  0.18317714809E+03  0.16871236968E+03 0.  0.
         24    2    3    3    0    0 -0.13879825554E+02  0.59316033262E+02  0.12508500260E+02  0.10113429893E+03  0.79753636163E+02 0.  0.
         -6    2    1    2    0  503 -0.83791134473E+01 -0.34020572363E+02 -0.47003406765E+02  0.19140276951E+03  0.18220343312E+03 0.  0.
        -24    2    5    5    0    0  0.53362839644E+02 -0.10237718526E+02 -0.73051735195E+02  0.12014058934E+03  0.78388785273E+02 0.  0.
          5    1    3    3  501    0  0.22258939002E+02 -0.25295460899E+02 -0.74656670108E+02  0.82042849165E+02  0.47000000000E+01 0. -1.
        -11    1    4    4    0    0 -0.68649360566E+01  0.15925246824E+02 -0.33364585825E+02  0.37602345947E+02  0.00000000000E+00 0.  1.
         12    1    4    4    0    0 -0.70148894977E+01  0.43390786438E+02  0.45873086085E+02  0.63531952979E+02  0.00000000000E+00 0. -1.
         -5    1    5    5    0  503 -0.61741953091E+02 -0.23782853837E+02  0.26048328430E+02  0.71262180167E+02  0.47000000000E+01 0.  1.
         13    1    6    6    0    0  0.37651896232E+02  0.24588189214E+02 -0.94587703625E+01  0.45953375017E+02  0.00000000000E+00 0. -1.
        -14    1    6    6    0    0  0.15710943412E+02 -0.34825907740E+02 -0.63592964832E+02  0.74187214323E+02  0.00000000000E+00 0.  1.
</event>
<event>
12    1  0.8798177E-003  0.2061646E+03  0.7818608E-02  0.1145068E+00
         21   -1    0    0  503  502  0.00000000000E+00  0.00000000000E+00  0.33071589263E+03  0.33071589263E+03  0.00000000000E+00 0. -1.
         21   -1    0    0  501  503 -0.00000000000E+00 -0.00000000000E+00 -0.16402139263E+03  0.16402139263E+03  0.00000000000E+00 0.  1.
          6    2    1    2  501    0  0.10747153451E+03 -0.32353319208E+02 -0.34163209596E+02  0.20690458492E+03  0.17042744608E+03 0.  0.
         24    2    3    3    0    0  0.23862128648E+02  0.21784218413E+02 -0.62198200771E+02  0.10332149529E+03  0.75912856972E+02 0.  0.
         -6    2    1    2    0  502 -0.10747153451E+03  0.32353319208E+02  0.20085770959E+03  0.28783270034E+03  0.17293633478E+03 0.  0.
        -24    2    5    5    0    0  0.79323787359E+01 -0.13803821659E+01  0.48915193859E+02  0.94016695096E+02  0.79885009102E+02 0.  0.
          5    1    3    3  501    0  0.83609405861E+02 -0.54137537621E+02  0.28034991175E+02  0.10358308963E+03  0.47000000000E+01 0. -1.
        -13    1    4    4    0    0  0.20118572944E+02  0.78204436107E+01 -0.78569573933E+02  0.81480637353E+02  0.00000000000E+00 0.  1.
         14    1    4    4    0    0  0.37435557036E+01  0.13963774802E+02  0.16371373162E+02  0.21840857933E+02  0.00000000000E+00 0. -1.
         -5    1    5    5    0  502 -0.11540391324E+03  0.33733701374E+02  0.15194251573E+03  0.19381600524E+03  0.47000000000E+01 0.  1.
         13    1    6    6    0    0  0.43543903889E+02  0.36696281759E+01  0.32614782553E+02  0.54527623989E+02  0.00000000000E+00 0. -1.
        -14    1    6    6    0    0 -0.35611525153E+02 -0.50500103418E+01  0.16300411306E+02  0.39489071108E+02  0.00000000000E+00 0.  1.
</event>
<event>
12    1  0.8798177E-003  0.1772579E+03  0.7818608E-02  0.1173084E+00
         21   -1    0    0  501  502  0.00000000000E+00  0.00000000000E+00  0.44932671431E+02  0.44932671431E+02  0.00000000000E+00 0.  1.
         21   -1    0    0  502  503 -0.00000000000E+00 -0.00000000000E+00 -0.71857169751E+03  0.71857169751E+03  0.00000000000E+00 0.  1.
          6    2    1    2  501    0 -0.20249820157E+01  0.38200650462E+02 -0.23666626917E+03  0.29568782057E+03  0.17308083088E+03 0.  0.
         24    2    3    3    0    0  0.11823648221E+02  0.92338322454E+02 -0.16695466732E+03  0.20622011957E+03  0.77373847817E+02 0.  0.
         -6    2    1    2    0  503  0.20249820157E+01 -0.38200650462E+02 -0.43697275691E+03  0.46781654837E+03  0.16261532033E+03 0.  0.
        -24    2    5    5    0    0 -0.28382963154E+02  0.25376928863E+02 -0.31331325398E+03  0.32540687741E+03  0.79214011547E+02 0.  0.
          5    1    3    3  501    0 -0.13848630236E+02 -0.54137671992E+02 -0.69711601851E+02  0.89467700992E+02  0.47000000000E+01 0. -1.
        -13    1    4    4    0    0 -0.20903483032E+02  0.65267320534E+02 -0.59799804021E+02  0.90954908023E+02  0.00000000000E+00 0.  1.
         14    1    4    4    0    0  0.32727131252E+02  0.27071001920E+02 -0.10715486330E+03  0.11526521155E+03  0.00000000000E+00 0. -1.
         -5    1    5    5    0  503  0.30407945170E+02 -0.63577579325E+02 -0.12365950292E+03  0.14240967097E+03  0.47000000000E+01 0.  1.
         11    1    6    6    0    0 -0.99878234458E+01  0.27721557298E+02 -0.32064219748E+02  0.43547164595E+02  0.00000000000E+00 0. -1.
        -12    1    6    6    0    0 -0.18395139708E+02 -0.23446284349E+01 -0.28124903423E+03  0.28185971281E+03  0.00000000000E+00 0.  1.
</event>
<event>
12    1  0.8798177E-003  0.2588898E+03  0.7818608E-02  0.1108455E+00
         21   -1    0    0  503  502  0.00000000000E+00  0.00000000000E+00  0.35546369759E+03  0.35546369759E+03  0.00000000000E+00 0. -1.
         21   -1    0    0  501  503 -0.00000000000E+00 -0.00000000000E+00 -0.18856459300E+03  0.18856459300E+03  0.00000000000E+00 0. -1.
          6    2    1    2  501    0 -0.66919452437E+02  0.18290071213E+03  0.11749990634E+03  0.28046765905E+03  0.16408837915E+03 0.  0.
         24    2    3    3    0    0 -0.88688884566E+02  0.13769751367E+03  0.37787046783E+02  0.18616247730E+03  0.80014270816E+02 0.  0.
         -6    2    1    2    0  502  0.66919452437E+02 -0.18290071213E+03  0.49399198249E+02  0.26356063154E+03  0.17056682591E+03 0.  0.
        -24    2    5    5    0    0  0.62311041656E+02 -0.92805242010E+02  0.90194205700E+02  0.16444073537E+03  0.80064235766E+02 0.  0.
          5    1    3    3  501    0  0.21769432129E+02  0.45203198458E+02  0.79712859560E+02  0.94305181751E+02  0.47000000000E+01 0. -1.
        -13    1    4    4    0    0 -0.96213471884E+02  0.83628079302E+02  0.22263345288E+02  0.12940766733E+03  0.00000000000E+00 0.  1.
         14    1    4    4    0    0  0.75245873177E+01  0.54069434368E+02  0.15523701495E+02  0.56754809975E+02  0.00000000000E+00 0. -1.
         -5    1    5    5    0  502  0.46084107809E+01 -0.90095470118E+02 -0.40795007451E+02  0.99119896179E+02  0.47000000000E+01 0.  1.
         13    1    6    6    0    0 -0.91038923546E+00 -0.70920068281E+01 -0.13825863394E+02  0.15565341885E+02  0.00000000000E+00 0. -1.
        -14    1    6    6    0    0  0.63221430892E+02 -0.85713235182E+02  0.10402006909E+03  0.14887539348E+03  0.00000000000E+00 0.  1.
</event>
<event>
12    1  0.8798177E-003  0.2187884E+03  0.7818608E-02  0.1135032E+00
         21   -1    0    0  503  502  0.00000000000E+00  0.00000000000E+00  0.94788502115E+03  0.94788502115E+03  0.00000000000E+00 0.  1.
         21   -1    0    0  501  503 -0.00000000000E+00 -0.00000000000E+00 -0.52820312953E+02  0.52820312953E+02  0.00000000000E+00 0.  1.
          6    2    1    2  501    0  0.26753069881E+02 -0.13079525974E+03  0.33491738982E+03  0.39934573326E+03  0.17170972585E+03 0.  0.
         24    2    3    3    0    0 -0.19345343050E+02 -0.11442468618E+03  0.14043180867E+03  0.19874715243E+03  0.79448641331E+02 0.  0.
         -6    2    1    2    0  502 -0.26753069881E+02  0.13079525974E+03  0.56014731837E+03  0.60135960084E+03  0.17333558356E+03 0.  0.
        -24    2    5    5    0    0 -0.56293702063E+02  0.13292913012E+03  0.32528691337E+03  0.36459241099E+03  0.79226987926E+02 0.  0.
          5    1    3    3  501    0  0.46098412931E+02 -0.16370573559E+02  0.19448558116E+03  0.20059858083E+03  0.47000000000E+01 0. -1.
        -13    1    4    4    0    0  0.22972681178E+02 -0.64864659652E+01  0.16368778357E+02  0.28944001556E+02  0.00000000000E+00 0.  1.
         14    1    4    4    0    0 -0.42318024227E+02 -0.10793822021E+03  0.12406303031E+03  0.16980315088E+03  0.00000000000E+00 0. -1.
         -5    1    5    5    0  502  0.29540632182E+02 -0.21338703797E+01  0.23486040500E+03  0.23676718985E+03  0.47000000000E+01 0.  1.
         13    1    6    6    0    0 -0.10920420644E+01  0.24076331583E+02  0.92641091820E+01  0.25820263696E+02  0.00000000000E+00 0. -1.
        -14    1    6    6    0    0 -0.55201659998E+02  0.10885279853E+03  0.31602280419E+03  0.33877214729E+03  0.00000000000E+00 0.  1.
</event>
<event>
12    1  0.8798177E-003  0.1720479E+03  0.7818608E-02  0.1177312E+00
         21   -1    0    0  503  502  0.00000000000E+00  0.00000000000E+00  0.21210714552E+02  0.21210714552E+02  0.00000000000E+00 0. -1.
         21   -1    0    0  501  503 -0.00000000000E+00 -0.00000000000E+00 -0.13486931659E+04  0.13486931659E+04  0.00000000000E+00 0. -1.
          6    2    1    2  501    0  0.46974071197E+01 -0.15139141594E+02 -0.67685763510E+03  0.69691566287E+03  0.16523898969E+03 0.  0.
         24    2    3    3    0    0  0.57826936937E+02 -0.41787729805E+02 -0.39731294025E+03  0.41108315840E+03  0.77727869075E+02 0.  0.
         -6    2    1    2    0  502 -0.46974071197E+01  0.15139141594E+02 -0.65062481626E+03  0.67298821760E+03  0.17131617042E+03 0.  0.
        -24    2    5    5    0    0  0.92593518668E+01  0.53040695114E+02 -0.60363452172E+03  0.61084727568E+03  0.76555257606E+02 0.  0.
          5    1    3    3  501    0 -0.53129529817E+02  0.26648588212E+02 -0.27954469485E+03  0.28583250447E+03  0.47000000000E+01 0. -1.
        -13    1    4    4    0    0 -0.16340868022E+01 -0.99641975251E+01 -0.23631130387E+03  0.23652692830E+03  0.00000000000E+00 0.  1.
         14    1    4    4    0    0  0.59461023739E+02 -0.31823532280E+02 -0.16100163638E+03  0.17455623011E+03  0.00000000000E+00 0. -1.
         -5    1    5    5    0  502 -0.13956758987E+02 -0.37901553521E+02 -0.46990294550E+02  0.62140941919E+02  0.47000000000E+01 0.  1.
         11    1    6    6    0    0  0.29256083834E+02  0.57122129817E+01 -0.38933925406E+03  0.39047868389E+03  0.00000000000E+00 0. -1.
        -12    1    6    6    0    0 -0.19996731967E+02  0.47328482133E+02 -0.21429526766E+03  0.22036859180E+03  0.00000000000E+00 0.  1.
</event>
<event>
12    1  0.8798177E-003  0.2284190E+03  0.7818608E-02  0.1128235E+00
         21   -1    0    0  503  502  0.00000000000E+00  0.00000000000E+00  0.11437831763E+03  0.11437831763E+03  0.00000000000E+00 0.  1.
         21   -1    0    0  501  503 -0.00000000000E+00 -0.00000000000E+00 -0.46879360622E+03  0.46879360622E+03  0.00000000000E+00 0.  1.
          6    2    1    2  501    0 -0.14729419383E+03 -0.14137890735E+02 -0.23326831770E+03  0.32461471633E+03  0.17048503314E+03 0.  0.
         24    2    3    3    0    0 -0.11676192577E+03 -0.50752616436E+02 -0.89720923591E+02  0.17328460734E+03  0.75950876396E+02 0.  0.
         -6    2    1    2    0  502  0.14729419383E+03  0.14137890735E+02 -0.12114697088E+03  0.25855720752E+03  0.17401086609E+03 0.  0.
        -24    2    5    5    0    0  0.17188715349E+03  0.34707653649E+02 -0.11838391204E+03  0.22603562537E+03  0.79545826725E+02 0.  0.
          5    1    3    3  501    0 -0.30532268052E+02  0.36614725701E+02 -0.14354739411E+03  0.15133010899E+03  0.47000000000E+01 0. -1.
        -13    1    4    4    0    0 -0.41586892039E+02 -0.48869661997E+02 -0.71178435866E+02  0.95833622417E+02  0.00000000000E+00 0.  1.
         14    1    4    4    0    0 -0.75175033735E+02 -0.18829544382E+01 -0.18542487725E+02  0.77450984923E+02  0.00000000000E+00 0. -1.
         -5    1    5    5    0  502 -0.24592959663E+02 -0.20569762915E+02 -0.27630588377E+01  0.32521582149E+02  0.47000000000E+01 0.  1.
         11    1    6    6    0    0  0.62905694248E+02 -0.80887450643E+01 -0.81519608150E+02  0.10328601395E+03  0.00000000000E+00 0. -1.
        -12    1    6    6    0    0  0.10898145924E+03  0.42796398714E+02 -0.36864303893E+02  0.12274961142E+03  0.00000000000E+00 0.  1.
</event>
<event>
12    1  0.8798177E-003  0.2161521E+03  0.7818608E-02  0.1137169E+00
         21   -1    0    0  501  502  0.00000000000E+00  0.00000000000E+00  0.19182113050E+03  0.19182113050E+03  0.00000000000E+00 0. -1.
         21   -1    0    0  502  503 -0.00000000000E+00 -0.00000000000E+00 -0.24238451855E+03  0.24238451855E+03  0.00000000000E+00 0. -1.
          6    2    1    2  501    0  0.13097906533E+03  0.91600058515E+01 -0.39822066310E+02  0.21978975759E+03  0.17170416220E+03 0.  0.
         24    2    3    3    0    0  0.38767011320E+02  0.26966720699E+02 -0.66896899488E+02  0.12193640513E+03  0.90350465089E+02 0.  0.
         -6    2    1    2    0  503 -0.13097906533E+03 -0.91600058515E+01 -0.10741321736E+02  0.21441589146E+03  0.16917262562E+03 0.  0.
        -24    2    5    5    0    0 -0.31784102899E+02  0.49142189855E+02  0.33778284994E+01  0.98397673072E+02  0.79028528518E+02 0.  0.
          5    1    3    3  501    0  0.92212054006E+02 -0.17806714847E+02  0.27074833178E+02  0.97853352469E+02  0.47000000000E+01 0. -1.
        -13    1    4    4    0    0  0.38135874421E+01 -0.28106261564E+02  0.19210618054E+00  0.28364454746E+02  0.00000000000E+00 0.  1.
         14    1    4    4    0    0  0.34953423878E+02  0.55072982262E+02 -0.67089005669E+02  0.93571950379E+02  0.00000000000E+00 0. -1.
         -5    1    5    5    0  503 -0.99194962428E+02 -0.58302195707E+02 -0.14119150236E+02  0.11601821839E+03  0.47000000000E+01 0.  1.
         13    1    6    6    0    0 -0.36555622669E+02 -0.55052807743E+01  0.18719687879E+02  0.41437282481E+02  0.00000000000E+00 0. -1.
        -14    1    6    6    0    0  0.47715197698E+01  0.54647470629E+02 -0.15341859379E+02  0.56960390591E+02  0.00000000000E+00 0.  1.
</event>
<event>
12    1  0.8798177E-003  0.2082212E+03  0.7818608E-02  0.1143297E+00
         21   -1    0    0  503  502  0.00000000000E+00  0.00000000000E+00  0.24641308902E+04  0.24641308902E+04  0.00000000000E+00 0.  1.
         21   -1    0    0  501  503 -0.00000000000E+00 -0.00000000000E+00 -0.20962894507E+02  0.20962894507E+02  0.00000000000E+00 0. -1.
          6    2    1    2  501    0  0.83727124904E+02  0.80544016128E+02  0.17254611924E+04  0.17377925480E+04  0.17090653415E+03 0.  0.
         24    2    3    3    0    0  0.10026232980E+03  0.10098620430E+02  0.12461358566E+04  0.12530133876E+04  0.83865723576E+02 0.  0.
         -6    2    1    2    0  502 -0.83727124904E+02 -0.80544016128E+02  0.71770680331E+03  0.74730123673E+03  0.17279616002E+03 0.  0.
        -24    2    5    5    0    0 -0.78997400906E+02 -0.50168151113E+02  0.23408541844E+03  0.26268097573E+03  0.73809749684E+02 0.  0.
          5    1    3    3  501    0 -0.16535204895E+02  0.70445395698E+02  0.47932533583E+03  0.48477916038E+03  0.47000000000E+01 0. -1.
        -11    1    4    4    0    0 -0.64490599101E+01  0.20539839086E+01  0.41016281629E+03  0.41021865522E+03  0.00000000000E+00 0.  1.
         12    1    4    4    0    0  0.10671138971E+03  0.80446365213E+01  0.83597304027E+03  0.84279473238E+03  0.00000000000E+00 0. -1.
         -5    1    5    5    0  502 -0.47297239987E+01 -0.30375865015E+02  0.48362138487E+03  0.48462026099E+03  0.47000000000E+01 0.  1.
         11    1    6    6    0    0  0.57103295251E+01 -0.24284745831E+02  0.23697434507E+02  0.34408213345E+02  0.00000000000E+00 0. -1.
        -12    1    6    6    0    0 -0.84707730431E+02 -0.25883405282E+02  0.21038798393E+03  0.22827276239E+03  0.00000000000E+00 0.  1.
</event>
<event>
12    1  0.8798177E-003  0.1775593E+03  0.7818608E-02  0.1170495E+00
         21   -1    0    0  501  502  0.00000000000E+00  0.00000000000E+00  0.86050080572E+02  0.86050080572E+02  0.00000000000E+00 0.  1.
         21   -1    0    0  502  503 -0.00000000000E+00 -0.00000000000E+00 -0.45351211275E+03  0.45351211275E+03  0.00000000000E+00 0.  1.
          6    2    1    2  501    0 -0.17121496443E+02  0.40320850249E+02 -0.63232204357E+02  0.18730787407E+03  0.17078352208E+03 0.  0.
         24    2    3    3    0    0 -0.31898232361E+02  0.84446088028E+02 -0.15920379286E+02  0.12078053138E+03  0.78650106631E+02 0.  0.
         -6    2    1    2    0  503  0.17121496443E+02 -0.40320850249E+02 -0.30422982782E+03  0.35225431925E+03  0.17207091762E+03 0.  0.
        -24    2    5    5    0    0 -0.22493169406E+02  0.36747284764E+02 -0.14347319717E+03  0.16956988236E+03  0.79454899723E+02 0.  0.
          5    1    3    3  501    0  0.14776735918E+02 -0.44125237779E+02 -0.47311825071E+02  0.66527342687E+02  0.47000000000E+01 0. -1.
        -11    1    4    4    0    0 -0.30853498277E+02  0.10881997990E+02  0.20581437377E+02  0.38651672676E+02  0.00000000000E+00 0.  1.
         12    1    4    4    0    0 -0.10447340842E+01  0.73564090038E+02 -0.36501816663E+02  0.82128858705E+02  0.00000000000E+00 0. -1.
         -5    1    5    5    0  503  0.39614665848E+02 -0.77068135013E+02 -0.16075663064E+03  0.18268443689E+03  0.47000000000E+01 0.  1.
         11    1    6    6    0    0  0.21155485792E+02  0.28426671311E+02 -0.10491733888E+03  0.11073968673E+03  0.00000000000E+00 0. -1.
        -12    1    6    6    0    0 -0.43648655198E+02  0.83206134534E+01 -0.38555858297E+02  0.58830195630E+02  0.00000000000E+00 0.  1.
</event>
<event>
12    1  0.8798177E-003  0.2652679E+03  0.7818608E-02  0.1104056E+00
         21   -1    0    0  503  502  0.00000000000E+00  0.00000000000E+00  0.80145324896E+02  0.80145324896E+02  0.00000000000E+00 0.  1.
         21   -1    0    0  501  503 -0.00000000000E+00 -0.00000000000E+00 -0.10411572596E+04  0.10411572596E+04  0.00000000000E+00 0. -1.
          6    2    1    2  501    0  0.17913350697E+03  0.91498068715E+02 -0.70282586525E+03  0.75113087296E+03  0.17254762112E+03 0.  0.
         24    2    3    3    0    0  0.37127327860E+02  0.63245473621E+02 -0.41568038567E+03  0.42951218495E+03  0.79448760730E+02 0.  0.
         -6    2    1    2    0  502 -0.17913350697E+03 -0.91498068715E+02 -0.25818606948E+03  0.37017171156E+03  0.17293449531E+03 0.  0.
        -24    2    5    5    0    0 -0.41406779430E+02 -0.61510349863E+02 -0.53975502670E+02  0.12199443549E+03  0.80444035694E+02 0.  0.
          5    1    3    3  501    0  0.14200617911E+03  0.28252595094E+02 -0.28714547958E+03  0.32161868801E+03  0.47000000000E+01 0. -1.
        -13    1    4    4    0    0 -0.19468908526E+02  0.12023211961E+02 -0.39361016082E+02  0.45528953557E+02  0.00000000000E+00 0.  1.
         14    1    4    4    0    0  0.56596236386E+02  0.51222261660E+02 -0.37631936959E+03  0.38398323139E+03  0.00000000000E+00 0. -1.
         -5    1    5    5    0  502 -0.13772672754E+03 -0.29987718852E+02 -0.20421056681E+03  0.24817727607E+03  0.47000000000E+01 0.  1.
         13    1    6    6    0    0 -0.19067866006E+02  0.46229242924E+01 -0.48094784171E+02  0.51942884089E+02  0.00000000000E+00 0. -1.
        -14    1    6    6    0    0 -0.22338913424E+02 -0.66133274155E+02 -0.58807184993E+01  0.70051551400E+02  0.00000000000E+00 0.  1.
</event>
<event>
12    1  0.8798177E-003  0.2438300E+03  0.7818608E-02  0.1117442E+00
         21   -1    0    0  503  502  0.00000000000E+00  0.00000000000E+00  0.13714727820E+03  0.13714727820E+03  0.00000000000E+00 0.  1.
         21   -1    0    0  501  503 -0.00000000000E+00 -0.00000000000E+00 -0.58679791405E+03  0.58679791405E+03  0.00000000000E+00 0.  1.
          6    2    1    2  501    0  0.16895682931E+03  0.30643922603E+02 -0.41134028210E+03  0.47817766006E+03  0.17311148645E+03 0.  0.
         24    2    3    3    0    0  0.13678419022E+03  0.14096678191E+02 -0.41118643163E+03  0.44169473701E+03  0.84328690983E+02 0.  0.
         -6    2    1    2    0  502 -0.16895682931E+03 -0.30643922603E+02 -0.38310353750E+02  0.24576753219E+03  0.17160575896E+03 0.  0.
        -24    2    5    5    0    0 -0.67669061896E+02  0.14285944882E+01 -0.84352288129E+02  0.12988048415E+03  0.71920016904E+02 0.  0.
          5    1    3    3  501    0  0.32172639099E+02  0.16547244412E+02 -0.15385047193E+00  0.36482923048E+02  0.47000000000E+01 0. -1.
        -11    1    4    4    0    0  0.46618597762E+02  0.46402296262E+01 -0.26910646930E+03  0.27315401738E+03  0.00000000000E+00 0.  1.
         12    1    4    4    0    0  0.90165592454E+02  0.94564485646E+01 -0.14207996232E+03  0.16854071964E+03  0.00000000000E+00 0. -1.
         -5    1    5    5    0  502 -0.10128776742E+03 -0.32072517091E+02  0.46041934379E+02  0.11588704803E+03  0.47000000000E+01 0.  1.
         13    1    6    6    0    0 -0.69551283032E+02 -0.23711006489E+02 -0.60665480475E+02  0.95288474232E+02  0.00000000000E+00 0. -1.
        -14    1    6    6    0    0  0.18822211356E+01  0.25139600977E+02 -0.23686807653E+02  0.34592009923E+02  0.00000000000E+00 0.  1.
</event>
<event>
12    1  0.8798177E-003  0.1893173E+03  0.7818608E-02  0.1161810E+00
         21   -1    0    0  503  502  0.00000000000E+00  0.00000000000E+00  0.68310425376E+02  0.68310425376E+02  0.00000000000E+00 0.  1.
         21   -1    0    0  501  503 -0.00000000000E+00 -0.00000000000E+00 -0.54826261004E+03  0.54826261004E+03  0.00000000000E+00 0. -1.
          6    2    1    2  501    0  0.84833577492E+01  0.78382761861E+02 -0.34476240303E+03  0.39332194534E+03  0.17211976478E+03 0.  0.
         24    2    3    3    0    0 -0.38079293987E+02  0.61184235579E+02 -0.11026072861E+03  0.15357834241E+03  0.78964141664E+02 0.  0.
         -6    2    1    2    0  502 -0.84833577492E+01 -0.78382761861E+02 -0.13518978164E+03  0.22325109008E+03  0.15921352783E+03 0.  0.
        -24    2    5    5    0    0 -0.12631719465E+02 -0.22074587357E+02 -0.14432804913E+03  0.16586278679E+03  0.77672585471E+02 0.  0.
          5    1    3    3  501    0  0.46562651737E+02  0.17198526282E+02 -0.23450167442E+03  0.23974360293E+03  0.47000000000E+01 0. -1.
        -13    1    4    4    0    0 -0.59642875170E+02  0.56024876223E+02 -0.70307447813E+02  0.10788510802E+03  0.00000000000E+00 0.  1.
         14    1    4    4    0    0  0.21563581182E+02  0.51593593565E+01 -0.39953280797E+02  0.45693234388E+02  0.00000000000E+00 0. -1.
         -5    1    5    5    0  502  0.41483617158E+01 -0.56308174504E+02  0.91382674916E+01  0.57388303283E+02  0.47000000000E+01 0.  1.
         11    1    6    6    0    0  0.30033603749E+02 -0.24830694994E+02 -0.67714908013E+02  0.78127392989E+02  0.00000000000E+00 0. -1.
        -12    1    6    6    0    0 -0.42665323214E+02  0.27561076370E+01 -0.76613141117E+02  0.87735393805E+02  0.00000000000E+00 0.  1.
</event>
<event>
12    1  0.8798177E-003  0.2394578E+03  0.7818608E-02  0.1120411E+00
         21   -1    0    0  503  502  0.00000000000E+00  0.00000000000E+00  0.44935605639E+03  0.44935605639E+03  0.00000000000E+00 0.  1.
         21   -1    0    0  501  503 -0.00000000000E+00 -0.00000000000E+00 -0.12721412381E+03  0.12721412381E+03  0.00000000000E+00 0. -1.
          6    2    1    2  501    0  0.14796728023E+03 -0.72351337958E+02  0.14496422829E+03  0.27991907364E+03  0.17381319910E+03 0.  0.
         24    2    3    3    0    0  0.15091757668E+02 -0.71578792663E+02  0.71098788459E+02  0.12781813832E+03  0.77013986106E+02 0.  0.
         -6    2    1    2    0  502 -0.14796728023E+03  0.72351337958E+02  0.17717770429E+03  0.29665110657E+03  0.17170005244E+03 0.  0.
        -24    2    5    5    0    0 -0.10607865960E+03  0.85322354601E+02  0.55882992603E+02  0.16758755286E+03  0.80187859407E+02 0.  0.
          5    1    3    3  501    0  0.13287552256E+03 -0.77254529475E+00  0.73865439833E+02  0.15210093531E+03  0.47000000000E+01 0. -1.
        -11    1    4    4    0    0 -0.91170280058E+01 -0.24381731872E+02 -0.12448976770E+02  0.28854221032E+02  0.00000000000E+00 0.  1.
         12    1    4    4    0    0  0.24208785674E+02 -0.47197060791E+02  0.83547765229E+02  0.98963917293E+02  0.00000000000E+00 0. -1.
         -5    1    5    5    0  502 -0.41888620631E+02 -0.12971016643E+02  0.12129471168E+03  0.12906355370E+03  0.47000000000E+01 0.  1.
         13    1    6    6    0    0 -0.80780550316E+02  0.13633186250E+02  0.26857131564E+02  0.86212914303E+02  0.00000000000E+00 0. -1.
        -14    1    6    6    0    0 -0.25298109281E+02  0.71689168351E+02  0.29025861039E+02  0.81374638562E+02  0.00000000000E+00 0.  1.
</event>
<event>
12    1  0.8798177E-003  0.1982371E+03  0.7818608E-02  0.1152227E+00
         21   -1    0    0  503  502  0.00000000000E+00  0.00000000000E+00  0.45079505784E+03  0.45079505784E+03  0.00000000000E+00 0.  1.
         21   -1    0    0  501  503 -0.00000000000E+00 -0.00000000000E+00 -0.86033793233E+02  0.86033793233E+02  0.00000000000E+00 0.  1.
          6    2    1    2  501    0  0.58731371902E+02 -0.68967620317E+02  0.20721312970E+03  0.28361084857E+03  0.17114884052E+03 0.  0.
         24    2    3    3    0    0  0.73265300511E+02 -0.77432728055E+02  0.71755041023E+02  0.14703165207E+03  0.71455504792E+02 0.  0.
         -6    2    1    2    0  502 -0.58731371902E+02  0.68967620317E+02  0.15754813491E+03  0.25321800250E+03  0.17632933754E+03 0.  0.
        -24    2    5    5    0    0 -0.18516729891E+02 -0.29041147700E+02  0.40993807197E+02  0.95642822510E+02  0.79251496665E+02 0.  0.
          5    1    3    3  501    0 -0.14533928609E+02  0.84651077379E+01  0.13545808868E+03  0.13657919650E+03  0.47000000000E+01 0. -1.
        -11    1    4    4    0    0  0.41546137941E+02 -0.30171256103E+02 -0.48734836175E+01  0.51576517091E+02  0.00000000000E+00 0.  1.
         12    1    4    4    0    0  0.31719162570E+02 -0.47261471953E+02  0.76628524641E+02  0.95455134979E+02  0.00000000000E+00 0. -1.
         -5    1    5    5    0  502 -0.40214642011E+02  0.98008768017E+02  0.11655432771E+03  0.15757517999E+03  0.47000000000E+01 0.  1.
         11    1    6    6    0    0  0.58934621251E+01  0.49624460482E+01 -0.20133565766E+02  0.21557347635E+02  0.00000000000E+00 0. -1.
        -12    1    6    6    0    0 -0.24410192016E+02 -0.34003593748E+02  0.61127372963E+02  0.74085474875E+02  0.00000000000E+00 0.  1.
</event>
<event>
12    1  0.8798177E-003  0.1791346E+03  0.7818608E-02  0.1169154E+00
         21   -1    0    0  501  502  0.00000000000E+00  0.00000000000E+00  0.28046426282E+03  0.28046426282E+03  0.00000000000E+00 0. -1.
         21   -1    0    0  502  503 -0.00000000000E+00 -0.00000000000E+00 -0.11324000729E+03  0.11324000729E+03  0.00000000000E+00 0.  1.
          6    2    1    2  501    0 -0.40279852722E+02 -0.19766235362E+02  0.76892367865E+02  0.19494006885E+03  0.17342440316E+03 0.  0.
         24    2    3    3    0    0 -0.30208988351E+02 -0.57918533041E+02 -0.62641424412E+01  0.10277654389E+03  0.79098919371E+02 0.  0.
         -6    2    1    2    0  503  0.40279852722E+02  0.19766235362E+02  0.90331887667E+02  0.19876420126E+03  0.17127226039E+03 0.  0.
        -24    2    5    5    0    0 -0.13081828465E+02  0.19036752862E+02  0.11321561055E+03  0.14050824932E+03  0.79945365461E+02 0.  0.
          5    1    3    3  501    0 -0.10070864372E+02  0.38152297678E+02  0.83156510306E+02  0.92163524963E+02  0.47000000000E+01 0. -1.
        -13    1    4    4    0    0  0.24149876440E+02 -0.27942608769E+01  0.41447452698E+01  0.24661778915E+02  0.00000000000E+00 0.  1.
         14    1    4    4    0    0 -0.54358864791E+02 -0.55124272164E+02 -0.10408887711E+02  0.78114764970E+02  0.00000000000E+00 0. -1.
         -5    1    5    5    0  503  0.53361681187E+02  0.72948250011E+00 -0.22883722885E+02  0.58255951944E+02  0.47000000000E+01 0.  1.
         11    1    6    6    0    0  0.34900340233E+01  0.43750635293E+02  0.97351594035E+02  0.10678778623E+03  0.00000000000E+00 0. -1.
        -12    1    6    6    0    0 -0.16571862488E+02 -0.24713882431E+02  0.15864016516E+02  0.33720463092E+02  0.00000000000E+00 0.  1.
</event>
<event>
12    1  0.8798177E-003  0.2067577E+03  0.7818608E-02  0.1144407E+00
         21   -1    0    0  501  502  0.00000000000E+00  0.00000000000E+00  0.15182243732E+03  0.15182243732E+03  0.00000000000E+00 0. -1.
         21   -1    0    0  502  503 -0.00000000000E+00 -0.00000000000E+00 -0.28808410940E+03  0.28808410940E+03  0.00000000000E+00 0.  1.
          6    2    1    2  501    0 -0.98059397682E+02 -0.55505737122E+02 -0.31272810523E+02  0.20910937249E+03  0.17335572866E+03 0.  0.
         24    2    3    3    0    0 -0.10300554165E+03 -0.97719429391E+02 -0.16820068574E+02  0.16397145157E+03  0.80277604174E+02 0.  0.
         -6    2    1    2    0  503  0.98059397682E+02  0.55505737122E+02 -0.10498886156E+03  0.23079717423E+03  0.17189573076E+03 0.  0.
        -24    2    5    5    0    0 -0.14811843792E+02  0.20769388192E+02 -0.65831743306E+02  0.10629054389E+03  0.79455038173E+02 0.  0.
          5    1    3    3  501    0  0.49461439685E+01  0.42213692269E+02 -0.14452741950E+02  0.45137920920E+02  0.47000000000E+01 0. -1.
        -11    1    4    4    0    0 -0.68891145628E+02 -0.98775287471E+02 -0.34854543590E+02  0.12536900163E+03  0.00000000000E+00 0.  1.
         12    1    4    4    0    0 -0.34114396022E+02  0.10558580793E+01  0.18034475016E+02  0.38602449940E+02  0.00000000000E+00 0. -1.
         -5    1    5    5    0  503  0.11287124147E+03  0.34736348930E+02 -0.39157118250E+02  0.12450663034E+03  0.47000000000E+01 0.  1.
         13    1    6    6    0    0 -0.40424126260E+02  0.27645115741E+02 -0.62741708016E+02  0.79591986612E+02  0.00000000000E+00 0. -1.
        -14    1    6    6    0    0  0.25612282467E+02 -0.68757275494E+01 -0.30900352902E+01  0.26698557276E+02  0.00000000000E+00 0.  1.
</event>
<event>
12    1  0.8798177E-003  0.2978324E+03  0.7818608E-02  0.1086334E+00
         21   -1    0    0  503  502  0.00000000000E+00  0.00000000000E+00  0.50795414338E+03  0.50795414338E+03  0.00000000000E+00 0. -1.
         21   -1    0    0  501  503 -0.00000000000E+00 -0.00000000000E+00 -0.17497721426E+03  0.17497721426E+03  0.00000000000E+00 0. -1.
          6    2    1    2  501    0  0.58653521328E+02 -0.23585879123E+03  0.15083342829E+03  0.33384856687E+03  0.17214684878E+03 0.  0.
         24    2    3    3    0    0  0.45781303942E+01 -0.93047805854E+02  0.13050321062E+03  0.17972350985E+03  0.81182501562E+02 0.  0.
         -6    2    1    2    0  502 -0.58653521328E+02  0.23585879123E+03  0.18214350083E+03  0.34908279078E+03  0.17208409269E+03 0.  0.
        -24    2    5    5    0    0 -0.32532333795E+01  0.34226682239E+02  0.69762627659E+02  0.11164595721E+03  0.80099601988E+02 0.  0.
          5    1    3    3  501    0  0.54075390934E+02 -0.14281098538E+03  0.20330217670E+02  0.15412505701E+03  0.47000000000E+01 0. -1.
        -11    1    4    4    0    0 -0.34340188003E+02 -0.18421195770E+02  0.48484681269E+02  0.62204125936E+02  0.00000000000E+00 0.  1.
         12    1    4    4    0    0  0.38918318397E+02 -0.74626610085E+02  0.82018529349E+02  0.11751938392E+03  0.00000000000E+00 0. -1.
         -5    1    5    5    0  502 -0.55400287949E+02  0.20163210899E+03  0.11238087317E+03  0.23743683357E+03  0.47000000000E+01 0.  1.
         11    1    6    6    0    0  0.22107047186E+02  0.48793945648E+02  0.60854442837E+02  0.81073015734E+02  0.00000000000E+00 0. -1.
        -12    1    6    6    0    0 -0.25360280565E+02 -0.14567263409E+02  0.89081848224E+01  0.30572941475E+02  0.00000000000E+00 0.  1.
</event>
<event>
12    1  0.8798177E-003  0.3318239E+03  0.7818608E-02  0.1070571E+00
         21   -1    0    0  503  502  0.00000000000E+00  0.00000000000E+00  0.97685643576E+02  0.97685643576E+02  0.00000000000E+00 0.  1.
         21   -1    0    0  501  503 -0.00000000000E+00 -0.00000000000E+00 -0.11444294795E+04  0.11444294795E+04  0.00000000000E+00 0. -1.
          6    2    1    2  501    0 -0.12588813997E+02 -0.28155195265E+03 -0.43400185583E+03  0.54631925364E+03  0.17514889595E+03 0.  0.
         24    2    3    3    0    0  0.59619457583E+02 -0.16020818176E+03 -0.22581377617E+03  0.29471895211E+03  0.81524585229E+02 0.  0.
         -6    2    1    2    0  502  0.12588813997E+02  0.28155195265E+03 -0.61274198008E+03  0.69579586943E+03  0.17102390909E+03 0.  0.
        -24    2    5    5    0    0  0.56705960673E+02  0.10946352733E+03 -0.29118960342E+03  0.32840129992E+03  0.88646482523E+02 0.  0.
          5    1    3    3  501    0 -0.72208271580E+02 -0.12134377089E+03 -0.20818807966E+03  0.25160030153E+03  0.47000000000E+01 0. -1.
        -11    1    4    4    0    0 -0.56761584026E+01 -0.23466176092E+02 -0.17239796411E+01  0.24204385974E+02  0.00000000000E+00 0.  1.
         12    1    4    4    0    0  0.65295615986E+02 -0.13674200567E+03 -0.22408979653E+03  0.27051456613E+03  0.00000000000E+00 0. -1.
         -5    1    5    5    0  502 -0.44117146677E+02  0.17208842532E+03 -0.32155237667E+03  0.36739456950E+03  0.47000000000E+01 0.  1.
         11    1    6    6    0    0  0.33774576464E+02  0.10830779303E+03 -0.28145879384E+03  0.30346392319E+03  0.00000000000E+00 0. -1.
        -12    1    6    6    0    0  0.22931384210E+02  0.11557343022E+01 -0.97308095732E+01  0.24937376736E+02  0.00000000000E+00 0.  1.
</event>
<event>
12    1  0.8798177E-003  0.2002671E+03  0.7818608E-02  0.1149666E+00
         21   -1    0    0  503  502  0.00000000000E+00  0.00000000000E+00  0.24252037426E+03  0.24252037426E+03  0.00000000000E+00 0.  1.
         21   -1    0    0  501  503 -0.00000000000E+00 -0.00000000000E+00 -0.20105977820E+03  0.20105977820E+03  0.00000000000E+00 0.  1.
          6    2    1    2  501    0  0.39855397160E+02 -0.92449512457E+02  0.11497111846E+03  0.23092266871E+03  0.17312294997E+03 0.  0.
         24    2    3    3    0    0  0.35764551422E+02 -0.10000045730E+03  0.14673050157E+03  0.19768864694E+03  0.79194484906E+02 0.  0.
         -6    2    1    2    0  502 -0.39855397160E+02  0.92449512457E+02 -0.73510522395E+02  0.21265748375E+03  0.17229057854E+03 0.  0.
        -24    2    5    5    0    0 -0.66361796352E+02  0.30275778876E+02  0.50986611392E+01  0.10888053023E+03  0.80675043948E+02 0.  0.
          5    1    3    3  501    0  0.40908457384E+01  0.75509448421E+01 -0.31759383115E+02  0.33234021765E+02  0.47000000000E+01 0. -1.
        -13    1    4    4    0    0  0.23994955082E+02 -0.74064428988E+02  0.40603549746E+02  0.87806296828E+02  0.00000000000E+00 0.  1.
         14    1    4    4    0    0  0.11769596340E+02 -0.25936028311E+02  0.10612695183E+03  0.10988235011E+03  0.00000000000E+00 0. -1.
         -5    1    5    5    0  502  0.26506399192E+02  0.62173733582E+02 -0.78609183534E+02  0.10377695352E+03  0.47000000000E+01 0.  1.
         13    1    6    6    0    0 -0.40748853505E+02  0.37236176685E+01  0.40627359576E+02  0.57662090984E+02  0.00000000000E+00 0. -1.
        -14    1    6    6    0    0 -0.25612942847E+02  0.26552161207E+02 -0.35528698437E+02  0.51218439245E+02  0.00000000000E+00 0.  1.
</event>
<event>
12    1  0.8798177E-003  0.2066174E+03  0.7818608E-02  0.1144447E+00
         21   -1    0    0  501  502  0.00000000000E+00  0.00000000000E+00  0.94576669122E+03  0.94576669122E+03  0.00000000000E+00 0.  1.
         21   -1    0    0  502  503 -0.00000000000E+00 -0.00000000000E+00 -0.57062485212E+02  0.57062485212E+02  0.00000000000E+00 0. -1.
          6    2    1    2  501    0 -0.50683763387E+02 -0.10387638633E+03  0.67462588515E+03  0.70530556920E+03  0.17022547847E+03 0.  0.
         24    2    3    3    0    0  0.88634168045E+01 -0.12008692127E+03  0.49966532296E+03  0.51972018068E+03  0.77098653785E+02 0.  0.
         -6    2    1    2    0  503  0.50683763387E+02  0.10387638633E+03  0.21407832085E+03  0.29752360723E+03  0.17126477131E+03 0.  0.
        -24    2    5    5    0    0  0.33934510039E+02  0.13898004742E+03  0.14417427839E+03  0.21738953418E+03  0.77491821950E+02 0.  0.
          5    1    3    3  501    0 -0.59547180191E+02  0.16210534941E+02  0.17496056219E+03  0.18558538852E+03  0.47000000000E+01 0. -1.
        -13    1    4    4    0    0 -0.29534758515E+02 -0.35353226199E+02  0.22684362985E+03  0.23147394015E+03  0.00000000000E+00 0.  1.
         14    1    4    4    0    0  0.38398175320E+02 -0.84733695068E+02  0.27282169311E+03  0.28824624053E+03  0.00000000000E+00 0. -1.
         -5    1    5    5    0  503  0.16749253348E+02 -0.35103661098E+02  0.69904042464E+02  0.80134073047E+02  0.47000000000E+01 0.  1.
         13    1    6    6    0    0  0.28833121339E+02  0.75487737348E+02  0.12849427026E+03  0.15179105660E+03  0.00000000000E+00 0. -1.
        -14    1    6    6    0    0  0.51013887000E+01  0.63492310077E+02  0.15680008133E+02  0.65598477578E+02  0.00000000000E+00 0.  1.
</event>
<event>
12    1  0.8798177E-003  0.1772747E+03  0.7818608E-02  0.1170484E+00
         21   -1    0    0  503  502  0.00000000000E+00  0.00000000000E+00  0.26118627432E+03  0.26118627432E+03  0.00000000000E+00 0. -1.
         21   -1    0    0  501  503 -0.00000000000E+00 -0.00000000000E+00 -0.12573731729E+03  0.12573731729E+03  0.00000000000E+00 0.  1.
          6    2    1    2  501    0  0.42188642488E+02 -0.24868673881E+01  0.10806375737E+03  0.20761525949E+03  0.17216345214E+03 0.  0.
         24    2    3    3    0    0  0.14939660145E+02  0.21496973030E+02 -0.12070861590E+02  0.82028045524E+02  0.76795711197E+02 0.  0.
         -6    2    1    2    0  502 -0.42188642488E+02  0.24868673881E+01  0.27385199668E+02  0.17930833212E+03  0.17209143716E+03 0.  0.
        -24    2    5    5    0    0  0.51403329594E+01  0.29913420661E+02  0.70360733116E+02  0.10958578041E+03  0.78340122195E+02 0.  0.
          5    1    3    3  501    0  0.27248982343E+02 -0.23983840418E+02  0.12013461896E+03  0.12558721397E+03  0.47000000000E+01 0. -1.
        -11    1    4    4    0    0  0.34413183459E+01 -0.25803241200E+02 -0.19845066534E+02  0.32733417086E+02  0.00000000000E+00 0.  1.
         12    1    4    4    0    0  0.11498341799E+02  0.47300214230E+02  0.77742049437E+01  0.49294628438E+02  0.00000000000E+00 0. -1.
         -5    1    5    5    0  502 -0.47328975447E+02 -0.27426553273E+02 -0.42975533448E+02  0.69722551707E+02  0.47000000000E+01 0.  1.
         13    1    6    6    0    0  0.32859807035E+02  0.25757408639E+02  0.70056976520E+02  0.81554834175E+02  0.00000000000E+00 0. -1.
        -14    1    6    6    0    0 -0.27719474076E+02  0.41560120217E+01  0.30375659642E+00  0.28030946239E+02  0.00000000000E+00 0.  1.
</event>
<event>
12    1  0.8798177E-003  0.1905007E+03  0.7818608E-02  0.1158127E+00
         21   -1    0    0  503  502  0.00000000000E+00  0.00000000000E+00  0.10375743862E+03  0.10375743862E+03  0.00000000000E+00 0. -1.
         21   -1    0    0  501  503 -0.00000000000E+00 -0.00000000000E+00 -0.35492693532E+03  0.35492693532E+03  0.00000000000E+00 0. -1.
          6    2    1    2  501    0  0.67220642886E+02 -0.45637400068E+02 -0.95326431694E+02  0.21255926821E+03  0.17173504828E+03 0.  0.
         24    2    3    3    0    0  0.10234071583E+03 -0.56378556527E+02 -0.10219004846E+03  0.17490304428E+03  0.80598418961E+02 0.  0.
         -6    2    1    2    0  502 -0.67220642886E+02  0.45637400068E+02 -0.15584306500E+03  0.24612510573E+03  0.17230530940E+03 0.  0.
        -24    2    5    5    0    0 -0.93138578285E+02 -0.15902947649E+02 -0.95318446711E+02  0.15587947873E+03  0.79278667357E+02 0.  0.
          5    1    3    3  501    0 -0.35120072948E+02  0.10741156459E+02  0.68636167705E+01  0.37656223936E+02  0.47000000000E+01 0. -1.
        -11    1    4    4    0    0  0.52030288347E+02 -0.66187484998E+02 -0.36965644844E+02  0.91947773081E+02  0.00000000000E+00 0.  1.
         12    1    4    4    0    0  0.50310427487E+02  0.98089284706E+01 -0.65224403621E+02  0.82955271197E+02  0.00000000000E+00 0. -1.
         -5    1    5    5    0  502  0.25917935399E+02  0.61540347717E+02 -0.60524618288E+02  0.90245626993E+02  0.47000000000E+01 0.  1.
         11    1    6    6    0    0 -0.46271113034E+02  0.30134232224E+02 -0.59015464078E+02  0.80820250268E+02  0.00000000000E+00 0. -1.
        -12    1    6    6    0    0 -0.46867465251E+02 -0.46037179873E+02 -0.36302982633E+02  0.75059228465E+02  0.00000000000E+00 0.  1.
</event>
<event>
12    1  0.8798177E-003  0.2281610E+03  0.7818608E-02  0.1129376E+00
         21   -1    0    0  501  502  0.00000000000E+00  0.00000000000E+00  0.54134267495E+03  0.54134267495E+03  0.00000000000E+00 0. -1.
         21   -1    0    0  502  503 -0.00000000000E+00 -0.00000000000E+00 -0.92869710618E+02  0.92869710618E+02  0.00000000000E+00 0.  1.
          6    2    1    2  501    0 -0.90698943635E+02 -0.10306219422E+03  0.23214251574E+03  0.32549588126E+03  0.18223420877E+03 0.  0.
         24    2    3    3    0    0 -0.27773601737E+02 -0.97238443340E+02  0.59036265472E+02  0.14115549336E+03  0.78821982012E+02 0.  0.
         -6    2    1    2    0  503  0.90698943635E+02  0.10306219422E+03  0.21633044859E+03  0.30871650431E+03  0.17221760303E+03 0.  0.
        -24    2    5    5    0    0  0.29548417573E+02  0.12819870408E+03  0.15025426282E+03  0.21512492728E+03  0.79964830595E+02 0.  0.
          5    1    3    3  501    0 -0.62925341899E+02 -0.58237508792E+01  0.17310625027E+03  0.18434038790E+03  0.47000000000E+01 0. -1.
        -11    1    4    4    0    0  0.27608805148E+02 -0.25706942027E+02  0.18717969786E+02  0.42112413645E+02  0.00000000000E+00 0.  1.
         12    1    4    4    0    0 -0.55382406885E+02 -0.71531501313E+02  0.40318295686E+02  0.99043079716E+02  0.00000000000E+00 0. -1.
         -5    1    5    5    0  503  0.61150526063E+02 -0.25136509859E+02  0.66076185768E+02  0.93591577031E+02  0.47000000000E+01 0.  1.
         11    1    6    6    0    0 -0.66800647564E+01  0.27934796323E+02  0.85955048007E+02  0.90626962813E+02  0.00000000000E+00 0. -1.
        -12    1    6    6    0    0  0.36228482329E+02  0.10026390776E+03  0.64299214811E+02  0.12449796446E+03  0.00000000000E+00 0.  1.
</event>
<event>
12    1  0.8798177E-003  0.2093506E+03  0.7818608E-02  0.1142320E+00
         21   -1    0    0  503  502  0.00000000000E+00  0.00000000000E+00  0.16894071411E+03  0.16894071411E+03  0.00000000000E+00 0.  1.
         21   -1    0    0  501  503 -0.00000000000E+00 -0.00000000000E+00 -0.33958793712E+03  0.33958793712E+03  0.00000000000E+00 0. -1.
          6    2    1    2  501    0  0.63440438008E+02 -0.10044043142E+03 -0.20981093462E+03  0.29554628932E+03  0.17092106777E+03 0.  0.
         24    2    3    3    0    0 -0.29949325277E+02 -0.31074470897E+02 -0.11085046895E+03  0.14274397216E+03  0.78901396028E+02 0.  0.
         -6    2    1    2    0  502 -0.63440438008E+02  0.10044043142E+03  0.39163711606E+02  0.21298236190E+03  0.17237958330E+03 0.  0.
        -24    2    5    5    0    0 -0.82932711820E+02  0.11496599205E+03  0.63878343165E+02  0.17799888490E+03  0.86649560195E+02 0.  0.
          5    1    3    3  501    0  0.93389763285E+02 -0.69365960518E+02 -0.98960465664E+02  0.15280231716E+03  0.47000000000E+01 0. -1.
        -11    1    4    4    0    0  0.12753433207E+02 -0.63363124988E+01  0.63384062687E+01  0.15587633197E+02  0.00000000000E+00 0.  1.
         12    1    4    4    0    0 -0.42702758485E+02 -0.24738158398E+02 -0.11718887522E+03  0.12715633896E+03  0.00000000000E+00 0. -1.
         -5    1    5    5    0  502  0.19492273812E+02 -0.14525560637E+02 -0.24714631559E+02  0.34983477004E+02  0.47000000000E+01 0.  1.
         11    1    6    6    0    0 -0.32501994991E+02 -0.44577623678E+01  0.28918341827E+02  0.43732388658E+02  0.00000000000E+00 0. -1.
        -12    1    6    6    0    0 -0.50430716829E+02  0.11942375442E+03  0.34960001338E+02  0.13426649624E+03  0.00000000000E+00 0.  1.
</event>
<event>
12    1  0.8798177E-003  0.1948916E+03  0.7818608E-02  0.1155005E+00
         21   -1    0    0  503  502  0.00000000000E+00  0.00000000000E+00  0.14073993484E+03  0.14073993484E+03  0.00000000000E+00 0.  1.
         21   -1    0    0  501  503 -0.00000000000E+00 -0.00000000000E+00 -0.37154863585E+03  0.37154863585E+03  0.00000000000E+00 0. -1.
          6    2    1    2  501    0  0.14681825326E+02  0.86906823445E+02 -0.25212308904E+03  0.31623495017E+03  0.16932259071E+03 0.  0.
         24    2    3    3    0    0 -0.39242340532E+02  0.24057011383E+02 -0.74982304540E+02  0.12063622299E+03  0.82535151402E+02 0.  0.
         -6    2    1    2    0  502 -0.14681825326E+02 -0.86906823445E+02  0.21314388025E+02  0.19605362052E+03  0.17382280352E+03 0.  0.
        -24    2    5    5    0    0  0.22594534431E+02 -0.66404265139E+02 -0.46351748229E+02  0.11598691152E+03  0.79902688726E+02 0.  0.
          5    1    3    3  501    0  0.53924165858E+02  0.62849812062E+02 -0.17714078450E+03  0.19559872718E+03  0.47000000000E+01 0. -1.
        -11    1    4    4    0    0  0.64874434361E+01  0.32399486484E+02 -0.75064904876E+00  0.33051128888E+02  0.00000000000E+00 0.  1.
         12    1    4    4    0    0 -0.45729783968E+02 -0.83424751005E+01 -0.74231655491E+02  0.87585094106E+02  0.00000000000E+00 0. -1.
         -5    1    5    5    0  502 -0.37276359757E+02 -0.20502558307E+02  0.67666136253E+02  0.80066708995E+02  0.47000000000E+01 0.  1.
         11    1    6    6    0    0  0.29155693336E+02  0.37242910175E+01  0.36358831767E+01  0.29616624453E+02  0.00000000000E+00 0. -1.
        -12    1    6    6    0    0 -0.65611589056E+01 -0.70128556156E+02 -0.49987631405E+02  0.86370287068E+02  0.00000000000E+00 0.  1.
</event>
<event>
12    1  0.8798177E-003  0.3645704E+03  0.7818608E-02  0.1056812E+00
         21   -1    0    0  501  502  0.00000000000E+00  0.00000000000E+00  0.19006007544E+04  0.19006007544E+04  0.00000000000E+00 0. -1.
         21   -1    0    0  502  503 -0.00000000000E+00 -0.00000000000E+00 -0.71988062240E+02  0.71988062240E+02  0.00000000000E+00 0. -1.
          6    2    1    2  501    0 -0.20583743528E+03  0.24669073335E+03  0.74600617241E+03  0.83032328868E+03  0.17229679851E+03 0.  0.
         24    2    3    3    0    0 -0.25274533729E+02  0.10220603949E+03  0.23123597930E+03  0.26597478830E+03  0.78661511070E+02 0.  0.
         -6    2    1    2    0  503  0.20583743528E+03 -0.24669073335E+03  0.10826065198E+04  0.11422655280E+04  0.17177977782E+03 0.  0.
        -24    2    5    5    0    0  0.19849673864E+02 -0.77433671650E+02  0.29973669485E+03  0.31998415697E+03  0.78471596227E+02 0.  0.
          5    1    3    3  501    0 -0.18056290155E+03  0.14448469386E+03  0.51477019311E+03  0.56434850038E+03  0.47000000000E+01 0. -1.
        -13    1    4    4    0    0 -0.19171258076E+02  0.57387248211E+02  0.47982441682E+02  0.77221422566E+02  0.00000000000E+00 0.  1.
         14    1    4    4    0    0 -0.61032756529E+01  0.44818791282E+02  0.18325353762E+03  0.18875336573E+03  0.00000000000E+00 0. -1.
         -5    1    5    5    0  503  0.18598776141E+03 -0.16925706170E+03  0.78286982495E+03  0.82228137103E+03  0.47000000000E+01 0.  1.
         11    1    6    6    0    0  0.22481193361E+02 -0.60575009550E+02  0.97113246904E+02  0.11664355345E+03  0.00000000000E+00 0. -1.
        -12    1    6    6    0    0 -0.26315194974E+01 -0.16858662100E+02  0.20262344795E+03  0.20334060352E+03  0.00000000000E+00 0.  1.
</event>
<event>
12    1  0.8798177E-003  0.2649563E+03  0.7818608E-02  0.1104240E+00
         21   -1    0    0  501  502  0.00000000000E+00  0.00000000000E+00  0.14456678049E+04  0.14456678049E+04  0.00000000000E+00 0. -1.
         21   -1    0    0  502  503 -0.00000000000E+00 -0.00000000000E+00 -0.63025527117E+02  0.63025527117E+02  0.00000000000E+00 0.  1.
          6    2    1    2  501    0  0.21136173515E+02 -0.20056625744E+03  0.10535711764E+04  0.10863765795E+04  0.17183796802E+03 0.  0.
         24    2    3    3    0    0  0.58804115547E+02 -0.17015630533E+03  0.96908932169E+03  0.98889369473E+03  0.79784295569E+02 0.  0.
         -6    2    1    2    0  503 -0.21136173515E+02  0.20056625744E+03  0.32907110138E+03  0.42231675253E+03  0.17143537630E+03 0.  0.
        -24    2    5    5    0    0 -0.51655014721E+02  0.18353514435E+03  0.32650581117E+03  0.38695958641E+03  0.82330353056E+02 0.  0.
          5    1    3    3  501    0 -0.37667942032E+02 -0.30409952113E+02  0.84481854725E+02  0.97482884766E+02  0.47000000000E+01 0. -1.
        -13    1    4    4    0    0 -0.92534297619E+01  0.26404992986E+01  0.82680495863E+02  0.83238588378E+02  0.00000000000E+00 0.  1.
         14    1    4    4    0    0  0.68057545309E+02 -0.17279680463E+03  0.88640882582E+03  0.90565510635E+03  0.00000000000E+00 0. -1.
         -5    1    5    5    0  503  0.30518841207E+02  0.17031113095E+02  0.25652902108E+01  0.35357166115E+02  0.47000000000E+01 0.  1.
         11    1    6    6    0    0 -0.24284306046E+01 -0.72941243580E+01  0.32089978206E+01  0.83306177660E+01  0.00000000000E+00 0. -1.
        -12    1    6    6    0    0 -0.49226584117E+02  0.19082926871E+03  0.32329681335E+03  0.37862896865E+03  0.00000000000E+00 0.  1.
</event>
<event>
12    1  0.8798177E-003  0.1808806E+03  0.7818608E-02  0.1167238E+00
         21   -1    0    0  503  502  0.00000000000E+00  0.00000000000E+00  0.13297581686E+03  0.13297581686E+03  0.00000000000E+00 0.  1.
         21   -1    0    0  501  503 -0.00000000000E+00 -0.00000000000E+00 -0.25248211023E+03  0.25248211023E+03  0.00000000000E+00 0.  1.
          6    2    1    2  501    0 -0.27462949067E+02 -0.48307165866E+02 -0.25175092687E+02  0.18145754910E+03  0.17089546802E+03 0.  0.
         24    2    3    3    0    0 -0.30042249547E+02 -0.27729898983E+02  0.51180316379E+02  0.10219649185E+03  0.78442425423E+02 0.  0.
         -6    2    1    2    0  502  0.27462949067E+02  0.48307165866E+02 -0.94331200678E+02  0.20400037798E+03  0.17213361947E+03 0.  0.
        -24    2    5    5    0    0  0.70437157874E+01 -0.30673709496E+02 -0.85888672468E+02  0.12185240148E+03  0.80502504945E+02 0.  0.
          5    1    3    3  501    0  0.25793004805E+01 -0.20577266882E+02 -0.76355409066E+02  0.79261057254E+02  0.47000000000E+01 0. -1.
        -13    1    4    4    0    0 -0.41912191508E+02 -0.24757811314E+02 -0.91143291273E+00  0.48686874289E+02  0.00000000000E+00 0.  1.
         14    1    4    4    0    0  0.11869941960E+02 -0.29720876694E+01  0.52091749292E+02  0.53509617561E+02  0.00000000000E+00 0. -1.
         -5    1    5    5    0  502  0.20419233280E+02  0.78980875362E+02 -0.84425282107E+01  0.82147976501E+02  0.47000000000E+01 0.  1.
         11    1    6    6    0    0 -0.31085608469E+02  0.66205394496E+01 -0.22138101475E+02  0.38732959265E+02  0.00000000000E+00 0. -1.
        -12    1    6    6    0    0  0.38129324256E+02 -0.37294248945E+02 -0.63750570992E+02  0.83119442217E+02  0.00000000000E+00 0.  1.
</event>
<event>
12    1  0.8798177E-003  0.1882335E+03  0.7818608E-02  0.1160348E+00
         21   -1    0    0  503  502  0.00000000000E+00  0.00000000000E+00  0.14619108946E+03  0.14619108946E+03  0.00000000000E+00 0. -1.
         21   -1    0    0  501  503 -0.00000000000E+00 -0.00000000000E+00 -0.24174701726E+03  0.24174701726E+03  0.00000000000E+00 0. -1.
          6    2    1    2  501    0  0.39415777811E+02 -0.65826269724E+02 -0.59909242661E+02  0.19635900372E+03  0.17053163829E+03 0.  0.
         24    2    3    3    0    0  0.35280931675E+01 -0.97319754135E+02 -0.69721934159E+01  0.12491541301E+03  0.77920901826E+02 0.  0.
         -6    2    1    2    0  502 -0.39415777811E+02  0.65826269724E+02 -0.35646685140E+02  0.19157910301E+03  0.17188707114E+03 0.  0.
        -24    2    5    5    0    0 -0.74539881146E+02  0.10555447991E+02  0.12434509314E+02  0.11020061918E+03  0.79510679052E+02 0.  0.
          5    1    3    3  501    0  0.35887684643E+02  0.31493484411E+02 -0.52937049245E+02  0.71443590701E+02  0.47000000000E+01 0. -1.
        -11    1    4    4    0    0 -0.25536396632E+02 -0.46564440037E+02 -0.31215938902E+02  0.61601862556E+02  0.00000000000E+00 0.  1.
         12    1    4    4    0    0  0.29064489799E+02 -0.50755314098E+02  0.24243745486E+02  0.63313550459E+02  0.00000000000E+00 0. -1.
         -5    1    5    5    0  502  0.35124103336E+02  0.55270821733E+02 -0.48081194454E+02  0.81378483829E+02  0.47000000000E+01 0.  1.
         11    1    6    6    0    0 -0.36382889052E+02  0.29397273971E+02  0.38253228222E+02  0.60425357277E+02  0.00000000000E+00 0. -1.
        -12    1    6    6    0    0 -0.38156992095E+02 -0.18841825980E+02 -0.25818718908E+02  0.49775261908E+02  0.00000000000E+00 0.  1.
</event>
<event>
12    1  0.8798177E-003  0.1935978E+03  0.7818608E-02  0.1157192E+00
         21   -1    0    0  501  502  0.00000000000E+00  0.00000000000E+00  0.12501317385E+04  0.12501317385E+04  0.00000000000E+00 0.  1.
         21   -1    0    0  502  503 -0.00000000000E+00 -0.00000000000E+00 -0.38127662263E+02  0.38127662263E+02  0.00000000000E+00 0.  1.
          6    2    1    2  501    0 -0.15140854421E+02  0.72251316130E+02  0.93716168501E+03  0.95694938946E+03  0.17897098085E+03 0.  0.
         24    2    3    3    0    0 -0.97689022235E+01  0.11638410973E+03  0.80429096841E+03  0.81675923763E+03  0.81061692164E+02 0.  0.
         -6    2    1    2    0  503  0.15140854421E+02 -0.72251316130E+02  0.27484239128E+03  0.33131001135E+03  0.16964222771E+03 0.  0.
        -24    2    5    5    0    0  0.49322572828E+02 -0.45072610367E+02  0.80501642037E+02  0.13206772483E+03  0.80604672177E+02 0.  0.
          5    1    3    3  501    0 -0.53719521975E+01 -0.44132793603E+02  0.13287071660E+03  0.14019015183E+03  0.47000000000E+01 0. -1.
        -13    1    4    4    0    0 -0.49544836053E+01  0.64395652810E+02  0.19895058512E+03  0.20917141853E+03  0.00000000000E+00 0.  1.
         14    1    4    4    0    0 -0.48144186183E+01  0.51988456922E+02  0.60534038329E+03  0.60758781910E+03  0.00000000000E+00 0. -1.
         -5    1    5    5    0  503 -0.34181718407E+02 -0.27178705763E+02  0.19434074924E+03  0.19924228651E+03  0.47000000000E+01 0.  1.
         11    1    6    6    0    0  0.60663597176E+02 -0.42319933839E+02  0.90372431775E+02  0.11678281229E+03  0.00000000000E+00 0. -1.
        -12    1    6    6    0    0 -0.11341024348E+02 -0.27526765278E+01 -0.98707897381E+01  0.15284912541E+02  0.00000000000E+00 0.  1.
</event>
<event>
12    1  0.8798177E-003  0.2783108E+03  0.7818608E-02  0.1096701E+00
         21   -1    0    0  503  502  0.00000000000E+00  0.00000000000E+00  0.79994996507E+03  0.79994996507E+03  0.00000000000E+00 0.  1.
         21   -1    0    0  501  503 -0.00000000000E+00 -0.00000000000E+00 -0.99081629105E+02  0.99081629105E+02  0.00000000000E+00 0. -1.
          6    2    1    2  501    0  0.19105290391E+03 -0.10517679948E+03  0.42103356895E+03  0.50436162546E+03  0.17189535133E+03 0.  0.
         24    2    3    3    0    0  0.20824843905E+03 -0.11214806214E+03  0.41546766337E+03  0.48442787928E+03  0.78181779927E+02 0.  0.
         -6    2    1    2    0  502 -0.19105290391E+03  0.10517679948E+03  0.27983476702E+03  0.39466996872E+03  0.17289741506E+03 0.  0.
        -24    2    5    5    0    0 -0.21184200177E+03  0.82996162901E+02  0.27103280268E+03  0.36267415954E+03  0.79425242199E+02 0.  0.
          5    1    3    3  501    0 -0.17195535136E+02  0.69712626580E+01  0.55659055845E+01  0.19933746177E+02  0.47000000000E+01 0. -1.
        -11    1    4    4    0    0  0.10018165604E+03 -0.96266462332E+02  0.21145993254E+03  0.25301956258E+03  0.00000000000E+00 0.  1.
         12    1    4    4    0    0  0.10806678301E+03 -0.15881599809E+02  0.20400773083E+03  0.23140831671E+03  0.00000000000E+00 0. -1.
         -5    1    5    5    0  502  0.20789097858E+02  0.22180636582E+02  0.88019643398E+01  0.31995809181E+02  0.47000000000E+01 0.  1.
         11    1    6    6    0    0 -0.33278349280E+02  0.39507845793E+02  0.30577323971E+02  0.60027419995E+02  0.00000000000E+00 0. -1.
        -12    1    6    6    0    0 -0.17856365249E+03  0.43488317108E+02  0.24045547870E+03  0.30264673954E+03  0.00000000000E+00 0.  1.
</event>
<event>
12    1  0.8798177E-003  0.2036722E+03  0.7818608E-02  0.1146761E+00
         21   -1    0    0  503  502  0.00000000000E+00  0.00000000000E+00  0.75330529147E+02  0.75330529147E+02  0.00000000000E+00 0. -1.
         21   -1    0    0  501  503 -0.00000000000E+00 -0.00000000000E+00 -0.58359554035E+03  0.58359554035E+03  0.00000000000E+00 0.  1.
          6    2    1    2  501    0 -0.10743168289E+03 -0.23230965678E+02 -0.33391204405E+03  0.39112606778E+03  0.17146749977E+03 0.  0.
         24    2    3    3    0    0 -0.10563014748E+03  0.41503594984E+02 -0.21490610953E+03  0.25555943720E+03  0.79029827134E+02 0.  0.
         -6    2    1    2    0  502  0.10743168289E+03  0.23230965678E+02 -0.17435296715E+03  0.26780000171E+03  0.17098724955E+03 0.  0.
        -24    2    5    5    0    0  0.13657350181E+03  0.27256619682E+02 -0.10103602774E+03  0.18866142008E+03  0.77392556557E+02 0.  0.
          5    1    3    3  501    0 -0.18015354078E+01 -0.64734560662E+02 -0.11900593453E+03  0.13556663058E+03  0.47000000000E+01 0. -1.
        -13    1    4    4    0    0 -0.89905244700E+02 -0.43474116701E+00 -0.11421068793E+03  0.14535206659E+03  0.00000000000E+00 0.  1.
         14    1    4    4    0    0 -0.15724902785E+02  0.41938336151E+02 -0.10069542160E+03  0.11020737061E+03  0.00000000000E+00 0. -1.
         -5    1    5    5    0  502 -0.29141818916E+02 -0.40256540041E+01 -0.73316939404E+02  0.79138581637E+02  0.47000000000E+01 0.  1.
         11    1    6    6    0    0  0.10106551364E+03  0.54041707503E+02 -0.77384307120E+02  0.13828620750E+03  0.00000000000E+00 0. -1.
        -12    1    6    6    0    0  0.35507988169E+02 -0.26785087821E+02 -0.23651720621E+02  0.50375212573E+02  0.00000000000E+00 0.  1.
</event>
<event>
12    1  0.8798177E-003  0.1763753E+03  0.7818608E-02  0.1171387E+00
         21   -1    0    0  501  502  0.00000000000E+00  0.00000000000E+00  0.30960507589E+03  0.30960507589E+03  0.00000000000E+00 0.  1.
         21   -1    0    0  502  503 -0.00000000000E+00 -0.00000000000E+00 -0.10624392817E+03  0.10624392817E+03  0.00000000000E+00 0.  1.
          6    2    1    2  501    0 -0.13082003522E+02 -0.34921454503E+02  0.52924928296E+02  0.18403159070E+03  0.17226703556E+03 0.  0.
         24    2    3    3    0    0  0.30361529250E+01  0.26591443551E+02 -0.21633367012E+02  0.85926234104E+02  0.78733677955E+02 0.  0.
         -6    2    1    2    0  503  0.13082003522E+02  0.34921454503E+02  0.15043621942E+03  0.23181741336E+03  0.17238796426E+03 0.  0.
        -24    2    5    5    0    0  0.57680521508E+01  0.58924302078E+02  0.22639700451E+02  0.10149599978E+03  0.79268771488E+02 0.  0.
          5    1    3    3  501    0 -0.16118156447E+02 -0.61512898054E+02  0.74558295308E+02  0.98105356599E+02  0.47000000000E+01 0. -1.
        -13    1    4    4    0    0  0.31088903507E+02 -0.19013633915E+01  0.12295591982E+02  0.33486067046E+02  0.00000000000E+00 0.  1.
         14    1    4    4    0    0 -0.28052750582E+02  0.28492806943E+02 -0.33928958994E+02  0.52440167058E+02  0.00000000000E+00 0. -1.
         -5    1    5    5    0  503  0.73139513715E+01 -0.24002847576E+02  0.12779651897E+03  0.13032141358E+03  0.47000000000E+01 0.  1.
         11    1    6    6    0    0  0.16151605039E+02  0.73703598933E+02  0.31025087767E+02  0.81582172758E+02  0.00000000000E+00 0. -1.
        -12    1    6    6    0    0 -0.10383552888E+02 -0.14779296855E+02 -0.83853873162E+01  0.19913827019E+02  0.00000000000E+00 0.  1.
</event>
<event>
12    1  0.8798177E-003  0.1841507E+03  0.7818608E-02  0.1165077E+00
         21   -1    0    0  503  502  0.00000000000E+00  0.00000000000E+00  0.82930006142E+03  0.82930006142E+03  0.00000000000E+00 0.  1.
         21   -1    0    0  501  503 -0.00000000000E+00 -0.00000000000E+00 -0.44513194595E+02  0.44513194595E+02  0.00000000000E+00 0.  1.
          6    2    1    2  501    0  0.25917619737E+02 -0.60848695484E+02  0.25451035526E+03  0.31414489418E+03  0.17186391958E+03 0.  0.
         24    2    3    3    0    0  0.60760381164E+02 -0.73048908442E+02  0.24761862741E+03  0.27629718444E+03  0.77441478194E+02 0.  0.
         -6    2    1    2    0  502 -0.25917619737E+02  0.60848695484E+02  0.53027651157E+03  0.55966836183E+03  0.16631659497E+03 0.  0.
        -24    2    5    5    0    0 -0.69393805724E+01  0.93860291100E+02  0.48416480187E+03  0.49968237365E+03  0.80056292195E+02 0.  0.
          5    1    3    3  501    0 -0.34842761427E+02  0.12200212958E+02  0.68917278484E+01  0.37847709743E+02  0.47000000000E+01 0. -1.
        -13    1    4    4    0    0  0.13399611329E+02 -0.26771950148E+02  0.17690706489E+03  0.17942239689E+03  0.00000000000E+00 0.  1.
         14    1    4    4    0    0  0.47360769835E+02 -0.46276958294E+02  0.70711562519E+02  0.96874787547E+02  0.00000000000E+00 0. -1.
         -5    1    5    5    0  502 -0.18978239165E+02 -0.33011595616E+02  0.46111709695E+02  0.59985988180E+02  0.47000000000E+01 0.  1.
         11    1    6    6    0    0  0.10922234775E+02 -0.21538394755E+01  0.17735617702E+03  0.17770522717E+03  0.00000000000E+00 0. -1.
        -12    1    6    6    0    0 -0.17861615347E+02  0.96014130576E+02  0.30680862485E+03  0.32197714648E+03  0.00000000000E+00 0.  1.
</event>
<event>
12    1  0.8798177E-003  0.2626295E+03  0.7818608E-02  0.1105678E+00
         21   -1    0    0  501  502  0.00000000000E+00  0.00000000000E+00  0.35756705937E+03  0.35756705937E+03  0.00000000000E+00 0. -1.
         21   -1    0    0  502  503 -0.00000000000E+00 -0.00000000000E+00 -0.20418327499E+03  0.20418327499E+03  0.00000000000E+00 0. -1.
          6    2    1    2  501    0  0.17024526270E+03 -0.10270589715E+03  0.14430715505E+03  0.29966446915E+03  0.17158755285E+03 0.  0.
         24    2    3    3    0    0  0.12448297364E+03 -0.67560751688E+02  0.17140400504E+03  0.23574500710E+03  0.78332046633E+02 0.  0.
         -6    2    1    2    0  503 -0.17024526270E+03  0.10270589715E+03  0.90766293394E+01  0.26208586521E+03  0.17051294602E+03 0.  0.
        -24    2    5    5    0    0 -0.19325684821E+03  0.70716219959E+02 -0.96703265742E+00  0.22114886897E+03  0.80974650050E+02 0.  0.
          5    1    3    3  501    0  0.45762289063E+02 -0.35145145462E+02 -0.27096849999E+02  0.63919462058E+02  0.47000000000E+01 0. -1.
        -13    1    4    4    0    0  0.35225832297E+02 -0.56529242941E+02  0.44121110320E+02  0.79894223472E+02  0.00000000000E+00 0.  1.
         14    1    4    4    0    0  0.89257141345E+02 -0.11031508748E+02  0.12728289473E+03  0.15585078362E+03  0.00000000000E+00 0. -1.
         -5    1    5    5    0  503  0.23011585506E+02  0.31989677192E+02  0.10043661997E+02  0.40936996234E+02  0.47000000000E+01 0.  1.
         13    1    6    6    0    0 -0.14253276267E+03  0.32594233342E+02  0.31956160626E+02  0.14966351822E+03  0.00000000000E+00 0. -1.
        -14    1    6    6    0    0 -0.50724085536E+02  0.38121986617E+02 -0.32923193283E+02  0.71485350758E+02  0.00000000000E+00 0.  1.
</event>
<event>
12    1  0.8798177E-003  0.2104988E+03  0.7818608E-02  0.1141441E+00
         21   -1    0    0  503  502  0.00000000000E+00  0.00000000000E+00  0.90846648663E+02  0.90846648663E+02  0.00000000000E+00 0. -1.
         21   -1    0    0  501  503 -0.00000000000E+00 -0.00000000000E+00 -0.56999985875E+03  0.56999985875E+03  0.00000000000E+00 0.  1.
          6    2    1    2  501    0 -0.11904406595E+03 -0.24575507249E+02 -0.11102022727E+03  0.23678087934E+03  0.17018886204E+03 0.  0.
         24    2    3    3    0    0 -0.10184910389E+03  0.80521854394E+01 -0.11723048363E+02  0.13075138915E+03  0.80749106802E+02 0.  0.
         -6    2    1    2    0  502  0.11904406595E+03  0.24575507249E+02 -0.36813298282E+03  0.42406562808E+03  0.17185551688E+03 0.  0.
        -24    2    5    5    0    0  0.15299334967E+03  0.16814366348E+02 -0.31056849889E+03  0.35662269677E+03  0.83888422246E+02 0.  0.
          5    1    3    3  501    0 -0.17194962059E+02 -0.32627692688E+02 -0.99297178903E+02  0.10602949018E+03  0.47000000000E+01 0. -1.
        -13    1    4    4    0    0 -0.13149258169E+01  0.15926015212E+02  0.19476436845E+02  0.25193224935E+02  0.00000000000E+00 0.  1.
         14    1    4    4    0    0 -0.10053417807E+03 -0.78738297727E+01 -0.31199485208E+02  0.10555816422E+03  0.00000000000E+00 0. -1.
         -5    1    5    5    0  502 -0.33949283723E+02  0.77611409009E+01 -0.57564483932E+02  0.67442931310E+02  0.47000000000E+01 0.  1.
         11    1    6    6    0    0  0.13513229664E+01 -0.14950678079E+02 -0.87887708435E+01  0.17395152822E+02  0.00000000000E+00 0. -1.
        -12    1    6    6    0    0  0.15164202671E+03  0.31765044426E+02 -0.30177972805E+03  0.33922754394E+03  0.00000000000E+00 0.  1.
</event>
<event>
12    1  0.8798177E-003  0.2040873E+03  0.7818608E-02  0.1146519E+00
         21   -1    0    0  503  502  0.00000000000E+00  0.00000000000E+00  0.54325881055E+03  0.54325881055E+03  0.00000000000E+00 0. -1.
         21   -1    0    0  501  503 -0.00000000000E+00 -0.00000000000E+00 -0.78181563201E+02  0.78181563201E+02  0.00000000000E+00 0. -1.
          6    2    1    2  501    0 -0.10657607959E+03 -0.16787551670E+02  0.18529931814E+03  0.27565821300E+03  0.17323778590E+03 0.  0.
         24    2    3    3    0    0 -0.62991222813E+02  0.47175455743E+02  0.58281906043E+02  0.12684148332E+03  0.80613668467E+02 0.  0.
         -6    2    1    2    0  502  0.10657607959E+03  0.16787551670E+02  0.27977792921E+03  0.34578216074E+03  0.17218980918E+03 0.  0.
        -24    2    5    5    0    0  0.37862846932E+02  0.71692189481E+02  0.17854633641E+03  0.21159589850E+03  0.79502608794E+02 0.  0.
          5    1    3    3  501    0 -0.43584856776E+02 -0.63963007412E+02  0.12701741209E+03  0.14881672968E+03  0.47000000000E+01 0. -1.
        -13    1    4    4    0    0 -0.79949466510E+02  0.23248244036E+02  0.45050066083E+02  0.94667346536E+02  0.00000000000E+00 0.  1.
         14    1    4    4    0    0  0.16958243697E+02  0.23927211706E+02  0.13231839960E+02  0.32174136788E+02  0.00000000000E+00 0. -1.
         -5    1    5    5    0  502  0.68713232657E+02 -0.54904637811E+02  0.10123159280E+03  0.13418626225E+03  0.47000000000E+01 0.  1.
         13    1    6    6    0    0  0.44656871518E+02  0.14387289583E+02  0.40522198249E+02  0.61994183809E+02  0.00000000000E+00 0. -1.
        -14    1    6    6    0    0 -0.67940245858E+01  0.57304899897E+02  0.13802413816E+03  0.14960171469E+03  0.00000000000E+00 0.  1.
</event>
<event>
12    1  0.8798177E-003  0.1801068E+03  0.7818608E-02  0.1167706E+00
         21   -1    0    0  503  502  0.00000000000E+00  0.00000000000E+00  0.11007598630E+03  0.11007598630E+03  0.00000000000E+00 0. -1.
         21   -1    0    0  501  503 -0.00000000000E+00 -0.00000000000E+00 -0.51866729270E+03  0.51866729270E+03  0.00000000000E+00 0. -1.
          6    2    1    2  501    0 -0.42394102607E+02 -0.35188619099E+02 -0.41089137249E+03  0.44862181663E+03  0.17144770493E+03 0.  0.
         24    2    3    3    0    0 -0.11679031395E+02 -0.37382877194E+01 -0.73652785869E+02  0.10849758455E+03  0.78718602745E+02 0.  0.
         -6    2    1    2    0  502  0.42394102607E+02  0.35188619099E+02  0.23000660910E+01  0.18012146236E+03  0.17147289013E+03 0.  0.
        -24    2    5    5    0    0  0.59300024916E+02  0.40338698043E+02  0.59759539812E+02  0.11982208722E+03  0.75116086639E+02 0.  0.
          5    1    3    3  501    0 -0.30715071212E+02 -0.31450331380E+02 -0.33723858662E+03  0.34012423208E+03  0.47000000000E+01 0. -1.
        -13    1    4    4    0    0 -0.20554031057E+02  0.26542016392E+02 -0.68825860891E+02  0.76576405990E+02  0.00000000000E+00 0.  1.
         14    1    4    4    0    0  0.88749996622E+01 -0.30280304112E+02 -0.48269249775E+01  0.31921178563E+02  0.00000000000E+00 0. -1.
         -5    1    5    5    0  502 -0.16905922309E+02 -0.51500789436E+01 -0.57459473721E+02  0.60299375143E+02  0.47000000000E+01 0.  1.
         11    1    6    6    0    0  0.28538694317E+02 -0.20841166929E+02  0.18777751357E+02  0.40017686819E+02  0.00000000000E+00 0. -1.
        -12    1    6    6    0    0  0.30761330599E+02  0.61179864972E+02  0.40981788455E+02  0.79804400400E+02  0.00000000000E+00 0.  1.
</event>
<event>
12    1  0.8798177E-003  0.1792632E+03  0.7818608E-02  0.1169568E+00
         21   -1    0    0  503  502  0.00000000000E+00  0.00000000000E+00  0.19945811193E+02  0.19945811193E+02  0.00000000000E+00 0.  1.
         21   -1    0    0  501  503 -0.00000000000E+00 -0.00000000000E+00 -0.18849950677E+04  0.18849950677E+04  0.00000000000E+00 0. -1.
          6    2    1    2  501    0  0.80634374419E+01  0.34052962579E+02 -0.13105959778E+04  0.13222284839E+04  0.17146930745E+03 0.  0.
         24    2    3    3    0    0  0.40119033963E+02 -0.15937231537E+02 -0.36785460382E+03  0.37760688298E+03  0.73528336589E+02 0.  0.
         -6    2    1    2    0  502 -0.80634374419E+01 -0.34052962579E+02 -0.55445327871E+03  0.58271239496E+03  0.17581431595E+03 0.  0.
        -24    2    5    5    0    0 -0.34941923624E+02  0.41932841523E+02 -0.25385550868E+03  0.27146104190E+03  0.79178133053E+02 0.  0.
          5    1    3    3  501    0 -0.32055596521E+02  0.49990194116E+02 -0.94274137396E+03  0.94462160094E+03  0.47000000000E+01 0. -1.
        -11    1    4    4    0    0  0.46883462225E+02 -0.23307274079E+02 -0.36249738817E+03  0.36625898553E+03  0.00000000000E+00 0.  1.
         12    1    4    4    0    0 -0.67644282627E+01  0.73700425418E+01 -0.53572156552E+01  0.11347897442E+02  0.00000000000E+00 0. -1.
         -5    1    5    5    0  502  0.26878486182E+02 -0.75985804102E+02 -0.30059777002E+03  0.31125135307E+03  0.47000000000E+01 0.  1.
         13    1    6    6    0    0 -0.41220369818E+02  0.10922347905E+02 -0.22378364502E+03  0.22781030782E+03  0.00000000000E+00 0. -1.
        -14    1    6    6    0    0  0.62784461941E+01  0.31010493618E+02 -0.30071863665E+02  0.43650734076E+02  0.00000000000E+00 0.  1.
</event>
<event>
12    1  0.8798177E-003  0.2585234E+03  0.7818608E-02  0.1109164E+00
         21   -1    0    0  503  502  0.00000000000E+00  0.00000000000E+00  0.24458018694E+03  0.24458018694E+03  0.00000000000E+00 0. -1.
         21   -1    0    0  501  503 -0.00000000000E+00 -0.00000000000E+00 -0.35519346421E+03  0.35519346421E+03  0.00000000000E+00 0.  1.
          6    2    1    2  501    0 -0.53317749553E+02 -0.18501679326E+03 -0.20655349886E+03  0.33090590778E+03  0.17251195815E+03 0.  0.
         24    2    3    3    0    0 -0.58716289329E+02 -0.20442089462E+03 -0.15925299153E+03  0.27928138478E+03  0.86029482075E+02 0.  0.
         -6    2    1    2    0  502  0.53317749553E+02  0.18501679326E+03  0.95940221592E+02  0.26886774337E+03  0.16128031838E+03 0.  0.
        -24    2    5    5    0    0  0.75212295537E+02  0.11037111621E+03  0.15243307197E+02  0.15668293941E+03  0.80489206691E+02 0.  0.
          5    1    3    3  501    0  0.53985397759E+01  0.19404101352E+02 -0.47300507333E+02  0.51624523000E+02  0.47000000000E+01 0. -1.
        -11    1    4    4    0    0 -0.47422447658E+02 -0.42469910968E+02 -0.67580365779E+02  0.92842273337E+02  0.00000000000E+00 0.  1.
         12    1    4    4    0    0 -0.11293841671E+02 -0.16195098365E+03 -0.91672625748E+02  0.18643911144E+03  0.00000000000E+00 0. -1.
         -5    1    5    5    0  502 -0.21894545984E+02  0.74645677054E+02  0.80696914395E+02  0.11218480396E+03  0.47000000000E+01 0.  1.
         11    1    6    6    0    0  0.48481270508E+02  0.75287004385E+02  0.48133224084E+02  0.10166304088E+03  0.00000000000E+00 0. -1.
        -12    1    6    6    0    0  0.26731025029E+02  0.35084111825E+02 -0.32889916887E+02  0.55019898532E+02  0.00000000000E+00 0.  1.
</event>
<event>
12    1  0.8798177E-003  0.2290593E+03  0.7818608E-02  0.1127620E+00
         21   -1    0    0  503  502  0.00000000000E+00  0.00000000000E+00  0.79152680730E+02  0.79152680730E+02  0.00000000000E+00 0.  1.
         21   -1    0    0  501  503 -0.00000000000E+00 -0.00000000000E+00 -0.76464235849E+03  0.76464235849E+03  0.00000000000E+00 0.  1.
          6    2    1    2  501    0 -0.14826152512E+03 -0.17968370325E+02 -0.18383110118E+03  0.29231566870E+03  0.17131910065E+03 0.  0.
         24    2    3    3    0    0 -0.14261844377E+03 -0.16720086299E+02 -0.69353221859E+02  0.17759567292E+03  0.78171426159E+02 0.  0.
         -6    2    1    2    0  502  0.14826152512E+03  0.17968370325E+02 -0.50165857658E+03  0.55147937051E+03  0.17367736319E+03 0.  0.
        -24    2    5    5    0    0  0.32716469527E+02 -0.16507151740E+02 -0.10841287151E+03  0.14013584492E+03  0.80881709212E+02 0.  0.
          5    1    3    3  501    0 -0.56430813487E+01 -0.12482840260E+01 -0.11447787932E+03  0.11471999579E+03  0.47000000000E+01 0. -1.
        -11    1    4    4    0    0 -0.36281120742E+02  0.28775318156E+02 -0.91423506992E+01  0.47200860518E+02  0.00000000000E+00 0.  1.
         12    1    4    4    0    0 -0.10633732303E+03 -0.45495404455E+02 -0.60210871159E+02  0.13039481240E+03  0.00000000000E+00 0. -1.
         -5    1    5    5    0  502  0.11554505559E+03  0.34475522065E+02 -0.39324570507E+03  0.41134352560E+03  0.47000000000E+01 0.  1.
         13    1    6    6    0    0 -0.11780250028E+02  0.53772038385E+01 -0.83766321327E+02  0.84761342607E+02  0.00000000000E+00 0. -1.
        -14    1    6    6    0    0  0.44496719555E+02 -0.21884355579E+02 -0.24646550182E+02  0.55374502311E+02  0.00000000000E+00 0.  1.
</event>
<event>
12    1  0.8798177E-003  0.1836449E+03  0.7818608E-02  0.1166257E+00
         21   -1    0    0  503  502  0.00000000000E+00  0.00000000000E+00  0.35726069736E+02  0.35726069736E+02  0.00000000000E+00 0.  1.
         21   -1    0    0  501  503 -0.00000000000E+00 -0.00000000000E+00 -0.92135092618E+03  0.92135092618E+03  0.00000000000E+00 0.  1.
          6    2    1    2  501    0 -0.57418413658E+02 -0.12955028496E+02 -0.50021156989E+03  0.53014744111E+03  0.16546899307E+03 0.  0.
         24    2    3    3    0    0 -0.66276645692E+02  0.23229508719E+02 -0.47115572206E+03  0.48266985375E+03  0.77783477969E+02 0.  0.
         -6    2    1    2    0  502  0.57418413658E+02  0.12955028496E+02 -0.38541328655E+03  0.42692955481E+03  0.17395613335E+03 0.  0.
        -24    2    5    5    0    0  0.73092006002E+02  0.66859930774E+02 -0.26440038966E+03  0.29344692972E+03  0.79942747172E+02 0.  0.
          5    1    3    3  501    0  0.88582320343E+01 -0.36184537215E+02 -0.29055847827E+02  0.47477587357E+02  0.47000000000E+01 0. -1.
        -11    1    4    4    0    0  0.91680480525E+01 -0.93374847316E+01 -0.17004568720E+03  0.17054846075E+03  0.00000000000E+00 0.  1.
         12    1    4    4    0    0 -0.75444693745E+02  0.32566993451E+02 -0.30111003486E+03  0.31212139300E+03  0.00000000000E+00 0. -1.
         -5    1    5    5    0  502 -0.15673592344E+02 -0.53904902278E+02 -0.12101289689E+03  0.13348262508E+03  0.47000000000E+01 0.  1.
         11    1    6    6    0    0  0.36527457883E+02 -0.11097203022E+02 -0.11298828465E+03  0.11926338735E+03  0.00000000000E+00 0. -1.
        -12    1    6    6    0    0  0.36564548119E+02  0.77957133795E+02 -0.15141210501E+03  0.17418354237E+03  0.00000000000E+00 0.  1.
</event>
<event>
12    1  0.8798177E-003  0.2062415E+03  0.7818608E-02  0.1144594E+00
         21   -1    0    0  503  502  0.00000000000E+00  0.00000000000E+00  0.30641722735E+03  0.30641722735E+03  0.00000000000E+00 0.  1.
         21   -1    0    0  501  503 -0.00000000000E+00 -0.00000000000E+00 -0.13888939970E+03  0.13888939970E+03  0.00000000000E+00 0.  1.
          6    2    1    2  501    0 -0.52340726952E+02 -0.10114151525E+03  0.90571644275E+02  0.22525265710E+03  0.17194876847E+03 0.  0.
         24    2    3    3    0    0 -0.63911280640E+02 -0.40618306991E+02  0.11534796452E+03  0.15867268642E+03  0.78341367369E+02 0.  0.
         -6    2    1    2    0  502  0.52340726952E+02  0.10114151525E+03  0.76956183373E+02  0.22005396995E+03  0.17184975336E+03 0.  0.
        -24    2    5    5    0    0  0.13633223702E+02  0.64037087183E+01  0.85252096635E+02  0.11727053272E+03  0.79104902432E+02 0.  0.
          5    1    3    3  501    0  0.11570553688E+02 -0.60523208255E+02 -0.24776320246E+02  0.66579970675E+02  0.47000000000E+01 0. -1.
        -13    1    4    4    0    0 -0.50757953893E+02  0.14044524300E+02  0.52952748014E+02  0.74683412271E+02  0.00000000000E+00 0.  1.
         14    1    4    4    0    0 -0.13153326747E+02 -0.54662831291E+02  0.62395216507E+02  0.83989274150E+02  0.00000000000E+00 0. -1.
         -5    1    5    5    0  502  0.38707503250E+02  0.94737806527E+02 -0.82959132628E+01  0.10278343724E+03  0.47000000000E+01 0.  1.
         11    1    6    6    0    0 -0.26261752162E+02  0.16922489539E+02  0.12532092291E+02  0.33661604478E+02  0.00000000000E+00 0. -1.
        -12    1    6    6    0    0  0.39894975864E+02 -0.10518780821E+02  0.72720004344E+02  0.83608928237E+02  0.00000000000E+00 0.  1.
</event>
<event>
12    1  0.8798177E-003  0.1885121E+03  0.7818608E-02  0.1160176E+00
         21   -1    0    0  501  502  0.00000000000E+00  0.00000000000E+00  0.10280386421E+03  0.10280386421E+03  0.00000000000E+00 0. -1.
         21   -1    0    0  502  503 -0.00000000000E+00 -0.00000000000E+00 -0.34329434408E+03  0.34329434408E+03  0.00000000000E+00 0. -1.
          6    2    1    2  501    0 -0.48565512235E+02  0.63849528690E+02 -0.12964525655E+03  0.22878968879E+03  0.17059149410E+03 0.  0.
         24    2    3    3    0    0 -0.11964041637E+02 -0.67028757055E+01 -0.12524220860E+03  0.14904769078E+03  0.79633764667E+02 0.  0.
         -6    2    1    2    0  503  0.48565512235E+02 -0.63849528690E+02 -0.11084522332E+03  0.21730851951E+03  0.16882226697E+03 0.  0.
        -24    2    5    5    0    0 -0.25089894097E+02 -0.21458596724E+01 -0.21105727549E+02  0.85749678095E+02  0.79205101215E+02 0.  0.
          5    1    3    3  501    0 -0.36601470598E+02  0.70552404395E+02 -0.44030479413E+01  0.79741998013E+02  0.47000000000E+01 0. -1.
        -11    1    4    4    0    0  0.25621614472E+02 -0.19298609887E+02 -0.23230897663E+02  0.39605278410E+02  0.00000000000E+00 0.  1.
         12    1    4    4    0    0 -0.37585656110E+02  0.12595734182E+02 -0.10201131094E+03  0.10944241237E+03  0.00000000000E+00 0. -1.
         -5    1    5    5    0  503  0.73655406332E+02 -0.61703669017E+02 -0.89739495776E+02  0.13155884141E+03  0.47000000000E+01 0.  1.
         11    1    6    6    0    0  0.73325436835E+01 -0.99337160977E+00  0.26849846147E+02  0.27850802900E+02  0.00000000000E+00 0. -1.
        -12    1    6    6    0    0 -0.32422437780E+02 -0.11524880626E+01 -0.47955573696E+02  0.57898875196E+02  0.00000000000E+00 0.  1.
</event>
<event>
12    1  0.8798177E-003  0.1756919E+03  0.7818608E-02  0.1172318E+00
         21   -1    0    0  501  502  0.00000000000E+00  0.00000000000E+00  0.40128093461E+02  0.40128093461E+02  0.00000000000E+00 0.  1.
         21   -1    0    0  502  503 -0.00000000000E+00 -0.00000000000E+00 -0.12232788826E+04  0.12232788826E+04  0.00000000000E+00 0.  1.
          6    2    1    2  501    0  0.31211138229E+02 -0.13957487889E+02 -0.20583488706E+03  0.27062083397E+03  0.17233307410E+03 0.  0.
         24    2    3    3    0    0  0.34297067006E+02  0.58228131722E+02 -0.97240713711E+02  0.14010236355E+03  0.74873972384E+02 0.  0.
         -6    2    1    2    0  503 -0.31211138229E+02  0.13957487889E+02 -0.97731590212E+03  0.99278614213E+03  0.17119872912E+03 0.  0.
        -24    2    5    5    0    0 -0.23064408332E+02  0.78180809044E+02 -0.56260584189E+03  0.57302724914E+03  0.72046437075E+02 0.  0.
          5    1    3    3  501    0 -0.30859287773E+01 -0.72185619611E+02 -0.10859417335E+03  0.13051847042E+03  0.47000000000E+01 0. -1.
        -11    1    4    4    0    0  0.72142397114E+01 -0.13629538739E+02  0.94864827950E+00  0.15450227002E+02  0.00000000000E+00 0.  1.
         12    1    4    4    0    0  0.27082827294E+02  0.71857670461E+02 -0.98189361991E+02  0.12465213655E+03  0.00000000000E+00 0. -1.
         -5    1    5    5    0  503 -0.81467298964E+01 -0.64223321156E+02 -0.41471006023E+03  0.41975889299E+03  0.47000000000E+01 0.  1.
         13    1    6    6    0    0  0.25835779546E+00  0.31892456700E+02 -0.61782787925E+02  0.69529191185E+02  0.00000000000E+00 0. -1.
        -14    1    6    6    0    0 -0.23322766128E+02  0.46288352344E+02 -0.50082305397E+03  0.50349805796E+03  0.00000000000E+00 0.  1.
</event>
<event>
12    1  0.8798177E-003  0.1949522E+03  0.7818608E-02  0.1154484E+00
         21   -1    0    0  501  502  0.00000000000E+00  0.00000000000E+00  0.30039032536E+03  0.30039032536E+03  0.00000000000E+00 0. -1.
         21   -1    0    0  502  503 -0.00000000000E+00 -0.00000000000E+00 -0.12989422820E+03  0.12989422820E+03  0.00000000000E+00 0.  1.
          6    2    1    2  501    0 -0.83908345916E+02  0.29592592217E+02  0.44375746516E+02  0.19809348289E+03  0.17133443628E+03 0.  0.
         24    2    3    3    0    0 -0.13704874676E+02 -0.10801286413E+02 -0.30287511369E+02  0.87835218421E+02  0.80580400049E+02 0.  0.
         -6    2    1    2    0  503  0.83908345916E+02 -0.29592592217E+02  0.12612035065E+03  0.23219107068E+03  0.17346474692E+03 0.  0.
        -24    2    5    5    0    0 -0.24278760396E+02 -0.12828578210E+02  0.57637336376E+02  0.10297228186E+03  0.80791074151E+02 0.  0.
          5    1    3    3  501    0 -0.70203471240E+02  0.40393878630E+02  0.74663257885E+02  0.11025826447E+03  0.47000000000E+01 0. -1.
        -11    1    4    4    0    0  0.72762970493E+00  0.32656263235E+02  0.47901821805E+00  0.32667880738E+02  0.00000000000E+00 0.  1.
         12    1    4    4    0    0 -0.14432504381E+02 -0.43457549649E+02 -0.30766529587E+02  0.55167337682E+02  0.00000000000E+00 0. -1.
         -5    1    5    5    0  503  0.10818710631E+03 -0.16764014007E+02  0.68483014275E+02  0.12921878881E+03  0.47000000000E+01 0.  1.
         11    1    6    6    0    0 -0.33851111771E+02 -0.13724899043E+02  0.74832593499E+02  0.83271769956E+02  0.00000000000E+00 0. -1.
        -12    1    6    6    0    0  0.95723513750E+01  0.89632083328E+00 -0.17195257123E+02  0.19700511907E+02  0.00000000000E+00 0.  1.
</event>
<event>
12    1  0.8798177E-003  0.2302062E+03  0.7818608E-02  0.1126510E+00
         21   -1    0    0  503  502  0.00000000000E+00  0.00000000000E+00  0.31319666131E+02  0.31319666131E+02  0.00000000000E+00 0.  1.
         21   -1    0    0  501  503 -0.00000000000E+00 -0.00000000000E+00 -0.17283527002E+04  0.17283527002E+04  0.00000000000E+00 0.  1.
          6    2    1    2  501    0 -0.90910596128E+02 -0.12047444215E+03 -0.72008654767E+03  0.75598909440E+03  0.17382763594E+03 0.  0.
         24    2    3    3    0    0 -0.91485414389E+02 -0.15045562806E+03 -0.54311001682E+03  0.57642856312E+03  0.79340537826E+02 0.  0.
         -6    2    1    2    0  502  0.90910596128E+02  0.12047444215E+03 -0.97694648640E+03  0.10036832719E+04  0.17371483922E+03 0.  0.
        -24    2    5    5    0    0 -0.58006183997E+01  0.10152398487E+03 -0.61573878793E+03  0.62924332978E+03  0.80449651520E+02 0.  0.
          5    1    3    3  501    0  0.57481826129E+00  0.29981185905E+02 -0.17697653085E+03  0.17956053129E+03  0.47000000000E+01 0. -1.
        -13    1    4    4    0    0 -0.46144609611E+02 -0.87526373651E+02 -0.18275645519E+03  0.20782231111E+03  0.00000000000E+00 0.  1.
         14    1    4    4    0    0 -0.45340804779E+02 -0.62929254409E+02 -0.36035356163E+03  0.36860625201E+03  0.00000000000E+00 0. -1.
         -5    1    5    5    0  502  0.96711214528E+02  0.18950457287E+02 -0.36120769846E+03  0.37443994215E+03  0.47000000000E+01 0.  1.
         11    1    6    6    0    0 -0.72211742838E+01 -0.12283229144E+02 -0.42815317698E+02  0.45123990358E+02  0.00000000000E+00 0. -1.
        -12    1    6    6    0    0  0.14205558841E+01  0.11380721401E+03 -0.57292347024E+03  0.58411933942E+03  0.00000000000E+00 0.  1.
</event>
<event>
12    1  0.8798177E-003  0.1966218E+03  0.7818608E-02  0.1152839E+00
         21   -1    0    0  501  502  0.00000000000E+00  0.00000000000E+00  0.50004335350E+03  0.50004335350E+03  0.00000000000E+00 0.  1.
         21   -1    0    0  502  503 -0.00000000000E+00 -0.00000000000E+00 -0.87105275966E+02  0.87105275966E+02  0.00000000000E+00 0. -1.
          6    2    1    2  501    0 -0.44336517742E+01  0.94042611997E+02  0.30733749362E+03  0.36485127782E+03  0.17261648183E+03 0.  0.
         24    2    3    3    0    0 -0.18394426433E+02  0.12093888836E+03  0.29951043364E+03  0.33320217389E+03  0.79703319806E+02 0.  0.
         -6    2    1    2    0  503  0.44336517742E+01 -0.94042611997E+02  0.10560058391E+03  0.22229735165E+03  0.17146707873E+03 0.  0.
        -24    2    5    5    0    0 -0.47881586409E+02 -0.90196728769E+02  0.36479754027E+02  0.13539824873E+03  0.81079079347E+02 0.  0.
          5    1    3    3  501    0  0.13960774659E+02 -0.26896276361E+02  0.78270599828E+01  0.31649103923E+02  0.47000000000E+01 0. -1.
        -13    1    4    4    0    0 -0.33095387727E+02  0.72023020704E+02  0.24922510368E+03  0.26152585437E+03  0.00000000000E+00 0.  1.
         14    1    4    4    0    0  0.14700961294E+02  0.48915867654E+02  0.50285329959E+02  0.71676319523E+02  0.00000000000E+00 0. -1.
         -5    1    5    5    0  503  0.52315238183E+02 -0.38458832273E+01  0.69120829884E+02  0.86899102917E+02  0.47000000000E+01 0.  1.
         11    1    6    6    0    0 -0.61071402945E+01 -0.67499582751E+02 -0.10472065971E+02  0.68579552345E+02  0.00000000000E+00 0. -1.
        -12    1    6    6    0    0 -0.41774446114E+02 -0.22697146019E+02  0.46951819999E+02  0.66818696386E+02  0.00000000000E+00 0.  1.
</event>
<event>
12    1  0.8798177E-003  0.2126802E+03  0.7818608E-02  0.1139589E+00
         21   -1    0    0  503  502  0.00000000000E+00  0.00000000000E+00  0.53600582983E+03  0.53600582983E+03  0.00000000000E+00 0. -1.
         21   -1    0    0  501  503 -0.00000000000E+00 -0.00000000000E+00 -0.10650647166E+03  0.10650647166E+03  0.00000000000E+00 0. -1.
          6    2    1    2  501    0  0.11960682480E+03 -0.31907974728E+02  0.67753677963E+02  0.22321163128E+03  0.17294207143E+03 0.  0.
         24    2    3    3    0    0 -0.75215822770E+01 -0.23260393066E+02  0.31618950093E+02  0.90681555023E+02  0.81398810377E+02 0.  0.
         -6    2    1    2    0  502 -0.11960682480E+03  0.31907974728E+02  0.36174568020E+03  0.41930067020E+03  0.17213135536E+03 0.  0.
        -24    2    5    5    0    0 -0.10697253285E+03 -0.33474215562E+02  0.18666582444E+03  0.23192537291E+03  0.79884934099E+02 0.  0.
          5    1    3    3  501    0  0.12712840708E+03 -0.86475816613E+01  0.36134727870E+02  0.13253007626E+03  0.47000000000E+01 0. -1.
        -11    1    4    4    0    0  0.22306306130E+02  0.10781157010E+02 -0.12260139397E+02  0.27642642017E+02  0.00000000000E+00 0.  1.
         12    1    4    4    0    0 -0.29827888407E+02 -0.34041550076E+02  0.43879089490E+02  0.63038913005E+02  0.00000000000E+00 0. -1.
         -5    1    5    5    0  502 -0.12634291952E+02  0.65382190290E+02  0.17507985576E+03  0.18737529729E+03  0.47000000000E+01 0.  1.
         11    1    6    6    0    0 -0.13760357406E+02 -0.25189693747E+02  0.73019520533E+01  0.29617336321E+02  0.00000000000E+00 0. -1.
        -12    1    6    6    0    0 -0.93212175446E+02 -0.82845218156E+01  0.17936387239E+03  0.20230803659E+03  0.00000000000E+00 0.  1.
</event>
<event>
12    1  0.8798177E-003  0.2447405E+03  0.7818608E-02  0.1116706E+00
         21   -1    0    0  503  502  0.00000000000E+00  0.00000000000E+00  0.34858117041E+03  0.34858117041E+03  0.00000000000E+00 0.  1.
         21   -1    0    0  501  503 -0.00000000000E+00 -0.00000000000E+00 -0.17632106842E+03  0.17632106842E+03  0.00000000000E+00 0.  1.
          6    2    1    2  501    0  0.65074704474E+02 -0.16148686184E+03  0.43668003641E+02  0.24860571688E+03  0.17200344245E+03 0.  0.
         24    2    3    3    0    0  0.14992629835E+02 -0.15739895680E+03  0.71333166536E+02  0.19105246844E+03  0.80083796738E+02 0.  0.
         -6    2    1    2    0  502 -0.65074704474E+02  0.16148686184E+03  0.12859209834E+03  0.27629652195E+03  0.17172977778E+03 0.  0.
        -24    2    5    5    0    0 -0.11713840064E+02  0.24019837393E+02  0.93468379556E+01  0.86596530422E+02  0.81837821721E+02 0.  0.
          5    1    3    3  501    0  0.50082074638E+02 -0.40879050373E+01 -0.27665162895E+02  0.57553248437E+02  0.47000000000E+01 0. -1.
        -13    1    4    4    0    0  0.45377472550E+02 -0.11369308114E+03  0.61224640235E+02  0.13687106446E+03  0.00000000000E+00 0.  1.
         14    1    4    4    0    0 -0.30384842714E+02 -0.43705875657E+02  0.10108526300E+02  0.54181403984E+02  0.00000000000E+00 0. -1.
         -5    1    5    5    0  502 -0.53360864410E+02  0.13746702444E+03  0.11924526039E+03  0.18969999152E+03  0.47000000000E+01 0.  1.
         13    1    6    6    0    0  0.15799128890E+02 -0.70054189999E+01  0.34152394131E+02  0.38276290232E+02  0.00000000000E+00 0. -1.
        -14    1    6    6    0    0 -0.27512968953E+02  0.31025256393E+02 -0.24805556175E+02  0.48320240190E+02  0.00000000000E+00 0.  1.
</event>
<event>
12    1  0.8798177E-003  0.2203088E+03  0.7818608E-02  0.1133697E+00
         21   -1    0    0  501  502  0.00000000000E+00  0.00000000000E+00  0.23186988581E+03  0.23186988581E+03  0.00000000000E+00 0. -1.
         21   -1    0    0  502  503 -0.00000000000E+00 -0.00000000000E+00 -0.21741927698E+03  0.21741927698E+03  0.00000000000E+00 0. -1.
          6    2    1    2  501    0 -0.11100560806E+03  0.79588004473E+02 -0.36727599653E+02  0.22311406277E+03  0.17255281207E+03 0.  0.
         24    2    3    3    0    0 -0.11355009188E+02  0.42181356821E+01 -0.63392218712E+02  0.95270600341E+02  0.70079847274E+02 0.  0.
         -6    2    1    2    0  503  0.11100560806E+03 -0.79588004473E+02  0.51178208475E+02  0.22617510002E+03  0.17285679440E+03 0.  0.
        -24    2    5    5    0    0 -0.33107155455E+01 -0.40661315763E+00  0.22564356405E+02  0.84123147894E+02  0.80971770759E+02 0.  0.
          5    1    3    3  501    0 -0.99650598870E+02  0.75369868790E+02  0.26664619059E+02  0.12784346243E+03  0.47000000000E+01 0. -1.
        -11    1    4    4    0    0 -0.26724559600E+02 -0.18759989061E+02 -0.58785542234E+02  0.67244919890E+02  0.00000000000E+00 0.  1.
         12    1    4    4    0    0  0.15369550412E+02  0.22978124743E+02 -0.46066764780E+01  0.28025680451E+02  0.00000000000E+00 0. -1.
         -5    1    5    5    0  503  0.11431632360E+03 -0.79181391315E+02  0.28613852070E+02  0.14205195213E+03  0.47000000000E+01 0.  1.
         11    1    6    6    0    0  0.56150464685E+01 -0.31472892685E+02 -0.14362564128E+02  0.35047895360E+02  0.00000000000E+00 0. -1.
        -12    1    6    6    0    0 -0.89257620140E+01  0.31066279527E+02  0.36926920533E+02  0.49075252534E+02  0.00000000000E+00 0.  1.
</event>
<event>
12    1  0.8798177E-003  0.4737609E+03  0.7818608E-02  0.1021212E+00
         21   -1    0    0  503  502  0.00000000000E+00  0.00000000000E+00  0.23892668732E+04  0.23892668732E+04  0.00000000000E+00 0. -1.
         21   -1    0    0  501  503 -0.00000000000E+00 -0.00000000000E+00 -0.10413474768E+03  0.10413474768E+03  0.00000000000E+00 0. -1.
          6    2    1    2  501    0 -0.51580867481E+02 -0.43711783261E+03  0.72881602087E+03  0.86657366156E+03  0.16138318735E+03 0.  0.
         24    2    3    3    0    0 -0.73835035082E+02 -0.25067232317E+03  0.50570164226E+03  0.57492439976E+03  0.80719814477E+02 0.  0.
         -6    2    1    2    0  502  0.51580867481E+02  0.43711783261E+03  0.15563161046E+04  0.16268279593E+04  0.17526210708E+03 0.  0.
        -24    2    5    5    0    0  0.62273990263E+02  0.36600365330E+03  0.14462953471E+04  0.14953052371E+04  0.79566305015E+02 0.  0.
          5    1    3    3  501    0  0.22254167601E+02 -0.18644550944E+03  0.22311437861E+03  0.29164926180E+03  0.47000000000E+01 0. -1.
        -13    1    4    4    0    0 -0.57866432068E+02 -0.13557852736E+03  0.20454027072E+03  0.25212453944E+03  0.00000000000E+00 0.  1.
         14    1    4    4    0    0 -0.15968603014E+02 -0.11509379581E+03  0.30116137154E+03  0.32279986033E+03  0.00000000000E+00 0. -1.
         -5    1    5    5    0  502 -0.10693122782E+02  0.71114179310E+02  0.11002075748E+03  0.13152272218E+03  0.47000000000E+01 0.  1.
         13    1    6    6    0    0  0.49304899414E+02  0.16385346387E+03  0.53206696334E+03  0.55890444998E+03  0.00000000000E+00 0. -1.
        -14    1    6    6    0    0  0.12969090849E+02  0.20215018943E+03  0.91422838379E+03  0.93640078713E+03  0.00000000000E+00 0.  1.
</event>
<event>
12    1  0.8798177E-003  0.2057092E+03  0.7818608E-02  0.1145447E+00
         21   -1    0    0  503  502  0.00000000000E+00  0.00000000000E+00  0.99958521431E+03  0.99958521431E+03  0.00000000000E+00 0.  1.
         21   -1    0    0  501  503 -0.00000000000E+00 -0.00000000000E+00 -0.43204446739E+02  0.43204446739E+02  0.00000000000E+00 0.  1.
          6    2    1    2  501    0  0.40620138524E+01 -0.10786296665E+03  0.57137859408E+03  0.60728065313E+03  0.17511531732E+03 0.  0.
         24    2    3    3    0    0 -0.57164104436E+02 -0.87009820132E+02  0.46304766567E+03  0.48102230160E+03  0.78299874320E+02 0.  0.
         -6    2    1    2    0  502 -0.40620138524E+01  0.10786296665E+03  0.38500217348E+03  0.43550900791E+03  0.17259925508E+03 0.  0.
        -24    2    5    5    0    0 -0.26362976684E+02  0.13424514216E+03  0.25199946734E+03  0.29801296444E+03  0.81186394821E+02 0.  0.
          5    1    3    3  501    0  0.61226118289E+02 -0.20853146523E+02  0.10833092841E+03  0.12625835153E+03  0.47000000000E+01 0. -1.
        -13    1    4    4    0    0 -0.25963346724E+02 -0.60427326637E+01  0.24341815563E+03  0.24487345402E+03  0.00000000000E+00 0.  1.
         14    1    4    4    0    0 -0.31200757713E+02 -0.80967087468E+02  0.21962951004E+03  0.23614884759E+03  0.00000000000E+00 0. -1.
         -5    1    5    5    0  502  0.22300962832E+02 -0.26382175507E+02  0.13300270614E+03  0.13749604347E+03  0.47000000000E+01 0.  1.
         13    1    6    6    0    0 -0.17486584313E+02 -0.54610549592E+01  0.20626393392E+02  0.27587168332E+02  0.00000000000E+00 0. -1.
        -14    1    6    6    0    0 -0.88763923717E+01  0.13970619712E+03  0.23137307395E+03  0.27042579611E+03  0.00000000000E+00 0.  1.
</event>
<event>
12    1  0.8798177E-003  0.1893670E+03  0.7818608E-02  0.1159385E+00
         21   -1    0    0  501  502  0.00000000000E+00  0.00000000000E+00  0.17029620510E+03  0.17029620510E+03  0.00000000000E+00 0. -1.
         21   -1    0    0  502  503 -0.00000000000E+00 -0.00000000000E+00 -0.21670804666E+03  0.21670804666E+03  0.00000000000E+00 0.  1.
          6    2    1    2  501    0 -0.64018435364E+02  0.42331926378E+02  0.13531107761E+02  0.18984978768E+03  0.17311700941E+03 0.  0.
         24    2    3    3    0    0 -0.62974929320E+02  0.37986432054E+02 -0.56806149083E+02  0.11921415980E+03  0.74674403779E+02 0.  0.
         -6    2    1    2    0  503  0.64018435364E+02 -0.42331926378E+02 -0.59942949322E+02  0.19715446407E+03  0.17142454163E+03 0.  0.
        -24    2    5    5    0    0  0.55887520926E+02  0.37685664205E+02 -0.47261946640E+02  0.11559574657E+03  0.81148387181E+02 0.  0.
          5    1    3    3  501    0 -0.10435060433E+01  0.43454943239E+01  0.70337256844E+02  0.70635627881E+02  0.47000000000E+01 0. -1.
        -11    1    4    4    0    0 -0.15758986908E+02  0.51555878743E+02 -0.18774503848E+02  0.57086218092E+02  0.00000000000E+00 0.  1.
         12    1    4    4    0    0 -0.47215942413E+02 -0.13569446690E+02 -0.38031645235E+02  0.62127941706E+02  0.00000000000E+00 0. -1.
         -5    1    5    5    0  503  0.81309144381E+01 -0.80017590583E+02 -0.12681002682E+02  0.81558717507E+02  0.47000000000E+01 0.  1.
         13    1    6    6    0    0  0.53359181944E+02  0.95015112210E+00  0.28104842433E+01  0.53441593414E+02  0.00000000000E+00 0. -1.
        -14    1    6    6    0    0  0.25283389815E+01  0.36735513083E+02 -0.50072430883E+02  0.62154153152E+02  0.00000000000E+00 0.  1.
</event>
<event>
12    1  0.8798177E-003  0.2255242E+03  0.7818608E-02  0.1130464E+00
         21   -1    0    0  501  502  0.00000000000E+00  0.00000000000E+00  0.36301701884E+03  0.36301701884E+03  0.00000000000E+00 0. -1.
         21   -1    0    0  502  503 -0.00000000000E+00 -0.00000000000E+00 -0.21071947450E+03  0.21071947450E+03  0.00000000000E+00 0. -1.
          6    2    1    2  501    0 -0.14082797116E+03  0.38837669541E+01  0.24511247598E+03  0.33307851338E+03  0.17610669801E+03 0.  0.
         24    2    3    3    0    0 -0.14339246736E+03 -0.97765921871E+01  0.26299691841E+03  0.30994573720E+03  0.79006325455E+02 0.  0.
         -6    2    1    2    0  503  0.14082797116E+03 -0.38837669541E+01 -0.92814931633E+02  0.24065797996E+03  0.17162182459E+03 0.  0.
        -24    2    5    5    0    0  0.14888535752E+03  0.39642560536E+02 -0.91316418710E+02  0.19611813038E+03  0.79907762128E+02 0.  0.
          5    1    3    3  501    0  0.25644961982E+01  0.13660359141E+02 -0.17884442432E+02  0.23132776178E+02  0.47000000000E+01 0. -1.
        -11    1    4    4    0    0 -0.69633689190E+01 -0.19320927401E+02  0.73077880427E+02  0.75908914826E+02  0.00000000000E+00 0.  1.
         12    1    4    4    0    0 -0.13642909844E+03  0.95443352141E+01  0.18991903798E+03  0.23403682237E+03  0.00000000000E+00 0. -1.
         -5    1    5    5    0  503 -0.80573863560E+01 -0.43526327490E+02 -0.14985129239E+01  0.44539849581E+02  0.47000000000E+01 0.  1.
         11    1    6    6    0    0  0.30659139043E+02  0.42556093999E+02 -0.45003750088E+02  0.69111080626E+02  0.00000000000E+00 0. -1.
        -12    1    6    6    0    0  0.11822621848E+03 -0.29135334625E+01 -0.46312668622E+02  0.12700704976E+03  0.00000000000E+00 0.  1.
</event>
<event>
12    1  0.8798177E-003  0.1953094E+03  0.7818608E-02  0.1154011E+00
         21   -1    0    0  503  502  0.00000000000E+00  0.00000000000E+00  0.55661517676E+03  0.55661517676E+03  0.00000000000E+00 0.  1.
         21   -1    0    0  501  503 -0.00000000000E+00 -0.00000000000E+00 -0.68300081285E+02  0.68300081285E+02  0.00000000000E+00 0.  1.
          6    2    1    2  501    0  0.59179643505E+01 -0.91190606602E+02  0.26072257942E+03  0.32576375043E+03  0.17261230732E+03 0.  0.
         24    2    3    3    0    0 -0.58896326603E+02 -0.81119267269E+02  0.19871537766E+03  0.23537953025E+03  0.76593793025E+02 0.  0.
         -6    2    1    2    0  502 -0.59179643505E+01  0.91190606602E+02  0.22759251606E+03  0.29915150762E+03  0.17129659107E+03 0.  0.
        -24    2    5    5    0    0 -0.23154407892E+02 -0.11857028714E+02  0.71080085795E+02  0.11091192369E+03  0.81070096127E+02 0.  0.
          5    1    3    3  501    0  0.64814290953E+02 -0.10071339332E+02  0.62007201757E+02  0.90384220180E+02  0.47000000000E+01 0. -1.
        -11    1    4    4    0    0 -0.51255379590E+02 -0.41829995968E+02  0.17885309303E+03  0.19069685730E+03  0.00000000000E+00 0.  1.
         12    1    4    4    0    0 -0.76409470130E+01 -0.39289271301E+02  0.19862284638E+02  0.44682672947E+02  0.00000000000E+00 0. -1.
         -5    1    5    5    0  502  0.17236443542E+02  0.10304763532E+03  0.15651243026E+03  0.18823958392E+03  0.47000000000E+01 0.  1.
         13    1    6    6    0    0 -0.49831353835E+02 -0.18751320449E+02  0.29040811010E+02  0.60647708512E+02  0.00000000000E+00 0. -1.
        -14    1    6    6    0    0  0.26676945943E+02  0.68942917347E+01  0.42039274784E+02  0.50264215181E+02  0.00000000000E+00 0.  1.
</event>
<event>
12    1  0.8798177E-003  0.1804799E+03  0.7818608E-02  0.1167546E+00
         21   -1    0    0  501  502  0.00000000000E+00  0.00000000000E+00  0.14801766365E+03  0.14801766365E+03  0.00000000000E+00 0. -1.
         21   -1    0    0  502  503 -0.00000000000E+00 -0.00000000000E+00 -0.36236449757E+03  0.36236449757E+03  0.00000000000E+00 0. -1.
          6    2    1    2  501    0  0.41034590564E+02  0.33129110251E+02  0.53481424364E+02  0.18741935670E+03  0.17171015388E+03 0.  0.
         24    2    3    3    0    0 -0.29908361774E+02  0.59975795145E+02  0.31204235326E+02  0.10822333327E+03  0.79037835590E+02 0.  0.
         -6    2    1    2    0  503 -0.41034590564E+02 -0.33129110251E+02 -0.26782825829E+03  0.32296280452E+03  0.17260249591E+03 0.  0.
        -24    2    5    5    0    0 -0.74172655321E+02 -0.40261718044E+02 -0.26413422423E+03  0.28854273308E+03  0.79796188301E+02 0.  0.
          5    1    3    3  501    0  0.70942952338E+02 -0.26846684894E+02  0.22277189038E+02  0.79196023433E+02  0.47000000000E+01 0. -1.
        -13    1    4    4    0    0  0.26171646680E+01  0.62045981146E+02 -0.14084466583E+01  0.62117123640E+02  0.00000000000E+00 0.  1.
         14    1    4    4    0    0 -0.32525526442E+02 -0.20701860008E+01  0.32612681984E+02  0.46106209632E+02  0.00000000000E+00 0. -1.
         -5    1    5    5    0  503  0.33138064758E+02  0.71326077928E+01 -0.36940340555E+01  0.34420071432E+02  0.47000000000E+01 0.  1.
         11    1    6    6    0    0 -0.14667114835E+02 -0.39407230052E+02 -0.18390621408E+03  0.18865192715E+03  0.00000000000E+00 0. -1.
        -12    1    6    6    0    0 -0.59505540486E+02 -0.85448799223E+00 -0.80228010151E+02  0.99890805939E+02  0.00000000000E+00 0.  1.
</event>
<event>
12    1  0.8798177E-003  0.2670900E+03  0.7818608E-02  0.1103080E+00
         21   -1    0    0  503  502  0.00000000000E+00  0.00000000000E+00  0.34865291071E+04  0.34865291071E+04  0.00000000000E+00 0. -1.
         21   -1    0    0  501  503 -0.00000000000E+00 -0.00000000000E+00 -0.20397492697E+02  0.20397492697E+02  0.00000000000E+00 0.  1.
          6    2    1    2  501    0 -0.19995302791E+03 -0.42281728245E+02  0.17207815235E+04  0.17413862656E+04  0.17195382105E+03 0.  0.
         24    2    3    3    0    0 -0.19765158998E+03 -0.46464109252E+02  0.11526011972E+04  0.11731664472E+04  0.81270710776E+02 0.  0.
         -6    2    1    2    0  502  0.19995302791E+03  0.42281728245E+02  0.17453500909E+04  0.17655403342E+04  0.17063637908E+03 0.  0.
        -24    2    5    5    0    0  0.10679147455E+03 -0.27233729826E+02  0.12291672252E+04  0.12364105630E+04  0.75583845014E+02 0.  0.
          5    1    3    3  501    0 -0.23014379223E+01  0.41823810065E+01  0.56818032625E+03  0.56821981844E+03  0.47000000000E+01 0. -1.
        -13    1    4    4    0    0 -0.11598544803E+03 -0.63914680717E+02  0.61302611930E+03  0.62716722930E+03  0.00000000000E+00 0.  1.
         14    1    4    4    0    0 -0.81666141955E+02  0.17450571465E+02  0.53957507793E+03  0.54599921787E+03  0.00000000000E+00 0. -1.
         -5    1    5    5    0  502  0.93161553352E+02  0.69515458072E+02  0.51618286569E+03  0.52912977120E+03  0.47000000000E+01 0.  1.
         11    1    6    6    0    0  0.44708195636E+02 -0.46171724685E+02  0.45337359051E+03  0.45790639162E+03  0.00000000000E+00 0. -1.
        -12    1    6    6    0    0  0.62083278919E+02  0.18937994859E+02  0.77579363470E+03  0.77850417135E+03  0.00000000000E+00 0.  1.
</event>
<event>
12    1  0.8798177E-003  0.2238209E+03  0.7818608E-02  0.1131145E+00
         21   -1    0    0  503  502  0.00000000000E+00  0.00000000000E+00  0.39472783363E+03  0.39472783363E+03  0.00000000000E+00 0. -1.
         21   -1    0    0  501  503 -0.00000000000E+00 -0.00000000000E+00 -0.12871749748E+03  0.12871749748E+03  0.00000000000E+00 0.  1.
          6    2    1    2  501    0  0.12792386911E+03 -0.62432949627E+02  0.16615160054E+03  0.27875103416E+03  0.17272346453E+03 0.  0.
         24    2    3    3    0    0  0.58760174885E+02 -0.80608308262E+02  0.40460798842E+02  0.13406438001E+03  0.79910726630E+02 0.  0.
         -6    2    1    2    0  502 -0.12792386911E+03  0.62432949627E+02  0.99858735621E+02  0.24469429694E+03  0.17216603146E+03 0.  0.
        -24    2    5    5    0    0 -0.84868206340E+02  0.32168665769E+02  0.13452887149E+03  0.18149757792E+03  0.81276798805E+02 0.  0.
          5    1    3    3  501    0  0.69163694226E+02  0.18175358635E+02  0.12569080169E+03  0.14468665416E+03  0.47000000000E+01 0. -1.
        -13    1    4    4    0    0 -0.54358582523E+00 -0.63988627868E+02  0.81293242838E+01  0.64505239286E+02  0.00000000000E+00 0.  1.
         14    1    4    4    0    0  0.59303760710E+02 -0.16619680393E+02  0.32331474559E+02  0.69559140721E+02  0.00000000000E+00 0. -1.
         -5    1    5    5    0  502 -0.43055662771E+02  0.30264283858E+02 -0.34670135866E+02  0.63196719021E+02  0.47000000000E+01 0.  1.
         11    1    6    6    0    0 -0.64970885341E+02 -0.71948384506E+01  0.11702613112E+03  0.13404513049E+03  0.00000000000E+00 0. -1.
        -12    1    6    6    0    0 -0.19897320999E+02  0.39363504220E+02  0.17502740367E+02  0.47452447437E+02  0.00000000000E+00 0.  1.
</event>
<event>
12    1  0.8798177E-003  0.2474776E+03  0.7818608E-02  0.1115003E+00
         21   -1    0    0  501  502  0.00000000000E+00  0.00000000000E+00  0.91599565207E+03  0.91599565207E+03  0.00000000000E+00 0. -1.
         21   -1    0    0  502  503 -0.00000000000E+00 -0.00000000000E+00 -0.78318942312E+02  0.78318942312E+02  0.00000000000E+00 0.  1.
          6    2    1    2  501    0  0.16524225879E+03 -0.67406252774E+02  0.22696230520E+03  0.33536298314E+03  0.17061018574E+03 0.  0.
         24    2    3    3    0    0  0.75547598941E+01 -0.16079731245E+02  0.72801162063E+02  0.10889553035E+03  0.79010095423E+02 0.  0.
         -6    2    1    2    0  503 -0.16524225879E+03  0.67406252774E+02  0.61071440456E+03  0.65895161124E+03  0.17145417759E+03 0.  0.
        -24    2    5    5    0    0 -0.12279875611E+03 -0.17936593014E+02  0.37775487717E+03  0.40720355534E+03  0.87833549309E+02 0.  0.
          5    1    3    3  501    0  0.15768749890E+03 -0.51326521528E+02  0.15416114313E+03  0.22646745279E+03  0.47000000000E+01 0. -1.
        -13    1    4    4    0    0  0.38826771658E+02  0.99054202376E+01  0.40440092274E+02  0.56930102851E+02  0.00000000000E+00 0.  1.
         14    1    4    4    0    0 -0.31272011764E+02 -0.25985151483E+02  0.32361069789E+02  0.51965427500E+02  0.00000000000E+00 0. -1.
         -5    1    5    5    0  503 -0.42443502684E+02  0.85342845788E+02  0.23295952739E+03  0.25174805590E+03  0.47000000000E+01 0.  1.
         11    1    6    6    0    0 -0.76345175362E+02  0.28643824777E+02  0.25787335539E+03  0.27045835524E+03  0.00000000000E+00 0. -1.
        -12    1    6    6    0    0 -0.46453580748E+02 -0.46580417791E+02  0.11988152178E+03  0.13674520010E+03  0.00000000000E+00 0.  1.
</event>
<event>
12    1  0.8798177E-003  0.2575483E+03  0.7818608E-02  0.1108744E+00
         21   -1    0    0  503  502  0.00000000000E+00  0.00000000000E+00  0.16847167401E+03  0.16847167401E+03  0.00000000000E+00 0. -1.
         21   -1    0    0  501  503 -0.00000000000E+00 -0.00000000000E+00 -0.43495848611E+03  0.43495848611E+03  0.00000000000E+00 0. -1.
          6    2    1    2  501    0  0.16936611858E+03 -0.88573369855E+02 -0.39193939617E+02  0.26051347864E+03  0.17262961415E+03 0.  0.
         24    2    3    3    0    0  0.48819341362E+02 -0.69252218468E+02 -0.51727545117E+02  0.13769648611E+03  0.95422143708E+02 0.  0.
         -6    2    1    2    0  502 -0.16936611858E+03  0.88573369855E+02 -0.22729287248E+03  0.34291668148E+03  0.17146333890E+03 0.  0.
        -24    2    5    5    0    0 -0.13558215594E+03  0.11263509670E+03 -0.11902489456E+03  0.22688061866E+03  0.78985464382E+02 0.  0.
          5    1    3    3  501    0  0.12054677722E+03 -0.19321151387E+02  0.12533605500E+02  0.12281699253E+03  0.47000000000E+01 0. -1.
        -11    1    4    4    0    0  0.60004834846E+02 -0.24874192256E+02 -0.63078444929E+02  0.90543889137E+02  0.00000000000E+00 0.  1.
         12    1    4    4    0    0 -0.11185493484E+02 -0.44378026212E+02  0.11350899812E+02  0.47152596975E+02  0.00000000000E+00 0. -1.
         -5    1    5    5    0  502 -0.33783962639E+02 -0.24061726844E+02 -0.10826797792E+03  0.11603606281E+03  0.47000000000E+01 0.  1.
         11    1    6    6    0    0 -0.55989962401E+02  0.63448774369E+02 -0.10070935135E+03  0.13154085414E+03  0.00000000000E+00 0. -1.
        -12    1    6    6    0    0 -0.79592193538E+02  0.49186322329E+02 -0.18315543208E+02  0.95339764524E+02  0.00000000000E+00 0.  1.
</event>
<event>
12    1  0.8798177E-003  0.1756152E+03  0.7818608E-02  0.1172492E+00
         21   -1    0    0  501  502  0.00000000000E+00  0.00000000000E+00  0.20105232290E+03  0.20105232290E+03  0.00000000000E+00 0.  1.
         21   -1    0    0  502  503 -0.00000000000E+00 -0.00000000000E+00 -0.17922725028E+03  0.17922725028E+03  0.00000000000E+00 0.  1.
          6    2    1    2  501    0 -0.18868051648E+02 -0.35985751945E+01  0.84859252320E+02  0.19369447502E+03  0.17305347102E+03 0.  0.
         24    2    3    3    0    0 -0.53064633469E+02 -0.96572911764E+01  0.11267475798E+03  0.14895180409E+03  0.81129034611E+02 0.  0.
         -6    2    1    2    0  503  0.18868051648E+02  0.35985751945E+01 -0.63034179701E+02  0.18658509816E+03  0.17456155914E+03 0.  0.
        -24    2    5    5    0    0 -0.14010240119E+01 -0.30920857087E+02 -0.10065101213E+03  0.13145305017E+03  0.78684279793E+02 0.  0.
          5    1    3    3  501    0  0.34196581822E+02  0.60587159819E+01 -0.27815505657E+02  0.44742670937E+02  0.47000000000E+01 0. -1.
        -13    1    4    4    0    0 -0.20430317712E+02 -0.15407655376E+02 -0.55389106719E+01  0.26181544214E+02  0.00000000000E+00 0.  1.
         14    1    4    4    0    0 -0.32634315758E+02  0.57503642000E+01  0.11821366865E+03  0.12277025987E+03  0.00000000000E+00 0. -1.
         -5    1    5    5    0  503  0.20269075660E+02  0.34519432282E+02  0.37616832427E+02  0.55132047985E+02  0.47000000000E+01 0.  1.
         11    1    6    6    0    0 -0.38517542882E+02 -0.22054732163E+02 -0.68141728032E+02  0.81322244310E+02  0.00000000000E+00 0. -1.
        -12    1    6    6    0    0  0.37116518870E+02 -0.88661249245E+01 -0.32509284096E+02  0.50130805864E+02  0.00000000000E+00 0.  1.
</event>
<event>
12    1  0.8798177E-003  0.2415782E+03  0.7818608E-02  0.1118794E+00
         21   -1    0    0  501  502  0.00000000000E+00  0.00000000000E+00  0.51448937128E+03  0.51448937128E+03  0.00000000000E+00 0.  1.
         21   -1    0    0  502  503 -0.00000000000E+00 -0.00000000000E+00 -0.15668275713E+03  0.15668275713E+03  0.00000000000E+00 0.  1.
          6    2    1    2  501    0 -0.16963839925E+03  0.10411573273E+01  0.35541780102E+03  0.42958216732E+03  0.17158308392E+03 0.  0.
         24    2    3    3    0    0 -0.86914204874E+02 -0.87246011815E+01  0.82865448650E+02  0.14454613949E+03  0.79979411026E+02 0.  0.
         -6    2    1    2    0  503  0.16963839925E+03 -0.10411573273E+01  0.23888131258E+01  0.24158996109E+03  0.17199340791E+03 0.  0.
        -24    2    5    5    0    0  0.17303383863E+03  0.41568630525E+02 -0.14472364867E+02  0.19540000165E+03  0.79391756156E+02 0.  0.
          5    1    3    3  501    0 -0.82724194374E+02  0.97657585087E+01  0.27255235237E+03  0.28503602782E+03  0.47000000000E+01 0. -1.
        -11    1    4    4    0    0 -0.72628928607E+01  0.45016813589E+01  0.60032808591E+02  0.60637883003E+02  0.00000000000E+00 0.  1.
         12    1    4    4    0    0 -0.79651312013E+02 -0.13226282540E+02  0.22832640058E+02  0.83908256491E+02  0.00000000000E+00 0. -1.
         -5    1    5    5    0  503 -0.33954393849E+01 -0.42609787853E+02  0.16861177992E+02  0.46189959436E+02  0.47000000000E+01 0.  1.
         13    1    6    6    0    0  0.72744817374E+02 -0.19076794761E+02  0.94123580979E+01  0.75791325612E+02  0.00000000000E+00 0. -1.
        -14    1    6    6    0    0  0.10028902126E+03  0.60645425286E+02 -0.23884722964E+02  0.11960867604E+03  0.00000000000E+00 0.  1.
</event>
<event>
12    1  0.8798177E-003  0.2358705E+03  0.7818608E-02  0.1122594E+00
         21   -1    0    0  503  502  0.00000000000E+00  0.00000000000E+00  0.27024633381E+03  0.27024633381E+03  0.00000000000E+00 0. -1.
         21   -1    0    0  501  503 -0.00000000000E+00 -0.00000000000E+00 -0.30132338206E+03  0.30132338206E+03  0.00000000000E+00 0.  1.
          6    2    1    2  501    0 -0.10193289690E+03 -0.12496075156E+03 -0.17647176038E+03  0.29448759090E+03  0.17197428320E+03 0.  0.
         24    2    3    3    0    0 -0.83272890640E+02 -0.14225497236E+03 -0.19145213649E+03  0.26459131061E+03  0.78637075264E+02 0.  0.
         -6    2    1    2    0  502  0.10193289690E+03  0.12496075156E+03  0.14539471213E+03  0.27708212497E+03  0.17213185864E+03 0.  0.
        -24    2    5    5    0    0  0.12408335488E+03  0.13448013002E+03  0.15226023924E+03  0.25157748191E+03  0.81403099603E+02 0.  0.
          5    1    3    3  501    0 -0.18660006257E+02  0.17294220803E+02  0.14980376109E+02  0.29896280288E+02  0.47000000000E+01 0. -1.
        -11    1    4    4    0    0 -0.24296171103E+02 -0.81287556934E+02 -0.46774266842E+02  0.96880353432E+02  0.00000000000E+00 0.  1.
         12    1    4    4    0    0 -0.58976719537E+02 -0.60967415431E+02 -0.14467786965E+03  0.16771095718E+03  0.00000000000E+00 0. -1.
         -5    1    5    5    0  502 -0.22150457981E+02 -0.95193784541E+01 -0.68655271088E+01  0.25504643055E+02  0.47000000000E+01 0.  1.
         11    1    6    6    0    0  0.10101612084E+03  0.79993280171E+02  0.14160826026E+03  0.19145777842E+03  0.00000000000E+00 0. -1.
        -12    1    6    6    0    0  0.23067234038E+02  0.54486849845E+02  0.10651978978E+02  0.60119703495E+02  0.00000000000E+00 0.  1.
</event>
<event>
12    1  0.8798177E-003  0.2509358E+03  0.7818608E-02  0.1113173E+00
         21   -1    0    0  501  502  0.00000000000E+00  0.00000000000E+00  0.59737340726E+03  0.59737340726E+03  0.00000000000E+00 0. -1.
         21   -1    0    0  502  503 -0.00000000000E+00 -0.00000000000E+00 -0.12665258828E+03  0.12665258828E+03  0.00000000000E+00 0. -1.
          6    2    1    2  501    0 -0.12715876909E+03 -0.12819293040E+03  0.38666856478E+03  0.45938749201E+03  0.17006324962E+03 0.  0.
         24    2    3    3    0    0 -0.86696371227E+01 -0.87626043310E+02  0.22804229154E+03  0.25722485629E+03  0.80049071755E+02 0.  0.
         -6    2    1    2    0  503  0.12715876909E+03  0.12819293040E+03  0.84052254209E+02  0.26463850353E+03  0.17425836035E+03 0.  0.
        -24    2    5    5    0    0  0.61421549261E+02  0.15017472086E+03  0.70393412641E+02  0.19383430072E+03  0.79318661713E+02 0.  0.
          5    1    3    3  501    0 -0.11848913196E+03 -0.40566887095E+02  0.15862627323E+03  0.20216263572E+03  0.47000000000E+01 0. -1.
        -11    1    4    4    0    0  0.14994608331E+02 -0.38250578689E+02  0.17921018259E+03  0.18385927932E+03  0.00000000000E+00 0.  1.
         12    1    4    4    0    0 -0.23664245454E+02 -0.49375464621E+02  0.48832108952E+02  0.73365576970E+02  0.00000000000E+00 0. -1.
         -5    1    5    5    0  503  0.65737219826E+02 -0.21981790452E+02  0.13658841567E+02  0.70804202805E+02  0.47000000000E+01 0.  1.
         11    1    6    6    0    0  0.25400044177E+02  0.24956295011E+02 -0.14363435128E+02  0.38396447408E+02  0.00000000000E+00 0. -1.
        -12    1    6    6    0    0  0.36021505084E+02  0.12521842585E+03  0.84756847769E+02  0.15543785332E+03  0.00000000000E+00 0.  1.
</event>
<event>
12    1  0.8798177E-003  0.1906359E+03  0.7818608E-02  0.1158262E+00
         21   -1    0    0  501  502  0.00000000000E+00  0.00000000000E+00  0.87464741833E+03  0.87464741833E+03  0.00000000000E+00 0. -1.
         21   -1    0    0  502  503 -0.00000000000E+00 -0.00000000000E+00 -0.44512828970E+02  0.44512828970E+02  0.00000000000E+00 0. -1.
          6    2    1    2  501    0  0.26199182518E+01  0.81956241486E+02  0.29118907976E+03  0.34804185706E+03  0.17209986812E+03 0.  0.
         24    2    3    3    0    0  0.43441541252E+02  0.10671116251E+03  0.23460543675E+03  0.27385958374E+03  0.81761365848E+02 0.  0.
         -6    2    1    2    0  503 -0.26199182518E+01 -0.81956241486E+02  0.53894550960E+03  0.57111839024E+03  0.17026527496E+03 0.  0.
        -24    2    5    5    0    0 -0.37938869431E+01  0.15764660649E+02  0.17248975747E+03  0.19182607396E+03  0.82350519824E+02 0.  0.
          5    1    3    3  501    0 -0.40821623000E+02 -0.24754921020E+02  0.56583643010E+02  0.74182273323E+02  0.47000000000E+01 0. -1.
        -11    1    4    4    0    0  0.28155156840E+02  0.46112523500E+01  0.17530553169E+02  0.33485770102E+02  0.00000000000E+00 0.  1.
         12    1    4    4    0    0  0.15286384411E+02  0.10209991016E+03  0.21707488358E+03  0.24037381364E+03  0.00000000000E+00 0. -1.
         -5    1    5    5    0  503  0.11739686913E+01 -0.97720902135E+02  0.36645575214E+03  0.37929231628E+03  0.47000000000E+01 0.  1.
         11    1    6    6    0    0 -0.18980458753E+02 -0.16886716258E+02  0.13421113759E+02  0.28732304032E+02  0.00000000000E+00 0. -1.
        -12    1    6    6    0    0  0.15186571809E+02  0.32651376907E+02  0.15906864371E+03  0.16309376993E+03  0.00000000000E+00 0.  1.
</event>
<event>
12    1  0.8798177E-003  0.1930522E+03  0.7818608E-02  0.1155987E+00
         21   -1    0    0  501  502  0.00000000000E+00  0.00000000000E+00  0.52572116329E+03  0.52572116329E+03  0.00000000000E+00 0.  1.
         21   -1    0    0  502  503 -0.00000000000E+00 -0.00000000000E+00 -0.10622307790E+03  0.10622307790E+03  0.00000000000E+00 0. -1.
          6    2    1    2  501    0 -0.82438384713E+01  0.87759129055E+02  0.39263451759E+03  0.43703192612E+03  0.17048581887E+03 0.  0.
         24    2    3    3    0    0 -0.41763874328E+02  0.77727992812E+02  0.14764395595E+03  0.18951085269E+03  0.79559810782E+02 0.  0.
         -6    2    1    2    0  503  0.82438384713E+01 -0.87759129055E+02  0.26863567799E+02  0.19491231507E+03  0.17175428288E+03 0.  0.
        -24    2    5    5    0    0  0.11143564302E+02 -0.21320454575E+02 -0.48250339090E+02  0.94479776098E+02  0.77586030061E+02 0.  0.
          5    1    3    3  501    0  0.33520035857E+02  0.10031136243E+02  0.24499056164E+03  0.24752107343E+03  0.47000000000E+01 0. -1.
        -13    1    4    4    0    0 -0.33424594129E+02 -0.36815748651E+01  0.65122525929E+02  0.73291888156E+02  0.00000000000E+00 0.  1.
         14    1    4    4    0    0 -0.83392801994E+01  0.81409567677E+02  0.82521430022E+02  0.11621896453E+03  0.00000000000E+00 0. -1.
         -5    1    5    5    0  503 -0.28997258311E+01 -0.66438674479E+02  0.75113906889E+02  0.10043253897E+03  0.47000000000E+01 0.  1.
         11    1    6    6    0    0 -0.19881694209E+02  0.68053111258E+01  0.95676423018E+01  0.23089690413E+02  0.00000000000E+00 0. -1.
        -12    1    6    6    0    0  0.31025258512E+02 -0.28125765701E+02 -0.57817981391E+02  0.71390085685E+02  0.00000000000E+00 0.  1.
</event>
<event>
12    1  0.8798177E-003  0.2736926E+03  0.7818608E-02  0.1099671E+00
         21   -1    0    0  501  502  0.00000000000E+00  0.00000000000E+00  0.91737878696E+02  0.91737878696E+02  0.00000000000E+00 0. -1.
         21   -1    0    0  502  503 -0.00000000000E+00 -0.00000000000E+00 -0.11269651589E+04  0.11269651589E+04  0.00000000000E+00 0.  1.
          6    2    1    2  501    0  0.81406150200E+02 -0.19660512255E+03 -0.19492744726E+03  0.33601242700E+03  0.17212526224E+03 0.  0.
         24    2    3    3    0    0  0.96000769353E+02 -0.15218879674E+03 -0.81795696707E+02  0.21351060706E+03  0.80738254609E+02 0.  0.
         -6    2    1    2    0  503 -0.81406150200E+02  0.19660512255E+03 -0.84029983290E+03  0.88269061055E+03  0.16660843097E+03 0.  0.
        -24    2    5    5    0    0  0.11546011313E+02  0.11726555971E+03 -0.36242771152E+03  0.38941713168E+03  0.80045827477E+02 0.  0.
          5    1    3    3  501    0 -0.14594619154E+02 -0.44416325814E+02 -0.11313175055E+03  0.12250181994E+03  0.47000000000E+01 0. -1.
        -13    1    4    4    0    0 -0.13721168106E+02 -0.12911754445E+02 -0.14844486126E+02  0.23986300786E+02  0.00000000000E+00 0.  1.
         14    1    4    4    0    0  0.10972193746E+03 -0.13927704230E+03 -0.66951210582E+02  0.18952430627E+03  0.00000000000E+00 0. -1.
         -5    1    5    5    0  503 -0.92952161512E+02  0.79339562847E+02 -0.47787212138E+03  0.49327347887E+03  0.47000000000E+01 0.  1.
         11    1    6    6    0    0  0.15764870561E+02  0.12652481010E+03 -0.35380952095E+03  0.37608275131E+03  0.00000000000E+00 0. -1.
        -12    1    6    6    0    0 -0.42188592480E+01 -0.92592503935E+01 -0.86181905667E+01  0.13334380370E+02  0.00000000000E+00 0.  1.
</event>
<event>
12    1  0.8798177E-003  0.2104475E+03  0.7818608E-02  0.1141515E+00
         21   -1    0    0  501  502  0.00000000000E+00  0.00000000000E+00  0.71224606944E+03  0.71224606944E+03  0.00000000000E+00 0.  1.
         21   -1    0    0  502  503 -0.00000000000E+00 -0.00000000000E+00 -0.64080230947E+02  0.64080230947E+02  0.00000000000E+00 0. -1.
          6    2    1    2  501    0 -0.49987894350E+02 -0.11079106874E+03  0.24861623017E+03  0.32474239477E+03  0.16992393171E+03 0.  0.
         24    2    3    3    0    0  0.84902671235E+01 -0.71364779119E+02  0.61027764241E+02  0.12427880648E+03  0.80968002307E+02 0.  0.
         -6    2    1    2    0  503  0.49987894350E+02  0.11079106874E+03  0.39954960832E+03  0.45158390561E+03  0.17179838126E+03 0.  0.
        -24    2    5    5    0    0  0.51863679965E+02  0.13040716228E+02  0.28554167227E+03  0.30132230216E+03  0.80007384662E+02 0.  0.
          5    1    3    3  501    0 -0.58478161473E+02 -0.39426289617E+02  0.18758846593E+03  0.20046358829E+03  0.47000000000E+01 0. -1.
        -13    1    4    4    0    0  0.21694778722E+02  0.87886828770E+01  0.28234597761E+02  0.36675562453E+02  0.00000000000E+00 0.  1.
         14    1    4    4    0    0 -0.13204511598E+02 -0.80153461996E+02  0.32793166480E+02  0.87603244029E+02  0.00000000000E+00 0. -1.
         -5    1    5    5    0  503 -0.18757856155E+01  0.97750352508E+02  0.11400793605E+03  0.15026160345E+03  0.47000000000E+01 0.  1.
         11    1    6    6    0    0  0.64478278307E+02 -0.10772726777E+02  0.15846209045E+03  0.17141684318E+03  0.00000000000E+00 0. -1.
        -12    1    6    6    0    0 -0.12614598342E+02  0.23813443005E+02  0.12707958182E+03  0.12990545899E+03  0.00000000000E+00 0.  1.
</event>
<event>
12    1  0.8798177E-003  0.1995446E+03  0.7818608E-02  0.1150328E+00
         21   -1    0    0  501  502  0.00000000000E+00  0.00000000000E+00  0.51660641218E+02  0.51660641218E+02  0.00000000000E+00 0. -1.
         21   -1    0    0  502  503 -0.00000000000E+00 -0.00000000000E+00 -0.81147860247E+03  0.81147860247E+03  0.00000000000E+00 0. -1.
          6    2    1    2  501    0 -0.46841909698E+02 -0.91361091122E+02 -0.48177111076E+03  0.52146087544E+03  0.17110531252E+03 0.  0.
         24    2    3    3    0    0 -0.45461056082E+01 -0.11147314928E+03 -0.24988002264E+03  0.28484093402E+03  0.79040507916E+02 0.  0.
         -6    2    1    2    0  503  0.46841909698E+02  0.91361091122E+02 -0.27804685050E+03  0.34167836826E+03  0.16997953638E+03 0.  0.
        -24    2    5    5    0    0  0.88527433961E+02  0.48063143088E+02 -0.13598608179E+03  0.18735485338E+03  0.80389392076E+02 0.  0.
          5    1    3    3  501    0 -0.42295804090E+02  0.20112058160E+02 -0.23189108812E+03  0.23661994142E+03  0.47000000000E+01 0. -1.
        -13    1    4    4    0    0 -0.41624621234E+02 -0.63317698637E+02 -0.13143456251E+03  0.15171283491E+03  0.00000000000E+00 0.  1.
         14    1    4    4    0    0  0.37078515625E+02 -0.48155450646E+02 -0.11844546012E+03  0.13312809911E+03  0.00000000000E+00 0. -1.
         -5    1    5    5    0  503 -0.41685524263E+02  0.43297948034E+02 -0.14206076871E+03  0.15432351487E+03  0.47000000000E+01 0.  1.
         11    1    6    6    0    0 -0.51283972921E+01  0.32714346971E+02 -0.26133741421E+02  0.42184136796E+02  0.00000000000E+00 0. -1.
        -12    1    6    6    0    0  0.93655831253E+02  0.15348796117E+02 -0.10985234037E+03  0.14517071659E+03  0.00000000000E+00 0.  1.
</event>
<event>
12    1  0.8798177E-003  0.2619629E+03  0.7818608E-02  0.1106045E+00
         21   -1    0    0  503  502  0.00000000000E+00  0.00000000000E+00  0.19766556632E+04  0.19766556632E+04  0.00000000000E+00 0.  1.
         21   -1    0    0  501  503 -0.00000000000E+00 -0.00000000000E+00 -0.46574049099E+02  0.46574049099E+02  0.00000000000E+00 0. -1.
          6    2    1    2  501    0  0.87833068188E+02 -0.17702662767E+03  0.45249082262E+03  0.52259680508E+03  0.17119112522E+03 0.  0.
         24    2    3    3    0    0  0.59909329874E+02 -0.25976437876E+02  0.23217919093E+03  0.25397960522E+03  0.79589949366E+02 0.  0.
         -6    2    1    2    0  502 -0.87833068188E+02  0.17702662767E+03  0.14775907914E+04  0.15006329072E+04  0.17196366007E+03 0.  0.
        -24    2    5    5    0    0 -0.53402875368E+02  0.13507677130E+03  0.63212689733E+03  0.65341598403E+03  0.79186063257E+02 0.  0.
          5    1    3    3  501    0  0.27923738314E+02 -0.15105018980E+03  0.22031163169E+03  0.26861719986E+03  0.47000000000E+01 0. -1.
        -11    1    4    4    0    0 -0.82754817462E+01 -0.94280800320E+01  0.12271783845E+01  0.12604691905E+02  0.00000000000E+00 0.  1.
         12    1    4    4    0    0  0.68184811620E+02 -0.16548357844E+02  0.23095201254E+03  0.24137491332E+03  0.00000000000E+00 0. -1.
         -5    1    5    5    0  502 -0.34430192820E+02  0.41949856373E+02  0.84546389410E+03  0.84721692314E+03  0.47000000000E+01 0.  1.
         11    1    6    6    0    0 -0.72529570846E+02  0.10212692443E+03  0.52431987515E+03  0.53907492876E+03  0.00000000000E+00 0. -1.
        -12    1    6    6    0    0  0.19126695477E+02  0.32949846871E+02  0.10780702218E+03  0.11434105527E+03  0.00000000000E+00 0.  1.
</event>
<event>
12    1  0.8798177E-003  0.1774812E+03  0.7818608E-02  0.1170469E+00
         21   -1    0    0  501  502  0.00000000000E+00  0.00000000000E+00  0.54679492868E+03  0.54679492868E+03  0.00000000000E+00 0. -1.
         21   -1    0    0  502  503 -0.00000000000E+00 -0.00000000000E+00 -0.66651539369E+02  0.66651539369E+02  0.00000000000E+00 0. -1.
          6    2    1    2  501    0 -0.13948762767E+02  0.36178554856E+02  0.12492683375E+03  0.21635909732E+03  0.17234004001E+03 0.  0.
         24    2    3    3    0    0  0.24034110065E+02  0.62566582075E+02  0.13305639834E+03  0.16916580935E+03  0.80130208263E+02 0.  0.
         -6    2    1    2    0  503  0.13948762767E+02 -0.36178554856E+02  0.35521655556E+03  0.39708737072E+03  0.17319388796E+03 0.  0.
        -24    2    5    5    0    0  0.62217570799E+02  0.19339206863E+02  0.22568663906E+03  0.24804982859E+03  0.79682039234E+02 0.  0.
          5    1    3    3  501    0 -0.37982872832E+02 -0.26388027218E+02 -0.81295645914E+01  0.47193287970E+02  0.47000000000E+01 0. -1.
        -13    1    4    4    0    0 -0.24811335658E+02  0.46999432757E+02  0.70419327829E+02  0.88223754106E+02  0.00000000000E+00 0.  1.
         14    1    4    4    0    0  0.48845445722E+02  0.15567149318E+02  0.62637070510E+02  0.80942055248E+02  0.00000000000E+00 0. -1.
         -5    1    5    5    0  503 -0.48268808031E+02 -0.55517761720E+02  0.12952991650E+03  0.14903754213E+03  0.47000000000E+01 0.  1.
         13    1    6    6    0    0  0.49073244674E+01 -0.23462666475E+02  0.23438271228E+02  0.33525081800E+02  0.00000000000E+00 0. -1.
        -14    1    6    6    0    0  0.57310246331E+02  0.42801873338E+02  0.20224836783E+03  0.21452474680E+03  0.00000000000E+00 0.  1.
</event>
<event>
12    1  0.8798177E-003  0.2799988E+03  0.7818608E-02  0.1095773E+00
         21   -1    0    0  503  502  0.00000000000E+00  0.00000000000E+00  0.14191533627E+03  0.14191533627E+03  0.00000000000E+00 0.  1.
         21   -1    0    0  501  503 -0.00000000000E+00 -0.00000000000E+00 -0.55476384583E+03  0.55476384583E+03  0.00000000000E+00 0. -1.
          6    2    1    2  501    0  0.13651150152E+03 -0.17379340166E+03 -0.23440401751E+03  0.36516372820E+03  0.17192954504E+03 0.  0.
         24    2    3    3    0    0  0.19076036308E+02 -0.76635509782E+02 -0.15833782179E+03  0.19475568679E+03  0.81375765485E+02 0.  0.
         -6    2    1    2    0  502 -0.13651150152E+03  0.17379340166E+03 -0.17844449205E+03  0.33151545390E+03  0.17094011501E+03 0.  0.
        -24    2    5    5    0    0 -0.56472380095E+02  0.14110330396E+03 -0.52419712378E+02  0.17861274451E+03  0.77816541642E+02 0.  0.
          5    1    3    3  501    0  0.11743546522E+03 -0.97157891880E+02 -0.76066195721E+02  0.17040804141E+03  0.47000000000E+01 0. -1.
        -13    1    4    4    0    0 -0.42020307032E+01  0.65980651223E+01  0.54703608868E+01  0.95454897004E+01  0.00000000000E+00 0.  1.
         14    1    4    4    0    0  0.23278067011E+02 -0.83233574904E+02 -0.16380818268E+03  0.18521019709E+03  0.00000000000E+00 0. -1.
         -5    1    5    5    0  502 -0.80039121429E+02  0.32690097705E+02 -0.12602477967E+03  0.15290270939E+03  0.47000000000E+01 0.  1.
         13    1    6    6    0    0  0.17744960007E+02  0.18894694161E+02  0.11013151633E+01  0.25944285848E+02  0.00000000000E+00 0. -1.
        -14    1    6    6    0    0 -0.74217340101E+02  0.12220860979E+03 -0.53521027541E+02  0.15266845866E+03  0.00000000000E+00 0.  1.
</event>
<event>
12    1  0.8798177E-003  0.1791560E+03  0.7818608E-02  0.1168918E+00
         21   -1    0    0  503  502  0.00000000000E+00  0.00000000000E+00  0.19760469919E+03  0.19760469919E+03  0.00000000000E+00 0.  1.
         21   -1    0    0  501  503 -0.00000000000E+00 -0.00000000000E+00 -0.16402476999E+03  0.16402476999E+03  0.00000000000E+00 0.  1.
          6    2    1    2  501    0  0.14340646727E+02 -0.40551171908E+02 -0.64150502518E+01  0.17806351103E+03  0.17267139137E+03 0.  0.
         24    2    3    3    0    0  0.51553531710E+02  0.26442455696E+02 -0.18565626868E+02  0.10032888901E+03  0.79776145393E+02 0.  0.
         -6    2    1    2    0  502 -0.14340646727E+02  0.40551171908E+02  0.39994979451E+02  0.18356595815E+03  0.17391610311E+03 0.  0.
        -24    2    5    5    0    0  0.40762677601E+02 -0.26843645157E+02  0.38844380442E+02  0.96377360291E+02  0.73467901251E+02 0.  0.
          5    1    3    3  501    0 -0.37212884983E+02 -0.66993627604E+02  0.12150576616E+02  0.77734622019E+02  0.47000000000E+01 0. -1.
        -13    1    4    4    0    0 -0.42241777365E+01 -0.19616762882E+02  0.10166470778E+02  0.22494848113E+02  0.00000000000E+00 0.  1.
         14    1    4    4    0    0  0.55777709446E+02  0.46059218578E+02 -0.28732097647E+02  0.77834040897E+02  0.00000000000E+00 0. -1.
         -5    1    5    5    0  502 -0.55103324329E+02  0.67394817065E+02  0.11505990090E+01  0.87188597863E+02  0.47000000000E+01 0.  1.
         11    1    6    6    0    0 -0.15358589953E+02 -0.22434858103E+02  0.28037574606E+02  0.39055277918E+02  0.00000000000E+00 0. -1.
        -12    1    6    6    0    0  0.56121267555E+02 -0.44087870540E+01  0.10806805835E+02  0.57322082373E+02  0.00000000000E+00 0.  1.
</event>
<event>
12    1  0.8798177E-003  0.2270347E+03  0.7818608E-02  0.1128772E+00
         21   -1    0    0  501  502  0.00000000000E+00  0.00000000000E+00  0.99356806699E+02  0.99356806699E+02  0.00000000000E+00 0. -1.
         21   -1    0    0  502  503 -0.00000000000E+00 -0.00000000000E+00 -0.54594616155E+03  0.54594616155E+03  0.00000000000E+00 0. -1.
          6    2    1    2  501    0  0.17601818857E+02  0.14706166439E+03 -0.29579922881E+03  0.37288325212E+03  0.17206911049E+03 0.  0.
         24    2    3    3    0    0  0.75525455646E+02  0.10863771857E+03 -0.22976476764E+03  0.27689269335E+03  0.79821468499E+02 0.  0.
         -6    2    1    2    0  503 -0.17601818857E+02 -0.14706166439E+03 -0.15079012604E+03  0.27241971613E+03  0.17186588511E+03 0.  0.
        -24    2    5    5    0    0 -0.35095848865E+02 -0.17190962691E+03 -0.11059310363E+03  0.22180990544E+03  0.78639437629E+02 0.  0.
          5    1    3    3  501    0 -0.57923636788E+02  0.38423945815E+02 -0.66034461166E+02  0.95990558766E+02  0.47000000000E+01 0. -1.
        -11    1    4    4    0    0  0.39802248944E+01  0.52322548959E+02 -0.13792142326E+03  0.14756629126E+03  0.00000000000E+00 0.  1.
         12    1    4    4    0    0  0.71545230751E+02  0.56315169613E+02 -0.91843344379E+02  0.12932640209E+03  0.00000000000E+00 0. -1.
         -5    1    5    5    0  503  0.17494030008E+02  0.24847962519E+02 -0.40197022413E+02  0.50609810691E+02  0.47000000000E+01 0.  1.
         13    1    6    6    0    0 -0.58364244432E+01 -0.12993043872E+03 -0.11046242241E+03  0.17063976536E+03  0.00000000000E+00 0. -1.
        -14    1    6    6    0    0 -0.29259424422E+02 -0.41979188182E+02 -0.13068121326E+00  0.51170140077E+02  0.00000000000E+00 0.  1.
</event>
<event>
12    1  0.8798177E-003  0.2243376E+03  0.7818608E-02  0.1130726E+00
         21   -1    0    0  501  502  0.00000000000E+00  0.00000000000E+00  0.34018893598E+03  0.34018893598E+03  0.00000000000E+00 0. -1.
         21   -1    0    0  502  503 -0.00000000000E+00 -0.00000000000E+00 -0.15298081245E+03  0.15298081245E+03  0.00000000000E+00 0.  1.
          6    2    1    2  501    0  0.14218925901E+03  0.24088870933E+02  0.48222546302E+02  0.22926761812E+03  0.17158137331E+03 0.  0.
         24    2    3    3    0    0  0.14860536400E+03  0.54251303907E+02  0.71067033051E+02  0.19060368996E+03  0.79072658071E+02 0.  0.
         -6    2    1    2    0  503 -0.14218925901E+03 -0.24088870933E+02  0.13898557722E+03  0.26390213031E+03  0.17184087006E+03 0.  0.
        -24    2    5    5    0    0 -0.15184579569E+03  0.37805052893E+01  0.65993534366E+02  0.18503591985E+03  0.82533067113E+02 0.  0.
          5    1    3    3  501    0 -0.64161049865E+01 -0.30162432974E+02 -0.22844486748E+02  0.38663928162E+02  0.47000000000E+01 0. -1.
        -13    1    4    4    0    0  0.92730960962E+02  0.12000341331E+02  0.39473836954E+01  0.93587505314E+02  0.00000000000E+00 0.  1.
         14    1    4    4    0    0  0.55874403036E+02  0.42250962575E+02  0.67119649355E+02  0.97016184643E+02  0.00000000000E+00 0. -1.
         -5    1    5    5    0  503  0.96565366766E+01 -0.27869376222E+02  0.72992042858E+02  0.78866210459E+02  0.47000000000E+01 0.  1.
         11    1    6    6    0    0 -0.31456863684E+02 -0.57521932921E+01  0.55193407333E+02  0.63788198074E+02  0.00000000000E+00 0. -1.
        -12    1    6    6    0    0 -0.12038893200E+03  0.95326985814E+01  0.10800127033E+02  0.12124772177E+03  0.00000000000E+00 0.  1.
</event>
<event>
12    1  0.8798177E-003  0.1899439E+03  0.7818608E-02  0.1160018E+00
         21   -1    0    0  501  502  0.00000000000E+00  0.00000000000E+00  0.32095803560E+03  0.32095803560E+03  0.00000000000E+00 0. -1.
         21   -1    0    0  502  503 -0.00000000000E+00 -0.00000000000E+00 -0.12588734793E+03  0.12588734793E+03  0.00000000000E+00 0. -1.
          6    2    1    2  501    0 -0.63960428108E+02 -0.37291418433E+02  0.17892392988E+03  0.25621638393E+03  0.16778401729E+03 0.  0.
         24    2    3    3    0    0 -0.73061091352E+02 -0.26891122695E+02  0.48154821775E+02  0.12463508641E+03  0.84581099274E+02 0.  0.
         -6    2    1    2    0  503  0.63960428108E+02  0.37291418433E+02  0.16146757790E+02  0.19062899960E+03  0.17492030028E+03 0.  0.
        -24    2    5    5    0    0 -0.15154306571E+02 -0.23815948563E+02  0.28450171065E+02  0.89798867582E+02  0.80359019231E+02 0.  0.
          5    1    3    3  501    0  0.91006632440E+01 -0.10400295738E+02  0.13076910810E+03  0.13158129752E+03  0.47000000000E+01 0. -1.
        -13    1    4    4    0    0  0.43047723544E+01  0.11869726258E+02 -0.13423702565E+02  0.18428707416E+02  0.00000000000E+00 0.  1.
         14    1    4    4    0    0 -0.77365863707E+02 -0.38760848953E+02  0.61578524341E+02  0.10620637899E+03  0.00000000000E+00 0. -1.
         -5    1    5    5    0  503  0.79114734680E+02  0.61107366996E+02 -0.12303413275E+02  0.10083013202E+03  0.47000000000E+01 0.  1.
         11    1    6    6    0    0  0.27666120598E+02 -0.25636229778E+02 -0.11105384720E+01  0.37734119863E+02  0.00000000000E+00 0. -1.
        -12    1    6    6    0    0 -0.42820427169E+02  0.18202812142E+01  0.29560709537E+02  0.52064747718E+02  0.00000000000E+00 0.  1.
</event>
<event>
12    1  0.8798177E-003  0.1791975E+03  0.7818608E-02  0.1168850E+00
         21   -1    0    0  503  502  0.00000000000E+00  0.00000000000E+00  0.20206699908E+03  0.20206699908E+03  0.00000000000E+00 0. -1.
         21   -1    0    0  501  503 -0.00000000000E+00 -0.00000000000E+00 -0.21441556901E+03  0.21441556901E+03  0.00000000000E+00 0. -1.
          6    2    1    2  501    0  0.47363561199E+02  0.23655927729E+01 -0.11305735018E+03  0.21188136995E+03  0.17280870216E+03 0.  0.
         24    2    3    3    0    0  0.52267412607E+02 -0.37003892506E+02 -0.12843074400E+02  0.10399719502E+03  0.80927755007E+02 0.  0.
         -6    2    1    2    0  502 -0.47363561199E+02 -0.23655927729E+01  0.10070878026E+03  0.20460119814E+03  0.17166970874E+03 0.  0.
        -24    2    5    5    0    0 -0.26993291044E+02 -0.18996762666E+02  0.13557487470E+03  0.16067764796E+03  0.79669599920E+02 0.  0.
          5    1    3    3  501    0 -0.49038514087E+01  0.39369485279E+02 -0.10021427578E+03  0.10788417493E+03  0.47000000000E+01 0. -1.
        -13    1    4    4    0    0 -0.10239396025E+02 -0.33039116580E+02 -0.21563755316E+02  0.40760569166E+02  0.00000000000E+00 0.  1.
         14    1    4    4    0    0  0.62506808633E+02 -0.39647759258E+01  0.87206809166E+01  0.63236625853E+02  0.00000000000E+00 0. -1.
         -5    1    5    5    0  502 -0.20370270154E+02  0.16631169893E+02 -0.34866094442E+02  0.43923550173E+02  0.47000000000E+01 0.  1.
         11    1    6    6    0    0 -0.32561235912E+02  0.25460378254E+02  0.68900038023E+02  0.80347247523E+02  0.00000000000E+00 0. -1.
        -12    1    6    6    0    0  0.55679448677E+01 -0.44457140920E+02  0.66674836679E+02  0.80330400441E+02  0.00000000000E+00 0.  1.
</event>
<event>
12    1  0.8798177E-003  0.1829617E+03  0.7818608E-02  0.1165320E+00
         21   -1    0    0  501  502  0.00000000000E+00  0.00000000000E+00  0.25758387459E+03  0.25758387459E+03  0.00000000000E+00 0. -1.
         21   -1    0    0  502  503 -0.00000000000E+00 -0.00000000000E+00 -0.12903813221E+03  0.12903813221E+03  0.00000000000E+00 0. -1.
          6    2    1    2  501    0 -0.12068298742E+02  0.61196803793E+02  0.70686620015E+02  0.19614174245E+03  0.17200084957E+03 0.  0.
         24    2    3    3    0    0  0.36064142191E+02  0.89575684070E+02  0.60193300366E+02  0.13909533614E+03  0.79999084980E+02 0.  0.
         -6    2    1    2    0  503  0.12068298742E+02 -0.61196803793E+02  0.57859122366E+02  0.19048026436E+03  0.17042406062E+03 0.  0.
        -24    2    5    5    0    0  0.47509385375E+00 -0.10687484499E+03  0.35644922058E+02  0.13816920871E+03  0.79985695986E+02 0.  0.
          5    1    3    3  501    0 -0.48132440934E+02 -0.28378880277E+02  0.10493319649E+02  0.57046406313E+02  0.47000000000E+01 0. -1.
        -11    1    4    4    0    0 -0.19924847927E+02  0.45626752843E+02  0.43200532605E+02  0.65917267520E+02  0.00000000000E+00 0.  1.
         12    1    4    4    0    0  0.55988990118E+02  0.43948931227E+02  0.16992767760E+02  0.73178068618E+02  0.00000000000E+00 0. -1.
         -5    1    5    5    0  503  0.11593204888E+02  0.45678041197E+02  0.22214200308E+02  0.52311055643E+02  0.47000000000E+01 0.  1.
         11    1    6    6    0    0  0.20888394813E+02 -0.70461973396E+02  0.55353006976E+02  0.92006359096E+02  0.00000000000E+00 0. -1.
        -12    1    6    6    0    0 -0.20413300960E+02 -0.36412871594E+02 -0.19708084918E+02  0.46162849618E+02  0.00000000000E+00 0.  1.
</event>
<event>
12    1  0.8798177E-003  0.2279960E+03  0.7818608E-02  0.1128361E+00
         21   -1    0    0  503  502  0.00000000000E+00  0.00000000000E+00  0.96111905521E+03  0.96111905521E+03  0.00000000000E+00 0. -1.
         21   -1    0    0  501  503 -0.00000000000E+00 -0.00000000000E+00 -0.67942510894E+02  0.67942510894E+02  0.00000000000E+00 0. -1.
          6    2    1    2  501    0 -0.10209616680E+03 -0.10622686619E+03  0.21219631635E+03  0.31146343969E+03  0.17399546896E+03 0.  0.
         24    2    3    3    0    0 -0.55127467099E+01 -0.23104698024E+02  0.14747239819E+03  0.16846369334E+03  0.77895380459E+02 0.  0.
         -6    2    1    2    0  502  0.10209616680E+03  0.10622686619E+03  0.68098022796E+03  0.71759812641E+03  0.17177085251E+03 0.  0.
        -24    2    5    5    0    0  0.21530378053E+02  0.13409547258E+02  0.43030373631E+03  0.43837295835E+03  0.79788294839E+02 0.  0.
          5    1    3    3  501    0 -0.96583420090E+02 -0.83122168165E+02  0.64723918160E+02  0.14299974636E+03  0.47000000000E+01 0. -1.
        -11    1    4    4    0    0 -0.45389525734E+01 -0.47950120726E+02  0.56939019286E+02  0.74577932965E+02  0.00000000000E+00 0.  1.
         12    1    4    4    0    0 -0.97379413654E+00  0.24845422702E+02  0.90533378906E+02  0.93885760371E+02  0.00000000000E+00 0. -1.
         -5    1    5    5    0  502  0.80565788747E+02  0.92817318932E+02  0.25067649165E+03  0.27922516806E+03  0.47000000000E+01 0.  1.
         13    1    6    6    0    0  0.94013823669E+01  0.40742228532E+02  0.35332009989E+03  0.35578562107E+03  0.00000000000E+00 0. -1.
        -14    1    6    6    0    0  0.12128995686E+02 -0.27332681275E+02  0.76983636422E+02  0.82587337278E+02  0.00000000000E+00 0.  1.
</event>
<event>
12    1  0.8798177E-003  0.1858518E+03  0.7818608E-02  0.1162702E+00
         21   -1    0    0  501  502  0.00000000000E+00  0.00000000000E+00  0.35714042388E+03  0.35714042388E+03  0.00000000000E+00 0.  1.
         21   -1    0    0  502  503 -0.00000000000E+00 -0.00000000000E+00 -0.97711521987E+02  0.97711521987E+02  0.00000000000E+00 0.  1.
          6    2    1    2  501    0 -0.45042500425E+02  0.44942199399E+02  0.16147973118E+03  0.24476880883E+03  0.17259037650E+03 0.  0.
         24    2    3    3    0    0  0.40672925859E+02  0.18802397622E+02  0.66939584603E+02  0.11442176109E+03  0.81262625905E+02 0.  0.
         -6    2    1    2    0  503  0.45042500425E+02 -0.44942199399E+02  0.97949170715E+02  0.21008313704E+03  0.17462032039E+03 0.  0.
        -24    2    5    5    0    0  0.84321119399E+02 -0.49559720169E+02  0.11181047465E+03  0.16791256492E+03  0.78274070901E+02 0.  0.
          5    1    3    3  501    0 -0.85715426284E+02  0.26139801776E+02  0.94540146574E+02  0.13034704774E+03  0.47000000000E+01 0. -1.
        -13    1    4    4    0    0  0.59401191959E+02  0.19023248143E+02  0.71763510346E+02  0.95080949686E+02  0.00000000000E+00 0.  1.
         14    1    4    4    0    0 -0.18728266100E+02 -0.22085052074E+00 -0.48239257426E+01  0.19340811400E+02  0.00000000000E+00 0. -1.
         -5    1    5    5    0  503 -0.39278618974E+02  0.46175207704E+01 -0.13861303936E+02  0.42170572125E+02  0.47000000000E+01 0.  1.
         11    1    6    6    0    0  0.12836680432E+02  0.21109503313E+02  0.23901775886E+02  0.34375665595E+02  0.00000000000E+00 0. -1.
        -12    1    6    6    0    0  0.71484438967E+02 -0.70669223482E+02  0.87908698765E+02  0.13353689932E+03  0.00000000000E+00 0.  1.
</event>
<event>
12    1  0.8798177E-003  0.3753398E+03  0.7818608E-02  0.1053781E+00
         21   -1    0    0  501  502  0.00000000000E+00  0.00000000000E+00  0.36356593868E+03  0.36356593868E+03  0.00000000000E+00 0. -1.
         21   -1    0    0  502  503 -0.00000000000E+00 -0.00000000000E+00 -0.38764771509E+03  0.38764771509E+03  0.00000000000E+00 0.  1.
          6    2    1    2  501    0 -0.10637941176E+03 -0.30314850370E+03  0.54064374481E+02  0.37921355776E+03  0.19407310802E+03 0.  0.
         24    2    3    3    0    0 -0.55516654344E+02 -0.22109907985E+03  0.11142653292E+03  0.26682300982E+03  0.82533292119E+02 0.  0.
         -6    2    1    2    0  503  0.10637941176E+03  0.30314850370E+03 -0.78146150892E+02  0.37200009601E+03  0.17047479575E+03 0.  0.
        -24    2    5    5    0    0  0.53302805849E+02  0.19772234053E+03 -0.11587190257E+03  0.24799556256E+03  0.78359352895E+02 0.  0.
          5    1    3    3  501    0 -0.50862757421E+02 -0.82049423848E+02 -0.57362158440E+02  0.11239054794E+03  0.47000000000E+01 0. -1.
        -11    1    4    4    0    0 -0.65592779282E+02 -0.17418412587E+03  0.57868986868E+02  0.19491367843E+03  0.00000000000E+00 0.  1.
         12    1    4    4    0    0  0.10076124938E+02 -0.46914953984E+02  0.53557546053E+02  0.71909331386E+02  0.00000000000E+00 0. -1.
         -5    1    5    5    0  503  0.53076605916E+02  0.10542616317E+03  0.37725751681E+02  0.12400453345E+03  0.47000000000E+01 0.  1.
         13    1    6    6    0    0  0.25673702940E+02  0.20154709091E+02  0.26162031769E+01  0.32744401663E+02  0.00000000000E+00 0. -1.
        -14    1    6    6    0    0  0.27629102910E+02  0.17756763144E+03 -0.11848810575E+03  0.21525116089E+03  0.00000000000E+00 0.  1.
</event>
<event>
12    1  0.8798177E-003  0.2974012E+03  0.7818608E-02  0.1086644E+00
         21   -1    0    0  503  502  0.00000000000E+00  0.00000000000E+00  0.34229079212E+03  0.34229079212E+03  0.00000000000E+00 0. -1.
         21   -1    0    0  501  503 -0.00000000000E+00 -0.00000000000E+00 -0.29336246025E+03  0.29336246025E+03  0.00000000000E+00 0. -1.
          6    2    1    2  501    0  0.23902474120E+03 -0.37778798799E+02 -0.86275106044E+02  0.30966248578E+03  0.17287971723E+03 0.  0.
         24    2    3    3    0    0  0.51990102703E+02 -0.53493834008E+01  0.11983299072E+02  0.95862515812E+02  0.79463424287E+02 0.  0.
         -6    2    1    2    0  502 -0.23902474120E+03  0.37778798799E+02  0.13520343791E+03  0.32599076659E+03  0.17155158330E+03 0.  0.
        -24    2    5    5    0    0 -0.56365612121E+02  0.65371748514E+01  0.18954369487E+01  0.97663130013E+02  0.79464944460E+02 0.  0.
          5    1    3    3  501    0  0.18703463850E+03 -0.32429415398E+02 -0.98258405116E+02  0.21379996997E+03  0.47000000000E+01 0. -1.
        -13    1    4    4    0    0  0.67071449234E+02 -0.22590476400E+02  0.16118391758E+02  0.72585890359E+02  0.00000000000E+00 0.  1.
         14    1    4    4    0    0 -0.15081346531E+02  0.17241093000E+02 -0.41350926854E+01  0.23276625454E+02  0.00000000000E+00 0. -1.
         -5    1    5    5    0  502 -0.18265912908E+03  0.31241623947E+02  0.13330800096E+03  0.22832763658E+03  0.47000000000E+01 0.  1.
         13    1    6    6    0    0 -0.46403627853E+01 -0.21888812553E+02  0.25652497543E+02  0.34039737249E+02  0.00000000000E+00 0. -1.
        -14    1    6    6    0    0 -0.51725249335E+02  0.28425987405E+02 -0.23757060595E+02  0.63623392764E+02  0.00000000000E+00 0.  1.
</event>
<event>
12    1  0.8798177E-003  0.2597935E+03  0.7818608E-02  0.1108270E+00
         21   -1    0    0  503  502  0.00000000000E+00  0.00000000000E+00  0.16641485601E+03  0.16641485601E+03  0.00000000000E+00 0.  1.
         21   -1    0    0  501  503 -0.00000000000E+00 -0.00000000000E+00 -0.51607972980E+03  0.51607972980E+03  0.00000000000E+00 0. -1.
          6    2    1    2  501    0 -0.41129552084E+02 -0.18123746219E+03 -0.33814626205E+03  0.42244583796E+03  0.17198527180E+03 0.  0.
         24    2    3    3    0    0 -0.50475888004E+02 -0.35642353132E+02 -0.81917025859E+02  0.12755466947E+03  0.75773359241E+02 0.  0.
         -6    2    1    2    0  502  0.41129552084E+02  0.18123746219E+03 -0.11518611740E+02  0.26004874785E+03  0.18153240781E+03 0.  0.
        -24    2    5    5    0    0  0.58634592897E+02  0.39874299144E+02 -0.42263124130E+02  0.11424996403E+03  0.78986754612E+02 0.  0.
          5    1    3    3  501    0  0.93463359203E+01 -0.14559510906E+03 -0.25622923619E+03  0.29489116849E+03  0.47000000000E+01 0. -1.
        -13    1    4    4    0    0 -0.69382622281E+02 -0.28456268006E+02 -0.75302992579E+02  0.10627440028E+03  0.00000000000E+00 0.  1.
         14    1    4    4    0    0  0.18906734277E+02 -0.71860851259E+01 -0.66140332799E+01  0.21280269187E+02  0.00000000000E+00 0. -1.
         -5    1    5    5    0  502 -0.17505040814E+02  0.14136316305E+03  0.30744512390E+02  0.14579878382E+03  0.47000000000E+01 0.  1.
         11    1    6    6    0    0 -0.74081419869E+01  0.22397400660E+01 -0.37278643723E+02  0.38073537806E+02  0.00000000000E+00 0. -1.
        -12    1    6    6    0    0  0.66042734884E+02  0.37634559078E+02 -0.49844804073E+01  0.76176426228E+02  0.00000000000E+00 0.  1.
</event>
<event>
12    1  0.8798177E-003  0.2394370E+03  0.7818608E-02  0.1120602E+00
         21   -1    0    0  501  502  0.00000000000E+00  0.00000000000E+00  0.11599768165E+04  0.11599768165E+04  0.00000000000E+00 0. -1.
         21   -1    0    0  502  503 -0.00000000000E+00 -0.00000000000E+00 -0.49820135884E+02  0.49820135884E+02  0.00000000000E+00 0.  1.
          6    2    1    2  501    0 -0.13630978952E+03 -0.91212547086E+02  0.47548307830E+03  0.53236664809E+03  0.17444197541E+03 0.  0.
         24    2    3    3    0    0 -0.36876636409E+02 -0.10226160049E+03  0.20375753411E+03  0.24277055888E+03  0.74853792861E+02 0.  0.
         -6    2    1    2    0  503  0.13630978952E+03  0.91212547086E+02  0.63467360233E+03  0.67743030430E+03  0.17088343464E+03 0.  0.
        -24    2    5    5    0    0  0.72369481588E+02  0.11577495119E+03  0.34211134978E+03  0.37692001115E+03  0.79920823147E+02 0.  0.
          5    1    3    3  501    0 -0.99433153111E+02  0.11049053407E+02  0.27172554419E+03  0.28959608921E+03  0.47000000000E+01 0. -1.
        -11    1    4    4    0    0  0.80099379610E+01  0.82237252068E+01  0.29102408214E+02  0.31284803440E+02  0.00000000000E+00 0.  1.
         12    1    4    4    0    0 -0.44886574370E+02 -0.11048532570E+03  0.17465512589E+03  0.21148575544E+03  0.00000000000E+00 0. -1.
         -5    1    5    5    0  503  0.63940307932E+02 -0.24562404101E+02  0.29256225255E+03  0.30051029315E+03  0.47000000000E+01 0.  1.
         13    1    6    6    0    0 -0.23613893061E+01  0.71068971470E+02  0.15133170247E+03  0.16720543962E+03  0.00000000000E+00 0. -1.
        -14    1    6    6    0    0  0.74730870894E+02  0.44705979717E+02  0.19077964731E+03  0.20971457153E+03  0.00000000000E+00 0.  1.
</event>
<event>
12    1  0.8798177E-003  0.2054280E+03  0.7818608E-02  0.1145410E+00
         21   -1    0    0  501  502  0.00000000000E+00  0.00000000000E+00  0.73415715352E+03  0.73415715352E+03  0.00000000000E+00 0. -1.
         21   -1    0    0  502  503 -0.00000000000E+00 -0.00000000000E+00 -0.88797002664E+02  0.88797002664E+02  0.00000000000E+00 0. -1.
          6    2    1    2  501    0 -0.93232604763E+02  0.59959904143E+02  0.56837574662E+03  0.60436054595E+03  0.17295424670E+03 0.  0.
         24    2    3    3    0    0  0.43596540515E+01  0.67558426501E+02  0.29084164459E+03  0.31003206565E+03  0.83353895700E+02 0.  0.
         -6    2    1    2    0  503  0.93232604763E+02 -0.59959904143E+02  0.76984404227E+02  0.21859361023E+03  0.17195656209E+03 0.  0.
        -24    2    5    5    0    0 -0.35330420820E+01  0.49853892656E+01  0.62794725194E+02  0.10109927617E+03  0.78997149555E+02 0.  0.
          5    1    3    3  501    0 -0.97592258815E+02 -0.75985223582E+01  0.27753410204E+03  0.29432848030E+03  0.47000000000E+01 0. -1.
        -13    1    4    4    0    0 -0.70646376877E+01 -0.18831442044E+02  0.60658682946E+02  0.63906244858E+02  0.00000000000E+00 0.  1.
         14    1    4    4    0    0  0.11424291739E+02  0.86389868546E+02  0.23018296164E+03  0.24612582079E+03  0.00000000000E+00 0. -1.
         -5    1    5    5    0  503  0.96765646845E+02 -0.64945293409E+02  0.14189679033E+02  0.11749433406E+03  0.47000000000E+01 0.  1.
         13    1    6    6    0    0  0.17018855851E+02  0.60899167149E+01 -0.13190030578E+02  0.22376448483E+02  0.00000000000E+00 0. -1.
        -14    1    6    6    0    0 -0.20551897933E+02 -0.11045274493E+01  0.75984755772E+02  0.78722827689E+02  0.00000000000E+00 0.  1.
</event>
<event>
12    1  0.8798177E-003  0.2007893E+03  0.7818608E-02  0.1149177E+00
         21   -1    0    0  503  502  0.00000000000E+00  0.00000000000E+00  0.41607679665E+02  0.41607679665E+02  0.00000000000E+00 0.  1.
         21   -1    0    0  501  503 -0.00000000000E+00 -0.00000000000E+00 -0.99320141472E+03  0.99320141472E+03  0.00000000000E+00 0.  1.
          6    2    1    2  501    0 -0.10218828229E+03 -0.39135252717E+01 -0.55988207416E+03  0.59463372414E+03  0.17223114758E+03 0.  0.
         24    2    3    3    0    0 -0.26159299256E+02 -0.62081869597E+02 -0.31726523352E+03  0.33377172248E+03  0.78790017522E+02 0.  0.
         -6    2    1    2    0  502  0.10218828229E+03  0.39135252717E+01 -0.39171166089E+03  0.44017537024E+03  0.17279632685E+03 0.  0.
        -24    2    5    5    0    0  0.11519941688E+03 -0.45054461724E+02 -0.32171884701E+03  0.35364076810E+03  0.79107307929E+02 0.  0.
          5    1    3    3  501    0 -0.76028983037E+02  0.58168344326E+02 -0.24261684065E+03  0.26086200166E+03  0.47000000000E+01 0. -1.
        -11    1    4    4    0    0 -0.35472992036E+02 -0.11442065566E+01 -0.64731516648E+02  0.73822839421E+02  0.00000000000E+00 0.  1.
         12    1    4    4    0    0  0.93136927801E+01 -0.60937663041E+02 -0.25253371687E+03  0.25994888306E+03  0.00000000000E+00 0. -1.
         -5    1    5    5    0  502 -0.13011134587E+02  0.48967986996E+02 -0.69992813877E+02  0.86534602143E+02  0.47000000000E+01 0.  1.
         13    1    6    6    0    0  0.26510918746E+02 -0.35929138631E+02 -0.47052312383E+02  0.64866415934E+02  0.00000000000E+00 0. -1.
        -14    1    6    6    0    0  0.88688498135E+02 -0.91253230926E+01 -0.27466653463E+03  0.28877435216E+03  0.00000000000E+00 0.  1.
</event>
<event>
12    1  0.8798177E-003  0.2104544E+03  0.7818608E-02  0.1141666E+00
         21   -1    0    0  501  502  0.00000000000E+00  0.00000000000E+00  0.64003740863E+03  0.64003740863E+03  0.00000000000E+00 0.  1.
         21   -1    0    0  502  503 -0.00000000000E+00 -0.00000000000E+00 -0.75851873396E+02  0.75851873396E+02  0.00000000000E+00 0. -1.
          6    2    1    2  501    0  0.11462272263E+03  0.35659301918E+02  0.17162301727E+03  0.27156123064E+03  0.17286146931E+03 0.  0.
         24    2    3    3    0    0  0.11220541470E+02  0.51641819696E+02  0.12402664203E+03  0.15651794800E+03  0.79514036639E+02 0.  0.
         -6    2    1    2    0  503 -0.11462272263E+03 -0.35659301918E+02  0.39256251796E+03  0.44432805139E+03  0.17003567975E+03 0.  0.
        -24    2    5    5    0    0 -0.89337158921E+02 -0.85119362950E+02  0.32600929688E+03  0.35751170152E+03  0.79411089631E+02 0.  0.
          5    1    3    3  501    0  0.10340218116E+03 -0.15982517777E+02  0.47596375248E+02  0.11504328263E+03  0.47000000000E+01 0. -1.
        -11    1    4    4    0    0  0.12711050696E+02  0.60219701916E+02  0.13140583423E+03  0.14510505360E+03  0.00000000000E+00 0.  1.
         12    1    4    4    0    0 -0.14905092258E+01 -0.85778822208E+01 -0.73791922063E+01  0.11412894408E+02  0.00000000000E+00 0. -1.
         -5    1    5    5    0  503 -0.25285563705E+02  0.49460061031E+02  0.66553221081E+02  0.86816349874E+02  0.47000000000E+01 0.  1.
         13    1    6    6    0    0 -0.84509332284E+02 -0.77093311080E+02  0.19431741860E+03  0.22548717264E+03  0.00000000000E+00 0. -1.
        -14    1    6    6    0    0 -0.48278266367E+01 -0.80260518696E+01  0.13169187828E+03  0.13202452887E+03  0.00000000000E+00 0.  1.
</event>
<event>
12    1  0.8798177E-003  0.2516405E+03  0.7818608E-02  0.1112519E+00
         21   -1    0    0  501  502  0.00000000000E+00  0.00000000000E+00  0.17330001997E+03  0.17330001997E+03  0.00000000000E+00 0. -1.
         21   -1    0    0  502  503 -0.00000000000E+00 -0.00000000000E+00 -0.47530659398E+03  0.47530659398E+03  0.00000000000E+00 0. -1.
          6    2    1    2  501    0  0.87222982954E+02  0.16185468994E+03  0.61913378615E+01  0.25171663802E+03  0.17180845085E+03 0.  0.
         24    2    3    3    0    0  0.12143318141E+03  0.10061969764E+03 -0.16485779372E+02  0.17784916476E+03  0.80549384746E+02 0.  0.
         -6    2    1    2    0  503 -0.87222982954E+02 -0.16185468994E+03 -0.30819791187E+03  0.39688997593E+03  0.16950194895E+03 0.  0.
        -24    2    5    5    0    0 -0.84764827051E+02 -0.88366554478E+02 -0.10442492837E+03  0.18020571857E+03  0.81091377364E+02 0.  0.
          5    1    3    3  501    0 -0.34210198458E+02  0.61234992298E+02  0.22677117233E+02  0.73867473263E+02  0.47000000000E+01 0. -1.
        -13    1    4    4    0    0  0.46062513796E+02 -0.94049770045E+00  0.13227713386E+02  0.47933413341E+02  0.00000000000E+00 0.  1.
         14    1    4    4    0    0  0.75370667617E+02  0.10156019534E+03 -0.29713492757E+02  0.12991575142E+03  0.00000000000E+00 0. -1.
         -5    1    5    5    0  503 -0.24581559028E+01 -0.73488135463E+02 -0.20377298350E+03  0.21668425736E+03  0.47000000000E+01 0.  1.
         11    1    6    6    0    0 -0.65416315820E+02 -0.58642817983E+02 -0.11356525958E+03  0.14358043969E+03  0.00000000000E+00 0. -1.
        -12    1    6    6    0    0 -0.19348511231E+02 -0.29723736496E+02  0.91403312137E+01  0.36625278877E+02  0.00000000000E+00 0.  1.
</event>
<event>
12    1  0.8798177E-003  0.2268106E+03  0.7818608E-02  0.1129208E+00
         21   -1    0    0  503  502  0.00000000000E+00  0.00000000000E+00  0.25051503221E+03  0.25051503221E+03  0.00000000000E+00 0.  1.
         21   -1    0    0  501  503 -0.00000000000E+00 -0.00000000000E+00 -0.22259539750E+03  0.22259539750E+03  0.00000000000E+00 0.  1.
          6    2    1    2  501    0  0.11022383315E+03 -0.94389956656E+02 -0.54677984210E+02  0.23330825586E+03  0.17431093765E+03 0.  0.
         24    2    3    3    0    0  0.90860940328E+02 -0.60333213799E+00 -0.64127068890E+02  0.13696393710E+03  0.79942258001E+02 0.  0.
         -6    2    1    2    0  502 -0.11022383315E+03  0.94389956656E+02  0.82597618924E+02  0.23980217385E+03  0.17211611958E+03 0.  0.
        -24    2    5    5    0    0  0.47595849603E+01  0.78379729583E+02  0.39135998450E+02  0.11575171531E+03  0.75503626160E+02 0.  0.
          5    1    3    3  501    0  0.19362892820E+02 -0.93786624518E+02  0.94490846801E+01  0.96344318764E+02  0.47000000000E+01 0. -1.
        -13    1    4    4    0    0  0.32160523467E+01 -0.15688334285E+02  0.11908662692E+02  0.19957030652E+02  0.00000000000E+00 0.  1.
         14    1    4    4    0    0  0.87644887981E+02  0.15085002147E+02 -0.76035731582E+02  0.11700690645E+03  0.00000000000E+00 0. -1.
         -5    1    5    5    0  502 -0.11498341811E+03  0.16010227073E+02  0.43461620474E+02  0.12405045854E+03  0.47000000000E+01 0.  1.
         13    1    6    6    0    0  0.17691673704E+02  0.19029592249E+02 -0.18594716888E+02  0.31951278468E+02  0.00000000000E+00 0. -1.
        -14    1    6    6    0    0 -0.12932088744E+02  0.59350137334E+02  0.57730715338E+02  0.83800436838E+02  0.00000000000E+00 0.  1.
</event>
<event>
12    1  0.8798177E-003  0.1882200E+03  0.7818608E-02  0.1160760E+00
         21   -1    0    0  503  502  0.00000000000E+00  0.00000000000E+00  0.10852969638E+03  0.10852969638E+03  0.00000000000E+00 0. -1.
         21   -1    0    0  501  503 -0.00000000000E+00 -0.00000000000E+00 -0.34257076008E+03  0.34257076008E+03  0.00000000000E+00 0.  1.
          6    2    1    2  501    0 -0.49306953537E+02  0.52950829830E+02 -0.17235057170E+03  0.25302849581E+03  0.17053953817E+03 0.  0.
         24    2    3    3    0    0 -0.92002783735E+02  0.84439818866E+01 -0.12599306106E+03  0.17573100411E+03  0.80444523273E+02 0.  0.
         -6    2    1    2    0  502  0.49306953537E+02 -0.52950829830E+02 -0.61690492001E+02  0.19807196066E+03  0.17375793147E+03 0.  0.
        -24    2    5    5    0    0  0.23730223736E+02 -0.50977925909E+02 -0.10712494813E+03  0.14568454555E+03  0.81156391321E+02 0.  0.
          5    1    3    3  501    0  0.42695830198E+02  0.44506847943E+02 -0.46357510636E+02  0.77297491696E+02  0.47000000000E+01 0. -1.
        -11    1    4    4    0    0 -0.31534849801E+02 -0.35473433876E+02 -0.55061304719E+02  0.72694969154E+02  0.00000000000E+00 0.  1.
         12    1    4    4    0    0 -0.60467933933E+02  0.43917415763E+02 -0.70931756343E+02  0.10303603496E+03  0.00000000000E+00 0. -1.
         -5    1    5    5    0  502  0.25576729801E+02 -0.19729039207E+01  0.45434456133E+02  0.52387415104E+02  0.47000000000E+01 0.  1.
         11    1    6    6    0    0 -0.18571963688E+02 -0.30533553527E+00  0.14369171754E+01  0.18629970370E+02  0.00000000000E+00 0. -1.
        -12    1    6    6    0    0  0.42302187424E+02 -0.50672590374E+02 -0.10856186531E+03  0.12705457519E+03  0.00000000000E+00 0.  1.
</event>
<event>
12    1  0.8798177E-003  0.3319533E+03  0.7818608E-02  0.1070467E+00
         21   -1    0    0  501  502  0.00000000000E+00  0.00000000000E+00  0.21183648565E+03  0.21183648565E+03  0.00000000000E+00 0. -1.
         21   -1    0    0  502  503 -0.00000000000E+00 -0.00000000000E+00 -0.60137099161E+03  0.60137099161E+03  0.00000000000E+00 0.  1.
          6    2    1    2  501    0 -0.24158508500E+03 -0.14592089567E+03 -0.42451354459E+02  0.33293699975E+03  0.17143123174E+03 0.  0.
         24    2    3    3    0    0 -0.16822158063E+03 -0.24019470748E+02 -0.30361388345E+02  0.19007196395E+03  0.79561940740E+02 0.  0.
         -6    2    1    2    0  503  0.24158508500E+03  0.14592089567E+03 -0.34708315150E+03  0.48027047752E+03  0.17474769364E+03 0.  0.
        -24    2    5    5    0    0  0.19993220384E+03  0.41236688929E+02 -0.21179380634E+03  0.30414823996E+03  0.77305787745E+02 0.  0.
          5    1    3    3  501    0 -0.73363504377E+02 -0.12190142492E+03 -0.12089966114E+02  0.14286503580E+03  0.47000000000E+01 0. -1.
        -11    1    4    4    0    0 -0.25786339709E+02  0.17962697686E+02 -0.27172302497E+02  0.41544287775E+02  0.00000000000E+00 0.  1.
         12    1    4    4    0    0 -0.14243524092E+03 -0.41982168434E+02 -0.31890858484E+01  0.14852767617E+03  0.00000000000E+00 0. -1.
         -5    1    5    5    0  503  0.41652881159E+02  0.10468420674E+03 -0.13528934516E+03  0.17612223756E+03  0.47000000000E+01 0.  1.
         11    1    6    6    0    0  0.69063634272E+02 -0.22149049517E+02 -0.78692359583E+02  0.10701800517E+03  0.00000000000E+00 0. -1.
        -12    1    6    6    0    0  0.13086856957E+03  0.63385738447E+02 -0.13310144676E+03  0.19713023479E+03  0.00000000000E+00 0.  1.
</event>
<event>
12    1  0.8798177E-003  0.1928092E+03  0.7818608E-02  0.1156364E+00
         21   -1    0    0  501  502  0.00000000000E+00  0.00000000000E+00  0.18885600100E+04  0.18885600100E+04  0.00000000000E+00 0.  1.
         21   -1    0    0  502  503 -0.00000000000E+00 -0.00000000000E+00 -0.28527317225E+02  0.28527317225E+02  0.00000000000E+00 0.  1.
          6    2    1    2  501    0  0.81594430339E+02 -0.19388135435E+02  0.14724296270E+04  0.14849997947E+04  0.17361403379E+03 0.  0.
         24    2    3    3    0    0  0.61266525613E+00 -0.25354158740E+02  0.39859438860E+03  0.40808854066E+03  0.83758949771E+02 0.  0.
         -6    2    1    2    0  503 -0.81594430339E+02  0.19388135435E+02  0.38760306575E+03  0.43208753257E+03  0.17155159097E+03 0.  0.
        -24    2    5    5    0    0 -0.10898818578E+03  0.52499085935E+02  0.32815293084E+03  0.35858133269E+03  0.79130572282E+02 0.  0.
          5    1    3    3  501    0  0.80981765083E+02  0.59660233042E+01  0.10738352384E+04  0.10769112540E+04  0.47000000000E+01 0. -1.
        -13    1    4    4    0    0  0.34674439713E+02 -0.23694973289E+02  0.31528174690E+03  0.31806657865E+03  0.00000000000E+00 0.  1.
         14    1    4    4    0    0 -0.34061774457E+02 -0.16591854505E+01  0.83312641706E+02  0.90021962007E+02  0.00000000000E+00 0. -1.
         -5    1    5    5    0  503  0.27393755442E+02 -0.33110950500E+02  0.59450134908E+02  0.73506199880E+02  0.47000000000E+01 0.  1.
         13    1    6    6    0    0  0.11004845130E+02  0.11776881078E+02  0.57808323913E+02  0.60013363994E+02  0.00000000000E+00 0. -1.
        -14    1    6    6    0    0 -0.11999303091E+03  0.40722204857E+02  0.27034460693E+03  0.29856796870E+03  0.00000000000E+00 0.  1.
</event>
<event>
12    1  0.8798177E-003  0.2276217E+03  0.7818608E-02  0.1128473E+00
         21   -1    0    0  503  502  0.00000000000E+00  0.00000000000E+00  0.47386701165E+02  0.47386701165E+02  0.00000000000E+00 0. -1.
         21   -1    0    0  501  503 -0.00000000000E+00 -0.00000000000E+00 -0.14282720220E+04  0.14282720220E+04  0.00000000000E+00 0. -1.
          6    2    1    2  501    0 -0.13298897004E+03 -0.64355998067E+02 -0.10507969227E+04  0.10751678040E+04  0.17315852128E+03 0.  0.
         24    2    3    3    0    0 -0.13267125985E+03 -0.94971677191E+02 -0.99527151875E+03  0.10115865078E+04  0.78234161953E+02 0.  0.
         -6    2    1    2    0  502  0.13298897004E+03  0.64355998067E+02 -0.33008839821E+03  0.40049091918E+03  0.17206645540E+03 0.  0.
        -24    2    5    5    0    0  0.24222173660E+02  0.44741666141E+02 -0.66268456700E+02  0.11441752030E+03  0.78174997355E+02 0.  0.
          5    1    3    3  501    0 -0.31771018541E+00  0.30615679124E+02 -0.55525403914E+02  0.63581296210E+02  0.47000000000E+01 0. -1.
        -13    1    4    4    0    0 -0.52825170086E+02 -0.80896658536E+02 -0.44447484429E+03  0.45485454286E+03  0.00000000000E+00 0.  1.
         14    1    4    4    0    0 -0.79846089763E+02 -0.14075018655E+02 -0.55079667446E+03  0.55673196495E+03  0.00000000000E+00 0. -1.
         -5    1    5    5    0  502  0.10876679637E+03  0.19614331926E+02 -0.26381994151E+03  0.28607339888E+03  0.47000000000E+01 0.  1.
         13    1    6    6    0    0  0.38212196540E+02  0.57359867172E+02 -0.33531469529E+02  0.76646498779E+02  0.00000000000E+00 0. -1.
        -14    1    6    6    0    0 -0.13990022880E+02 -0.12618201031E+02 -0.32736987171E+02  0.37771021517E+02  0.00000000000E+00 0.  1.
</event>
<event>
12    1  0.8798177E-003  0.2284873E+03  0.7818608E-02  0.1127751E+00
         21   -1    0    0  501  502  0.00000000000E+00  0.00000000000E+00  0.43628534791E+03  0.43628534791E+03  0.00000000000E+00 0.  1.
         21   -1    0    0  502  503 -0.00000000000E+00 -0.00000000000E+00 -0.12043437950E+03  0.12043437950E+03  0.00000000000E+00 0.  1.
          6    2    1    2  501    0  0.10178718236E+03 -0.11140896390E+03  0.18201823016E+03  0.29212509907E+03  0.17156296124E+03 0.  0.
         24    2    3    3    0    0  0.22678586123E+02  0.84059014240E+01  0.57867161415E+02  0.10225843580E+03  0.80766341229E+02 0.  0.
         -6    2    1    2    0  503 -0.10178718236E+03  0.11140896390E+03  0.13383273825E+03  0.26459462833E+03  0.17124989863E+03 0.  0.
        -24    2    5    5    0    0 -0.64581973084E+01  0.69040608542E+02  0.11908696954E+03  0.15913268912E+03  0.79581357694E+02 0.  0.
          5    1    3    3  501    0  0.79108596237E+02 -0.11981486532E+03  0.12415106874E+03  0.18986666327E+03  0.47000000000E+01 0. -1.
        -13    1    4    4    0    0  0.29442504511E+02 -0.17983938075E+02 -0.39292183008E+01  0.34723505829E+02  0.00000000000E+00 0.  1.
         14    1    4    4    0    0 -0.67639183880E+01  0.26389839499E+02  0.61796379716E+02  0.67534929975E+02  0.00000000000E+00 0. -1.
         -5    1    5    5    0  503 -0.95328985051E+02  0.42368355359E+02  0.14745768716E+02  0.10546193921E+03  0.47000000000E+01 0.  1.
         13    1    6    6    0    0  0.28256418161E+02  0.21005143543E+00  0.27636442859E+02  0.39525210472E+02  0.00000000000E+00 0. -1.
        -14    1    6    6    0    0 -0.34714615470E+02  0.68830557106E+02  0.91450526676E+02  0.11960747865E+03  0.00000000000E+00 0.  1.
</event>
<event>
12    1  0.8798177E-003  0.1772675E+03  0.7818608E-02  0.1170496E+00
         21   -1    0    0  503  502  0.00000000000E+00  0.00000000000E+00  0.21505919777E+03  0.21505919777E+03  0.00000000000E+00 0. -1.
         21   -1    0    0  501  503 -0.00000000000E+00 -0.00000000000E+00 -0.14633761429E+03  0.14633761429E+03  0.00000000000E+00 0. -1.
          6    2    1    2  501    0 -0.45052510949E+02 -0.16105871370E+02  0.42457673646E+02  0.18228114297E+03  0.17068870260E+03 0.  0.
         24    2    3    3    0    0 -0.25023019072E+02 -0.31151442199E+02 -0.38167774662E+02  0.97722863295E+02  0.80600342141E+02 0.  0.
         -6    2    1    2    0  502  0.45052510949E+02  0.16105871370E+02  0.26263909832E+02  0.17911566909E+03  0.17059748567E+03 0.  0.
        -24    2    5    5    0    0 -0.22167967852E+01 -0.13751311923E+02 -0.42434942011E+02  0.90416959443E+02  0.78616089218E+02 0.  0.
          5    1    3    3  501    0 -0.20029491877E+02  0.15045570829E+02  0.80625448308E+02  0.84558279673E+02  0.47000000000E+01 0. -1.
        -13    1    4    4    0    0  0.25123269730E+02  0.76856252845E+01 -0.14615898911E+02  0.30064464387E+02  0.00000000000E+00 0.  1.
         14    1    4    4    0    0 -0.50146288802E+02 -0.38837067483E+02 -0.23551875752E+02  0.67658398907E+02  0.00000000000E+00 0. -1.
         -5    1    5    5    0  502  0.47269307734E+02  0.29857183293E+02  0.68698851843E+02  0.88698709643E+02  0.47000000000E+01 0.  1.
         11    1    6    6    0    0  0.26196539619E+02 -0.32682351852E+02 -0.36915281419E+02  0.55831288834E+02  0.00000000000E+00 0. -1.
        -12    1    6    6    0    0 -0.28413336405E+02  0.18931039929E+02 -0.55196605919E+01  0.34585670609E+02  0.00000000000E+00 0.  1.
</event>
<event>
12    1  0.8798177E-003  0.1986247E+03  0.7818608E-02  0.1151673E+00
         21   -1    0    0  503  502  0.00000000000E+00  0.00000000000E+00  0.90341000526E+03  0.90341000526E+03  0.00000000000E+00 0. -1.
         21   -1    0    0  501  503 -0.00000000000E+00 -0.00000000000E+00 -0.51209722757E+02  0.51209722757E+02  0.00000000000E+00 0. -1.
          6    2    1    2  501    0  0.95078103392E+02 -0.24892866384E+02  0.23692701473E+03  0.30917013647E+03  0.17260435231E+03 0.  0.
         24    2    3    3    0    0  0.26501574672E+02  0.35830190308E+02  0.17424528214E+03  0.19807954503E+03  0.82993685393E+02 0.  0.
         -6    2    1    2    0  502 -0.95078103392E+02  0.24892866384E+02  0.61527326778E+03  0.64544959155E+03  0.16847694396E+03 0.  0.
        -24    2    5    5    0    0 -0.55590684438E+02 -0.14828120422E+02  0.55213530854E+03  0.56091850292E+03  0.80411259336E+02 0.  0.
          5    1    3    3  501    0  0.68576528720E+02 -0.60723056692E+02  0.62681732587E+02  0.11109059144E+03  0.47000000000E+01 0. -1.
        -13    1    4    4    0    0  0.26504609125E+02 -0.22201761225E+02  0.83375900680E+02  0.90260474852E+02  0.00000000000E+00 0.  1.
         14    1    4    4    0    0 -0.30344526411E-02  0.58031951533E+02  0.90869381458E+02  0.10781907018E+03  0.00000000000E+00 0. -1.
         -5    1    5    5    0  502 -0.39487418953E+02  0.39720986806E+02  0.63137959239E+02  0.84531088632E+02  0.47000000000E+01 0.  1.
         11    1    6    6    0    0 -0.39069738212E+02  0.31177769227E+02  0.28252741392E+03  0.28691503508E+03  0.00000000000E+00 0. -1.
        -12    1    6    6    0    0 -0.16520946227E+02 -0.46005889649E+02  0.26960789462E+03  0.27400346784E+03  0.00000000000E+00 0.  1.
</event>
<event>
12    1  0.8798177E-003  0.2429005E+03  0.7818608E-02  0.1118034E+00
         21   -1    0    0  501  502  0.00000000000E+00  0.00000000000E+00  0.20616059322E+03  0.20616059322E+03  0.00000000000E+00 0. -1.
         21   -1    0    0  502  503 -0.00000000000E+00 -0.00000000000E+00 -0.53919698668E+03  0.53919698668E+03  0.00000000000E+00 0. -1.
          6    2    1    2  501    0  0.17093190653E+03  0.15027888654E+02  0.89165384538E+02  0.25874911888E+03  0.17192174561E+03 0.  0.
         24    2    3    3    0    0  0.25820974883E+02  0.26771582856E+02 -0.19180949602E+01  0.86954511646E+02  0.78574599043E+02 0.  0.
         -6    2    1    2    0  503 -0.17093190653E+03 -0.15027888654E+02 -0.42220177799E+03  0.48660846102E+03  0.17055761165E+03 0.  0.
        -24    2    5    5    0    0 -0.38724126449E+02 -0.49455541238E+02 -0.20435095679E+03  0.22942130996E+03  0.83243110175E+02 0.  0.
          5    1    3    3  501    0  0.14511093165E+03 -0.11743694202E+02  0.91083479498E+02  0.17179460723E+03  0.47000000000E+01 0. -1.
        -13    1    4    4    0    0 -0.14670156526E+02 -0.16137471006E+02 -0.15069447328E+02  0.26508860891E+02  0.00000000000E+00 0.  1.
         14    1    4    4    0    0  0.40491131408E+02  0.42909053862E+02  0.13151352368E+02  0.60445650755E+02  0.00000000000E+00 0. -1.
         -5    1    5    5    0  503 -0.13220778008E+03  0.34427652584E+02 -0.21785082120E+03  0.25718715106E+03  0.47000000000E+01 0.  1.
         11    1    6    6    0    0 -0.43254384586E+02 -0.38717779098E+02 -0.20897111945E+03  0.21688461671E+03  0.00000000000E+00 0. -1.
        -12    1    6    6    0    0  0.45302581369E+01 -0.10737762139E+02  0.46201626527E+01  0.12536693244E+02  0.00000000000E+00 0.  1.
</event>
<event>
12    1  0.8798177E-003  0.2181544E+03  0.7818608E-02  0.1135377E+00
         21   -1    0    0  503  502  0.00000000000E+00  0.00000000000E+00  0.87115959806E+02  0.87115959806E+02  0.00000000000E+00 0.  1.
         21   -1    0    0  501  503 -0.00000000000E+00 -0.00000000000E+00 -0.56659444359E+03  0.56659444359E+03  0.00000000000E+00 0.  1.
          6    2    1    2  501    0  0.75798715699E+02  0.11042825827E+03 -0.30410914266E+03  0.37426424095E+03  0.17219612621E+03 0.  0.
         24    2    3    3    0    0  0.98238935238E+02  0.11861821745E+03 -0.19551973138E+03  0.26297907067E+03  0.84904984191E+02 0.  0.
         -6    2    1    2    0  502 -0.75798715699E+02 -0.11042825827E+03 -0.17536934113E+03  0.27944616244E+03  0.17145234432E+03 0.  0.
        -24    2    5    5    0    0  0.72003907293E+01 -0.10841226214E+03 -0.11242793475E+03  0.17515509597E+03  0.78956968825E+02 0.  0.
          5    1    3    3  501    0 -0.22440219539E+02 -0.81899591875E+01 -0.10858941128E+03  0.11128517029E+03  0.47000000000E+01 0. -1.
        -13    1    4    4    0    0  0.24907240878E+02  0.76948296324E+02 -0.14099591895E+03  0.16254617841E+03  0.00000000000E+00 0.  1.
         14    1    4    4    0    0  0.73331694360E+02  0.41669921129E+02 -0.54523812429E+02  0.10043289225E+03  0.00000000000E+00 0. -1.
         -5    1    5    5    0  502 -0.82999106428E+02 -0.20159961280E+01 -0.62941406383E+02  0.10429106647E+03  0.47000000000E+01 0.  1.
         13    1    6    6    0    0 -0.11537721669E+02  0.36110028809E+01 -0.36712301039E+02  0.38651667631E+02  0.00000000000E+00 0. -1.
        -14    1    6    6    0    0  0.18738112398E+02 -0.11202326502E+03 -0.75715633706E+02  0.13650342834E+03  0.00000000000E+00 0.  1.
</event>
<event>
12    1  0.8798177E-003  0.1828652E+03  0.7818608E-02  0.1165187E+00
         21   -1    0    0  501  502  0.00000000000E+00  0.00000000000E+00  0.80383489948E+03  0.80383489948E+03  0.00000000000E+00 0.  1.
         21   -1    0    0  502  503 -0.00000000000E+00 -0.00000000000E+00 -0.45024287583E+02  0.45024287583E+02  0.00000000000E+00 0.  1.
          6    2    1    2  501    0 -0.55666233372E+02 -0.23707622888E+02  0.25975949609E+03  0.31735969915E+03  0.17199244727E+03 0.  0.
         24    2    3    3    0    0 -0.86215586486E+02  0.74431926683E+00  0.10160940548E+03  0.15437288493E+03  0.77928396340E+02 0.  0.
         -6    2    1    2    0  503  0.55666233372E+02  0.23707622888E+02  0.49905111581E+03  0.53149948791E+03  0.17256566442E+03 0.  0.
        -24    2    5    5    0    0 -0.27437432323E+02  0.45280450994E+02  0.28630832228E+03  0.30203665353E+03  0.80315333110E+02 0.  0.
          5    1    3    3  501    0  0.30549353114E+02 -0.24451942155E+02  0.15815009061E+03  0.16298681422E+03  0.47000000000E+01 0. -1.
        -13    1    4    4    0    0  0.52011925703E+00  0.19614975451E+02  0.22747240531E+00  0.19623188571E+02  0.00000000000E+00 0.  1.
         14    1    4    4    0    0 -0.86735705743E+02 -0.18870656184E+02  0.10138193308E+03  0.13474969636E+03  0.00000000000E+00 0. -1.
         -5    1    5    5    0  503  0.83103665695E+02 -0.21572828106E+02  0.21274279354E+03  0.22946283439E+03  0.47000000000E+01 0.  1.
         13    1    6    6    0    0 -0.29086069293E+02  0.45392797857E+02  0.84576129550E+02  0.10029769296E+03  0.00000000000E+00 0. -1.
        -14    1    6    6    0    0  0.16486369701E+01 -0.11234686316E+00  0.20173219273E+03  0.20173896056E+03  0.00000000000E+00 0.  1.
</event>
<event>
12    1  0.8798177E-003  0.2975437E+03  0.7818608E-02  0.1087319E+00
         21   -1    0    0  501  502  0.00000000000E+00  0.00000000000E+00  0.80255542085E+02  0.80255542085E+02  0.00000000000E+00 0.  1.
         21   -1    0    0  502  503 -0.00000000000E+00 -0.00000000000E+00 -0.13040242426E+04  0.13040242426E+04  0.00000000000E+00 0. -1.
          6    2    1    2  501    0  0.17342175268E+03  0.15786169128E+03 -0.90520052273E+03  0.95284848595E+03  0.18313064447E+03 0.  0.
         24    2    3    3    0    0  0.66731686845E+02  0.29408669122E+02 -0.19484082676E+03  0.22311159041E+03  0.80609218789E+02 0.  0.
         -6    2    1    2    0  503 -0.17342175268E+03 -0.15786169128E+03 -0.31856817780E+03  0.43143129876E+03  0.17219716537E+03 0.  0.
        -24    2    5    5    0    0 -0.90859504618E+02 -0.85639309259E+02 -0.27678077396E+03  0.31395417592E+03  0.79812824001E+02 0.  0.
          5    1    3    3  501    0  0.10669006584E+03  0.12845302216E+03 -0.71035969597E+03  0.72973689554E+03  0.47000000000E+01 0. -1.
        -11    1    4    4    0    0  0.36234954135E+02 -0.24722388082E+02 -0.57079313531E+02  0.71987612871E+02  0.00000000000E+00 0.  1.
         12    1    4    4    0    0  0.30496732709E+02  0.54131057203E+02 -0.13776151323E+03  0.15112397754E+03  0.00000000000E+00 0. -1.
         -5    1    5    5    0  503 -0.82562248063E+02 -0.72222382024E+02 -0.41787403848E+02  0.11747712284E+03  0.47000000000E+01 0.  1.
         13    1    6    6    0    0 -0.70419416110E+02 -0.67357610389E+02 -0.11900052201E+03  0.15380853708E+03  0.00000000000E+00 0. -1.
        -14    1    6    6    0    0 -0.20440088508E+02 -0.18281698870E+02 -0.15778025195E+03  0.16014563883E+03  0.00000000000E+00 0.  1.
</event>
<event>
12    1  0.8798177E-003  0.2511816E+03  0.7818608E-02  0.1114899E+00
         21   -1    0    0  501  502  0.00000000000E+00  0.00000000000E+00  0.21377980715E+03  0.21377980715E+03  0.00000000000E+00 0.  1.
         21   -1    0    0  502  503 -0.00000000000E+00 -0.00000000000E+00 -0.37958524248E+03  0.37958524248E+03  0.00000000000E+00 0.  1.
          6    2    1    2  501    0  0.16246972772E+03  0.44878991579E+01  0.72013117013E+02  0.24746067561E+03  0.17214628455E+03 0.  0.
         24    2    3    3    0    0  0.11962372178E+03  0.41418214189E+02 -0.61332013179E+01  0.15087617653E+03  0.81857810909E+02 0.  0.
         -6    2    1    2    0  503 -0.16246972772E+03 -0.44878991579E+01 -0.23781855234E+03  0.34590437402E+03  0.19150879474E+03 0.  0.
        -24    2    5    5    0    0 -0.19055164359E+02  0.32896044531E+02 -0.14526316423E+03  0.17110767468E+03  0.82043893235E+02 0.  0.
          5    1    3    3  501    0  0.42846005943E+02 -0.36930315031E+02  0.78146318331E+02  0.96584499078E+02  0.47000000000E+01 0. -1.
        -13    1    4    4    0    0  0.67498759282E+02 -0.15862917227E+02  0.14259403013E+02  0.70788736547E+02  0.00000000000E+00 0.  1.
         14    1    4    4    0    0  0.52124962498E+02  0.57281131416E+02 -0.20392604331E+02  0.80087439984E+02  0.00000000000E+00 0. -1.
         -5    1    5    5    0  503 -0.14341456337E+03 -0.37383943689E+02 -0.92555388106E+02  0.17479669933E+03  0.47000000000E+01 0.  1.
         11    1    6    6    0    0 -0.70975094545E+01  0.25575693923E+02 -0.14172037930E+01  0.26580053173E+02  0.00000000000E+00 0. -1.
        -12    1    6    6    0    0 -0.11957654904E+02  0.73203506084E+01 -0.14384596044E+03  0.14452762151E+03  0.00000000000E+00 0.  1.
</event>
<event>
12    1  0.8798177E-003  0.1859206E+03  0.7818608E-02  0.1162239E+00
         21   -1    0    0  501  502  0.00000000000E+00  0.00000000000E+00  0.22029337163E+03  0.22029337163E+03  0.00000000000E+00 0. -1.
         21   -1    0    0  502  503 -0.00000000000E+00 -0.00000000000E+00 -0.15702952873E+03  0.15702952873E+03  0.00000000000E+00 0.  1.
          6    2    1    2  501    0 -0.49067496689E+02 -0.50975100283E+02  0.39716747853E+02  0.19011546527E+03  0.17193135257E+03 0.  0.
         24    2    3    3    0    0 -0.42323872282E+02 -0.71130330757E+02  0.87736912362E+02  0.13739226369E+03  0.65787796839E+02 0.  0.
         -6    2    1    2    0  503  0.49067496689E+02  0.50975100283E+02  0.23547095044E+02  0.18720743509E+03  0.17171510704E+03 0.  0.
        -24    2    5    5    0    0  0.87482274752E+02  0.15274634931E+01 -0.17854513712E+01  0.11949782081E+03  0.81369894933E+02 0.  0.
          5    1    3    3  501    0 -0.67436244071E+01  0.20155230474E+02 -0.48020164509E+02  0.52723201582E+02  0.47000000000E+01 0. -1.
        -13    1    4    4    0    0  0.28998930861E+01 -0.37654218500E+02  0.61172122848E+01  0.38257938221E+02  0.00000000000E+00 0.  1.
         14    1    4    4    0    0 -0.45223765368E+02 -0.33476112257E+02  0.81619700077E+02  0.99134325471E+02  0.00000000000E+00 0. -1.
         -5    1    5    5    0  503 -0.38414778063E+02  0.49447636790E+02  0.25332546415E+02  0.67709614277E+02  0.47000000000E+01 0.  1.
         13    1    6    6    0    0  0.72890597551E+01 -0.11948410079E+01  0.31701823288E+02  0.32550939110E+02  0.00000000000E+00 0. -1.
        -14    1    6    6    0    0  0.80193214997E+02  0.27223045010E+01 -0.33487274660E+02  0.86946881700E+02  0.00000000000E+00 0.  1.
</event>
<event>
12    1  0.8798177E-003  0.2490583E+03  0.7818608E-02  0.1113913E+00
         21   -1    0    0  501  502  0.00000000000E+00  0.00000000000E+00  0.88074017280E+02  0.88074017280E+02  0.00000000000E+00 0.  1.
         21   -1    0    0  502  503 -0.00000000000E+00 -0.00000000000E+00 -0.85763028463E+03  0.85763028463E+03  0.00000000000E+00 0.  1.
          6    2    1    2  501    0 -0.12988150421E+03  0.12526338724E+03 -0.18466618960E+03  0.30999491272E+03  0.17156667220E+03 0.  0.
         24    2    3    3    0    0 -0.13717872608E+02  0.10972601644E+02 -0.35567129381E+02  0.89067339206E+02  0.79745797413E+02 0.  0.
         -6    2    1    2    0  503  0.12988150421E+03 -0.12526338724E+03 -0.58489007775E+03  0.63570938919E+03  0.17166800266E+03 0.  0.
        -24    2    5    5    0    0  0.13104162321E+03 -0.14822339868E+03 -0.44310865771E+03  0.49199937190E+03  0.81092641352E+02 0.  0.
          5    1    3    3  501    0 -0.11616363160E+03  0.11429078560E+03 -0.14909906022E+03  0.22092757351E+03  0.47000000000E+01 0. -1.
        -13    1    4    4    0    0 -0.38513114184E+02  0.29756199050E+02 -0.12237349893E+02  0.50184101850E+02  0.00000000000E+00 0.  1.
         14    1    4    4    0    0  0.24795241576E+02 -0.18783597406E+02 -0.23329779488E+02  0.38883237356E+02  0.00000000000E+00 0. -1.
         -5    1    5    5    0  503 -0.11601190035E+01  0.22960011439E+02 -0.14178142004E+03  0.14371001729E+03  0.47000000000E+01 0.  1.
         13    1    6    6    0    0  0.44249219821E+02 -0.10804253920E+03 -0.21508671281E+03  0.24473144007E+03  0.00000000000E+00 0. -1.
        -14    1    6    6    0    0  0.86792403393E+02 -0.40180859481E+02 -0.22802194490E+03  0.24726793183E+03  0.00000000000E+00 0.  1.
</event>
<event>
12    1  0.8798177E-003  0.1744738E+03  0.7818608E-02  0.1173490E+00
         21   -1    0    0  503  502  0.00000000000E+00  0.00000000000E+00  0.11341810463E+03  0.11341810463E+03  0.00000000000E+00 0.  1.
         21   -1    0    0  501  503 -0.00000000000E+00 -0.00000000000E+00 -0.29217194806E+03  0.29217194806E+03  0.00000000000E+00 0.  1.
          6    2    1    2  501    0 -0.20816613978E+02 -0.17130140314E+02 -0.14910923911E+03  0.22950964095E+03  0.17237847016E+03 0.  0.
         24    2    3    3    0    0 -0.11398447188E+02  0.16959954119E+02 -0.16914985681E+03  0.18858834133E+03  0.80847534194E+02 0.  0.
         -6    2    1    2    0  502  0.20816613978E+02  0.17130140314E+02 -0.29644604324E+02  0.17608041175E+03  0.17146059522E+03 0.  0.
        -24    2    5    5    0    0  0.50901587998E+02 -0.37293315284E+02  0.11065975124E+02  0.10160585596E+03  0.78864004047E+02 0.  0.
          5    1    3    3  501    0 -0.94181667896E+01 -0.34090094433E+02  0.20040617705E+02  0.40921299614E+02  0.47000000000E+01 0. -1.
        -11    1    4    4    0    0  0.21325113252E+01  0.48209776376E+02 -0.83890807485E+02  0.96780151494E+02  0.00000000000E+00 0.  1.
         12    1    4    4    0    0 -0.13530958514E+02 -0.31249822257E+02 -0.85259049326E+02  0.91808189838E+02  0.00000000000E+00 0. -1.
         -5    1    5    5    0  502 -0.30084974020E+02  0.54423455598E+02 -0.40710579448E+02  0.74474555789E+02  0.47000000000E+01 0.  1.
         11    1    6    6    0    0  0.21017098607E+02  0.17137913655E+01 -0.30612233017E+02  0.37172090673E+02  0.00000000000E+00 0. -1.
        -12    1    6    6    0    0  0.29884489391E+02 -0.39007106649E+02  0.41678208140E+02  0.64433765288E+02  0.00000000000E+00 0.  1.
</event>
<event>
12    1  0.8798177E-003  0.1915675E+03  0.7818608E-02  0.1160525E+00
         21   -1    0    0  501  502  0.00000000000E+00  0.00000000000E+00  0.10946175956E+03  0.10946175956E+03  0.00000000000E+00 0. -1.
         21   -1    0    0  502  503 -0.00000000000E+00 -0.00000000000E+00 -0.84176109852E+03  0.84176109852E+03  0.00000000000E+00 0. -1.
          6    2    1    2  501    0 -0.39521193517E+02 -0.55971828530E+01  0.64162372964E+01  0.19167495269E+03  0.18736292642E+03 0.  0.
         24    2    3    3    0    0 -0.83681748211E+01 -0.68792056223E+02 -0.34660837658E+02  0.10998334553E+03  0.78055040051E+02 0.  0.
         -6    2    1    2    0  503  0.39521193517E+02  0.55971828530E+01 -0.73871557627E+03  0.75954790539E+03  0.17210190228E+03 0.  0.
        -24    2    5    5    0    0 -0.31413394643E+02  0.30728700534E+02 -0.52538074036E+03  0.53328003054E+03  0.80197345528E+02 0.  0.
          5    1    3    3  501    0 -0.31153018696E+02  0.63194873370E+02  0.41077074954E+02  0.81691607163E+02  0.47000000000E+01 0. -1.
        -11    1    4    4    0    0  0.22014543749E+02 -0.70366649100E+02 -0.21218076069E+02  0.76722305714E+02  0.00000000000E+00 0.  1.
         12    1    4    4    0    0 -0.30382718570E+02  0.15745928770E+01 -0.13442761588E+02  0.33261039815E+02  0.00000000000E+00 0. -1.
         -5    1    5    5    0  503  0.70934588160E+02 -0.25131517681E+02 -0.21333483590E+03  0.22626787485E+03  0.47000000000E+01 0.  1.
         11    1    6    6    0    0 -0.12589674113E+02  0.48290686142E+02 -0.17561438843E+03  0.18256753185E+03  0.00000000000E+00 0. -1.
        -12    1    6    6    0    0 -0.18823720530E+02 -0.17561985608E+02 -0.34976635193E+03  0.35071249869E+03  0.00000000000E+00 0.  1.
</event>
<event>
12    1  0.8798177E-003  0.2196676E+03  0.7818608E-02  0.1134609E+00
         21   -1    0    0  503  502  0.00000000000E+00  0.00000000000E+00  0.46876458763E+03  0.46876458763E+03  0.00000000000E+00 0.  1.
         21   -1    0    0  501  503 -0.00000000000E+00 -0.00000000000E+00 -0.12849012702E+03  0.12849012702E+03  0.00000000000E+00 0. -1.
          6    2    1    2  501    0  0.12848713956E+03  0.36048181319E+02  0.34691182158E+02  0.22239009339E+03  0.17448627198E+03 0.  0.
         24    2    3    3    0    0  0.11031835728E+03  0.62707151096E+01  0.85642407884E+02  0.16046336615E+03  0.78768064768E+02 0.  0.
         -6    2    1    2    0  502 -0.12848713956E+03 -0.36048181319E+02  0.30558327845E+03  0.37486462126E+03  0.17127150317E+03 0.  0.
        -24    2    5    5    0    0 -0.14302589813E+03  0.11570238945E+02  0.26178409536E+03  0.30838644523E+03  0.77336983740E+02 0.  0.
          5    1    3    3  501    0  0.18168782276E+02  0.29777466209E+02 -0.50951225726E+02  0.61926727236E+02  0.47000000000E+01 0. -1.
        -13    1    4    4    0    0 -0.29385868411E+01  0.10550307828E+02  0.34360501327E+02  0.36063670630E+02  0.00000000000E+00 0.  1.
         14    1    4    4    0    0  0.11325694412E+03 -0.42795927181E+01  0.51281906557E+02  0.12439969552E+03  0.00000000000E+00 0. -1.
         -5    1    5    5    0  502  0.14538758570E+02 -0.47618420263E+02  0.43799183089E+02  0.66478176031E+02  0.47000000000E+01 0.  1.
         13    1    6    6    0    0  0.32544672151E+01 -0.13549376263E+01 -0.36271449261E+01  0.50580226512E+01  0.00000000000E+00 0. -1.
        -14    1    6    6    0    0 -0.14628036534E+03  0.12925176571E+02  0.26541124029E+03  0.30332842258E+03  0.00000000000E+00 0.  1.
</event>
<event>
12    1  0.8798177E-003  0.1800881E+03  0.7818608E-02  0.1168004E+00
         21   -1    0    0  503  502  0.00000000000E+00  0.00000000000E+00  0.42940138700E+02  0.42940138700E+02  0.00000000000E+00 0.  1.
         21   -1    0    0  501  503 -0.00000000000E+00 -0.00000000000E+00 -0.76828112856E+03  0.76828112856E+03  0.00000000000E+00 0.  1.
          6    2    1    2  501    0  0.50471922959E+02 -0.13899610940E+02 -0.42349408938E+03  0.45973404989E+03  0.17107758091E+03 0.  0.
         24    2    3    3    0    0  0.79348204490E+02  0.19496945663E+02 -0.38336749691E+03  0.39988922512E+03  0.79148507451E+02 0.  0.
         -6    2    1    2    0  502 -0.50471922959E+02  0.13899610940E+02 -0.30184690048E+03  0.35148721737E+03  0.17231105147E+03 0.  0.
        -24    2    5    5    0    0 -0.41970338266E+02  0.38330261169E+02 -0.31156671926E+03  0.32345690360E+03  0.65725411544E+02 0.  0.
          5    1    3    3  501    0 -0.28876281532E+02 -0.33396556603E+02 -0.40126592471E+02  0.59844824767E+02  0.47000000000E+01 0. -1.
        -13    1    4    4    0    0  0.56727395203E+02 -0.37772943699E+01 -0.34492033976E+03  0.34957446431E+03  0.00000000000E+00 0.  1.
         14    1    4    4    0    0  0.22620809287E+02  0.23274240033E+02 -0.38447157152E+02  0.50314760807E+02  0.00000000000E+00 0. -1.
         -5    1    5    5    0  502 -0.85015846929E+01 -0.24430650230E+02  0.97198187836E+01  0.28030313771E+02  0.47000000000E+01 0.  1.
         11    1    6    6    0    0 -0.34381207406E+02  0.38082207910E+02 -0.10613971378E+03  0.11788961287E+03  0.00000000000E+00 0. -1.
        -12    1    6    6    0    0 -0.75891308600E+01  0.24805325906E+00 -0.20542700548E+03  0.20556729073E+03  0.00000000000E+00 0.  1.
</event>
<event>
12    1  0.8798177E-003  0.1772950E+03  0.7818608E-02  0.1170598E+00
         21   -1    0    0  503  502  0.00000000000E+00  0.00000000000E+00  0.14507731448E+03  0.14507731448E+03  0.00000000000E+00 0. -1.
         21   -1    0    0  501  503 -0.00000000000E+00 -0.00000000000E+00 -0.22861168144E+03  0.22861168144E+03  0.00000000000E+00 0. -1.
          6    2    1    2  501    0 -0.30246675825E+02 -0.31826848113E+02 -0.85721819993E+02  0.19638050554E+03  0.17114106133E+03 0.  0.
         24    2    3    3    0    0 -0.14288454022E+02 -0.27299074669E+02  0.21419223024E+02  0.87861112457E+02  0.79444273369E+02 0.  0.
         -6    2    1    2    0  502  0.30246675825E+02  0.31826848113E+02  0.21874530346E+01  0.17730849039E+03  0.17177225083E+03 0.  0.
        -24    2    5    5    0    0  0.20395877048E+02  0.63511713944E+02 -0.50051422903E+02  0.11524433714E+03  0.79538561085E+02 0.  0.
          5    1    3    3  501    0 -0.15958221803E+02 -0.45277734444E+01 -0.10714104302E+03  0.10851939308E+03  0.47000000000E+01 0. -1.
        -11    1    4    4    0    0 -0.85757902296E+01  0.21607541102E+02 -0.14062669489E+02  0.27169627963E+02  0.00000000000E+00 0.  1.
         12    1    4    4    0    0 -0.57126637921E+01 -0.48906615770E+02  0.35481892512E+02  0.60691484493E+02  0.00000000000E+00 0. -1.
         -5    1    5    5    0  502  0.98507987770E+01 -0.31684865831E+02  0.52238875937E+02  0.62064153249E+02  0.47000000000E+01 0.  1.
         11    1    6    6    0    0  0.46223301968E+02  0.15191817803E+02 -0.28358224682E+02  0.56316728244E+02  0.00000000000E+00 0. -1.
        -12    1    6    6    0    0 -0.25827424920E+02  0.48319896141E+02 -0.21693198220E+02  0.58927608895E+02  0.00000000000E+00 0.  1.
</event>
<event>
12    1  0.8798177E-003  0.2715971E+03  0.7818608E-02  0.1100858E+00
         21   -1    0    0  501  502  0.00000000000E+00  0.00000000000E+00  0.38693596416E+03  0.38693596416E+03  0.00000000000E+00 0.  1.
         21   -1    0    0  502  503 -0.00000000000E+00 -0.00000000000E+00 -0.20795262990E+03  0.20795262990E+03  0.00000000000E+00 0. -1.
          6    2    1    2  501    0  0.21135991687E+03  0.11233908029E+01  0.18156493313E+03  0.32669685028E+03  0.17056004976E+03 0.  0.
         24    2    3    3    0    0  0.62404080969E+02 -0.49977676867E+02  0.56109379153E+02  0.12530085680E+03  0.78485697933E+02 0.  0.
         -6    2    1    2    0  503 -0.21135991687E+03 -0.11233908029E+01 -0.25815988664E+01  0.26819174379E+03  0.16506323127E+03 0.  0.
        -24    2    5    5    0    0 -0.81880303528E+02 -0.37256401875E+02 -0.43910030130E+02  0.12747680503E+03  0.78929218209E+02 0.  0.
          5    1    3    3  501    0  0.14895583590E+03  0.51101067670E+02  0.12545555397E+03  0.20139599348E+03  0.47000000000E+01 0. -1.
        -13    1    4    4    0    0  0.75998505739E+02 -0.21358240372E+02  0.48720731130E+02  0.92766680161E+02  0.00000000000E+00 0.  1.
         14    1    4    4    0    0 -0.13594424770E+02 -0.28619436495E+02  0.73886480237E+01  0.32534176641E+02  0.00000000000E+00 0. -1.
         -5    1    5    5    0  503 -0.12947961334E+03  0.36133011072E+02  0.41328431264E+02  0.14071493876E+03  0.47000000000E+01 0.  1.
         11    1    6    6    0    0 -0.76990821572E+02 -0.24798408661E+02  0.71394720230E+00  0.80889167378E+02  0.00000000000E+00 0. -1.
        -12    1    6    6    0    0 -0.48894819564E+01 -0.12457993214E+02 -0.44623977332E+02  0.46587637649E+02  0.00000000000E+00 0.  1.
</event>
<event>
12    1  0.8798177E-003  0.2401142E+03  0.7818608E-02  0.1120015E+00
         21   -1    0    0  501  502  0.00000000000E+00  0.00000000000E+00  0.28079418050E+03  0.28079418050E+03  0.00000000000E+00 0.  1.
         21   -1    0    0  502  503 -0.00000000000E+00 -0.00000000000E+00 -0.23967095542E+03  0.23967095542E+03  0.00000000000E+00 0. -1.
          6    2    1    2  501    0 -0.16619685589E+03  0.21861203050E+02  0.12116234982E+03  0.26736223930E+03  0.16941943479E+03 0.  0.
         24    2    3    3    0    0 -0.16853747917E+03  0.27577712594E+02  0.49294420319E+02  0.19507637422E+03  0.80370640083E+02 0.  0.
         -6    2    1    2    0  503  0.16619685589E+03 -0.21861203050E+02 -0.80039124746E+02  0.25310289662E+03  0.17191715354E+03 0.  0.
        -24    2    5    5    0    0  0.17805761295E+03 -0.27318713601E+02 -0.10479947964E+03  0.22471932472E+03  0.84053663370E+02 0.  0.
          5    1    3    3  501    0  0.23406232874E+01 -0.57165095440E+01  0.71867929501E+02  0.72285865074E+02  0.47000000000E+01 0. -1.
        -13    1    4    4    0    0 -0.52502744025E+02  0.46850238406E+02  0.26934911789E+02  0.75345686286E+02  0.00000000000E+00 0.  1.
         14    1    4    4    0    0 -0.11603473515E+03 -0.19272525812E+02  0.22359508530E+02  0.11973068794E+03  0.00000000000E+00 0. -1.
         -5    1    5    5    0  503 -0.11860757061E+02  0.54575105510E+01  0.24760354897E+02  0.28383571905E+02  0.47000000000E+01 0.  1.
         11    1    6    6    0    0  0.13980110045E+03 -0.55932807651E+02 -0.85813295673E+02  0.17331113171E+03  0.00000000000E+00 0. -1.
        -12    1    6    6    0    0  0.38256512494E+02  0.28614094050E+02 -0.18986183970E+02  0.51408193007E+02  0.00000000000E+00 0.  1.
</event>
<event>
12    1  0.8798177E-003  0.1824263E+03  0.7818608E-02  0.1166214E+00
         21   -1    0    0  503  502  0.00000000000E+00  0.00000000000E+00  0.20081881260E+03  0.20081881260E+03  0.00000000000E+00 0. -1.
         21   -1    0    0  501  503 -0.00000000000E+00 -0.00000000000E+00 -0.16884687303E+03  0.16884687303E+03  0.00000000000E+00 0. -1.
          6    2    1    2  501    0 -0.50374044693E+02 -0.36956201754E+02 -0.18470340704E+02  0.18335899714E+03  0.17139446642E+03 0.  0.
         24    2    3    3    0    0  0.21988358013E+02  0.10563927000E+02 -0.63403304790E+01  0.95816395456E+02  0.92441859597E+02 0.  0.
         -6    2    1    2    0  502  0.50374044693E+02  0.36956201754E+02  0.50442280267E+02  0.18630668849E+03  0.16811440542E+03 0.  0.
        -24    2    5    5    0    0  0.66703542650E+02  0.30814998177E+01 -0.19967142863E+02  0.10634591810E+03  0.80323777674E+02 0.  0.
          5    1    3    3  501    0 -0.72362402706E+02 -0.47520128753E+02 -0.12130010225E+02  0.87542601687E+02  0.47000000000E+01 0. -1.
        -13    1    4    4    0    0  0.38243387406E+01 -0.68748733266E+01  0.41240164482E+02  0.41983813745E+02  0.00000000000E+00 0.  1.
         14    1    4    4    0    0  0.18164019272E+02  0.17438800326E+02 -0.47580494961E+02  0.53832581711E+02  0.00000000000E+00 0. -1.
         -5    1    5    5    0  502 -0.16329497956E+02  0.33874701936E+02  0.70409423130E+02  0.79960770383E+02  0.47000000000E+01 0.  1.
         13    1    6    6    0    0  0.39867666626E+02 -0.33906606047E+02  0.77386461780E+01  0.52905343969E+02  0.00000000000E+00 0. -1.
        -14    1    6    6    0    0  0.26835876024E+02  0.36988105864E+02 -0.27705789041E+02  0.53440574134E+02  0.00000000000E+00 0.  1.
</event>
<event>
12    1  0.8798177E-003  0.2771310E+03  0.7818608E-02  0.1097381E+00
         21   -1    0    0  503  502  0.00000000000E+00  0.00000000000E+00  0.47779939630E+02  0.47779939630E+02  0.00000000000E+00 0. -1.
         21   -1    0    0  501  503 -0.00000000000E+00 -0.00000000000E+00 -0.16038244532E+04  0.16038244532E+04  0.00000000000E+00 0.  1.
          6    2    1    2  501    0  0.20396570644E+03  0.71744892574E+02 -0.79950057318E+03  0.84589952477E+03  0.17203342837E+03 0.  0.
         24    2    3    3    0    0  0.22380021492E+03  0.73789554124E+02 -0.66514118798E+03  0.70998733710E+03  0.78344013115E+02 0.  0.
         -6    2    1    2    0  502 -0.20396570644E+03 -0.71744892574E+02 -0.75654394038E+03  0.80570486805E+03  0.17335588152E+03 0.  0.
        -24    2    5    5    0    0 -0.28369413746E+02 -0.10657948765E+01 -0.15147080499E+03  0.17169762675E+03  0.75701457776E+02 0.  0.
          5    1    3    3  501    0 -0.19834508480E+02 -0.20446615502E+01 -0.13435938519E+03  0.13591218767E+03  0.47000000000E+01 0. -1.
        -13    1    4    4    0    0 -0.37977086594E+01 -0.40706200157E+01 -0.36008868136E+02  0.36436672774E+02  0.00000000000E+00 0.  1.
         14    1    4    4    0    0  0.22759792358E+03  0.77860174140E+02 -0.62913231985E+03  0.67355066432E+03  0.00000000000E+00 0. -1.
         -5    1    5    5    0  502 -0.17559629269E+03 -0.70679097697E+02 -0.60507313538E+03  0.63400724130E+03  0.47000000000E+01 0.  1.
         11    1    6    6    0    0 -0.52828344013E+02  0.71499248766E+01 -0.11759704304E+03  0.12911630373E+03  0.00000000000E+00 0. -1.
        -12    1    6    6    0    0  0.24458930267E+02 -0.82157197532E+01 -0.33873761953E+02  0.42581323015E+02  0.00000000000E+00 0.  1.
</event>
<event>
12    1  0.8798177E-003  0.2275836E+03  0.7818608E-02  0.1130002E+00
         21   -1    0    0  503  502  0.00000000000E+00  0.00000000000E+00  0.42635891113E+03  0.42635891113E+03  0.00000000000E+00 0.  1.
         21   -1    0    0  501  503 -0.00000000000E+00 -0.00000000000E+00 -0.13445400299E+03  0.13445400299E+03  0.00000000000E+00 0.  1.
          6    2    1    2  501    0  0.45466667752E+02 -0.12642832784E+03  0.41498962558E+02  0.22243819033E+03  0.17235209505E+03 0.  0.
         24    2    3    3    0    0 -0.22271063051E+02 -0.85430443617E+01  0.21266641914E+02  0.84899915539E+02  0.78655843673E+02 0.  0.
         -6    2    1    2    0  502 -0.45466667752E+02  0.12642832784E+03  0.25040594558E+03  0.33837472378E+03  0.18369261324E+03 0.  0.
        -24    2    5    5    0    0 -0.77862994400E+02  0.71084223943E+02  0.23656672175E+03  0.27260158388E+03  0.85042324189E+02 0.  0.
          5    1    3    3  501    0  0.67737730803E+02 -0.11788528348E+03  0.20232320645E+02  0.13753827480E+03  0.47000000000E+01 0. -1.
        -11    1    4    4    0    0 -0.50291431845E+02  0.34686103649E+01  0.20454690036E+02  0.54402699560E+02  0.00000000000E+00 0.  1.
         12    1    4    4    0    0  0.28020368794E+02 -0.12011654727E+02  0.81195187762E+00  0.30497215979E+02  0.00000000000E+00 0. -1.
         -5    1    5    5    0  502  0.32396326648E+02  0.55344103897E+02  0.13839223827E+02  0.65773139902E+02  0.47000000000E+01 0.  1.
         13    1    6    6    0    0 -0.17451936796E+02  0.36852546955E+02  0.17536664270E+03  0.18004482688E+03  0.00000000000E+00 0. -1.
        -14    1    6    6    0    0 -0.60411057604E+02  0.34231676988E+02  0.61200079052E+02  0.92556757000E+02  0.00000000000E+00 0.  1.
</event>
<event>
12    1  0.8798177E-003  0.2905633E+03  0.7818608E-02  0.1090230E+00
         21   -1    0    0  501  502  0.00000000000E+00  0.00000000000E+00  0.19147597348E+03  0.19147597348E+03  0.00000000000E+00 0.  1.
         21   -1    0    0  502  503 -0.00000000000E+00 -0.00000000000E+00 -0.11540802326E+04  0.11540802326E+04  0.00000000000E+00 0. -1.
          6    2    1    2  501    0 -0.65306508078E+02 -0.22525076044E+03  0.48733859320E+02  0.29330536268E+03  0.16926370448E+03 0.  0.
         24    2    3    3    0    0  0.14604110398E+02 -0.69638781001E+02 -0.84926054286E+01  0.10919193743E+03  0.82388803805E+02 0.  0.
         -6    2    1    2    0  503  0.65306508078E+02  0.22525076044E+03 -0.10113381184E+04  0.10522508434E+04  0.17153484351E+03 0.  0.
        -24    2    5    5    0    0 -0.23212861283E+02  0.14921838359E+03 -0.66641151562E+03  0.68809009261E+03  0.80985828776E+02 0.  0.
          5    1    3    3  501    0 -0.79910618476E+02 -0.15561197944E+03  0.57226464749E+02  0.18411342525E+03  0.47000000000E+01 0. -1.
        -11    1    4    4    0    0  0.28352481518E+02 -0.42505334628E+02  0.30679234865E+02  0.59596829882E+02  0.00000000000E+00 0.  1.
         12    1    4    4    0    0 -0.13748371119E+02 -0.27133446373E+02 -0.39171840293E+02  0.49595107546E+02  0.00000000000E+00 0. -1.
         -5    1    5    5    0  503  0.88519369361E+02  0.76032376852E+02 -0.34492660283E+03  0.36416075080E+03  0.47000000000E+01 0.  1.
         11    1    6    6    0    0 -0.53153034210E+02  0.10518361930E+03 -0.47612127277E+03  0.49048986248E+03  0.00000000000E+00 0. -1.
        -12    1    6    6    0    0  0.29940172927E+02  0.44034764286E+02 -0.19029024285E+03  0.19760023012E+03  0.00000000000E+00 0.  1.
</event>
<event>
12    1  0.8798177E-003  0.2259239E+03  0.7818608E-02  0.1132618E+00
         21   -1    0    0  501  502  0.00000000000E+00  0.00000000000E+00  0.52372084102E+02  0.52372084102E+02  0.00000000000E+00 0.  1.
         21   -1    0    0  502  503 -0.00000000000E+00 -0.00000000000E+00 -0.93734309875E+03  0.93734309875E+03  0.00000000000E+00 0. -1.
          6    2    1    2  501    0  0.61281219712E+02  0.13190819647E+03 -0.51809343732E+03  0.55885468052E+03  0.15080644535E+03 0.  0.
         24    2    3    3    0    0  0.68377095038E+01  0.11607499191E+03 -0.25948108938E+03  0.29405811204E+03  0.74963854589E+02 0.  0.
         -6    2    1    2    0  503 -0.61281219712E+02 -0.13190819647E+03 -0.36687757732E+03  0.43086050233E+03  0.17287699539E+03 0.  0.
        -24    2    5    5    0    0 -0.26314578886E+02 -0.33719200493E+02 -0.28273740638E+03  0.29682542010E+03  0.79595524405E+02 0.  0.
          5    1    3    3  501    0  0.54443510209E+02  0.15833204568E+02 -0.25861234794E+03  0.26479656848E+03  0.47000000000E+01 0. -1.
        -11    1    4    4    0    0  0.71431028504E+01  0.12372601902E+03 -0.20886160014E+03  0.24286275902E+03  0.00000000000E+00 0.  1.
         12    1    4    4    0    0 -0.30539334665E+00 -0.76510271181E+01 -0.50619489233E+02  0.51195353025E+02  0.00000000000E+00 0. -1.
         -5    1    5    5    0  503 -0.34966640827E+02 -0.98188995980E+02 -0.84140170946E+02  0.13403508223E+03  0.47000000000E+01 0.  1.
         13    1    6    6    0    0  0.25890392382E+02 -0.24750325352E+02 -0.87934462709E+02  0.94949253576E+02  0.00000000000E+00 0. -1.
        -14    1    6    6    0    0 -0.52204971267E+02 -0.89688751418E+01 -0.19480294367E+03  0.20187616652E+03  0.00000000000E+00 0.  1.
</event>
<event>
12    1  0.8798177E-003  0.2143467E+03  0.7818608E-02  0.1138254E+00
         21   -1    0    0  503  502  0.00000000000E+00  0.00000000000E+00  0.27792863755E+02  0.27792863755E+02  0.00000000000E+00 0. -1.
         21   -1    0    0  501  503 -0.00000000000E+00 -0.00000000000E+00 -0.17396915004E+04  0.17396915004E+04  0.00000000000E+00 0. -1.
          6    2    1    2  501    0  0.65907994125E+02  0.10916115908E+03 -0.10577524220E+04  0.10792519229E+04  0.17229191667E+03 0.  0.
         24    2    3    3    0    0 -0.16202054948E+02  0.30976939515E+02 -0.65761053084E+03  0.66333070994E+03  0.79586073623E+02 0.  0.
         -6    2    1    2    0  502 -0.65907994125E+02 -0.10916115908E+03 -0.65414621471E+03  0.68823244130E+03  0.17174574432E+03 0.  0.
        -24    2    5    5    0    0 -0.85256377603E+02 -0.48255487674E+01 -0.40083891135E+03  0.41355634212E+03  0.55363159352E+02 0.  0.
          5    1    3    3  501    0  0.82110049073E+02  0.78184219564E+02 -0.40014189114E+03  0.41592121296E+03  0.47000000000E+01 0. -1.
        -11    1    4    4    0    0  0.25791478453E+02  0.23324059112E+02 -0.45202803212E+03  0.45336360012E+03  0.00000000000E+00 0.  1.
         12    1    4    4    0    0 -0.41993533400E+02  0.76528804028E+01 -0.20558249872E+03  0.20996710982E+03  0.00000000000E+00 0. -1.
         -5    1    5    5    0  502  0.19348383478E+02 -0.10433561031E+03 -0.25330730337E+03  0.27467609918E+03  0.47000000000E+01 0.  1.
         13    1    6    6    0    0 -0.12399160184E+02  0.18664920939E+02 -0.13760544663E+03  0.13941799521E+03  0.00000000000E+00 0. -1.
        -14    1    6    6    0    0 -0.72857217418E+02 -0.23490469707E+02 -0.26323346472E+03  0.27413834691E+03  0.00000000000E+00 0.  1.
</event>
<event>
12    1  0.8798177E-003  0.2233839E+03  0.7818608E-02  0.1131739E+00
         21   -1    0    0  503  502  0.00000000000E+00  0.00000000000E+00  0.22691123222E+03  0.22691123222E+03  0.00000000000E+00 0.  1.
         21   -1    0    0  501  503 -0.00000000000E+00 -0.00000000000E+00 -0.24376742150E+03  0.24376742150E+03  0.00000000000E+00 0. -1.
          6    2    1    2  501    0 -0.11090117203E+03  0.84960356667E+02 -0.84949202845E+02  0.23899109805E+03  0.17430733124E+03 0.  0.
         24    2    3    3    0    0 -0.10572103065E+03  0.30740454292E+02 -0.11032517348E+03  0.17871953292E+03  0.87447788370E+02 0.  0.
         -6    2    1    2    0  502  0.11090117203E+03 -0.84960356667E+02  0.68093013569E+02  0.23168755566E+03  0.17182878918E+03 0.  0.
        -24    2    5    5    0    0 -0.69361056324E+01 -0.43166358149E+02  0.55013791884E+02  0.10588803914E+03  0.79210576930E+02 0.  0.
          5    1    3    3  501    0 -0.51801413772E+01  0.54219902375E+02  0.25375970636E+02  0.60271565136E+02  0.47000000000E+01 0. -1.
        -11    1    4    4    0    0 -0.45976649392E+01 -0.24755688616E+02 -0.17598098708E+02  0.30719305329E+02  0.00000000000E+00 0.  1.
         12    1    4    4    0    0 -0.10112336571E+03  0.55496142909E+02 -0.92727074773E+02  0.14800022759E+03  0.00000000000E+00 0. -1.
         -5    1    5    5    0  502  0.11783727766E+03 -0.41793998518E+02  0.13079221685E+02  0.12579951652E+03  0.47000000000E+01 0.  1.
         13    1    6    6    0    0 -0.55527627453E+01  0.21301768917E+02  0.14521950325E+01  0.22061446088E+02  0.00000000000E+00 0. -1.
        -14    1    6    6    0    0 -0.13833428871E+01 -0.64468127066E+02  0.53561596852E+02  0.83826593049E+02  0.00000000000E+00 0.  1.
</event>
<event>
12    1  0.8798177E-003  0.1902385E+03  0.7818608E-02  0.1158591E+00
         21   -1    0    0  501  502  0.00000000000E+00  0.00000000000E+00  0.24865132679E+04  0.24865132679E+04  0.00000000000E+00 0. -1.
         21   -1    0    0  502  503 -0.00000000000E+00 -0.00000000000E+00 -0.15130217874E+02  0.15130217874E+02  0.00000000000E+00 0. -1.
          6    2    1    2  501    0  0.78760683261E+02 -0.16912215439E+02  0.15078910808E+04  0.15198441315E+04  0.17234095297E+03 0.  0.
         24    2    3    3    0    0  0.73137895078E+02 -0.62466329229E+02  0.75360421976E+03  0.76414739877E+03  0.82162844583E+02 0.  0.
         -6    2    1    2    0  503 -0.78760683261E+02  0.16912215439E+02  0.96349196923E+03  0.98179935434E+03  0.17065734423E+03 0.  0.
        -24    2    5    5    0    0 -0.22087595242E+02 -0.57280981484E+02  0.52016482423E+03  0.52872373496E+03  0.72169043521E+02 0.  0.
          5    1    3    3  501    0  0.56227881833E+01  0.45554113790E+02  0.75428686108E+03  0.75569673271E+03  0.47000000000E+01 0. -1.
        -13    1    4    4    0    0  0.43763881169E+02 -0.48475460076E+01  0.13118910222E+03  0.13838120009E+03  0.00000000000E+00 0.  1.
         14    1    4    4    0    0  0.29374013909E+02 -0.57618783221E+02  0.62241511754E+03  0.62576619868E+03  0.00000000000E+00 0. -1.
         -5    1    5    5    0  503 -0.56673088019E+02  0.74193196923E+02  0.44332714500E+03  0.45307561937E+03  0.47000000000E+01 0.  1.
         11    1    6    6    0    0 -0.35955419625E+02 -0.19783091986E+00  0.18928317890E+03  0.19266798683E+03  0.00000000000E+00 0. -1.
        -12    1    6    6    0    0  0.13867824383E+02 -0.57083150564E+02  0.33088164533E+03  0.33605574813E+03  0.00000000000E+00 0.  1.
</event>
<event>
12    1  0.8798177E-003  0.2369570E+03  0.7818608E-02  0.1122527E+00
         21   -1    0    0  503  502  0.00000000000E+00  0.00000000000E+00  0.19055676042E+03  0.19055676042E+03  0.00000000000E+00 0.  1.
         21   -1    0    0  501  503 -0.00000000000E+00 -0.00000000000E+00 -0.31434988610E+03  0.31434988610E+03  0.00000000000E+00 0. -1.
          6    2    1    2  501    0 -0.75634671916E+02  0.13810597951E+03 -0.13216715087E+03  0.26780167946E+03  0.17162668376E+03 0.  0.
         24    2    3    3    0    0 -0.12501699620E+02  0.14277590025E+03 -0.66027859598E+02  0.17612793076E+03  0.78231193040E+02 0.  0.
         -6    2    1    2    0  502  0.75634671916E+02 -0.13810597951E+03  0.83740251910E+01  0.23710496707E+03  0.17707279841E+03 0.  0.
        -24    2    5    5    0    0 -0.28535134014E+02 -0.68417866170E+02  0.22026440689E+02  0.11094530609E+03  0.79551483771E+02 0.  0.
          5    1    3    3  501    0 -0.63132972296E+02 -0.46699207393E+01 -0.66139291275E+02  0.91673748702E+02  0.47000000000E+01 0. -1.
        -11    1    4    4    0    0  0.11613660757E+02  0.89531256581E+02 -0.74518939488E+02  0.11706321097E+03  0.00000000000E+00 0.  1.
         12    1    4    4    0    0 -0.24115360377E+02  0.53244643665E+02  0.84910798897E+01  0.59064719781E+02  0.00000000000E+00 0. -1.
         -5    1    5    5    0  502  0.10416980593E+03 -0.69688113337E+02 -0.13652415498E+02  0.12615966097E+03  0.47000000000E+01 0.  1.
         13    1    6    6    0    0 -0.98337346717E+01 -0.64107575402E+01 -0.27180333142E+02  0.29606936004E+02  0.00000000000E+00 0. -1.
        -14    1    6    6    0    0 -0.18701399342E+02 -0.62007108629E+02  0.49206773830E+02  0.81338370089E+02  0.00000000000E+00 0.  1.
</event>
<event>
12    1  0.8798177E-003  0.1768541E+03  0.7818608E-02  0.1171139E+00
         21   -1    0    0  501  502  0.00000000000E+00  0.00000000000E+00  0.26376437562E+03  0.26376437562E+03  0.00000000000E+00 0. -1.
         21   -1    0    0  502  503 -0.00000000000E+00 -0.00000000000E+00 -0.11966781246E+03  0.11966781246E+03  0.00000000000E+00 0.  1.
          6    2    1    2  501    0  0.22184924729E+02  0.27176800018E+02  0.48476143601E+02  0.18238338647E+03  0.17228759043E+03 0.  0.
         24    2    3    3    0    0  0.30822273566E+02  0.82944634034E+02  0.44878593127E+02  0.12564109646E+03  0.77082891335E+02 0.  0.
         -6    2    1    2    0  503 -0.22184924729E+02 -0.27176800018E+02  0.95620419558E+02  0.20104880161E+03  0.17333957035E+03 0.  0.
        -24    2    5    5    0    0 -0.50992019173E+02 -0.40726041961E+02  0.12165075088E+03  0.15965920392E+03  0.80208227095E+02 0.  0.
          5    1    3    3  501    0 -0.86373488377E+01 -0.55767834016E+02  0.35975504734E+01  0.56742290007E+02  0.47000000000E+01 0. -1.
        -13    1    4    4    0    0 -0.18991426376E+01  0.37432896618E+02 -0.17852042525E+02  0.41515345528E+02  0.00000000000E+00 0.  1.
         14    1    4    4    0    0  0.32721416204E+02  0.45511737416E+02  0.62730635653E+02  0.84125750935E+02  0.00000000000E+00 0. -1.
         -5    1    5    5    0  503  0.28807094445E+02  0.13549241943E+02 -0.26030331326E+02  0.41389597685E+02  0.47000000000E+01 0.  1.
         13    1    6    6    0    0 -0.51110922646E+02 -0.50347463466E+01  0.25996229161E+02  0.57562826678E+02  0.00000000000E+00 0. -1.
        -14    1    6    6    0    0  0.11890347329E+00 -0.35691295614E+02  0.95654521724E+02  0.10209637725E+03  0.00000000000E+00 0.  1.
</event>
<event>
12    1  0.8798177E-003  0.2056499E+03  0.7818608E-02  0.1145316E+00
         21   -1    0    0  503  502  0.00000000000E+00  0.00000000000E+00  0.29217537991E+02  0.29217537991E+02  0.00000000000E+00 0. -1.
         21   -1    0    0  501  503 -0.00000000000E+00 -0.00000000000E+00 -0.15308892197E+04  0.15308892197E+04  0.00000000000E+00 0.  1.
          6    2    1    2  501    0  0.11177140994E+03 -0.96958345520E+01 -0.94453144695E+03  0.96665999293E+03  0.17235147333E+03 0.  0.
         24    2    3    3    0    0  0.29493335245E+02 -0.47070268878E+02 -0.27465389758E+03  0.29069804795E+03  0.77363586947E+02 0.  0.
         -6    2    1    2    0  502 -0.11177140994E+03  0.96958345520E+01 -0.55714023480E+03  0.59344676480E+03  0.17084192733E+03 0.  0.
        -24    2    5    5    0    0 -0.30706752571E+02 -0.14462289147E+02 -0.11996157009E+03  0.14813522387E+03  0.80007523338E+02 0.  0.
          5    1    3    3  501    0  0.82278074699E+02  0.37374434326E+02 -0.66987754937E+03  0.67596194498E+03  0.47000000000E+01 0. -1.
        -13    1    4    4    0    0  0.45349505481E+02 -0.26356052397E+02 -0.24768185843E+03  0.25317488450E+03  0.00000000000E+00 0.  1.
         14    1    4    4    0    0 -0.15856170236E+02 -0.20714216480E+02 -0.26972039152E+02  0.37523163446E+02  0.00000000000E+00 0. -1.
         -5    1    5    5    0  502 -0.81064657373E+02  0.24158123699E+02 -0.43717866470E+03  0.44531154093E+03  0.47000000000E+01 0.  1.
         11    1    6    6    0    0 -0.54222063015E+02  0.70187044897E+01 -0.82386475479E+02  0.98877832057E+02  0.00000000000E+00 0. -1.
        -12    1    6    6    0    0  0.23515310444E+02 -0.21480993636E+02 -0.37575094613E+02  0.49257391811E+02  0.00000000000E+00 0.  1.
</event>
<event>
12    1  0.8798177E-003  0.1946515E+03  0.7818608E-02  0.1154580E+00
         21   -1    0    0  503  502  0.00000000000E+00  0.00000000000E+00  0.34793611535E+03  0.34793611535E+03  0.00000000000E+00 0.  1.
         21   -1    0    0  501  503 -0.00000000000E+00 -0.00000000000E+00 -0.11978287153E+03  0.11978287153E+03  0.00000000000E+00 0. -1.
          6    2    1    2  501    0 -0.83591647135E+02  0.29296929424E+02  0.18689717282E+03  0.26985133171E+03  0.17333007377E+03 0.  0.
         24    2    3    3    0    0  0.24979043130E+01  0.34020268556E+02  0.15557433640E+03  0.17799856429E+03  0.79476389854E+02 0.  0.
         -6    2    1    2    0  502  0.83591647135E+02 -0.29296929424E+02  0.41256071004E+02  0.19786765516E+03  0.17205717660E+03 0.  0.
        -24    2    5    5    0    0  0.12016974871E+03 -0.19462007522E+02  0.56675263964E+02  0.15670305004E+03  0.80772656912E+02 0.  0.
          5    1    3    3  501    0 -0.86089551448E+02 -0.47233391314E+01  0.31322836415E+02  0.91852767417E+02  0.47000000000E+01 0. -1.
        -13    1    4    4    0    0 -0.12479760655E+02  0.51967761116E+02  0.63473975140E+02  0.82977937679E+02  0.00000000000E+00 0.  1.
         14    1    4    4    0    0  0.14977664968E+02 -0.17947492560E+02  0.92100361265E+02  0.95020626615E+02  0.00000000000E+00 0. -1.
         -5    1    5    5    0  502 -0.36578101573E+02 -0.98349219028E+01 -0.15419192961E+02  0.41164605125E+02  0.47000000000E+01 0.  1.
         11    1    6    6    0    0  0.14017069331E+02 -0.97305642936E+01 -0.19329780879E+02  0.25783765104E+02  0.00000000000E+00 0. -1.
        -12    1    6    6    0    0  0.10615267938E+03 -0.97314432280E+01  0.76005044843E+02  0.13091928493E+03  0.00000000000E+00 0.  1.
</event>
<event>
12    1  0.8798177E-003  0.2199466E+03  0.7818608E-02  0.1134012E+00
         21   -1    0    0  501  502  0.00000000000E+00  0.00000000000E+00  0.48807218342E+03  0.48807218342E+03  0.00000000000E+00 0.  1.
         21   -1    0    0  502  503 -0.00000000000E+00 -0.00000000000E+00 -0.11786107035E+03  0.11786107035E+03  0.00000000000E+00 0.  1.
          6    2    1    2  501    0  0.82629732712E+02  0.10810069555E+03  0.30678842688E+03  0.37748597016E+03  0.17280939124E+03 0.  0.
         24    2    3    3    0    0  0.35649141641E+02  0.13798099652E+03  0.21295943483E+03  0.26827984363E+03  0.79452733848E+02 0.  0.
         -6    2    1    2    0  503 -0.82629732712E+02 -0.10810069555E+03  0.63422686195E+02  0.22844728361E+03  0.17219840637E+03 0.  0.
        -24    2    5    5    0    0  0.96292223968E+01 -0.68467429447E+01  0.58004796274E+01  0.79764781594E+02  0.78671309928E+02 0.  0.
          5    1    3    3  501    0  0.46980591071E+02 -0.29880300974E+02  0.93828992048E+02  0.10920612653E+03  0.47000000000E+01 0. -1.
        -11    1    4    4    0    0  0.32144025513E+02  0.15909016822E+02  0.23523285808E+02  0.42891492952E+02  0.00000000000E+00 0.  1.
         12    1    4    4    0    0  0.35051161282E+01  0.12207197970E+03  0.18943614902E+03  0.22538835068E+03  0.00000000000E+00 0. -1.
         -5    1    5    5    0  503 -0.92258955109E+02 -0.10125395260E+03  0.57622206568E+02  0.14868250201E+03  0.47000000000E+01 0.  1.
         13    1    6    6    0    0 -0.11186719051E+02  0.32683244153E+02  0.61487577962E+01  0.35087666692E+02  0.00000000000E+00 0. -1.
        -14    1    6    6    0    0  0.20815941447E+02 -0.39529987097E+02 -0.34827816885E+00  0.44677114902E+02  0.00000000000E+00 0.  1.
</event>
<event>
12    1  0.8798177E-003  0.2234399E+03  0.7818608E-02  0.1131432E+00
         21   -1    0    0  503  502  0.00000000000E+00  0.00000000000E+00  0.75720840888E+02  0.75720840888E+02  0.00000000000E+00 0.  1.
         21   -1    0    0  501  503 -0.00000000000E+00 -0.00000000000E+00 -0.65820476267E+03  0.65820476267E+03  0.00000000000E+00 0.  1.
          6    2    1    2  501    0 -0.12301309061E+03 -0.70707186779E+02 -0.29922145789E+03  0.37344191815E+03  0.17260839681E+03 0.  0.
         24    2    3    3    0    0 -0.58697617550E+02  0.22348462820E+02 -0.19245319427E+03  0.21782255524E+03  0.80396327598E+02 0.  0.
         -6    2    1    2    0  502  0.12301309061E+03  0.70707186779E+02 -0.28326246390E+03  0.36048368540E+03  0.17198586357E+03 0.  0.
        -24    2    5    5    0    0  0.16108784424E+01  0.29209448971E+01 -0.15798586773E+03  0.17326780132E+03  0.71070878161E+02 0.  0.
          5    1    3    3  501    0 -0.64315473059E+02 -0.93055649599E+02 -0.10676826362E+03  0.15561936291E+03  0.47000000000E+01 0. -1.
        -11    1    4    4    0    0 -0.12091577399E+02 -0.24477487268E+02 -0.10336968072E+03  0.10691419232E+03  0.00000000000E+00 0.  1.
         12    1    4    4    0    0 -0.46606040151E+02  0.46825950088E+02 -0.89083513551E+02  0.11090836292E+03  0.00000000000E+00 0. -1.
         -5    1    5    5    0  502  0.12140221217E+03  0.67786241882E+02 -0.12527659616E+03  0.18721588409E+03  0.47000000000E+01 0.  1.
         11    1    6    6    0    0  0.45808774738E+01 -0.31656077310E+02 -0.10632894897E+03  0.11103574676E+03  0.00000000000E+00 0. -1.
        -12    1    6    6    0    0 -0.29699990314E+01  0.34577022207E+02 -0.51656918763E+02  0.62232054562E+02  0.00000000000E+00 0.  1.
</event>
<event>
12    1  0.8798177E-003  0.1841124E+03  0.7818608E-02  0.1164094E+00
         21   -1    0    0  501  502  0.00000000000E+00  0.00000000000E+00  0.23058811495E+02  0.23058811495E+02  0.00000000000E+00 0. -1.
         21   -1    0    0  502  503 -0.00000000000E+00 -0.00000000000E+00 -0.17810054440E+04  0.17810054440E+04  0.00000000000E+00 0. -1.
          6    2    1    2  501    0  0.59832749578E+02  0.24070120514E+02 -0.49593888747E+03  0.52869728313E+03  0.17148209369E+03 0.  0.
         24    2    3    3    0    0  0.20150434487E+02  0.49273226660E+02 -0.45799410388E+03  0.46810207464E+03  0.80790235879E+02 0.  0.
         -6    2    1    2    0  503 -0.59832749578E+02 -0.24070120514E+02 -0.12620077450E+04  0.12753669723E+04  0.17244720078E+03 0.  0.
        -24    2    5    5    0    0 -0.47658896287E+02  0.14488989309E+02 -0.11805384839E+04  0.11842937153E+04  0.79994942127E+02 0.  0.
          5    1    3    3  501    0  0.39682315090E+02 -0.25203106146E+02 -0.37944783588E+02  0.60595208489E+02  0.47000000000E+01 0. -1.
        -13    1    4    4    0    0  0.50552983890E+01  0.12205984556E+02 -0.38186479285E+03  0.38209326364E+03  0.00000000000E+00 0.  1.
         14    1    4    4    0    0  0.15095136098E+02  0.37067242104E+02 -0.76129311037E+02  0.86008811002E+02  0.00000000000E+00 0. -1.
         -5    1    5    5    0  503 -0.12173853290E+02 -0.38559109823E+02 -0.81469261082E+02  0.91073257082E+02  0.47000000000E+01 0.  1.
         11    1    6    6    0    0  0.11387024417E+02 -0.73110425169E+00 -0.67425231052E+03  0.67434885414E+03  0.00000000000E+00 0. -1.
        -12    1    6    6    0    0 -0.59045920705E+02  0.15220093561E+02 -0.50628617341E+03  0.50994486113E+03  0.00000000000E+00 0.  1.
</event>
<event>
12    1  0.8798177E-003  0.2123136E+03  0.7818608E-02  0.1140603E+00
         21   -1    0    0  503  502  0.00000000000E+00  0.00000000000E+00  0.89555635602E+02  0.89555635602E+02  0.00000000000E+00 0. -1.
         21   -1    0    0  501  503 -0.00000000000E+00 -0.00000000000E+00 -0.66822511731E+03  0.66822511731E+03  0.00000000000E+00 0.  1.
          6    2    1    2  501    0 -0.65827251347E+02 -0.10595260996E+03 -0.48108627329E+03  0.52411529588E+03  0.16641411734E+03 0.  0.
         24    2    3    3    0    0 -0.10563433997E+03 -0.98652030653E+02 -0.38458375709E+03  0.41936450402E+03  0.84089738240E+02 0.  0.
         -6    2    1    2    0  502  0.65827251347E+02  0.10595260996E+03 -0.97583208416E+02  0.23366545703E+03  0.17180768512E+03 0.  0.
        -24    2    5    5    0    0 -0.22204918838E+02  0.45942151722E+02 -0.84935735851E+02  0.12627380629E+03  0.78276785868E+02 0.  0.
          5    1    3    3  501    0  0.39807088628E+02 -0.73005793098E+01 -0.96502516193E+02  0.10475079186E+03  0.47000000000E+01 0. -1.
        -11    1    4    4    0    0 -0.51178282678E+02 -0.87730652205E+02 -0.31105174955E+03  0.32721411163E+03  0.00000000000E+00 0.  1.
         12    1    4    4    0    0 -0.54456057296E+02 -0.10921378448E+02 -0.73532007545E+02  0.92150392387E+02  0.00000000000E+00 0. -1.
         -5    1    5    5    0  502  0.88032170185E+02  0.60010458241E+02 -0.12647472566E+02  0.10739165074E+03  0.47000000000E+01 0.  1.
         11    1    6    6    0    0  0.75279954249E+01  0.32527931302E+02  0.19724591426E+01  0.33445891003E+02  0.00000000000E+00 0. -1.
        -12    1    6    6    0    0 -0.29732914263E+02  0.13414220419E+02 -0.86908194994E+02  0.92827915290E+02  0.00000000000E+00 0.  1.
</event>
<event>
12    1  0.8798177E-003  0.2380531E+03  0.7818608E-02  0.1121114E+00
         21   -1    0    0  501  502  0.00000000000E+00  0.00000000000E+00  0.29857499204E+03  0.29857499204E+03  0.00000000000E+00 0.  1.
         21   -1    0    0  502  503 -0.00000000000E+00 -0.00000000000E+00 -0.20607424565E+03  0.20607424565E+03  0.00000000000E+00 0.  1.
          6    2    1    2  501    0  0.67188578982E+02 -0.15008116235E+03  0.11734730076E+03  0.26540470892E+03  0.17213544111E+03 0.  0.
         24    2    3    3    0    0  0.10218124503E+02 -0.45271669848E+02  0.11341954889E+03  0.14595522321E+03  0.79277985292E+02 0.  0.
         -6    2    1    2    0  503 -0.67188578982E+02  0.15008116235E+03 -0.24846554374E+02  0.23924452877E+03  0.17199399072E+03 0.  0.
        -24    2    5    5    0    0 -0.55542122764E+02  0.12424513851E+03  0.43598795788E+02  0.16501518128E+03  0.82506807069E+02 0.  0.
          5    1    3    3  501    0  0.56970454480E+02 -0.10480949250E+03  0.39277518657E+01  0.11944948571E+03  0.47000000000E+01 0. -1.
        -13    1    4    4    0    0 -0.32662268696E+02 -0.21963463894E+02  0.71501837415E+02  0.81619423523E+02  0.00000000000E+00 0.  1.
         14    1    4    4    0    0  0.42880393199E+02 -0.23308205954E+02  0.41917711478E+02  0.64335799686E+02  0.00000000000E+00 0. -1.
         -5    1    5    5    0  503 -0.11646456219E+02  0.25836023839E+02 -0.68445350161E+02  0.74229347491E+02  0.47000000000E+01 0.  1.
         11    1    6    6    0    0  0.93467625898E+01 -0.64761563452E+01 -0.30985286287E+01  0.11785730846E+02  0.00000000000E+00 0. -1.
        -12    1    6    6    0    0 -0.64888885353E+02  0.13072129486E+03  0.46697324416E+02  0.15322945043E+03  0.00000000000E+00 0.  1.
</event>
<event>
12    1  0.8798177E-003  0.1871550E+03  0.7818608E-02  0.1161413E+00
         21   -1    0    0  501  502  0.00000000000E+00  0.00000000000E+00  0.65283359878E+03  0.65283359878E+03  0.00000000000E+00 0.  1.
         21   -1    0    0  502  503 -0.00000000000E+00 -0.00000000000E+00 -0.59614308126E+02  0.59614308126E+02  0.00000000000E+00 0.  1.
          6    2    1    2  501    0  0.73152001945E+02 -0.46981637486E+01  0.41228332459E+03  0.45213114453E+03  0.17050438114E+03 0.  0.
         24    2    3    3    0    0 -0.10467387285E+02  0.32876298498E+02  0.25464522503E+03  0.26971430621E+03  0.81921908832E+02 0.  0.
         -6    2    1    2    0  503 -0.73152001945E+02  0.46981637486E+01  0.18093596607E+03  0.26031676238E+03  0.17220251110E+03 0.  0.
        -24    2    5    5    0    0 -0.12762961771E+02  0.57267176119E+02  0.67392478913E+02  0.12130399063E+03  0.82039559203E+02 0.  0.
          5    1    3    3  501    0  0.83619389230E+02 -0.37574462247E+02  0.15763809956E+03  0.18241683831E+03  0.47000000000E+01 0. -1.
        -13    1    4    4    0    0  0.21000260220E+01  0.36766303898E+02  0.38893583285E+02  0.53561945749E+02  0.00000000000E+00 0.  1.
         14    1    4    4    0    0 -0.12567413307E+02 -0.38900054000E+01  0.21575164174E+03  0.21615236046E+03  0.00000000000E+00 0. -1.
         -5    1    5    5    0  503 -0.60389040174E+02 -0.52569012371E+02  0.11354348716E+03  0.13901277176E+03  0.47000000000E+01 0.  1.
         13    1    6    6    0    0  0.32219370549E+02  0.12818084996E+02  0.10474725932E+02  0.36223073101E+02  0.00000000000E+00 0. -1.
        -14    1    6    6    0    0 -0.44982332320E+02  0.44449091123E+02  0.56917752981E+02  0.85080917526E+02  0.00000000000E+00 0.  1.
</event>
<event>
12    1  0.8798177E-003  0.1724414E+03  0.7818608E-02  0.1175508E+00
         21   -1    0    0  503  502  0.00000000000E+00  0.00000000000E+00  0.38340556816E+03  0.38340556816E+03  0.00000000000E+00 0. -1.
         21   -1    0    0  501  503 -0.00000000000E+00 -0.00000000000E+00 -0.12975938949E+03  0.12975938949E+03  0.00000000000E+00 0. -1.
          6    2    1    2  501    0  0.20806718184E+02 -0.52826665694E+01 -0.36260285481E+02  0.17621251028E+03  0.17110001283E+03 0.  0.
         24    2    3    3    0    0  0.68727146355E+02  0.12799283422E+02 -0.55462159014E+02  0.12131145110E+03  0.82177702476E+02 0.  0.
         -6    2    1    2    0  502 -0.20806718184E+02  0.52826665694E+01  0.28990646414E+03  0.33695244737E+03  0.17038300311E+03 0.  0.
        -24    2    5    5    0    0 -0.48062656648E+02  0.33765016985E+02  0.92135360809E+02  0.13523574062E+03  0.79684913840E+02 0.  0.
          5    1    3    3  501    0 -0.47920428171E+02 -0.18081949992E+02  0.19201873533E+02  0.54901059177E+02  0.47000000000E+01 0. -1.
        -13    1    4    4    0    0  0.21568366203E+02  0.44346470674E+02 -0.36982204070E+02  0.61639981341E+02  0.00000000000E+00 0.  1.
         14    1    4    4    0    0  0.47158780152E+02 -0.31547187251E+02 -0.18479954943E+02  0.59671469763E+02  0.00000000000E+00 0. -1.
         -5    1    5    5    0  502  0.27255938464E+02 -0.28482350416E+02  0.19777110334E+03  0.20171670675E+03  0.47000000000E+01 0.  1.
         11    1    6    6    0    0 -0.36424842464E+01 -0.14271724256E+02  0.61046335493E+02  0.62798128012E+02  0.00000000000E+00 0. -1.
        -12    1    6    6    0    0 -0.44420172402E+02  0.48036741242E+02  0.31089025316E+02  0.72437612609E+02  0.00000000000E+00 0.  1.
</event>
<event>
12    1  0.8798177E-003  0.3306787E+03  0.7818608E-02  0.1070870E+00
         21   -1    0    0  501  502  0.00000000000E+00  0.00000000000E+00  0.15703465842E+04  0.15703465842E+04  0.00000000000E+00 0. -1.
         21   -1    0    0  502  503 -0.00000000000E+00 -0.00000000000E+00 -0.15133729324E+03  0.15133729324E+03  0.00000000000E+00 0. -1.
          6    2    1    2  501    0 -0.13689796628E+03  0.24680106116E+03  0.13424106414E+04  0.13825392285E+04  0.17232693079E+03 0.  0.
         24    2    3    3    0    0  0.26029928053E+01  0.88629891921E+02  0.48092097716E+03  0.49559776027E+03  0.80437058641E+02 0.  0.
         -6    2    1    2    0  503  0.13689796628E+03 -0.24680106116E+03  0.76598649485E+02  0.33914464892E+03  0.17175541571E+03 0.  0.
        -24    2    5    5    0    0  0.30288308312E+02 -0.36738589937E+02  0.21479117216E+02  0.97169208376E+02  0.81935321865E+02 0.  0.
          5    1    3    3  501    0 -0.13950095908E+03  0.15817116924E+03  0.86148966429E+03  0.88694146821E+03  0.47000000000E+01 0. -1.
        -11    1    4    4    0    0 -0.24961734909E+02  0.32706611170E+02  0.32623959903E+03  0.32882379263E+03  0.00000000000E+00 0.  1.
         12    1    4    4    0    0  0.27564727714E+02  0.55923280751E+02  0.15468137813E+03  0.16677396765E+03  0.00000000000E+00 0. -1.
         -5    1    5    5    0  503  0.10660965797E+03 -0.21006247123E+03  0.55119532269E+02  0.24197544054E+03  0.47000000000E+01 0.  1.
         11    1    6    6    0    0  0.50650731194E+02 -0.49215997480E+02  0.19153988720E+02  0.73175038519E+02  0.00000000000E+00 0. -1.
        -12    1    6    6    0    0 -0.20362422882E+02  0.12477407543E+02  0.23251284963E+01  0.23994169857E+02  0.00000000000E+00 0.  1.
</event>
<event>
12    1  0.8798177E-003  0.1984621E+03  0.7818608E-02  0.1151356E+00
         21   -1    0    0  503  502  0.00000000000E+00  0.00000000000E+00  0.62597610150E+02  0.62597610150E+02  0.00000000000E+00 0.  1.
         21   -1    0    0  501  503 -0.00000000000E+00 -0.00000000000E+00 -0.62599493627E+03  0.62599493627E+03  0.00000000000E+00 0. -1.
          6    2    1    2  501    0  0.90525571802E+02  0.39447676992E+02 -0.26430983662E+03  0.32964892527E+03  0.17046326826E+03 0.  0.
         24    2    3    3    0    0  0.91946856713E+01  0.44313302860E+02 -0.64289066851E+02  0.11361933078E+03  0.82024735027E+02 0.  0.
         -6    2    1    2    0  502 -0.90525571802E+02 -0.39447676992E+02 -0.29908748951E+03  0.35894362116E+03  0.17215167272E+03 0.  0.
        -24    2    5    5    0    0 -0.26048791779E+02 -0.29575461160E+02 -0.27553237057E+03  0.28943355400E+03  0.79375358233E+02 0.  0.
          5    1    3    3  501    0  0.81330886131E+02 -0.48656258672E+01 -0.20002076977E+03  0.21602959448E+03  0.47000000000E+01 0. -1.
        -11    1    4    4    0    0  0.17991250990E+02  0.43601936577E+02 -0.81564091579E+02  0.94220565804E+02  0.00000000000E+00 0.  1.
         12    1    4    4    0    0 -0.87965653183E+01  0.71136628265E+00  0.17275024728E+02  0.19398764980E+02  0.00000000000E+00 0. -1.
         -5    1    5    5    0  502 -0.64476780023E+02 -0.98722158326E+01 -0.23555118934E+02  0.69510067153E+02  0.47000000000E+01 0.  1.
         13    1    6    6    0    0  0.92162464100E+01 -0.40894721147E+02 -0.78915169940E+02  0.89358387755E+02  0.00000000000E+00 0. -1.
        -14    1    6    6    0    0 -0.35265038189E+02  0.11319259987E+02 -0.19661720063E+03  0.20007516625E+03  0.00000000000E+00 0.  1.
</event>
<event>
12    1  0.8798177E-003  0.1944473E+03  0.7818608E-02  0.1154805E+00
         21   -1    0    0  503  502  0.00000000000E+00  0.00000000000E+00  0.75342425787E+03  0.75342425787E+03  0.00000000000E+00 0. -1.
         21   -1    0    0  501  503 -0.00000000000E+00 -0.00000000000E+00 -0.67182410510E+02  0.67182410510E+02  0.00000000000E+00 0. -1.
          6    2    1    2  501    0  0.57724507946E+02  0.78386755849E+02  0.13552857948E+03  0.23701849339E+03  0.16832459132E+03 0.  0.
         24    2    3    3    0    0  0.18396950921E+02  0.23328525613E+02  0.18554089458E+01  0.87122956504E+02  0.81879784423E+02 0.  0.
         -6    2    1    2    0  502 -0.57724507946E+02 -0.78386755849E+02  0.55071326788E+03  0.58358817498E+03  0.16677365577E+03 0.  0.
        -24    2    5    5    0    0  0.13622759830E+02 -0.27505167601E+02  0.13857511828E+03  0.16221030064E+03  0.78530276931E+02 0.  0.
          5    1    3    3  501    0  0.39327557024E+02  0.55058230236E+02  0.13367317053E+03  0.14989553689E+03  0.47000000000E+01 0. -1.
        -13    1    4    4    0    0  0.47847793278E+02  0.52358172495E+01  0.14576170762E+02  0.50292045673E+02  0.00000000000E+00 0.  1.
         14    1    4    4    0    0 -0.29450842357E+02  0.18092708363E+02 -0.12720761816E+02  0.36830910831E+02  0.00000000000E+00 0. -1.
         -5    1    5    5    0  502 -0.71347267776E+02 -0.50881588248E+02  0.41213814959E+03  0.42137787435E+03  0.47000000000E+01 0.  1.
         11    1    6    6    0    0  0.15353167536E+00 -0.53468201495E+02  0.10386743378E+03  0.11682172719E+03  0.00000000000E+00 0. -1.
        -12    1    6    6    0    0  0.13469228155E+02  0.25963033894E+02  0.34707684502E+02  0.45388573447E+02  0.00000000000E+00 0.  1.
</event>
<event>
12    1  0.8798177E-003  0.2014698E+03  0.7818608E-02  0.1148628E+00
         21   -1    0    0  503  502  0.00000000000E+00  0.00000000000E+00  0.37038309001E+03  0.37038309001E+03  0.00000000000E+00 0. -1.
         21   -1    0    0  501  503 -0.00000000000E+00 -0.00000000000E+00 -0.15475844010E+03  0.15475844010E+03  0.00000000000E+00 0.  1.
          6    2    1    2  501    0 -0.51716771277E+02 -0.96788435001E+02 -0.34654107151E+02  0.20384801446E+03  0.16825718492E+03 0.  0.
         24    2    3    3    0    0 -0.48534491135E+02 -0.38888973791E+02  0.39415056631E+02  0.10966306058E+03  0.81268019869E+02 0.  0.
         -6    2    1    2    0  502  0.51716771277E+02  0.96788435001E+02  0.25027875706E+03  0.32129351564E+03  0.16895988097E+03 0.  0.
        -24    2    5    5    0    0  0.77125614730E+02  0.99537512811E+02  0.25434830368E+03  0.29499108298E+03  0.80440055630E+02 0.  0.
          5    1    3    3  501    0 -0.31822801422E+01 -0.57899461210E+02 -0.74069163782E+02  0.94184953887E+02  0.47000000000E+01 0. -1.
        -13    1    4    4    0    0 -0.64610046226E+02 -0.97773172114E+01  0.11725665788E+02  0.66389345858E+02  0.00000000000E+00 0.  1.
         14    1    4    4    0    0  0.16075555091E+02 -0.29111656580E+02  0.27689390842E+02  0.43273714718E+02  0.00000000000E+00 0. -1.
         -5    1    5    5    0  502 -0.25408843453E+02 -0.27490778098E+01 -0.40695466174E+01  0.26302432665E+02  0.47000000000E+01 0.  1.
         11    1    6    6    0    0  0.52672975095E+02  0.10970623632E+03  0.19290864385E+03  0.22808692524E+03  0.00000000000E+00 0. -1.
        -12    1    6    6    0    0  0.24452639636E+02 -0.10168723513E+02  0.61439659827E+02  0.66904157738E+02  0.00000000000E+00 0.  1.
</event>
<event>
12    1  0.8798177E-003  0.1956372E+03  0.7818608E-02  0.1154674E+00
         21   -1    0    0  503  502  0.00000000000E+00  0.00000000000E+00  0.74685832718E+02  0.74685832718E+02  0.00000000000E+00 0. -1.
         21   -1    0    0  501  503 -0.00000000000E+00 -0.00000000000E+00 -0.51530456199E+03  0.51530456199E+03  0.00000000000E+00 0. -1.
          6    2    1    2  501    0  0.75725661487E+02  0.37481320229E+02 -0.27690842915E+03  0.33904603140E+03  0.17645029925E+03 0.  0.
         24    2    3    3    0    0  0.26608362234E+02 -0.11049405769E+02 -0.25203397391E+03  0.26550305774E+03  0.78362333792E+02 0.  0.
         -6    2    1    2    0  502 -0.75725661487E+02 -0.37481320229E+02 -0.16371030012E+03  0.25094436330E+03  0.17039009928E+03 0.  0.
        -24    2    5    5    0    0 -0.81763592412E+02 -0.82461976549E+02 -0.90580447593E+02  0.16474818366E+03  0.73836873672E+02 0.  0.
          5    1    3    3  501    0  0.49117299253E+02  0.48530725998E+02 -0.24874455237E+02  0.73542973663E+02  0.47000000000E+01 0. -1.
        -11    1    4    4    0    0 -0.62513229088E+01  0.30147233494E+02 -0.91422215771E+02  0.96467384446E+02  0.00000000000E+00 0.  1.
         12    1    4    4    0    0  0.32859685143E+02 -0.41196639264E+02 -0.16061175814E+03  0.16903567330E+03  0.00000000000E+00 0. -1.
         -5    1    5    5    0  502  0.60379309252E+01  0.44980656321E+02 -0.73129852530E+02  0.86196179637E+02  0.47000000000E+01 0.  1.
         11    1    6    6    0    0 -0.62826078534E+02 -0.14706452265E+02 -0.59738926816E+02  0.87932560860E+02  0.00000000000E+00 0. -1.
        -12    1    6    6    0    0 -0.18937513878E+02 -0.67755524284E+02 -0.30841520777E+02  0.76815622803E+02  0.00000000000E+00 0.  1.
</event>
<event>
12    1  0.8798177E-003  0.2506769E+03  0.7818608E-02  0.1114781E+00
         21   -1    0    0  503  502  0.00000000000E+00  0.00000000000E+00  0.21469487023E+03  0.21469487023E+03  0.00000000000E+00 0.  1.
         21   -1    0    0  501  503 -0.00000000000E+00 -0.00000000000E+00 -0.34686521748E+03  0.34686521748E+03  0.00000000000E+00 0.  1.
          6    2    1    2  501    0 -0.56528038656E+02  0.15527808872E+03 -0.18888695055E+03  0.30454711376E+03  0.17252234760E+03 0.  0.
         24    2    3    3    0    0 -0.56951344076E+02  0.67322936295E+02 -0.17991812622E+03  0.21601001512E+03  0.80709114398E+02 0.  0.
         -6    2    1    2    0  502  0.56528038656E+02 -0.15527808872E+03  0.56716603300E+02  0.25701297395E+03  0.18849984535E+03 0.  0.
        -24    2    5    5    0    0 -0.23087063259E+02 -0.28477057543E+02 -0.19144404881E+02  0.89102138910E+02  0.78922288511E+02 0.  0.
          5    1    3    3  501    0  0.42330542086E+00  0.87955152427E+02 -0.89688243293E+01  0.88537098641E+02  0.47000000000E+01 0. -1.
        -11    1    4    4    0    0  0.13754923685E+02  0.42314740409E+02 -0.69944671726E+02  0.82897480567E+02  0.00000000000E+00 0.  1.
         12    1    4    4    0    0 -0.70706267762E+02  0.25008195886E+02 -0.10997345450E+03  0.13311253456E+03  0.00000000000E+00 0. -1.
         -5    1    5    5    0  502  0.79615101915E+02 -0.12680103118E+03  0.75861008181E+02  0.16791083504E+03  0.47000000000E+01 0.  1.
         11    1    6    6    0    0  0.25338810910E+02  0.51717898634E+01  0.31654360211E+01  0.26054226796E+02  0.00000000000E+00 0. -1.
        -12    1    6    6    0    0 -0.48425874169E+02 -0.33648847406E+02 -0.22309840902E+02  0.63047912114E+02  0.00000000000E+00 0.  1.
</event>
<event>
12    1  0.8798177E-003  0.1723251E+03  0.7818608E-02  0.1175884E+00
         21   -1    0    0  503  502  0.00000000000E+00  0.00000000000E+00  0.20556468067E+03  0.20556468067E+03  0.00000000000E+00 0. -1.
         21   -1    0    0  501  503 -0.00000000000E+00 -0.00000000000E+00 -0.14927285817E+03  0.14927285817E+03  0.00000000000E+00 0. -1.
          6    2    1    2  501    0  0.52350916645E+00 -0.45962623382E+00  0.64280702848E+02  0.18232740227E+03  0.17061883701E+03 0.  0.
         24    2    3    3    0    0 -0.33099927981E+02 -0.17729749335E+02  0.94670392128E+02  0.13359942374E+03  0.86466025895E+02 0.  0.
         -6    2    1    2    0  502 -0.52350916645E+00  0.45962623382E+00 -0.79888803493E+01  0.17251013657E+03  0.17232364809E+03 0.  0.
        -24    2    5    5    0    0 -0.59371475508E+02  0.33453604321E+02  0.57776342659E+01  0.10349352511E+03  0.77675047065E+02 0.  0.
          5    1    3    3  501    0  0.33623437147E+02  0.17270123101E+02 -0.30389689280E+02  0.48727978535E+02  0.47000000000E+01 0. -1.
        -11    1    4    4    0    0 -0.44354464908E+01  0.22103965607E+01 -0.16419487157E+02  0.17151052360E+02  0.00000000000E+00 0.  1.
         12    1    4    4    0    0 -0.28664481490E+02 -0.19940145896E+02  0.11108987929E+03  0.11644837138E+03  0.00000000000E+00 0. -1.
         -5    1    5    5    0  502  0.58847966341E+02 -0.32993978087E+02 -0.13766514615E+02  0.69016611458E+02  0.47000000000E+01 0.  1.
         13    1    6    6    0    0 -0.84083006338E+01  0.68823003280E+01 -0.32613887474E+02  0.34376317916E+02  0.00000000000E+00 0. -1.
        -14    1    6    6    0    0 -0.50963174874E+02  0.26571303993E+02  0.38391521740E+02  0.69117207196E+02  0.00000000000E+00 0.  1.
</event>
<event>
12    1  0.8798177E-003  0.1726715E+03  0.7818608E-02  0.1175595E+00
         21   -1    0    0  501  502  0.00000000000E+00  0.00000000000E+00  0.93038006567E+03  0.93038006567E+03  0.00000000000E+00 0. -1.
         21   -1    0    0  502  503 -0.00000000000E+00 -0.00000000000E+00 -0.32667710916E+02  0.32667710916E+02  0.00000000000E+00 0. -1.
          6    2    1    2  501    0  0.87874829624E+01 -0.10534613642E+02  0.53493709762E+03  0.56211487100E+03  0.17212562810E+03 0.  0.
         24    2    3    3    0    0 -0.47070328291E+02 -0.20597964936E+02  0.45336996103E+03  0.46263294355E+03  0.76452775824E+02 0.  0.
         -6    2    1    2    0  503 -0.87874829624E+01  0.10534613642E+02  0.36277525714E+03  0.40093290559E+03  0.17015613316E+03 0.  0.
        -24    2    5    5    0    0  0.45829408146E+02 -0.32917849005E+02  0.19440673339E+03  0.21861129114E+03  0.82540894075E+02 0.  0.
          5    1    3    3  501    0  0.55857811254E+02  0.10063351294E+02  0.81567136593E+02  0.99481927451E+02  0.47000000000E+01 0. -1.
        -11    1    4    4    0    0 -0.49015303924E+02 -0.17092308472E+02  0.14123922875E+03  0.15047646582E+03  0.00000000000E+00 0.  1.
         12    1    4    4    0    0  0.19449756329E+01 -0.35056564649E+01  0.31213073227E+03  0.31215647773E+03  0.00000000000E+00 0. -1.
         -5    1    5    5    0  503 -0.54616891109E+02  0.43452462648E+02  0.16836852375E+03  0.18232161445E+03  0.47000000000E+01 0.  1.
         13    1    6    6    0    0 -0.19088426583E+02  0.69573922867E+01  0.21066813108E+02  0.29267455498E+02  0.00000000000E+00 0. -1.
        -14    1    6    6    0    0  0.64917834729E+02 -0.39875241292E+02  0.17333992028E+03  0.18934383564E+03  0.00000000000E+00 0.  1.
</event>
<event>
12    1  0.8798177E-003  0.2492127E+03  0.7818608E-02  0.1114242E+00
         21   -1    0    0  501  502  0.00000000000E+00  0.00000000000E+00  0.37672646440E+02  0.37672646440E+02  0.00000000000E+00 0.  1.
         21   -1    0    0  502  503 -0.00000000000E+00 -0.00000000000E+00 -0.16896935606E+04  0.16896935606E+04  0.00000000000E+00 0. -1.
          6    2    1    2  501    0  0.12846826118E+03  0.12775390791E+03 -0.99212963626E+03  0.10229507260E+04  0.17111930778E+03 0.  0.
         24    2    3    3    0    0  0.84903137774E+02  0.83016635271E+02 -0.35464430016E+03  0.38239706913E+03  0.79715960197E+02 0.  0.
         -6    2    1    2    0  503 -0.12846826118E+03 -0.12775390791E+03 -0.65989127793E+03  0.70441548110E+03  0.16709134092E+03 0.  0.
        -24    2    5    5    0    0 -0.16963766735E+02 -0.95919706291E+02 -0.27547091672E+03  0.30285879421E+03  0.79692307252E+02 0.  0.
          5    1    3    3  501    0  0.43565123408E+02  0.44737272644E+02 -0.63748533610E+03  0.64055365684E+03  0.47000000000E+01 0. -1.
        -11    1    4    4    0    0  0.12284015017E+02  0.22134273091E+02 -0.14232415395E+02  0.29041086725E+02  0.00000000000E+00 0.  1.
         12    1    4    4    0    0  0.72619122757E+02  0.60882362180E+02 -0.34041188476E+03  0.35335598240E+03  0.00000000000E+00 0. -1.
         -5    1    5    5    0  503 -0.11150449445E+03 -0.31834201624E+02 -0.38442036121E+03  0.40155668689E+03  0.47000000000E+01 0.  1.
         13    1    6    6    0    0 -0.19105347420E+02 -0.84364648652E-01 -0.12173269472E+02  0.22654136644E+02  0.00000000000E+00 0. -1.
        -14    1    6    6    0    0  0.21415806850E+01 -0.95835341643E+02 -0.26329764724E+03  0.28020465756E+03  0.00000000000E+00 0.  1.
</event>
<event>
12    1  0.8798177E-003  0.2526080E+03  0.7818608E-02  0.1111710E+00
         21   -1    0    0  501  502  0.00000000000E+00  0.00000000000E+00  0.24787719645E+04  0.24787719645E+04  0.00000000000E+00 0. -1.
         21   -1    0    0  502  503 -0.00000000000E+00 -0.00000000000E+00 -0.40871069233E+02  0.40871069233E+02  0.00000000000E+00 0. -1.
          6    2    1    2  501    0 -0.15694757498E+03 -0.97460451947E+02  0.19865345783E+04  0.20025310081E+04  0.17227804992E+03 0.  0.
         24    2    3    3    0    0 -0.86824388433E+02 -0.12954006403E+03  0.13156285602E+04  0.13271915838E+04  0.78992969005E+02 0.  0.
         -6    2    1    2    0  503  0.15694757498E+03  0.97460451947E+02  0.45136631699E+03  0.51711202569E+03  0.17187848620E+03 0.  0.
        -24    2    5    5    0    0  0.94104764151E+02  0.13582146566E+03  0.31938211650E+03  0.36590784115E+03  0.67678908844E+02 0.  0.
          5    1    3    3  501    0 -0.70123186545E+02  0.32079612085E+02  0.67090601809E+03  0.67533942423E+03  0.47000000000E+01 0. -1.
        -13    1    4    4    0    0 -0.27182144169E+02 -0.10434363896E+03  0.92045365347E+03  0.92674775000E+03  0.00000000000E+00 0.  1.
         14    1    4    4    0    0 -0.59642244264E+02 -0.25196425067E+02  0.39517490675E+03  0.40044383384E+03  0.00000000000E+00 0. -1.
         -5    1    5    5    0  503  0.62842810826E+02 -0.38361013714E+02  0.13198420049E+03  0.15120418454E+03  0.47000000000E+01 0.  1.
         11    1    6    6    0    0  0.10395962006E+03  0.12035115910E+03  0.27173762901E+03  0.31485447927E+03  0.00000000000E+00 0. -1.
        -12    1    6    6    0    0 -0.98548559108E+01  0.15470306565E+02  0.47644487496E+02  0.51053361877E+02  0.00000000000E+00 0.  1.
</event>
<event>
12    1  0.8798177E-003  0.1851413E+03  0.7818608E-02  0.1163648E+00
         21   -1    0    0  503  502  0.00000000000E+00  0.00000000000E+00  0.15456318327E+03  0.15456318327E+03  0.00000000000E+00 0.  1.
         21   -1    0    0  501  503 -0.00000000000E+00 -0.00000000000E+00 -0.21857151813E+03  0.21857151813E+03  0.00000000000E+00 0.  1.
          6    2    1    2  501    0 -0.58844976835E+02 -0.78170134289E+00 -0.40662389142E+02  0.18652730511E+03  0.17226625701E+03 0.  0.
         24    2    3    3    0    0  0.28764137801E+01 -0.58781200384E+01 -0.80438341665E+02  0.11277284801E+03  0.78769044603E+02 0.  0.
         -6    2    1    2    0  502  0.58844976835E+02  0.78170134289E+00 -0.23345945714E+02  0.18660739629E+03  0.17553901222E+03 0.  0.
        -24    2    5    5    0    0  0.80270217080E+02  0.34177705389E+02 -0.61544890997E+02  0.13133006435E+03  0.76474759872E+02 0.  0.
          5    1    3    3  501    0 -0.61721390615E+02  0.50964186955E+01  0.39775952522E+02  0.73754457100E+02  0.47000000000E+01 0. -1.
        -13    1    4    4    0    0 -0.97558719174E+01 -0.43396762760E+01 -0.93750556126E+02  0.94356645770E+02  0.00000000000E+00 0.  1.
         14    1    4    4    0    0  0.12632285697E+02 -0.15384437624E+01  0.13312214462E+02  0.18416202242E+02  0.00000000000E+00 0. -1.
         -5    1    5    5    0  502 -0.21425240245E+02 -0.33396004046E+02  0.38198945282E+02  0.55277331941E+02  0.47000000000E+01 0.  1.
         11    1    6    6    0    0  0.17000448906E+02  0.34893435366E+02 -0.55558083609E+02  0.67773650846E+02  0.00000000000E+00 0. -1.
        -12    1    6    6    0    0  0.63269768174E+02 -0.71572997772E+00 -0.59868073876E+01  0.63556413499E+02  0.00000000000E+00 0.  1.
</event>
<event>
12    1  0.8798177E-003  0.1869615E+03  0.7818608E-02  0.1162150E+00
         21   -1    0    0  503  502  0.00000000000E+00  0.00000000000E+00  0.17286874884E+03  0.17286874884E+03  0.00000000000E+00 0.  1.
         21   -1    0    0  501  503 -0.00000000000E+00 -0.00000000000E+00 -0.38580846391E+03  0.38580846391E+03  0.00000000000E+00 0.  1.
          6    2    1    2  501    0 -0.39975192216E+02 -0.44195680750E+02 -0.30079983543E+03  0.35210035012E+03  0.17303999932E+03 0.  0.
         24    2    3    3    0    0 -0.58351035004E+02 -0.33284033233E+02 -0.70405020520E+02  0.12066872655E+03  0.71354078354E+02 0.  0.
         -6    2    1    2    0  502  0.39975192216E+02  0.44195680750E+02  0.87860120364E+02  0.20657686263E+03  0.17720983391E+03 0.  0.
        -24    2    5    5    0    0  0.78903192358E+02  0.53870712262E+02  0.19432007875E+02  0.12711937709E+03  0.81571843774E+02 0.  0.
          5    1    3    3  501    0  0.18375842788E+02 -0.10911647517E+02 -0.23039481491E+03  0.23143162357E+03  0.47000000000E+01 0. -1.
        -13    1    4    4    0    0  0.61460094710E+01 -0.20991292011E+02 -0.45429865634E+02  0.50421031963E+02  0.00000000000E+00 0.  1.
         14    1    4    4    0    0 -0.64497044475E+02 -0.12292741223E+02 -0.24975154886E+02  0.70247694583E+02  0.00000000000E+00 0. -1.
         -5    1    5    5    0  502 -0.38928000143E+02 -0.96750315121E+01  0.68428112489E+02  0.79457485542E+02  0.47000000000E+01 0.  1.
         11    1    6    6    0    0  0.43284163307E+02  0.51132154793E+02  0.47134574346E+02  0.81912661693E+02  0.00000000000E+00 0. -1.
        -12    1    6    6    0    0  0.35619029051E+02  0.27385574698E+01 -0.27702566470E+02  0.45206715393E+02  0.00000000000E+00 0.  1.
</event>
<event>
12    1  0.8798177E-003  0.1908262E+03  0.7818608E-02  0.1157740E+00
         21   -1    0    0  501  502  0.00000000000E+00  0.00000000000E+00  0.80291021161E+03  0.80291021161E+03  0.00000000000E+00 0.  1.
         21   -1    0    0  502  503 -0.00000000000E+00 -0.00000000000E+00 -0.51129367237E+02  0.51129367237E+02  0.00000000000E+00 0.  1.
          6    2    1    2  501    0 -0.48786011364E+01 -0.83151194056E+02  0.23199978511E+03  0.30033659915E+03  0.17158161521E+03 0.  0.
         24    2    3    3    0    0 -0.33506862730E+02 -0.86575489297E+02  0.24041048668E+03  0.26993704224E+03  0.80316744635E+02 0.  0.
         -6    2    1    2    0  503  0.48786011364E+01  0.83151194056E+02  0.51978105927E+03  0.55370297970E+03  0.17168785144E+03 0.  0.
        -24    2    5    5    0    0 -0.58104118763E+02  0.75098391873E+02  0.38011143832E+03  0.40020586687E+03  0.81634387737E+02 0.  0.
          5    1    3    3  501    0  0.28628261593E+02  0.34242952413E+01 -0.84107015713E+01  0.30399556916E+02  0.47000000000E+01 0. -1.
        -13    1    4    4    0    0 -0.22209152456E+02 -0.44828298767E+02  0.37642843390E+02  0.62608357922E+02  0.00000000000E+00 0.  1.
         14    1    4    4    0    0 -0.11297710274E+02 -0.41747190530E+02  0.20276764329E+03  0.20732868431E+03  0.00000000000E+00 0. -1.
         -5    1    5    5    0  503  0.62982719899E+02  0.80528021832E+01  0.13966962095E+03  0.15349711282E+03  0.47000000000E+01 0.  1.
         13    1    6    6    0    0 -0.57924929907E+01  0.58689302055E+02  0.11233404085E+03  0.12687365323E+03  0.00000000000E+00 0. -1.
        -14    1    6    6    0    0 -0.52311625772E+02  0.16409089818E+02  0.26777739747E+03  0.27333221364E+03  0.00000000000E+00 0.  1.
</event>
<event>
12    1  0.8798177E-003  0.2299025E+03  0.7818608E-02  0.1127493E+00
         21   -1    0    0  501  502  0.00000000000E+00  0.00000000000E+00  0.20760353435E+03  0.20760353435E+03  0.00000000000E+00 0.  1.
         21   -1    0    0  502  503 -0.00000000000E+00 -0.00000000000E+00 -0.44184671598E+03  0.44184671598E+03  0.00000000000E+00 0.  1.
          6    2    1    2  501    0  0.13282327541E+03 -0.59019981632E+02  0.97632514123E+02  0.24572184828E+03  0.17239993674E+03 0.  0.
         24    2    3    3    0    0  0.86723589241E+02  0.10136646245E+02  0.10944780418E+03  0.16164146221E+03  0.80779997128E+02 0.  0.
         -6    2    1    2    0  503 -0.13282327541E+03  0.59019981632E+02 -0.33187569576E+03  0.40372840205E+03  0.17812850547E+03 0.  0.
        -24    2    5    5    0    0 -0.23754517694E+02  0.79268760862E+02 -0.13350459637E+03  0.17639782768E+03  0.80280151958E+02 0.  0.
          5    1    3    3  501    0  0.46099686167E+02 -0.69156627877E+02 -0.11815290058E+02  0.84080386079E+02  0.47000000000E+01 0. -1.
        -11    1    4    4    0    0  0.86350191601E+02  0.30400747601E+02  0.63472740153E+02  0.11139726113E+03  0.00000000000E+00 0.  1.
         12    1    4    4    0    0  0.37339763976E+00 -0.20264101355E+02  0.45975064028E+02  0.50244201078E+02  0.00000000000E+00 0. -1.
         -5    1    5    5    0  503 -0.10906875771E+03 -0.20248779230E+02 -0.19837109939E+03  0.22733057437E+03  0.47000000000E+01 0.  1.
         11    1    6    6    0    0 -0.24174860735E+02 -0.15098904066E+01 -0.51875992648E+01  0.24771250407E+02  0.00000000000E+00 0. -1.
        -12    1    6    6    0    0  0.42034304125E+00  0.80778651269E+02 -0.12831699710E+03  0.15162657727E+03  0.00000000000E+00 0.  1.
</event>
<event>
12    1  0.8798177E-003  0.1887769E+03  0.7818608E-02  0.1163265E+00
         21   -1    0    0  501  502  0.00000000000E+00  0.00000000000E+00  0.12203521867E+04  0.12203521867E+04  0.00000000000E+00 0.  1.
         21   -1    0    0  502  503 -0.00000000000E+00 -0.00000000000E+00 -0.27300426061E+02  0.27300426061E+02  0.00000000000E+00 0. -1.
          6    2    1    2  501    0 -0.21481019435E+02  0.76157221359E+02  0.65145555001E+03  0.67409949647E+03  0.15412475774E+03 0.  0.
         24    2    3    3    0    0  0.30935614673E+02  0.37392400311E+01  0.32265001745E+03  0.33332532522E+03  0.77664306498E+02 0.  0.
         -6    2    1    2    0  503  0.21481019435E+02 -0.76157221359E+02  0.54159621067E+03  0.57355311633E+03  0.17139243062E+03 0.  0.
        -24    2    5    5    0    0 -0.53031540218E+02 -0.54857463586E+02  0.29948374096E+03  0.31929667252E+03  0.80238197976E+02 0.  0.
          5    1    3    3  501    0 -0.52416634108E+02  0.72417981328E+02  0.32880553256E+03  0.34077417126E+03  0.47000000000E+01 0. -1.
        -11    1    4    4    0    0  0.56102973278E+01  0.26586298641E+02  0.26463821070E+03  0.26602948948E+03  0.00000000000E+00 0.  1.
         12    1    4    4    0    0  0.25325317345E+02 -0.22847058610E+02  0.58011806750E+02  0.67295835741E+02  0.00000000000E+00 0. -1.
         -5    1    5    5    0  503  0.74512559653E+02 -0.21299757773E+02  0.24211246971E+03  0.25425644381E+03  0.47000000000E+01 0.  1.
         11    1    6    6    0    0 -0.14826339565E+02 -0.57349411116E+02  0.10045566672E+03  0.11661953642E+03  0.00000000000E+00 0. -1.
        -12    1    6    6    0    0 -0.38205200653E+02  0.24919475300E+01  0.19902807424E+03  0.20267713609E+03  0.00000000000E+00 0.  1.
</event>
<event>
12    1  0.8798177E-003  0.1986245E+03  0.7818608E-02  0.1150977E+00
         21   -1    0    0  501  502  0.00000000000E+00  0.00000000000E+00  0.46203041510E+03  0.46203041510E+03  0.00000000000E+00 0.  1.
         21   -1    0    0  502  503 -0.00000000000E+00 -0.00000000000E+00 -0.11115180417E+03  0.11115180417E+03  0.00000000000E+00 0. -1.
          6    2    1    2  501    0  0.94232245961E+02  0.31402438001E+02  0.31392418146E+03  0.37148363421E+03  0.17200543448E+03 0.  0.
         24    2    3    3    0    0  0.11102310969E+02  0.69483845114E+02  0.17098977116E+03  0.20173936978E+03  0.80684604707E+02 0.  0.
         -6    2    1    2    0  503 -0.94232245961E+02 -0.31402438001E+02  0.36954429473E+02  0.20169858506E+03  0.17161252888E+03 0.  0.
        -24    2    5    5    0    0 -0.56601038158E+01 -0.42633339914E+02 -0.23307930371E+02  0.93880221433E+02  0.80128633526E+02 0.  0.
          5    1    3    3  501    0  0.83129934992E+02 -0.38081407113E+02  0.14293441029E+03  0.16974426443E+03  0.47000000000E+01 0. -1.
        -11    1    4    4    0    0  0.35318416820E+02  0.66080690970E+02  0.15598916215E+03  0.17305105315E+03  0.00000000000E+00 0.  1.
         12    1    4    4    0    0 -0.24216105850E+02  0.34031541441E+01  0.15000609010E+02  0.28688316635E+02  0.00000000000E+00 0. -1.
         -5    1    5    5    0  503 -0.88572142146E+02  0.11230901913E+02  0.60262359844E+02  0.10781836363E+03  0.47000000000E+01 0.  1.
         13    1    6    6    0    0 -0.27126671828E+02 -0.40233975568E+02  0.14232838807E+02  0.50568792896E+02  0.00000000000E+00 0. -1.
        -14    1    6    6    0    0  0.21466568012E+02 -0.23993643456E+01 -0.37540769177E+02  0.43311428537E+02  0.00000000000E+00 0.  1.
</event>
<event>
12    1  0.8798177E-003  0.1972685E+03  0.7818608E-02  0.1152409E+00
         21   -1    0    0  501  502  0.00000000000E+00  0.00000000000E+00  0.13217756360E+03  0.13217756360E+03  0.00000000000E+00 0.  1.
         21   -1    0    0  502  503 -0.00000000000E+00 -0.00000000000E+00 -0.30799300696E+03  0.30799300696E+03  0.00000000000E+00 0.  1.
          6    2    1    2  501    0 -0.23178194514E+02 -0.93462118029E+02 -0.38147293791E+02  0.20092309319E+03  0.17216990778E+03 0.  0.
         24    2    3    3    0    0 -0.41177738815E+01 -0.12428745977E+03  0.46883686212E+01  0.14461603056E+03  0.73671478717E+02 0.  0.
         -6    2    1    2    0  503  0.23178194514E+02  0.93462118029E+02 -0.13766814958E+03  0.23924747737E+03  0.17033625514E+03 0.  0.
        -24    2    5    5    0    0  0.75386956223E+01  0.12870123082E+03 -0.13035241515E+03  0.19972534476E+03  0.79231448691E+02 0.  0.
          5    1    3    3  501    0 -0.19060420632E+02  0.30825341737E+02 -0.42835662412E+02  0.56307062631E+02  0.47000000000E+01 0. -1.
        -11    1    4    4    0    0 -0.35291421076E+02 -0.36463013927E+02  0.79616796617E+01  0.51365592854E+02  0.00000000000E+00 0.  1.
         12    1    4    4    0    0  0.31173647194E+02 -0.87824445838E+02 -0.32733110405E+01  0.93250437701E+02  0.00000000000E+00 0. -1.
         -5    1    5    5    0  503  0.15639498892E+02 -0.35239112788E+02 -0.73157344309E+01  0.39522132608E+02  0.47000000000E+01 0.  1.
         11    1    6    6    0    0  0.73436327686E+01  0.98280160461E+01 -0.60745264322E+02  0.61971816007E+02  0.00000000000E+00 0. -1.
        -12    1    6    6    0    0  0.19506285368E+00  0.11887321477E+03 -0.69607150823E+02  0.13775352876E+03  0.00000000000E+00 0.  1.
</event>
<event>
12    1  0.8798177E-003  0.1831295E+03  0.7818608E-02  0.1164959E+00
         21   -1    0    0  503  502  0.00000000000E+00  0.00000000000E+00  0.49860838645E+02  0.49860838645E+02  0.00000000000E+00 0. -1.
         21   -1    0    0  501  503 -0.00000000000E+00 -0.00000000000E+00 -0.69347595857E+03  0.69347595857E+03  0.00000000000E+00 0.  1.
          6    2    1    2  501    0  0.59229744299E+02  0.37783732323E+01 -0.38925820809E+03  0.42991397808E+03  0.17257357059E+03 0.  0.
         24    2    3    3    0    0 -0.35749720276E+02  0.35306643369E+01 -0.18093899522E+03  0.20091584599E+03  0.79609981074E+02 0.  0.
         -6    2    1    2    0  502 -0.59229744299E+02 -0.37783732323E+01 -0.25435691183E+03  0.31342281914E+03  0.17324545086E+03 0.  0.
        -24    2    5    5    0    0 -0.54959826235E+02 -0.59045411277E+02 -0.22312041231E+03  0.24962245396E+03  0.77599665185E+02 0.  0.
          5    1    3    3  501    0  0.94979464575E+02  0.24770889538E+00 -0.20831921287E+03  0.22899813209E+03  0.47000000000E+01 0. -1.
        -11    1    4    4    0    0  0.27127139943E+00  0.36592350562E+02 -0.98376429500E+02  0.10496187684E+03  0.00000000000E+00 0.  1.
         12    1    4    4    0    0 -0.36020991675E+02 -0.33061686225E+02 -0.82562565722E+02  0.95953969151E+02  0.00000000000E+00 0. -1.
         -5    1    5    5    0  502 -0.42699180644E+01  0.55267038045E+02 -0.31236499521E+02  0.63800365178E+02  0.47000000000E+01 0.  1.
         13    1    6    6    0    0  0.15328976806E+02 -0.18560745161E+02 -0.21418939623E+02  0.32221883332E+02  0.00000000000E+00 0. -1.
        -14    1    6    6    0    0 -0.70288803041E+02 -0.40484666116E+02 -0.20170147269E+03  0.21740057063E+03  0.00000000000E+00 0.  1.
</event>
<event>
12    1  0.8798177E-003  0.2118934E+03  0.7818608E-02  0.1140409E+00
         21   -1    0    0  501  502  0.00000000000E+00  0.00000000000E+00  0.35854008421E+03  0.35854008421E+03  0.00000000000E+00 0. -1.
         21   -1    0    0  502  503 -0.00000000000E+00 -0.00000000000E+00 -0.19745019442E+03  0.19745019442E+03  0.00000000000E+00 0. -1.
          6    2    1    2  501    0  0.14534910595E+02  0.12221365287E+03  0.24963395187E+03  0.32634087246E+03  0.17039311764E+03 0.  0.
         24    2    3    3    0    0  0.68902393856E+02  0.47404857929E+02  0.15582958270E+03  0.19453219023E+03  0.81025636421E+02 0.  0.
         -6    2    1    2    0  503 -0.14534910595E+02 -0.12221365287E+03 -0.88544062085E+02  0.22964940616E+03  0.17248582042E+03 0.  0.
        -24    2    5    5    0    0  0.14894802239E+02 -0.50803993926E+02  0.30427016323E+02  0.87728107950E+02  0.62988226436E+02 0.  0.
          5    1    3    3  501    0 -0.54367483261E+02  0.74808794937E+02  0.93804369175E+02  0.13180868223E+03  0.47000000000E+01 0. -1.
        -11    1    4    4    0    0  0.47596768806E+02  0.70476039997E+02  0.11382501261E+03  0.14208609401E+03  0.00000000000E+00 0.  1.
         12    1    4    4    0    0  0.21305625050E+02 -0.23071182068E+02  0.42004570085E+02  0.52446096221E+02  0.00000000000E+00 0. -1.
         -5    1    5    5    0  503 -0.29429712834E+02 -0.71409658940E+02 -0.11897107841E+03  0.14192129821E+03  0.47000000000E+01 0.  1.
         11    1    6    6    0    0 -0.20176643478E+02 -0.26539800608E+02 -0.30971946475E+01  0.33482093319E+02  0.00000000000E+00 0. -1.
        -12    1    6    6    0    0  0.35071445717E+02 -0.24264193318E+02  0.33524210971E+02  0.54246014630E+02  0.00000000000E+00 0.  1.
</event>
<event>
12    1  0.8798177E-003  0.2198407E+03  0.7818608E-02  0.1134160E+00
         21   -1    0    0  503  502  0.00000000000E+00  0.00000000000E+00  0.52230774382E+03  0.52230774382E+03  0.00000000000E+00 0.  1.
         21   -1    0    0  501  503 -0.00000000000E+00 -0.00000000000E+00 -0.99735151776E+02  0.99735151776E+02  0.00000000000E+00 0. -1.
          6    2    1    2  501    0 -0.10025270520E+03 -0.90348946523E+02  0.29729028374E+03  0.36974509958E+03  0.17354074109E+03 0.  0.
         24    2    3    3    0    0 -0.33866787243E+02  0.23848225925E+02  0.11747411262E+03  0.14657693497E+03  0.77258873741E+02 0.  0.
         -6    2    1    2    0  502  0.10025270520E+03  0.90348946523E+02  0.12528230831E+03  0.25229779602E+03  0.17246734202E+03 0.  0.
        -24    2    5    5    0    0  0.58902567317E+02  0.88890933213E+02  0.15218868231E+03  0.20271954809E+03  0.81010553079E+02 0.  0.
          5    1    3    3  501    0 -0.66385917958E+02 -0.11419717245E+03  0.17981617112E+03  0.22316816460E+03  0.47000000000E+01 0. -1.
        -11    1    4    4    0    0  0.96727191576E+01  0.32845129220E+02  0.84652556815E+02  0.91314946119E+02  0.00000000000E+00 0.  1.
         12    1    4    4    0    0 -0.43539506401E+02 -0.89969032958E+01  0.32821555809E+02  0.55261988855E+02  0.00000000000E+00 0. -1.
         -5    1    5    5    0  502  0.41350137884E+02  0.14580133095E+01 -0.26906374003E+02  0.49578247930E+02  0.47000000000E+01 0.  1.
         11    1    6    6    0    0 -0.14312687391E+02 -0.46021395973E+01  0.14358879819E+02  0.20789664232E+02  0.00000000000E+00 0. -1.
        -12    1    6    6    0    0  0.73215254708E+02  0.93493072810E+02  0.13782980249E+03  0.18192988386E+03  0.00000000000E+00 0.  1.
</event>
<event>
12    1  0.8798177E-003  0.1823905E+03  0.7818608E-02  0.1165735E+00
         21   -1    0    0  501  502  0.00000000000E+00  0.00000000000E+00  0.22223716682E+03  0.22223716682E+03  0.00000000000E+00 0.  1.
         21   -1    0    0  502  503 -0.00000000000E+00 -0.00000000000E+00 -0.15481331271E+03  0.15481331271E+03  0.00000000000E+00 0.  1.
          6    2    1    2  501    0  0.56070496418E+02  0.20338977359E+02  0.70436222950E+02  0.19463515003E+03  0.17135928792E+03 0.  0.
         24    2    3    3    0    0  0.80793089779E+02  0.40738538806E+02  0.41658896307E+01  0.12087068835E+03  0.80032598139E+02 0.  0.
         -6    2    1    2    0  503 -0.56070496418E+02 -0.20338977359E+02 -0.30123688427E+01  0.18241532950E+03  0.17236212897E+03 0.  0.
        -24    2    5    5    0    0 -0.84450750070E+02 -0.34058697171E+02  0.41074306804E+02  0.12801501260E+03  0.80055110594E+02 0.  0.
          5    1    3    3  501    0 -0.24722593361E+02 -0.20399561447E+02  0.66270333319E+02  0.73764461687E+02  0.47000000000E+01 0. -1.
        -13    1    4    4    0    0  0.77113394314E+02  0.20687102703E+01  0.18735493162E+02  0.79383712743E+02  0.00000000000E+00 0.  1.
         14    1    4    4    0    0  0.36796954645E+01  0.38669828535E+02 -0.14569603531E+02  0.41486975603E+02  0.00000000000E+00 0. -1.
         -5    1    5    5    0  503  0.28380253652E+02  0.13719719813E+02 -0.44086675647E+02  0.54400316899E+02  0.47000000000E+01 0.  1.
         13    1    6    6    0    0 -0.66690476597E+02 -0.56783723852E+02  0.14470931047E+02  0.88777355269E+02  0.00000000000E+00 0. -1.
        -14    1    6    6    0    0 -0.17760273473E+02  0.22725026680E+02  0.26603375757E+02  0.39237657335E+02  0.00000000000E+00 0.  1.
</event>
<event>
12    1  0.8798177E-003  0.1750740E+03  0.7818608E-02  0.1173127E+00
         21   -1    0    0  503  502  0.00000000000E+00  0.00000000000E+00  0.34533071703E+02  0.34533071703E+02  0.00000000000E+00 0. -1.
         21   -1    0    0  501  503 -0.00000000000E+00 -0.00000000000E+00 -0.11815022540E+04  0.11815022540E+04  0.00000000000E+00 0. -1.
          6    2    1    2  501    0  0.34232921881E+02  0.85995122931E+01 -0.87928069281E+03  0.89617904386E+03  0.16957740818E+03 0.  0.
         24    2    3    3    0    0  0.20139841130E+02 -0.53320361055E+02 -0.67950284842E+03  0.68649842304E+03  0.79418447005E+02 0.  0.
         -6    2    1    2    0  502 -0.34232921881E+02 -0.85995122931E+01 -0.26768848950E+03  0.31985628185E+03  0.17147906308E+03 0.  0.
        -24    2    5    5    0    0 -0.87861026744E+02 -0.21581916684E+02 -0.18718839576E+03  0.22214818829E+03  0.78262269992E+02 0.  0.
          5    1    3    3  501    0  0.14093080751E+02  0.61919873349E+02 -0.19977784439E+03  0.20968062083E+03  0.47000000000E+01 0. -1.
        -11    1    4    4    0    0 -0.15925009061E+02 -0.42575250869E+02 -0.18260695027E+03  0.18817958494E+03  0.00000000000E+00 0.  1.
         12    1    4    4    0    0  0.36064850191E+02 -0.10745110187E+02 -0.49689589815E+03  0.49831883810E+03  0.00000000000E+00 0. -1.
         -5    1    5    5    0  502  0.53628104863E+02  0.12982404391E+02 -0.80500093741E+02  0.97708093561E+02  0.47000000000E+01 0.  1.
         11    1    6    6    0    0  0.83687069487E+01 -0.54442374087E+01  0.11354314637E+01  0.10048093429E+02  0.00000000000E+00 0. -1.
        -12    1    6    6    0    0 -0.96229733693E+02 -0.16137679275E+02 -0.18832382722E+03  0.21210009486E+03  0.00000000000E+00 0.  1.
</event>
<event>
12    1  0.8798177E-003  0.2136767E+03  0.7818608E-02  0.1138695E+00
         21   -1    0    0  501  502  0.00000000000E+00  0.00000000000E+00  0.12215542038E+03  0.12215542038E+03  0.00000000000E+00 0. -1.
         21   -1    0    0  502  503 -0.00000000000E+00 -0.00000000000E+00 -0.40751053500E+03  0.40751053500E+03  0.00000000000E+00 0.  1.
          6    2    1    2  501    0  0.49622827658E+02 -0.11673668813E+03 -0.66402567781E+02  0.22375662424E+03  0.17195303574E+03 0.  0.
         24    2    3    3    0    0 -0.24038512012E+02 -0.12665311960E+02 -0.42919429020E+02  0.94024623148E+02  0.79122008215E+02 0.  0.
         -6    2    1    2    0  503 -0.49622827658E+02  0.11673668813E+03 -0.21895254683E+03  0.30590933114E+03  0.17190236105E+03 0.  0.
        -24    2    5    5    0    0  0.32928703837E+02  0.90830838414E+02 -0.11444435024E+03  0.17015248396E+03  0.80745388431E+02 0.  0.
          5    1    3    3  501    0  0.73661339670E+02 -0.10407137617E+03 -0.23483138761E+02  0.12973200109E+03  0.47000000000E+01 0. -1.
        -11    1    4    4    0    0 -0.44347216423E+02  0.11982225754E+02 -0.78690647111E+01  0.46606560889E+02  0.00000000000E+00 0.  1.
         12    1    4    4    0    0  0.20308704411E+02 -0.24647537714E+02 -0.35050364309E+02  0.47418062259E+02  0.00000000000E+00 0. -1.
         -5    1    5    5    0  503 -0.82551531495E+02  0.25905849717E+02 -0.10450819659E+03  0.13575684718E+03  0.47000000000E+01 0.  1.
         13    1    6    6    0    0  0.51336114122E+02  0.28517698371E+02 -0.38568370949E+02  0.70257917498E+02  0.00000000000E+00 0. -1.
        -14    1    6    6    0    0 -0.18407410285E+02  0.62313140044E+02 -0.75875979291E+02  0.99894566463E+02  0.00000000000E+00 0.  1.
</event>
<event>
12    1  0.8798177E-003  0.1910456E+03  0.7818608E-02  0.1159900E+00
         21   -1    0    0  503  502  0.00000000000E+00  0.00000000000E+00  0.11754846298E+03  0.11754846298E+03  0.00000000000E+00 0. -1.
         21   -1    0    0  501  503 -0.00000000000E+00 -0.00000000000E+00 -0.29545813785E+03  0.29545813785E+03  0.00000000000E+00 0. -1.
          6    2    1    2  501    0 -0.81366577863E+02 -0.16438699817E+02 -0.10608706359E+03  0.21852437403E+03  0.17206884128E+03 0.  0.
         24    2    3    3    0    0 -0.68011880486E+01 -0.22610515552E+02 -0.11595790366E+03  0.14290948032E+03  0.80121111900E+02 0.  0.
         -6    2    1    2    0  502  0.81366577863E+02  0.16438699817E+02 -0.71822611269E+02  0.19448222680E+03  0.16054313503E+03 0.  0.
        -24    2    5    5    0    0  0.82688677881E+02  0.46068160495E+02 -0.79131852004E+01  0.12386949686E+03  0.79506860659E+02 0.  0.
          5    1    3    3  501    0 -0.74565389815E+02  0.61718157357E+01  0.98708400620E+01  0.75614893713E+02  0.47000000000E+01 0. -1.
        -11    1    4    4    0    0 -0.19716778258E+02 -0.39764686361E+02 -0.11278433788E+03  0.12120350035E+03  0.00000000000E+00 0.  1.
         12    1    4    4    0    0  0.12915590210E+02  0.17154170809E+02 -0.31735657767E+01  0.21705979967E+02  0.00000000000E+00 0. -1.
         -5    1    5    5    0  502 -0.13221000173E+01 -0.29629460678E+02 -0.63909426068E+02  0.70612729935E+02  0.47000000000E+01 0.  1.
         13    1    6    6    0    0  0.93253687363E+02  0.44727001453E+02 -0.22465114871E+02  0.10583683788E+03  0.00000000000E+00 0. -1.
        -14    1    6    6    0    0 -0.10565009482E+02  0.13411590413E+01  0.14551929671E+02  0.18032658985E+02  0.00000000000E+00 0.  1.
</event>
<event>
12    1  0.8798177E-003  0.1836741E+03  0.7818608E-02  0.1164384E+00
         21   -1    0    0  503  502  0.00000000000E+00  0.00000000000E+00  0.18652978385E+03  0.18652978385E+03  0.00000000000E+00 0.  1.
         21   -1    0    0  501  503 -0.00000000000E+00 -0.00000000000E+00 -0.18284466068E+03  0.18284466068E+03  0.00000000000E+00 0.  1.
          6    2    1    2  501    0 -0.38759110258E+02 -0.53275621178E+02 -0.19131686157E+02  0.18466778195E+03  0.17145147370E+03 0.  0.
         24    2    3    3    0    0 -0.54124382714E+02 -0.60419891301E+02  0.41249156894E+02  0.12177844740E+03  0.80922711500E+02 0.  0.
         -6    2    1    2    0  502  0.38759110258E+02  0.53275621178E+02  0.22816809319E+02  0.18470666258E+03  0.17104205323E+03 0.  0.
        -24    2    5    5    0    0  0.27373884943E+02  0.85504124745E+02  0.60014067951E+02  0.13397180427E+03  0.79287269239E+02 0.  0.
          5    1    3    3  501    0  0.15365272456E+02  0.71442701231E+01 -0.60380843051E+02  0.62889334555E+02  0.47000000000E+01 0. -1.
        -11    1    4    4    0    0 -0.24552326284E+02  0.17017899930E+02  0.20799037261E+02  0.36400901019E+02  0.00000000000E+00 0.  1.
         12    1    4    4    0    0 -0.29572056430E+02 -0.77437791231E+02  0.20450119634E+02  0.85377546377E+02  0.00000000000E+00 0. -1.
         -5    1    5    5    0  502  0.11385225315E+02 -0.32228503567E+02 -0.37197258632E+02  0.50734858306E+02  0.47000000000E+01 0.  1.
         11    1    6    6    0    0 -0.16305963860E+02  0.19234938057E+02  0.47284100931E+02  0.53587811117E+02  0.00000000000E+00 0. -1.
        -12    1    6    6    0    0  0.43679848802E+02  0.66269186688E+02  0.12729967019E+02  0.80383993158E+02  0.00000000000E+00 0.  1.
</event>
<event>
12    1  0.8798177E-003  0.2366636E+03  0.7818608E-02  0.1122068E+00
         21   -1    0    0  501  502  0.00000000000E+00  0.00000000000E+00  0.81476686937E+03  0.81476686937E+03  0.00000000000E+00 0. -1.
         21   -1    0    0  502  503 -0.00000000000E+00 -0.00000000000E+00 -0.11567509306E+03  0.11567509306E+03  0.00000000000E+00 0. -1.
          6    2    1    2  501    0  0.89619923564E+02  0.13596892680E+03  0.64612986241E+03  0.68810860812E+03  0.17172762652E+03 0.  0.
         24    2    3    3    0    0  0.10368406211E+03  0.15226150501E+03  0.47154146775E+03  0.51213575326E+03  0.77444969557E+02 0.  0.
         -6    2    1    2    0  503 -0.89619923564E+02 -0.13596892680E+03  0.52961913901E+02  0.24233335431E+03  0.17146781194E+03 0.  0.
        -24    2    5    5    0    0 -0.40747775505E+02 -0.82128628971E+02 -0.36835697069E+02  0.12669181565E+03  0.79299777236E+02 0.  0.
          5    1    3    3  501    0 -0.14064138549E+02 -0.16292578212E+02  0.17458839466E+03  0.17597285486E+03  0.47000000000E+01 0. -1.
        -13    1    4    4    0    0  0.75772692299E+01  0.34423588916E+01 -0.97707537926E-01  0.83231238417E+01  0.00000000000E+00 0.  1.
         14    1    4    4    0    0  0.96106792883E+02  0.14881914612E+03  0.47163917529E+03  0.50381262942E+03  0.00000000000E+00 0. -1.
         -5    1    5    5    0  503 -0.48872148058E+02 -0.53840297832E+02  0.89797610971E+02  0.11564153865E+03  0.47000000000E+01 0.  1.
         13    1    6    6    0    0 -0.15797368646E+02 -0.92314402227E+02 -0.33813739523E+02  0.99573463810E+02  0.00000000000E+00 0. -1.
        -14    1    6    6    0    0 -0.24950406859E+02  0.10185773257E+02 -0.30219575466E+01  0.27118351843E+02  0.00000000000E+00 0.  1.
</event>
<event>
12    1  0.8798177E-003  0.1885173E+03  0.7818608E-02  0.1160007E+00
         21   -1    0    0  503  502  0.00000000000E+00  0.00000000000E+00  0.89019560289E+02  0.89019560289E+02  0.00000000000E+00 0. -1.
         21   -1    0    0  501  503 -0.00000000000E+00 -0.00000000000E+00 -0.77323736818E+03  0.77323736818E+03  0.00000000000E+00 0. -1.
          6    2    1    2  501    0  0.56806451588E+02 -0.54799858346E+02 -0.64311052887E+03  0.67017157751E+03  0.17119811198E+03 0.  0.
         24    2    3    3    0    0  0.64560387449E+02  0.20062035995E+02 -0.27046080784E+03  0.28996856420E+03  0.79763342034E+02 0.  0.
         -6    2    1    2    0  502 -0.56806451588E+02  0.54799858346E+02 -0.41107279026E+02  0.19208535096E+03  0.17022625017E+03 0.  0.
        -24    2    5    5    0    0 -0.10066104949E+03  0.62291560073E+02 -0.26388939798E+02  0.14498895130E+03  0.79451460122E+02 0.  0.
          5    1    3    3  501    0 -0.77539358610E+01 -0.74861894340E+02 -0.37264972103E+03  0.38020301331E+03  0.47000000000E+01 0. -1.
        -11    1    4    4    0    0  0.71019388349E+02 -0.11715809310E+02 -0.19356159379E+03  0.20651175342E+03  0.00000000000E+00 0.  1.
         12    1    4    4    0    0 -0.64590008999E+01  0.31777845304E+02 -0.76899214044E+02  0.83456810779E+02  0.00000000000E+00 0. -1.
         -5    1    5    5    0  502  0.43854597897E+02 -0.74917017269E+01 -0.14718339228E+02  0.47096399662E+02  0.47000000000E+01 0.  1.
         13    1    6    6    0    0 -0.52118153021E+02  0.33464998853E+01  0.19676966562E+02  0.55809353597E+02  0.00000000000E+00 0. -1.
        -14    1    6    6    0    0 -0.48542896465E+02  0.58945060187E+02 -0.46065906361E+02  0.89179597703E+02  0.00000000000E+00 0.  1.
</event>
<event>
12    1  0.8798177E-003  0.2448298E+03  0.7818608E-02  0.1116657E+00
         21   -1    0    0  503  502  0.00000000000E+00  0.00000000000E+00  0.27913150494E+03  0.27913150494E+03  0.00000000000E+00 0. -1.
         21   -1    0    0  501  503 -0.00000000000E+00 -0.00000000000E+00 -0.24031900402E+03  0.24031900402E+03  0.00000000000E+00 0.  1.
          6    2    1    2  501    0  0.53451310542E+02  0.16653093556E+03 -0.65675402130E+02  0.25348545391E+03  0.17132431760E+03 0.  0.
         24    2    3    3    0    0 -0.57646167834E+01  0.12679754402E+03  0.11675737171E+02  0.14817373945E+03  0.75553201429E+02 0.  0.
         -6    2    1    2    0  502 -0.53451310542E+02 -0.16653093556E+03  0.10448790305E+03  0.26596505505E+03  0.17096810676E+03 0.  0.
        -24    2    5    5    0    0  0.30466482550E+02 -0.44266706811E+02  0.52124550292E+02  0.10862863733E+03  0.78711271205E+02 0.  0.
          5    1    3    3  501    0  0.59215927326E+02  0.39733391532E+02 -0.77351139301E+02  0.10531171446E+03  0.47000000000E+01 0. -1.
        -11    1    4    4    0    0  0.24091349166E+02  0.56990475996E+02 -0.21246266233E+02  0.65419502350E+02  0.00000000000E+00 0.  1.
         12    1    4    4    0    0 -0.29855965949E+02  0.69807068027E+02  0.32922003404E+02  0.82754237097E+02  0.00000000000E+00 0. -1.
         -5    1    5    5    0  502 -0.83917793093E+02 -0.12226422874E+03  0.52363352760E+02  0.15733641772E+03  0.47000000000E+01 0.  1.
         11    1    6    6    0    0 -0.16157460623E+02 -0.38218592936E+02  0.45492444078E+01  0.41742304734E+02  0.00000000000E+00 0. -1.
        -12    1    6    6    0    0  0.46623943173E+02 -0.60481138744E+01  0.47575305884E+02  0.66886332598E+02  0.00000000000E+00 0.  1.
</event>
<event>
12    1  0.8798177E-003  0.3326602E+03  0.7818608E-02  0.1070058E+00
         21   -1    0    0  501  502  0.00000000000E+00  0.00000000000E+00  0.62638968092E+03  0.62638968092E+03  0.00000000000E+00 0. -1.
         21   -1    0    0  502  503 -0.00000000000E+00 -0.00000000000E+00 -0.18574398050E+03  0.18574398050E+03  0.00000000000E+00 0.  1.
          6    2    1    2  501    0 -0.14732059365E+03  0.24341904708E+03  0.31200422015E+03  0.45546657685E+03  0.17072486475E+03 0.  0.
         24    2    3    3    0    0 -0.45477321638E+02  0.15233014291E+03  0.10054792446E+03  0.20366289240E+03  0.78077073487E+02 0.  0.
         -6    2    1    2    0  503  0.14732059365E+03 -0.24341904708E+03  0.12864148027E+03  0.35666708457E+03  0.17235599490E+03 0.  0.
        -24    2    5    5    0    0  0.36034821800E+02 -0.81018223176E+02 -0.64013939684E+01  0.11788429938E+03  0.77416208431E+02 0.  0.
          5    1    3    3  501    0 -0.10184327201E+03  0.91088904163E+02  0.21145629569E+03  0.25180368445E+03  0.47000000000E+01 0. -1.
        -11    1    4    4    0    0 -0.51235333692E+02  0.11034469450E+03  0.36780293424E+02  0.12709760425E+03  0.00000000000E+00 0.  1.
         12    1    4    4    0    0  0.57580120546E+01  0.41985448417E+02  0.63767631032E+02  0.76565288147E+02  0.00000000000E+00 0. -1.
         -5    1    5    5    0  503  0.11128577185E+03 -0.16240082390E+03  0.13504287423E+03  0.23878278518E+03  0.47000000000E+01 0.  1.
         13    1    6    6    0    0  0.14471203233E+02  0.13887068689E+02 -0.44306197450E+01  0.20540126366E+02  0.00000000000E+00 0. -1.
        -14    1    6    6    0    0  0.21563618567E+02 -0.94905291865E+02 -0.19707742234E+01  0.97344173019E+02  0.00000000000E+00 0.  1.
</event>
<event>
12    1  0.8798177E-003  0.2356412E+03  0.7818608E-02  0.1123167E+00
         21   -1    0    0  503  502  0.00000000000E+00  0.00000000000E+00  0.21095354791E+03  0.21095354791E+03  0.00000000000E+00 0. -1.
         21   -1    0    0  501  503 -0.00000000000E+00 -0.00000000000E+00 -0.26073087532E+03  0.26073087532E+03  0.00000000000E+00 0. -1.
          6    2    1    2  501    0  0.13739058504E+03 -0.75705672046E+02 -0.16195340537E+02  0.23366226842E+03  0.17241880696E+03 0.  0.
         24    2    3    3    0    0  0.90082215215E+02 -0.27894188572E+02 -0.75703600711E+02  0.14373261349E+03  0.77686149125E+02 0.  0.
         -6    2    1    2    0  502 -0.13739058504E+03  0.75705672046E+02 -0.33581986868E+02  0.23802215481E+03  0.17583877473E+03 0.  0.
        -24    2    5    5    0    0 -0.16832947108E+03  0.59488305465E+02 -0.46699182190E+02  0.20041406443E+03  0.78174895464E+02 0.  0.
          5    1    3    3  501    0  0.47308369821E+02 -0.47811483474E+02  0.59508260174E+02  0.89929654931E+02  0.47000000000E+01 0. -1.
        -11    1    4    4    0    0  0.81073760337E+01  0.23770962154E+02 -0.12603148601E+02  0.28100312143E+02  0.00000000000E+00 0.  1.
         12    1    4    4    0    0  0.81974839182E+02 -0.51665150726E+02 -0.63100452110E+02  0.11563230135E+03  0.00000000000E+00 0. -1.
         -5    1    5    5    0  502  0.30938886048E+02  0.16217366580E+02  0.13117195322E+02  0.37608090377E+02  0.47000000000E+01 0.  1.
         11    1    6    6    0    0 -0.95079131962E+02  0.47278510686E+02 -0.64246013671E+02  0.12410821560E+03  0.00000000000E+00 0. -1.
        -12    1    6    6    0    0 -0.73250339123E+02  0.12209794779E+02  0.17546831481E+02  0.76305848827E+02  0.00000000000E+00 0.  1.
</event>
<event>
12    1  0.8798177E-003  0.3174350E+03  0.7818608E-02  0.1076866E+00
         21   -1    0    0  501  502  0.00000000000E+00  0.00000000000E+00  0.13038644816E+03  0.13038644816E+03  0.00000000000E+00 0. -1.
         21   -1    0    0  502  503 -0.00000000000E+00 -0.00000000000E+00 -0.77220477409E+03  0.77220477409E+03  0.00000000000E+00 0.  1.
          6    2    1    2  501    0  0.79121619210E+02  0.25532381958E+03 -0.32330079312E+03  0.45308764254E+03  0.17121485190E+03 0.  0.
         24    2    3    3    0    0  0.18829027348E+02  0.46552399341E+02 -0.14079134375E+03  0.16926993404E+03  0.79425751123E+02 0.  0.
         -6    2    1    2    0  503 -0.79121619210E+02 -0.25532381958E+03 -0.31851753281E+03  0.44950357972E+03  0.17073243981E+03 0.  0.
        -24    2    5    5    0    0 -0.11015417656E+03 -0.25206825813E+03 -0.28801384131E+03  0.40561527272E+03  0.76807729513E+02 0.  0.
          5    1    3    3  501    0  0.60292591862E+02  0.20877142024E+03 -0.18250944938E+03  0.28381770849E+03  0.47000000000E+01 0. -1.
        -13    1    4    4    0    0  0.49926349686E+02  0.23255997618E+02 -0.84847128213E+02  0.10115590435E+03  0.00000000000E+00 0.  1.
         14    1    4    4    0    0 -0.31097322337E+02  0.23296401723E+02 -0.55944215532E+02  0.68114029695E+02  0.00000000000E+00 0. -1.
         -5    1    5    5    0  503  0.31032557348E+02 -0.32555614564E+01 -0.30503691500E+02  0.43888306997E+02  0.47000000000E+01 0.  1.
         11    1    6    6    0    0 -0.96350477838E+02 -0.20478330202E+03 -0.18834140758E+03  0.29443522407E+03  0.00000000000E+00 0. -1.
        -12    1    6    6    0    0 -0.13803698720E+02 -0.47284956110E+02 -0.99672433733E+02  0.11118004865E+03  0.00000000000E+00 0.  1.
</event>
<event>
12    1  0.8798177E-003  0.1952347E+03  0.7818608E-02  0.1153883E+00
         21   -1    0    0  503  502  0.00000000000E+00  0.00000000000E+00  0.49478782309E+02  0.49478782309E+02  0.00000000000E+00 0.  1.
         21   -1    0    0  501  503 -0.00000000000E+00 -0.00000000000E+00 -0.79035011776E+03  0.79035011776E+03  0.00000000000E+00 0.  1.
          6    2    1    2  501    0 -0.46831250248E+02  0.81101258057E+02 -0.43925687817E+03  0.48069032078E+03  0.17130674070E+03 0.  0.
         24    2    3    3    0    0 -0.25528992397E+02  0.10378533165E+03 -0.20454634357E+03  0.24387926014E+03  0.78833763983E+02 0.  0.
         -6    2    1    2    0  502  0.46831250248E+02 -0.81101258057E+02 -0.30161445727E+03  0.35913857928E+03  0.17099315260E+03 0.  0.
        -24    2    5    5    0    0 -0.62555618804E+01 -0.25410959179E+02 -0.51160568919E+02  0.97091142353E+02  0.78258783599E+02 0.  0.
          5    1    3    3  501    0 -0.21302257851E+02 -0.22684073590E+02 -0.23471053461E+03  0.23681106064E+03  0.47000000000E+01 0. -1.
        -13    1    4    4    0    0 -0.50461835452E+02  0.60367302624E+02 -0.94417545807E+02  0.12290354356E+03  0.00000000000E+00 0.  1.
         14    1    4    4    0    0  0.24932843055E+02  0.43418029023E+02 -0.11012879776E+03  0.12097571658E+03  0.00000000000E+00 0. -1.
         -5    1    5    5    0  502  0.53086812128E+02 -0.55690298878E+02 -0.25045388835E+03  0.26204743693E+03  0.47000000000E+01 0.  1.
         13    1    6    6    0    0  0.23872550818E+02  0.17268455574E+02 -0.25121394657E+02  0.38719280856E+02  0.00000000000E+00 0. -1.
        -14    1    6    6    0    0 -0.30128112698E+02 -0.42679414753E+02 -0.26039174262E+02  0.58371861497E+02  0.00000000000E+00 0.  1.
</event>
<event>
12    1  0.8798177E-003  0.1792868E+03  0.7818608E-02  0.1168695E+00
         21   -1    0    0  503  502  0.00000000000E+00  0.00000000000E+00  0.70428112899E+03  0.70428112899E+03  0.00000000000E+00 0. -1.
         21   -1    0    0  501  503 -0.00000000000E+00 -0.00000000000E+00 -0.50827939044E+02  0.50827939044E+02  0.00000000000E+00 0. -1.
          6    2    1    2  501    0  0.51204848028E+02  0.13148568222E+01  0.20304366355E+03  0.27032820075E+03  0.17095888834E+03 0.  0.
         24    2    3    3    0    0  0.51569553023E+02  0.39254099450E+02  0.20605041576E+03  0.23197914992E+03  0.84600526249E+02 0.  0.
         -6    2    1    2    0  502 -0.51204848028E+02 -0.13148568222E+01  0.45040952639E+03  0.48478086729E+03  0.17181409287E+03 0.  0.
        -24    2    5    5    0    0 -0.52518482371E+02 -0.44622954788E+02  0.16264133882E+03  0.19373115201E+03  0.79562271712E+02 0.  0.
          5    1    3    3  501    0 -0.36470499452E+00 -0.37939242628E+02 -0.30067522009E+01  0.38349050832E+02  0.47000000000E+01 0. -1.
        -11    1    4    4    0    0 -0.11277342830E+02  0.27896379392E+02  0.12616250352E+03  0.12970105527E+03  0.00000000000E+00 0.  1.
         12    1    4    4    0    0  0.62846895853E+02  0.11357720058E+02  0.79887912239E+02  0.10227809465E+03  0.00000000000E+00 0. -1.
         -5    1    5    5    0  502  0.13136343431E+01  0.43308097966E+02  0.28776818757E+03  0.29104971528E+03  0.47000000000E+01 0.  1.
         13    1    6    6    0    0 -0.51120450026E+02 -0.55966969826E+01  0.13869619388E+03  0.14792314769E+03  0.00000000000E+00 0. -1.
        -14    1    6    6    0    0 -0.13980323456E+01 -0.39026257805E+02  0.23945144944E+02  0.45808004313E+02  0.00000000000E+00 0.  1.
</event>
<event>
12    1  0.8798177E-003  0.2112647E+03  0.7818608E-02  0.1140601E+00
         21   -1    0    0  503  502  0.00000000000E+00  0.00000000000E+00  0.11014485763E+03  0.11014485763E+03  0.00000000000E+00 0.  1.
         21   -1    0    0  501  503 -0.00000000000E+00 -0.00000000000E+00 -0.42490314313E+03  0.42490314313E+03  0.00000000000E+00 0.  1.
          6    2    1    2  501    0 -0.12057281111E+03  0.22750253253E+02 -0.99282521680E+02  0.23328226216E+03  0.17177956201E+03 0.  0.
         24    2    3    3    0    0 -0.65939777806E+02  0.26361167380E+02  0.12933841883E+02  0.10833263519E+03  0.80781867634E+02 0.  0.
         -6    2    1    2    0  502  0.12057281111E+03 -0.22750253253E+02 -0.21547576381E+03  0.30176573860E+03  0.17198075299E+03 0.  0.
        -24    2    5    5    0    0  0.33543602628E+02 -0.67610677695E+02 -0.77091261828E+02  0.13218124285E+03  0.76370421591E+02 0.  0.
          5    1    3    3  501    0 -0.54633033308E+02 -0.36109141261E+01 -0.11221636356E+03  0.12494962697E+03  0.47000000000E+01 0. -1.
        -13    1    4    4    0    0 -0.72639931946E+02  0.39442305486E+02  0.28013476784E+02  0.87275483710E+02  0.00000000000E+00 0.  1.
         14    1    4    4    0    0  0.67001541404E+01 -0.13081138107E+02 -0.15079634901E+02  0.21057151479E+02  0.00000000000E+00 0. -1.
         -5    1    5    5    0  502  0.87029208485E+02  0.44860424442E+02 -0.13838450199E+03  0.16958449576E+03  0.47000000000E+01 0.  1.
         11    1    6    6    0    0  0.30869971698E+02 -0.35023852984E+02  0.18641002930E+01  0.46723658894E+02  0.00000000000E+00 0. -1.
        -12    1    6    6    0    0  0.26736309304E+01 -0.32586824711E+02 -0.78955362122E+02  0.85457583952E+02  0.00000000000E+00 0.  1.
</event>
<event>
12    1  0.8798177E-003  0.2228080E+03  0.7818608E-02  0.1132224E+00
         21   -1    0    0  503  502  0.00000000000E+00  0.00000000000E+00  0.11677370556E+04  0.11677370556E+04  0.00000000000E+00 0. -1.
         21   -1    0    0  501  503 -0.00000000000E+00 -0.00000000000E+00 -0.42082361569E+02  0.42082361569E+02  0.00000000000E+00 0.  1.
          6    2    1    2  501    0 -0.13398134917E+03 -0.17078669450E+02  0.56260394212E+03  0.60511703080E+03  0.17720254626E+03 0.  0.
         24    2    3    3    0    0 -0.14353701824E+03 -0.15108627867E+02  0.29976865809E+03  0.34205873230E+03  0.79446722600E+02 0.  0.
         -6    2    1    2    0  502  0.13398134917E+03  0.17078669450E+02  0.56305075192E+03  0.60470238637E+03  0.17434489949E+03 0.  0.
        -24    2    5    5    0    0  0.34508434426E+02  0.61621448446E+02  0.34305928051E+03  0.35914738761E+03  0.79430102132E+02 0.  0.
          5    1    3    3  501    0  0.95556690708E+01 -0.19700415838E+01  0.26283528403E+03  0.26305829850E+03  0.47000000000E+01 0. -1.
        -11    1    4    4    0    0 -0.48708083234E+02 -0.15475704991E+02  0.38127878099E+02  0.63762919519E+02  0.00000000000E+00 0.  1.
         12    1    4    4    0    0 -0.94828935009E+02  0.36707712466E+00  0.26164077999E+03  0.27829581278E+03  0.00000000000E+00 0. -1.
         -5    1    5    5    0  502  0.99472914747E+02 -0.44542778996E+02  0.21999147141E+03  0.24555499877E+03  0.47000000000E+01 0.  1.
         11    1    6    6    0    0 -0.17256673727E+02  0.88581430187E+01  0.20480550394E+02  0.28208375180E+02  0.00000000000E+00 0. -1.
        -12    1    6    6    0    0  0.51765108153E+02  0.52763305427E+02  0.32257873012E+03  0.33093901243E+03  0.00000000000E+00 0.  1.
</event>
<event>
12    1  0.8798177E-003  0.1948865E+03  0.7818608E-02  0.1157257E+00
         21   -1    0    0  503  502  0.00000000000E+00  0.00000000000E+00  0.28153753264E+03  0.28153753264E+03  0.00000000000E+00 0.  1.
         21   -1    0    0  501  503 -0.00000000000E+00 -0.00000000000E+00 -0.12899668487E+03  0.12899668487E+03  0.00000000000E+00 0.  1.
          6    2    1    2  501    0  0.21446522304E+02 -0.85212960580E+02  0.39886172109E+02  0.18543014709E+03  0.15834213196E+03 0.  0.
         24    2    3    3    0    0  0.66452058682E+02 -0.43561557987E+02 -0.47151255945E+01  0.10945841945E+03  0.75136061533E+02 0.  0.
         -6    2    1    2    0  502 -0.21446522304E+02  0.85212960580E+02  0.11265467567E+03  0.22510407042E+03  0.17395276543E+03 0.  0.
        -24    2    5    5    0    0  0.14389547146E+02  0.76584892229E+02  0.13697706043E+03  0.18069308262E+03  0.88402320326E+02 0.  0.
          5    1    3    3  501    0 -0.45005536377E+02 -0.41651402593E+02  0.44601297704E+02  0.75971727632E+02  0.47000000000E+01 0. -1.
        -13    1    4    4    0    0  0.39948298613E+02  0.11902308796E+02  0.15913986909E+02  0.44618230535E+02  0.00000000000E+00 0.  1.
         14    1    4    4    0    0  0.26503760069E+02 -0.55463866784E+02 -0.20629112504E+02  0.64840188919E+02  0.00000000000E+00 0. -1.
         -5    1    5    5    0  502 -0.35836069451E+02  0.86280683507E+01 -0.24322384759E+02  0.44410987802E+02  0.47000000000E+01 0.  1.
         11    1    6    6    0    0  0.13496230877E+02 -0.16584549455E+02  0.44736284051E+02  0.49583572271E+02  0.00000000000E+00 0. -1.
        -12    1    6    6    0    0  0.89331626969E+00  0.93169441684E+02  0.92240776375E+02  0.13110951035E+03  0.00000000000E+00 0.  1.
</event>
<event>
12    1  0.8798177E-003  0.1833993E+03  0.7818608E-02  0.1164834E+00
         21   -1    0    0  503  502  0.00000000000E+00  0.00000000000E+00  0.11423332379E+03  0.11423332379E+03  0.00000000000E+00 0. -1.
         21   -1    0    0  501  503 -0.00000000000E+00 -0.00000000000E+00 -0.37479858132E+03  0.37479858132E+03  0.00000000000E+00 0. -1.
          6    2    1    2  501    0  0.72952148122E+01  0.63402067931E+02 -0.24450042871E+03  0.30493036391E+03  0.17067227315E+03 0.  0.
         24    2    3    3    0    0 -0.16916575706E+02  0.86346181246E+02 -0.24367520070E+03  0.27123445708E+03  0.80303759087E+02 0.  0.
         -6    2    1    2    0  502 -0.72952148122E+01 -0.63402067931E+02 -0.16064828821E+02  0.18410154120E+03  0.17193678015E+03 0.  0.
        -24    2    5    5    0    0  0.46802435097E+01 -0.10114031140E+03  0.18855233947E+02  0.13110071662E+03  0.81120963890E+02 0.  0.
          5    1    3    3  501    0  0.24211790518E+02 -0.22944113315E+02 -0.82522800856E+00  0.33695906831E+02  0.47000000000E+01 0. -1.
        -11    1    4    4    0    0  0.26580871172E+02  0.57340348629E+01 -0.47625389241E+02  0.54841586122E+02  0.00000000000E+00 0.  1.
         12    1    4    4    0    0 -0.43497446878E+02  0.80612146383E+02 -0.19604981146E+03  0.21639287096E+03  0.00000000000E+00 0. -1.
         -5    1    5    5    0  502 -0.11975458322E+02  0.37738243467E+02 -0.34920062768E+02  0.53000824575E+02  0.47000000000E+01 0.  1.
         13    1    6    6    0    0  0.27625243906E+02 -0.29290044439E+02  0.35708256361E+02  0.53815800435E+02  0.00000000000E+00 0. -1.
        -14    1    6    6    0    0 -0.22945000397E+02 -0.71850266960E+02 -0.16853022415E+02  0.77284916186E+02  0.00000000000E+00 0.  1.
</event>
<event>
12    1  0.8798177E-003  0.1863735E+03  0.7818608E-02  0.1161866E+00
         21   -1    0    0  503  502  0.00000000000E+00  0.00000000000E+00  0.95319435427E+02  0.95319435427E+02  0.00000000000E+00 0.  1.
         21   -1    0    0  501  503 -0.00000000000E+00 -0.00000000000E+00 -0.68370999156E+03  0.68370999156E+03  0.00000000000E+00 0.  1.
          6    2    1    2  501    0  0.62997642957E+01 -0.71714440735E+02 -0.56087478198E+03  0.59102928069E+03  0.17190823577E+03 0.  0.
         24    2    3    3    0    0  0.20368504092E+02 -0.11224574839E+03 -0.47332392208E+03  0.49341801388E+03  0.80073823505E+02 0.  0.
         -6    2    1    2    0  502 -0.62997642957E+01  0.71714440735E+02 -0.27515774153E+02  0.18800014630E+03  0.17147678893E+03 0.  0.
        -24    2    5    5    0    0 -0.27268566775E+02  0.10377560243E+03  0.96603100461E+01  0.13441134147E+03  0.80374975781E+02 0.  0.
          5    1    3    3  501    0 -0.14068739796E+02  0.40531307652E+02 -0.87550859900E+02  0.97611266812E+02  0.47000000000E+01 0. -1.
        -13    1    4    4    0    0  0.47127598868E+01 -0.49906556493E+01 -0.18914234014E+03  0.18926685284E+03  0.00000000000E+00 0.  1.
         14    1    4    4    0    0  0.15655744205E+02 -0.10725509274E+03 -0.28418158195E+03  0.30415116104E+03  0.00000000000E+00 0. -1.
         -5    1    5    5    0  502  0.20968802479E+02 -0.32061161698E+02 -0.37176084199E+02  0.53588804831E+02  0.47000000000E+01 0.  1.
         11    1    6    6    0    0 -0.45455892728E+02  0.25113004948E+02 -0.56385397107E+01  0.52236905836E+02  0.00000000000E+00 0. -1.
        -12    1    6    6    0    0  0.18187325952E+02  0.78662597484E+02  0.15298849757E+02  0.82174435636E+02  0.00000000000E+00 0.  1.
</event>
<event>
12    1  0.8798177E-003  0.2374339E+03  0.7818608E-02  0.1121580E+00
         21   -1    0    0  503  502  0.00000000000E+00  0.00000000000E+00  0.41670403184E+03  0.41670403184E+03  0.00000000000E+00 0.  1.
         21   -1    0    0  501  503 -0.00000000000E+00 -0.00000000000E+00 -0.13923752563E+03  0.13923752563E+03  0.00000000000E+00 0. -1.
          6    2    1    2  501    0  0.24252756215E+02  0.16078094691E+03  0.90724515699E+02  0.25417673284E+03  0.17302070597E+03 0.  0.
         24    2    3    3    0    0  0.45051519462E+02  0.10216342661E+03  0.12279144446E+03  0.18404129131E+03  0.79539002585E+02 0.  0.
         -6    2    1    2    0  502 -0.24252756215E+02 -0.16078094691E+03  0.18674199051E+03  0.30176482463E+03  0.17248399720E+03 0.  0.
        -24    2    5    5    0    0 -0.58595961167E+02 -0.14512940606E+03  0.89477240260E+02  0.19732848949E+03  0.80226710448E+02 0.  0.
          5    1    3    3  501    0 -0.20798763247E+02  0.58617520299E+02 -0.32066928760E+02  0.70135441531E+02  0.47000000000E+01 0. -1.
        -13    1    4    4    0    0  0.40225277074E+02  0.15624949164E+02  0.14912142380E+02  0.45657244139E+02  0.00000000000E+00 0.  1.
         14    1    4    4    0    0  0.48262423882E+01  0.86538477448E+02  0.10787930208E+03  0.13838404717E+03  0.00000000000E+00 0. -1.
         -5    1    5    5    0  502  0.34343204951E+02 -0.15651540849E+02  0.97264750250E+02  0.10443633515E+03  0.47000000000E+01 0.  1.
         11    1    6    6    0    0 -0.51153420509E+02 -0.12588261975E+03  0.36830661837E+02  0.14078211547E+03  0.00000000000E+00 0. -1.
        -12    1    6    6    0    0 -0.74425406578E+01 -0.19246786313E+02  0.52646578423E+02  0.56546374017E+02  0.00000000000E+00 0.  1.
</event>
<event>
12    1  0.8798177E-003  0.2395879E+03  0.7818608E-02  0.1120359E+00
         21   -1    0    0  501  502  0.00000000000E+00  0.00000000000E+00  0.13299571105E+04  0.13299571105E+04  0.00000000000E+00 0. -1.
         21   -1    0    0  502  503 -0.00000000000E+00 -0.00000000000E+00 -0.61168695104E+02  0.61168695104E+02  0.00000000000E+00 0.  1.
          6    2    1    2  501    0 -0.16468962369E+03 -0.24028958034E+02  0.10134339598E+04  0.10409711949E+04  0.16991931890E+03 0.  0.
         24    2    3    3    0    0 -0.13107236085E+03 -0.16103386401E+02  0.43187019074E+03  0.45836374350E+03  0.78397556539E+02 0.  0.
         -6    2    1    2    0  503  0.16468962369E+03  0.24028958034E+02  0.25535445566E+03  0.35015461068E+03  0.17234352434E+03 0.  0.
        -24    2    5    5    0    0  0.19142467300E+02  0.37738526138E+02  0.87147877462E+02  0.12724774686E+03  0.82502158302E+02 0.  0.
          5    1    3    3  501    0 -0.33617262844E+02 -0.79255716333E+01  0.58156376901E+03  0.58260745144E+03  0.47000000000E+01 0. -1.
        -11    1    4    4    0    0 -0.67360604815E+02 -0.41865161442E+02  0.16941702980E+03  0.18706221641E+03  0.00000000000E+00 0.  1.
         12    1    4    4    0    0 -0.63711756034E+02  0.25761775041E+02  0.26245316095E+03  0.27130152709E+03  0.00000000000E+00 0. -1.
         -5    1    5    5    0  503  0.14554715639E+03 -0.13709568104E+02  0.16820657820E+03  0.22290686383E+03  0.47000000000E+01 0.  1.
         13    1    6    6    0    0  0.76521084203E+01  0.44783539715E+02  0.69930456815E+01  0.45967628616E+02  0.00000000000E+00 0. -1.
        -14    1    6    6    0    0  0.11490358880E+02 -0.70450135764E+01  0.80154831781E+02  0.81280118241E+02  0.00000000000E+00 0.  1.
</event>
<event>
12    1  0.8798177E-003  0.2110604E+03  0.7818608E-02  0.1140766E+00
         21   -1    0    0  503  502  0.00000000000E+00  0.00000000000E+00  0.16644767240E+03  0.16644767240E+03  0.00000000000E+00 0.  1.
         21   -1    0    0  501  503 -0.00000000000E+00 -0.00000000000E+00 -0.26897334102E+03  0.26897334102E+03  0.00000000000E+00 0.  1.
          6    2    1    2  501    0 -0.10674774185E+03  0.63022232136E+02 -0.67916309192E+02  0.22154180439E+03  0.17059092562E+03 0.  0.
         24    2    3    3    0    0 -0.42108398230E+02 -0.16417059267E+02  0.99638559205E+01  0.92792995151E+02  0.80427759435E+02 0.  0.
         -6    2    1    2    0  502  0.10674774185E+03 -0.63022232136E+02 -0.34609359428E+02  0.21387920902E+03  0.17082045006E+03 0.  0.
        -24    2    5    5    0    0  0.99417261499E+02 -0.43785685389E+02  0.36799993893E+02  0.13941333486E+03  0.79251878579E+02 0.  0.
          5    1    3    3  501    0 -0.64639343620E+02  0.79439291403E+02 -0.77880165113E+02  0.12874880924E+03  0.47000000000E+01 0. -1.
        -11    1    4    4    0    0 -0.51276518155E+02  0.90071117563E+01 -0.16851167512E+02  0.54720848155E+02  0.00000000000E+00 0.  1.
         12    1    4    4    0    0  0.91681199252E+01 -0.25424171024E+02  0.26815023432E+02  0.38072146996E+02  0.00000000000E+00 0. -1.
         -5    1    5    5    0  502  0.73304803513E+01 -0.19236546748E+02 -0.71409353321E+02  0.74465874162E+02  0.47000000000E+01 0.  1.
         11    1    6    6    0    0  0.48377754472E+02 -0.50261924238E+02  0.50559505407E+02  0.86156437617E+02  0.00000000000E+00 0. -1.
        -12    1    6    6    0    0  0.51039507027E+02  0.64762388491E+01 -0.13759511515E+02  0.53256897247E+02  0.00000000000E+00 0.  1.
</event>
<event>
12    1  0.8798177E-003  0.1951845E+03  0.7818608E-02  0.1153993E+00
         21   -1    0    0  501  502  0.00000000000E+00  0.00000000000E+00  0.71562457106E+03  0.71562457106E+03  0.00000000000E+00 0.  1.
         21   -1    0    0  502  503 -0.00000000000E+00 -0.00000000000E+00 -0.53729570976E+02  0.53729570976E+02  0.00000000000E+00 0.  1.
          6    2    1    2  501    0  0.90284402416E+02 -0.10465575802E+02  0.28810008024E+03  0.34766748893E+03  0.17207621865E+03 0.  0.
         24    2    3    3    0    0  0.96906748453E+02  0.54527324412E+01  0.10382235880E+03  0.16252533646E+03  0.78833702284E+02 0.  0.
         -6    2    1    2    0  503 -0.90284402416E+02  0.10465575802E+02  0.37379491985E+03  0.42168665311E+03  0.17273155390E+03 0.  0.
        -24    2    5    5    0    0 -0.34542367658E+02  0.56985440951E+02  0.12337577078E+03  0.16091258900E+03  0.78935193923E+02 0.  0.
          5    1    3    3  501    0 -0.66223460368E+01 -0.15918308243E+02  0.18427772143E+03  0.18514215247E+03  0.47000000000E+01 0. -1.
        -13    1    4    4    0    0  0.16622613197E+02 -0.25764325521E+02  0.43966013861E+01  0.30974858237E+02  0.00000000000E+00 0.  1.
         14    1    4    4    0    0  0.80284135255E+02  0.31217057962E+02  0.99425757418E+02  0.13155047822E+03  0.00000000000E+00 0. -1.
         -5    1    5    5    0  503 -0.55742034758E+02 -0.46519865148E+02  0.25041914907E+03  0.26077406411E+03  0.47000000000E+01 0.  1.
         13    1    6    6    0    0 -0.15311808471E+02 -0.14300577814E+02  0.52319535594E+01  0.21594706354E+02  0.00000000000E+00 0. -1.
        -14    1    6    6    0    0 -0.19230559187E+02  0.71286018764E+02  0.11814381722E+03  0.13931788264E+03  0.00000000000E+00 0.  1.
</event>
<event>
12    1  0.8798177E-003  0.2120978E+03  0.7818608E-02  0.1140192E+00
         21   -1    0    0  501  502  0.00000000000E+00  0.00000000000E+00  0.34714861444E+03  0.34714861444E+03  0.00000000000E+00 0. -1.
         21   -1    0    0  502  503 -0.00000000000E+00 -0.00000000000E+00 -0.15771163981E+03  0.15771163981E+03  0.00000000000E+00 0. -1.
          6    2    1    2  501    0 -0.12303518948E+03  0.34749094346E+01 -0.13760434944E+02  0.21113475048E+03  0.17099356843E+03 0.  0.
         24    2    3    3    0    0 -0.15178775624E+03  0.18580141624E+02  0.76587898723E+01  0.17194608725E+03  0.78243563626E+02 0.  0.
         -6    2    1    2    0  503  0.12303518948E+03 -0.34749094346E+01  0.20319740957E+03  0.29372550376E+03  0.17273028529E+03 0.  0.
        -24    2    5    5    0    0 -0.27109145567E+02  0.16826329154E+02  0.75021493636E+02  0.95214503913E+02  0.49188882095E+02 0.  0.
          5    1    3    3  501    0  0.28752566759E+02 -0.15105232190E+02 -0.21419224816E+02  0.39188663239E+02  0.47000000000E+01 0. -1.
        -11    1    4    4    0    0 -0.20722100124E+01  0.20638336708E+02  0.79573833854E+01  0.22216096569E+02  0.00000000000E+00 0.  1.
         12    1    4    4    0    0 -0.14971554623E+03 -0.20581950837E+01 -0.29859351314E+00  0.14972999068E+03  0.00000000000E+00 0. -1.
         -5    1    5    5    0  503  0.15014433505E+03 -0.20301238589E+02  0.12817591594E+03  0.19851099985E+03  0.47000000000E+01 0.  1.
         13    1    6    6    0    0  0.70567203797E+00 -0.15719867117E+02  0.22451953015E+02  0.27417191493E+02  0.00000000000E+00 0. -1.
        -14    1    6    6    0    0 -0.27814817605E+02  0.32546196271E+02  0.52569540622E+02  0.67797312419E+02  0.00000000000E+00 0.  1.
</event>
<event>
12    1  0.8798177E-003  0.1983368E+03  0.7818608E-02  0.1151313E+00
         21   -1    0    0  503  502  0.00000000000E+00  0.00000000000E+00  0.51514830093E+03  0.51514830093E+03  0.00000000000E+00 0.  1.
         21   -1    0    0  501  503 -0.00000000000E+00 -0.00000000000E+00 -0.84294703260E+02  0.84294703260E+02  0.00000000000E+00 0.  1.
          6    2    1    2  501    0  0.95723245476E+02  0.15691879188E+02  0.30944008920E+03  0.36754679142E+03  0.17299797769E+03 0.  0.
         24    2    3    3    0    0  0.82347533190E+02  0.35410975602E+02  0.31878071298E+03  0.34152584418E+03  0.83568569831E+02 0.  0.
         -6    2    1    2    0  502 -0.95723245476E+02 -0.15691879188E+02  0.12141350847E+03  0.23189621276E+03  0.17212041907E+03 0.  0.
        -24    2    5    5    0    0 -0.39814244615E+02 -0.54934126615E+02  0.12557772484E+03  0.16330174463E+03  0.79339539207E+02 0.  0.
          5    1    3    3  501    0  0.13375712286E+02 -0.19719096415E+02 -0.93406237782E+01  0.26020947237E+02  0.47000000000E+01 0. -1.
        -11    1    4    4    0    0  0.51881129649E+02 -0.58744539072E+01  0.25177130983E+03  0.25712828175E+03  0.00000000000E+00 0.  1.
         12    1    4    4    0    0  0.30466403541E+02  0.41285429510E+02  0.67009403146E+02  0.84397562432E+02  0.00000000000E+00 0. -1.
         -5    1    5    5    0  502 -0.55909000862E+02  0.39242247427E+02 -0.41642163771E+01  0.68594468133E+02  0.47000000000E+01 0.  1.
         13    1    6    6    0    0 -0.10882963424E+02 -0.24031056830E+02  0.11722068152E+03  0.12015248129E+03  0.00000000000E+00 0. -1.
        -14    1    6    6    0    0 -0.28931281190E+02 -0.30903069785E+02  0.83570433240E+01  0.43149263337E+02  0.00000000000E+00 0.  1.
</event>
<event>
12    1  0.8798177E-003  0.1999198E+03  0.7818608E-02  0.1151718E+00
         21   -1    0    0  501  502  0.00000000000E+00  0.00000000000E+00  0.73611621847E+03  0.73611621847E+03  0.00000000000E+00 0.  1.
         21   -1    0    0  502  503 -0.00000000000E+00 -0.00000000000E+00 -0.66060559733E+02  0.66060559733E+02  0.00000000000E+00 0.  1.
          6    2    1    2  501    0  0.31411238621E+02  0.75881470879E+02  0.51459381315E+03  0.54892527255E+03  0.17253260208E+03 0.  0.
         24    2    3    3    0    0 -0.37978122018E+02  0.20852217428E+01  0.23004973079E+03  0.24685211161E+03  0.81033329361E+02 0.  0.
         -6    2    1    2    0  503 -0.31411238621E+02 -0.75881470879E+02  0.15546184559E+03  0.25325150565E+03  0.18227253262E+03 0.  0.
        -24    2    5    5    0    0 -0.25997121167E+01  0.19569416580E+02  0.21712378046E+02  0.86362362672E+02  0.81223825061E+02 0.  0.
          5    1    3    3  501    0  0.69389360639E+02  0.73796249136E+02  0.28454408236E+03  0.30207316094E+03  0.47000000000E+01 0. -1.
        -11    1    4    4    0    0 -0.34586527924E+02  0.21107092552E+02  0.22241658225E+03  0.22607714022E+03  0.00000000000E+00 0.  1.
         12    1    4    4    0    0 -0.33915940939E+01 -0.19021870809E+02  0.76331485384E+01  0.20774971388E+02  0.00000000000E+00 0. -1.
         -5    1    5    5    0  503 -0.28811526505E+02 -0.95450887459E+02  0.13374946754E+03  0.16688914298E+03  0.47000000000E+01 0.  1.
         11    1    6    6    0    0  0.79685051231E+00  0.16118625091E+02 -0.30190996731E+02  0.34233628630E+02  0.00000000000E+00 0. -1.
        -12    1    6    6    0    0 -0.33965626291E+01  0.34507914890E+01  0.51903374777E+02  0.52128734042E+02  0.00000000000E+00 0.  1.
</event>
<event>
12    1  0.8798177E-003  0.2350714E+03  0.7818608E-02  0.1123246E+00
         21   -1    0    0  503  502  0.00000000000E+00  0.00000000000E+00  0.18334210945E+03  0.18334210945E+03  0.00000000000E+00 0.  1.
         21   -1    0    0  501  503 -0.00000000000E+00 -0.00000000000E+00 -0.31159751538E+03  0.31159751538E+03  0.00000000000E+00 0.  1.
          6    2    1    2  501    0  0.15505572585E+03 -0.33198606083E+02 -0.11101230816E+03  0.25996595079E+03  0.17353425438E+03 0.  0.
         24    2    3    3    0    0  0.12460718233E+03 -0.86639116724E+02 -0.69449519270E+02  0.18558478785E+03  0.81149191743E+02 0.  0.
         -6    2    1    2    0  502 -0.15505572585E+03  0.33198606083E+02 -0.17243097780E+02  0.23497367403E+03  0.17254239335E+03 0.  0.
        -24    2    5    5    0    0 -0.13333858543E+03 -0.29569804142E+02  0.19068030120E+02  0.15913110341E+03  0.79407597984E+02 0.  0.
          5    1    3    3  501    0  0.30448543519E+02  0.53440510641E+02 -0.41562788886E+02  0.74381162938E+02  0.47000000000E+01 0. -1.
        -11    1    4    4    0    0  0.10925312571E+03 -0.70520882856E+02 -0.87660381211E+02  0.15682405055E+03  0.00000000000E+00 0.  1.
         12    1    4    4    0    0  0.15354056619E+02 -0.16118233868E+02  0.18210861940E+02  0.28760737304E+02  0.00000000000E+00 0. -1.
         -5    1    5    5    0  502 -0.21717140424E+02  0.62768410225E+02 -0.36311127900E+02  0.75842570630E+02  0.47000000000E+01 0.  1.
         11    1    6    6    0    0 -0.67584839556E+02 -0.42342884692E+02 -0.19138699596E+02  0.82017804433E+02  0.00000000000E+00 0. -1.
        -12    1    6    6    0    0 -0.65753745871E+02  0.12773080550E+02  0.38206729715E+02  0.77113298972E+02  0.00000000000E+00 0.  1.
</event>
<event>
12    1  0.8798177E-003  0.2501409E+03  0.7818608E-02  0.1113229E+00
         21   -1    0    0  501  502  0.00000000000E+00  0.00000000000E+00  0.33393799796E+03  0.33393799796E+03  0.00000000000E+00 0.  1.
         21   -1    0    0  502  503 -0.00000000000E+00 -0.00000000000E+00 -0.22761334349E+03  0.22761334349E+03  0.00000000000E+00 0. -1.
          6    2    1    2  501    0 -0.31768375359E+02  0.17915997741E+03  0.17130759632E+03  0.30310740198E+03  0.17152340191E+03 0.  0.
         24    2    3    3    0    0 -0.24321279397E+02  0.20175452710E+03  0.12722511680E+03  0.25279509817E+03  0.80141858491E+02 0.  0.
         -6    2    1    2    0  503  0.31768375359E+02 -0.17915997741E+03 -0.64982941850E+02  0.25844393947E+03  0.17164777872E+03 0.  0.
        -24    2    5    5    0    0  0.15621654074E+02 -0.20536306424E+03 -0.62319807893E+02  0.22719492909E+03  0.72909211465E+02 0.  0.
          5    1    3    3  501    0 -0.74470959626E+01 -0.22594549686E+02  0.44082479520E+02  0.50312303807E+02  0.47000000000E+01 0. -1.
        -13    1    4    4    0    0 -0.47037589269E+02  0.82904275215E+02  0.73678695241E+02  0.12047490936E+03  0.00000000000E+00 0.  1.
         14    1    4    4    0    0  0.22716309872E+02  0.11885025188E+03  0.53546421554E+02  0.13232018881E+03  0.00000000000E+00 0. -1.
         -5    1    5    5    0  503  0.16146721285E+02  0.26203086830E+02 -0.26631339564E+01  0.31249010387E+02  0.47000000000E+01 0.  1.
         13    1    6    6    0    0  0.14595468561E+02 -0.33143776427E+02  0.13990359181E+02  0.38823546572E+02  0.00000000000E+00 0. -1.
        -14    1    6    6    0    0  0.10261855133E+01 -0.17221928781E+03 -0.76310167075E+02  0.18837138251E+03  0.00000000000E+00 0.  1.
</event>
<event>
12    1  0.8798177E-003  0.2325735E+03  0.7818608E-02  0.1125060E+00
         21   -1    0    0  501  502  0.00000000000E+00  0.00000000000E+00  0.13093451575E+03  0.13093451575E+03  0.00000000000E+00 0. -1.
         21   -1    0    0  502  503 -0.00000000000E+00 -0.00000000000E+00 -0.49010343717E+03  0.49010343717E+03  0.00000000000E+00 0.  1.
          6    2    1    2  501    0  0.15256825175E+03  0.34271504045E+02 -0.54330611313E+02  0.23761024207E+03  0.17045587224E+03 0.  0.
         24    2    3    3    0    0  0.59962107841E+02  0.30910046927E+02 -0.90917065696E+02  0.13787130320E+03  0.78687343544E+02 0.  0.
         -6    2    1    2    0  503 -0.15256825175E+03 -0.34271504045E+02 -0.30483831010E+03  0.38342771084E+03  0.17215924808E+03 0.  0.
        -24    2    5    5    0    0 -0.92351536765E+02  0.23965153136E+02 -0.26139310935E+03  0.28894418597E+03  0.77841185009E+02 0.  0.
          5    1    3    3  501    0  0.92606143907E+02  0.33614571171E+01  0.36586454382E+02  0.99738938873E+02  0.47000000000E+01 0. -1.
        -13    1    4    4    0    0 -0.11791934481E+01  0.41289970736E+02 -0.31071487613E+02  0.51688388667E+02  0.00000000000E+00 0.  1.
         14    1    4    4    0    0  0.61141301289E+02 -0.10379923808E+02 -0.59845578083E+02  0.86182914534E+02  0.00000000000E+00 0. -1.
         -5    1    5    5    0  503 -0.60216714983E+02 -0.58236657181E+02 -0.43445200759E+02  0.94483524870E+02  0.47000000000E+01 0.  1.
         11    1    6    6    0    0  0.70540102842E+01  0.18450545571E+02 -0.21414796618E+02  0.29133746878E+02  0.00000000000E+00 0. -1.
        -12    1    6    6    0    0 -0.99405547049E+02  0.55146075658E+01 -0.23997831273E+03  0.25981043909E+03  0.00000000000E+00 0.  1.
</event>
<event>
12    1  0.8798177E-003  0.1983765E+03  0.7818608E-02  0.1151149E+00
         21   -1    0    0  503  502  0.00000000000E+00  0.00000000000E+00  0.37312049754E+02  0.37312049754E+02  0.00000000000E+00 0.  1.
         21   -1    0    0  501  503 -0.00000000000E+00 -0.00000000000E+00 -0.13613753577E+04  0.13613753577E+04  0.00000000000E+00 0.  1.
          6    2    1    2  501    0 -0.93426289432E+02 -0.41711871408E+02 -0.99419822358E+03  0.10137663463E+04  0.16977557355E+03 0.  0.
         24    2    3    3    0    0 -0.12412525924E+03 -0.61878563269E+02 -0.75555244875E+03  0.77226475615E+03  0.79355618602E+02 0.  0.
         -6    2    1    2    0  502  0.93426289432E+02  0.41711871408E+02 -0.32986508433E+03  0.38492106110E+03  0.16995557551E+03 0.  0.
        -24    2    5    5    0    0  0.12463072099E+02 -0.26466916778E+02 -0.19286732988E+03  0.21173369308E+03  0.82325718942E+02 0.  0.
          5    1    3    3  501    0  0.30698969808E+02  0.20166691861E+02 -0.23864577483E+03  0.24150159016E+03  0.47000000000E+01 0. -1.
        -13    1    4    4    0    0 -0.27927253309E+01 -0.34321380156E+02 -0.20072478677E+03  0.20365705604E+03  0.00000000000E+00 0.  1.
         14    1    4    4    0    0 -0.12133253391E+03 -0.27557183113E+02 -0.55482766198E+03  0.56860770011E+03  0.00000000000E+00 0. -1.
         -5    1    5    5    0  502  0.80963217333E+02  0.68178788185E+02 -0.13699775445E+03  0.17318736802E+03  0.47000000000E+01 0.  1.
         11    1    6    6    0    0  0.35226258548E+02  0.59682082338E+01 -0.14624842489E+03  0.15054936261E+03  0.00000000000E+00 0. -1.
        -12    1    6    6    0    0 -0.22763186449E+02 -0.32435125012E+02 -0.46618904992E+02  0.61184330465E+02  0.00000000000E+00 0.  1.
</event>
<event>
12    1  0.8798177E-003  0.2136111E+03  0.7818608E-02  0.1138790E+00
         21   -1    0    0  501  502  0.00000000000E+00  0.00000000000E+00  0.35094387593E+03  0.35094387593E+03  0.00000000000E+00 0.  1.
         21   -1    0    0  502  503 -0.00000000000E+00 -0.00000000000E+00 -0.13346967643E+03  0.13346967643E+03  0.00000000000E+00 0.  1.
          6    2    1    2  501    0 -0.12862347378E+02  0.12524592707E+03  0.68818955049E+02  0.22416737824E+03  0.17222944773E+03 0.  0.
         24    2    3    3    0    0 -0.11208857800E+02  0.84329195449E+02 -0.25987332262E+02  0.12078829395E+03  0.81715474788E+02 0.  0.
         -6    2    1    2    0  503  0.12862347378E+02 -0.12524592707E+03  0.14865524446E+03  0.26024617412E+03  0.17256218361E+03 0.  0.
        -24    2    5    5    0    0  0.16881264045E+02  0.25621362502E+01  0.58118536796E+02  0.10349784662E+03  0.83919594361E+02 0.  0.
          5    1    3    3  501    0 -0.16534895781E+01  0.40916731616E+02  0.94806287311E+02  0.10337908428E+03  0.47000000000E+01 0. -1.
        -11    1    4    4    0    0 -0.16706107822E+02  0.22000126798E+02  0.27124744469E+02  0.38715002004E+02  0.00000000000E+00 0.  1.
         12    1    4    4    0    0  0.54972500218E+01  0.62329068652E+02 -0.53112076731E+02  0.82073291949E+02  0.00000000000E+00 0. -1.
         -5    1    5    5    0  503 -0.40189166667E+01 -0.12780806332E+03  0.90536707663E+02  0.15674832750E+03  0.47000000000E+01 0.  1.
         13    1    6    6    0    0  0.84031980305E+01  0.11425130906E+02 -0.19946780040E+02  0.24474913428E+02  0.00000000000E+00 0. -1.
        -14    1    6    6    0    0  0.84780660143E+01 -0.88629946558E+01  0.78065316835E+02  0.79022933192E+02  0.00000000000E+00 0.  1.
</event>
<event>
12    1  0.8798177E-003  0.1828315E+03  0.7818608E-02  0.1165269E+00
         21   -1    0    0  501  502  0.00000000000E+00  0.00000000000E+00  0.11450026796E+03  0.11450026796E+03  0.00000000000E+00 0.  1.
         21   -1    0    0  502  503 -0.00000000000E+00 -0.00000000000E+00 -0.34111737580E+03  0.34111737580E+03  0.00000000000E+00 0.  1.
          6    2    1    2  501    0 -0.47564142471E+02 -0.31900945793E+02 -0.25964179755E+02  0.18466591554E+03  0.17362990451E+03 0.  0.
         24    2    3    3    0    0 -0.32714170469E+02  0.12147020970E+01 -0.80481490257E+02  0.11900470212E+03  0.81321315792E+02 0.  0.
         -6    2    1    2    0  503  0.47564142471E+02  0.31900945793E+02 -0.20065292809E+03  0.27095172822E+03  0.17283872102E+03 0.  0.
        -24    2    5    5    0    0 -0.81668103374E+01 -0.30653571244E+02 -0.14605828936E+03  0.17084343046E+03  0.82753342041E+02 0.  0.
          5    1    3    3  501    0 -0.14849972002E+02 -0.33115647890E+02  0.54517310502E+02  0.65661213421E+02  0.47000000000E+01 0. -1.
        -11    1    4    4    0    0 -0.21680839357E+02  0.28254556161E+02 -0.24629638504E+01  0.35699368762E+02  0.00000000000E+00 0.  1.
         12    1    4    4    0    0 -0.11033331112E+02 -0.27039854064E+02 -0.78018526407E+02  0.83305333358E+02  0.00000000000E+00 0. -1.
         -5    1    5    5    0  503  0.55730952808E+02  0.62554517036E+02 -0.54594638732E+02  0.10010829776E+03  0.47000000000E+01 0.  1.
         11    1    6    6    0    0 -0.14398097935E-01 -0.52093961399E+02 -0.50438496441E+02  0.72510847084E+02  0.00000000000E+00 0. -1.
        -12    1    6    6    0    0 -0.81524122395E+01  0.21440390155E+02 -0.95619792916E+02  0.98332583372E+02  0.00000000000E+00 0.  1.
</event>
<event>
12    1  0.8798177E-003  0.1813979E+03  0.7818608E-02  0.1166717E+00
         21   -1    0    0  503  502  0.00000000000E+00  0.00000000000E+00  0.21092130905E+02  0.21092130905E+02  0.00000000000E+00 0.  1.
         21   -1    0    0  501  503 -0.00000000000E+00 -0.00000000000E+00 -0.17952324887E+04  0.17952324887E+04  0.00000000000E+00 0.  1.
          6    2    1    2  501    0 -0.58131315048E+02  0.11071688147E+01 -0.12244704311E+04  0.12378340093E+04  0.17182759508E+03 0.  0.
         24    2    3    3    0    0 -0.61664436164E+01  0.61426686803E+02 -0.52689849064E+03  0.53571757012E+03  0.74565626219E+02 0.  0.
         -6    2    1    2    0  502  0.58131315048E+02 -0.11071688147E+01 -0.54966992674E+03  0.57849061031E+03  0.17068650281E+03 0.  0.
        -24    2    5    5    0    0  0.17884418511E+01 -0.56839608601E+02 -0.31638413658E+03  0.33206623226E+03  0.83277374476E+02 0.  0.
          5    1    3    3  501    0 -0.51964871431E+02 -0.60319517988E+02 -0.69757194043E+03  0.70211643920E+03  0.47000000000E+01 0. -1.
        -11    1    4    4    0    0 -0.16136727653E+02  0.46337732512E+02 -0.50472221463E+03  0.50710165980E+03  0.00000000000E+00 0.  1.
         12    1    4    4    0    0  0.99702840363E+01  0.15088954291E+02 -0.22176276010E+02  0.28615910313E+02  0.00000000000E+00 0. -1.
         -5    1    5    5    0  502  0.56342873196E+02  0.55732439786E+02 -0.23328579016E+03  0.24642437805E+03  0.47000000000E+01 0.  1.
         11    1    6    6    0    0 -0.37343904544E+02 -0.81698967770E+01 -0.11106629362E+03  0.11746078494E+03  0.00000000000E+00 0. -1.
        -12    1    6    6    0    0  0.39132346395E+02 -0.48669711824E+02 -0.20531784296E+03  0.21460544732E+03  0.00000000000E+00 0.  1.
</event>
<event>
12    1  0.8798177E-003  0.2025952E+03  0.7818608E-02  0.1148305E+00
         21   -1    0    0  503  502  0.00000000000E+00  0.00000000000E+00  0.73431813430E+02  0.73431813430E+02  0.00000000000E+00 0. -1.
         21   -1    0    0  501  503 -0.00000000000E+00 -0.00000000000E+00 -0.56926652226E+03  0.56926652226E+03  0.00000000000E+00 0. -1.
          6    2    1    2  501    0 -0.86972337244E+02  0.64114999905E+02 -0.30603168601E+03  0.36508346593E+03  0.16719935285E+03 0.  0.
         24    2    3    3    0    0 -0.52415488852E+02  0.10029732069E+03 -0.24068730172E+03  0.28264976732E+03  0.95674331713E+02 0.  0.
         -6    2    1    2    0  502  0.86972337244E+02 -0.64114999905E+02 -0.18980302281E+03  0.27761486975E+03  0.17137650884E+03 0.  0.
        -24    2    5    5    0    0 -0.20614050244E+02 -0.34733623624E+02 -0.82618416885E+02  0.12286111118E+03  0.81471996135E+02 0.  0.
          5    1    3    3  501    0 -0.34556848392E+02 -0.36182320782E+02 -0.65344384293E+02  0.82433698610E+02  0.47000000000E+01 0. -1.
        -11    1    4    4    0    0 -0.31061995953E+02  0.52834066912E+02 -0.21696062665E+03  0.22545110276E+03  0.00000000000E+00 0.  1.
         12    1    4    4    0    0 -0.21353492899E+02  0.47463253775E+02 -0.23726675073E+02  0.57198664564E+02  0.00000000000E+00 0. -1.
         -5    1    5    5    0  502  0.10758638749E+03 -0.29381376281E+02 -0.10718460593E+03  0.15475375857E+03  0.47000000000E+01 0.  1.
         13    1    6    6    0    0  0.27908954324E+02 -0.28276838189E+02 -0.50745181951E+02  0.64448140397E+02  0.00000000000E+00 0. -1.
        -14    1    6    6    0    0 -0.48523004568E+02 -0.64567854355E+01 -0.31873234933E+02  0.58412970782E+02  0.00000000000E+00 0.  1.
</event>
<event>
12    1  0.8798177E-003  0.2116912E+03  0.7818608E-02  0.1141114E+00
         21   -1    0    0  503  502  0.00000000000E+00  0.00000000000E+00  0.10721839635E+03  0.10721839635E+03  0.00000000000E+00 0.  1.
         21   -1    0    0  501  503 -0.00000000000E+00 -0.00000000000E+00 -0.43723711245E+03  0.43723711245E+03  0.00000000000E+00 0.  1.
          6    2    1    2  501    0 -0.10636971700E+03 -0.44633559381E+02 -0.23225969957E+03  0.31128179741E+03  0.17217757704E+03 0.  0.
         24    2    3    3    0    0 -0.83767234714E+02 -0.91702702173E+02 -0.19372163918E+03  0.24621530444E+03  0.87564647290E+02 0.  0.
         -6    2    1    2    0  502  0.10636971700E+03  0.44633559381E+02 -0.97759016534E+02  0.23317371139E+03  0.17750065648E+03 0.  0.
        -24    2    5    5    0    0  0.13366830682E+03  0.17445809462E+02 -0.11146629926E+03  0.19201102985E+03  0.79195499838E+02 0.  0.
          5    1    3    3  501    0 -0.22602482290E+02  0.47069142793E+02 -0.38538060385E+02  0.65066492968E+02  0.47000000000E+01 0. -1.
        -11    1    4    4    0    0 -0.84016032375E+02 -0.58228071543E+02 -0.86561276682E+02  0.13394796241E+03  0.00000000000E+00 0.  1.
         12    1    4    4    0    0  0.24879766068E+00 -0.33474630630E+02 -0.10716036250E+03  0.11226734204E+03  0.00000000000E+00 0. -1.
         -5    1    5    5    0  502 -0.27298589820E+02  0.27187749919E+02  0.13707282727E+02  0.41162681540E+02  0.47000000000E+01 0.  1.
         11    1    6    6    0    0  0.13720058507E+02  0.19563343206E+02 -0.53875597338E+02  0.58936783008E+02  0.00000000000E+00 0. -1.
        -12    1    6    6    0    0  0.11994824832E+03 -0.21175337437E+01 -0.57590701923E+02  0.13307424684E+03  0.00000000000E+00 0.  1.
</event>
<event>
12    1  0.8798177E-003  0.1892287E+03  0.7818608E-02  0.1160554E+00
         21   -1    0    0  503  502  0.00000000000E+00  0.00000000000E+00  0.27191103527E+02  0.27191103527E+02  0.00000000000E+00 0. -1.
         21   -1    0    0  501  503 -0.00000000000E+00 -0.00000000000E+00 -0.15889692873E+04  0.15889692873E+04  0.00000000000E+00 0. -1.
          6    2    1    2  501    0 -0.58454625132E+02  0.25649664866E+02 -0.11501516231E+04  0.11656141182E+04  0.17813665510E+03 0.  0.
         24    2    3    3    0    0 -0.53032955796E+02  0.85876501174E+02 -0.81541819904E+03  0.82543001878E+03  0.78997523476E+02 0.  0.
         -6    2    1    2    0  502  0.58454625132E+02 -0.25649664866E+02 -0.41162656069E+03  0.45054627266E+03  0.17169935886E+03 0.  0.
        -24    2    5    5    0    0  0.54822023125E+01  0.11387195574E+02 -0.82035006431E+02  0.11464377304E+03  0.79080526371E+02 0.  0.
          5    1    3    3  501    0 -0.54216693365E+01 -0.60226836308E+02 -0.33473342404E+03  0.34018409940E+03  0.47000000000E+01 0. -1.
        -11    1    4    4    0    0 -0.33728389274E+02 -0.33511832366E+01 -0.30855353885E+03  0.31040960199E+03  0.00000000000E+00 0.  1.
         12    1    4    4    0    0 -0.19304566522E+02  0.89227684411E+02 -0.50686466020E+03  0.51502041679E+03  0.00000000000E+00 0. -1.
         -5    1    5    5    0  502  0.52972422820E+02 -0.37036860440E+02 -0.32959155426E+03  0.33590249962E+03  0.47000000000E+01 0.  1.
         11    1    6    6    0    0  0.12530111386E+02  0.43140541688E+02 -0.61564359967E+02  0.76212075464E+02  0.00000000000E+00 0. -1.
        -12    1    6    6    0    0 -0.70479090740E+01 -0.31753346114E+02 -0.20470646464E+02  0.38431697574E+02  0.00000000000E+00 0.  1.
</event>
<event>
12    1  0.8798177E-003  0.1913593E+03  0.7818608E-02  0.1158025E+00
         21   -1    0    0  503  502  0.00000000000E+00  0.00000000000E+00  0.25934966510E+03  0.25934966510E+03  0.00000000000E+00 0.  1.
         21   -1    0    0  501  503 -0.00000000000E+00 -0.00000000000E+00 -0.18060966519E+03  0.18060966519E+03  0.00000000000E+00 0.  1.
          6    2    1    2  501    0  0.21202853816E+02  0.76770787092E+02 -0.66389947132E+02  0.20254875499E+03  0.17399729397E+03 0.  0.
         24    2    3    3    0    0  0.31131569991E+02  0.11482316652E+03 -0.26104271349E+02  0.14605460788E+03  0.80603854001E+02 0.  0.
         -6    2    1    2    0  502 -0.21202853816E+02 -0.76770787092E+02  0.14512994705E+03  0.23741057529E+03  0.17016981216E+03 0.  0.
        -24    2    5    5    0    0  0.23634995696E+02 -0.62307250627E+02  0.23252402082E+02  0.10665946592E+03  0.79967249329E+02 0.  0.
          5    1    3    3  501    0 -0.99287161747E+01 -0.38052379428E+02 -0.40285675783E+02  0.56494147116E+02  0.47000000000E+01 0. -1.
        -13    1    4    4    0    0  0.57918332684E+02  0.68449280765E+02 -0.10528187719E+02  0.90281116712E+02  0.00000000000E+00 0.  1.
         14    1    4    4    0    0 -0.26786762693E+02  0.46373885755E+02 -0.15576083629E+02  0.55773491166E+02  0.00000000000E+00 0. -1.
         -5    1    5    5    0  502 -0.44837849512E+02 -0.14463536465E+02  0.12187754497E+03  0.13075110937E+03  0.47000000000E+01 0.  1.
         11    1    6    6    0    0 -0.20576578415E+02 -0.41686463470E+02 -0.10088850218E+02  0.47570386951E+02  0.00000000000E+00 0. -1.
        -12    1    6    6    0    0  0.44211574111E+02 -0.20620787157E+02  0.33341252299E+02  0.59089078968E+02  0.00000000000E+00 0.  1.
</event>
<event>
12    1  0.8798177E-003  0.2850905E+03  0.7818608E-02  0.1093003E+00
         21   -1    0    0  501  502  0.00000000000E+00  0.00000000000E+00  0.10700156657E+04  0.10700156657E+04  0.00000000000E+00 0.  1.
         21   -1    0    0  502  503 -0.00000000000E+00 -0.00000000000E+00 -0.91173518215E+02  0.91173518215E+02  0.00000000000E+00 0. -1.
          6    2    1    2  501    0  0.12174090410E+03  0.18961196136E+03  0.72722921748E+03  0.78094499514E+03  0.17389424100E+03 0.  0.
         24    2    3    3    0    0  0.98539003293E+02  0.49941057607E+02  0.27368360001E+03  0.30579027646E+03  0.80005848903E+02 0.  0.
         -6    2    1    2    0  503 -0.12174090410E+03 -0.18961196136E+03  0.25161293001E+03  0.38024418878E+03  0.17465117500E+03 0.  0.
        -24    2    5    5    0    0 -0.25641418600E+02 -0.11623769379E+03  0.63798367799E+02  0.15682687961E+03  0.79722986839E+02 0.  0.
          5    1    3    3  501    0  0.23201900810E+02  0.13967090376E+03  0.45354561747E+03  0.47515471868E+03  0.47000000000E+01 0. -1.
        -11    1    4    4    0    0  0.57359405241E+02  0.21819998464E+01  0.20348650634E+03  0.21142757804E+03  0.00000000000E+00 0.  1.
         12    1    4    4    0    0  0.41179598052E+02  0.47759057761E+02  0.70197093674E+02  0.94362698425E+02  0.00000000000E+00 0. -1.
         -5    1    5    5    0  503 -0.96099485503E+02 -0.73374267574E+02  0.18781456221E+03  0.22341730916E+03  0.47000000000E+01 0.  1.
         13    1    6    6    0    0 -0.37251825721E+02 -0.11353316974E+03  0.74496569271E+02  0.14080915448E+03  0.00000000000E+00 0. -1.
        -14    1    6    6    0    0  0.11610407121E+02 -0.27045240449E+01 -0.10698201471E+02  0.16017725137E+02  0.00000000000E+00 0.  1.
</event>
<event>
12    1  0.8798177E-003  0.2552517E+03  0.7818608E-02  0.1110870E+00
         21   -1    0    0  501  502  0.00000000000E+00  0.00000000000E+00  0.41947213330E+03  0.41947213330E+03  0.00000000000E+00 0. -1.
         21   -1    0    0  502  503 -0.00000000000E+00 -0.00000000000E+00 -0.17762178632E+03  0.17762178632E+03  0.00000000000E+00 0. -1.
          6    2    1    2  501    0 -0.13294483219E+03 -0.12194621190E+03  0.23308269310E+03  0.34169165377E+03  0.17285958878E+03 0.  0.
         24    2    3    3    0    0 -0.13964289603E+03 -0.85340255309E+02  0.24202783231E+03  0.30313046042E+03  0.80792987511E+02 0.  0.
         -6    2    1    2    0  503  0.13294483219E+03  0.12194621190E+03  0.87676538858E+01  0.25540226585E+03  0.18057751422E+03 0.  0.
        -24    2    5    5    0    0  0.15882171796E+03  0.67004377266E+02  0.26494663973E+02  0.19196288300E+03  0.80211324379E+02 0.  0.
          5    1    3    3  501    0  0.66980638387E+01 -0.36605956589E+02 -0.89451392181E+01  0.38561193350E+02  0.47000000000E+01 0. -1.
        -11    1    4    4    0    0 -0.42134624845E+02 -0.22521887392E+01  0.11594938033E+03  0.12338823997E+03  0.00000000000E+00 0.  1.
         12    1    4    4    0    0 -0.97508271185E+02 -0.83088066570E+02  0.12607845199E+03  0.17974222045E+03  0.00000000000E+00 0. -1.
         -5    1    5    5    0  503 -0.25876885773E+02  0.54941834632E+02 -0.17727010087E+02  0.63439382852E+02  0.47000000000E+01 0.  1.
         13    1    6    6    0    0  0.10294350779E+03  0.36177988565E+02 -0.22618197066E+02  0.11143516272E+03  0.00000000000E+00 0. -1.
        -14    1    6    6    0    0  0.55878210176E+02  0.30826388701E+02  0.49112861040E+02  0.80527720273E+02  0.00000000000E+00 0.  1.
</event>
<event>
12    1  0.8798177E-003  0.1759665E+03  0.7818608E-02  0.1171902E+00
         21   -1    0    0  501  502  0.00000000000E+00  0.00000000000E+00  0.33615770989E+03  0.33615770989E+03  0.00000000000E+00 0.  1.
         21   -1    0    0  502  503 -0.00000000000E+00 -0.00000000000E+00 -0.10132986630E+03  0.10132986630E+03  0.00000000000E+00 0.  1.
          6    2    1    2  501    0 -0.33970121884E+02 -0.11081048346E+02  0.18424524201E+03  0.25439525620E+03  0.17173781867E+03 0.  0.
         24    2    3    3    0    0 -0.85511201612E+01  0.58749925228E+02  0.12147066703E+03  0.15700312211E+03  0.79813420132E+02 0.  0.
         -6    2    1    2    0  503  0.33970121884E+02  0.11081048346E+02  0.50582601582E+02  0.18309232000E+03  0.17230043310E+03 0.  0.
        -24    2    5    5    0    0  0.74027556181E+02  0.40847846621E+02  0.56979679480E+02  0.13255844099E+03  0.84713816800E+02 0.  0.
          5    1    3    3  501    0 -0.25419001723E+02 -0.69830973574E+02  0.62774574976E+02  0.97392134088E+02  0.47000000000E+01 0. -1.
        -11    1    4    4    0    0 -0.33641529751E+02 -0.17359872103E+01  0.47183497494E+02  0.57974551412E+02  0.00000000000E+00 0.  1.
         12    1    4    4    0    0  0.25090409590E+02  0.60485912438E+02  0.74287169537E+02  0.99028570699E+02  0.00000000000E+00 0. -1.
         -5    1    5    5    0  503 -0.40057434297E+02 -0.29766798275E+02 -0.63970778981E+01  0.50533879008E+02  0.47000000000E+01 0.  1.
         13    1    6    6    0    0  0.29603876089E+02  0.40549431806E+02 -0.10955444632E+02  0.51387427124E+02  0.00000000000E+00 0. -1.
        -14    1    6    6    0    0  0.44423680092E+02  0.29841481474E+00  0.67935124112E+02  0.81171013868E+02  0.00000000000E+00 0.  1.
</event>
<event>
12    1  0.8798177E-003  0.1868353E+03  0.7818608E-02  0.1161951E+00
         21   -1    0    0  501  502  0.00000000000E+00  0.00000000000E+00  0.24511421524E+03  0.24511421524E+03  0.00000000000E+00 0. -1.
         21   -1    0    0  502  503 -0.00000000000E+00 -0.00000000000E+00 -0.16692379525E+03  0.16692379525E+03  0.00000000000E+00 0. -1.
          6    2    1    2  501    0 -0.21121404591E+01 -0.67274604580E+02  0.12138792776E+03  0.22280587033E+03  0.17429025587E+03 0.  0.
         24    2    3    3    0    0 -0.44761761956E+01  0.76033325145E+01 -0.14161373493E+00  0.79963952170E+02  0.79475573440E+02 0.  0.
         -6    2    1    2    0  503  0.21121404591E+01  0.67274604580E+02 -0.43197507764E+02  0.18923214016E+03  0.17150056744E+03 0.  0.
        -24    2    5    5    0    0 -0.35053618606E+02  0.27382432639E+02 -0.82343144388E+02  0.12194804177E+03  0.78181696513E+02 0.  0.
          5    1    3    3  501    0  0.23640357364E+01 -0.74877937094E+02  0.12152954149E+03  0.14284191816E+03  0.47000000000E+01 0. -1.
        -11    1    4    4    0    0 -0.32048053052E+02  0.27493394199E+02 -0.12100130669E+02  0.43924680889E+02  0.00000000000E+00 0.  1.
         12    1    4    4    0    0  0.27571876857E+02 -0.19890061684E+02  0.11958516934E+02  0.36039271281E+02  0.00000000000E+00 0. -1.
         -5    1    5    5    0  503  0.37165759065E+02  0.39892171941E+02  0.39145636624E+02  0.67284098387E+02  0.47000000000E+01 0.  1.
         13    1    6    6    0    0 -0.15963389220E+02  0.23691327130E+02 -0.94696555990E+02  0.98911811696E+02  0.00000000000E+00 0. -1.
        -14    1    6    6    0    0 -0.19090229386E+02  0.36911055089E+01  0.12353411602E+02  0.23036230076E+02  0.00000000000E+00 0.  1.
</event>
<event>
12    1  0.8798177E-003  0.2474995E+03  0.7818608E-02  0.1115222E+00
         21   -1    0    0  501  502  0.00000000000E+00  0.00000000000E+00  0.17688620381E+03  0.17688620381E+03  0.00000000000E+00 0.  1.
         21   -1    0    0  502  503 -0.00000000000E+00 -0.00000000000E+00 -0.44785250036E+03  0.44785250036E+03  0.00000000000E+00 0.  1.
          6    2    1    2  501    0  0.17761037937E+03 -0.18632030277E+01  0.14895519468E+02  0.24794736937E+03  0.17235748633E+03 0.  0.
         24    2    3    3    0    0  0.15432536546E+03 -0.47060299304E+02 -0.28152719890E+02  0.18116256349E+03  0.77435835237E+02 0.  0.
         -6    2    1    2    0  503 -0.17761037937E+03  0.18632030277E+01 -0.28586181602E+03  0.37679133480E+03  0.16942790130E+03 0.  0.
        -24    2    5    5    0    0 -0.83128897012E+02 -0.40694766160E+02 -0.22454864427E+03  0.25629516772E+03  0.81845231050E+02 0.  0.
          5    1    3    3  501    0  0.23285013904E+02  0.45197096277E+02  0.43048239357E+02  0.66784805878E+02  0.47000000000E+01 0. -1.
        -13    1    4    4    0    0  0.17489942110E+02 -0.28755850121E+02 -0.26926889960E+02  0.43102835105E+02  0.00000000000E+00 0.  1.
         14    1    4    4    0    0  0.13683542335E+03 -0.18304449183E+02 -0.12258299299E+01  0.13805972839E+03  0.00000000000E+00 0. -1.
         -5    1    5    5    0  503 -0.94481482355E+02  0.42557969187E+02 -0.61313171752E+02  0.12049616707E+03  0.47000000000E+01 0.  1.
         13    1    6    6    0    0 -0.42957369796E+02 -0.87586500200E+01 -0.18862261178E+03  0.19365055963E+03  0.00000000000E+00 0. -1.
        -14    1    6    6    0    0 -0.40171527216E+02 -0.31936116140E+02 -0.35926032483E+02  0.62644608091E+02  0.00000000000E+00 0.  1.
</event>
<event>
12    1  0.8798177E-003  0.1849261E+03  0.7818608E-02  0.1163313E+00
         21   -1    0    0  501  502  0.00000000000E+00  0.00000000000E+00  0.25452719142E+02  0.25452719142E+02  0.00000000000E+00 0.  1.
         21   -1    0    0  502  503 -0.00000000000E+00 -0.00000000000E+00 -0.14790721055E+04  0.14790721055E+04  0.00000000000E+00 0.  1.
          6    2    1    2  501    0  0.33050861118E+02  0.59051128462E+02 -0.49560039365E+03  0.52897769551E+03  0.17209955541E+03 0.  0.
         24    2    3    3    0    0 -0.87142366145E+00  0.19945666409E+02 -0.10466463849E+03  0.13460120886E+03  0.82244816782E+02 0.  0.
         -6    2    1    2    0  503 -0.33050861118E+02 -0.59051128462E+02 -0.95801899271E+03  0.97554712912E+03  0.17120869010E+03 0.  0.
        -24    2    5    5    0    0 -0.54072176979E+02 -0.90937936683E+02 -0.84452050142E+03  0.85570280601E+03  0.88424579388E+02 0.  0.
          5    1    3    3  501    0  0.33922284779E+02  0.39105462053E+02 -0.39093575515E+03  0.39437648665E+03  0.47000000000E+01 0. -1.
        -11    1    4    4    0    0  0.33237013229E+02  0.33010646884E+02 -0.70118726429E+02  0.84326968712E+02  0.00000000000E+00 0.  1.
         12    1    4    4    0    0 -0.34108436891E+02 -0.13064980476E+02 -0.34545912063E+02  0.50274240146E+02  0.00000000000E+00 0. -1.
         -5    1    5    5    0  503  0.21021315862E+02  0.31886808221E+02 -0.11349849128E+03  0.11984432311E+03  0.47000000000E+01 0.  1.
         13    1    6    6    0    0 -0.33838758472E+02 -0.58791881145E+02 -0.22461510846E+03  0.23463480947E+03  0.00000000000E+00 0. -1.
        -14    1    6    6    0    0 -0.20233418507E+02 -0.32146055538E+02 -0.61990539296E+03  0.62106799654E+03  0.00000000000E+00 0.  1.
</event>
<event>
12    1  0.8798177E-003  0.1813752E+03  0.7818608E-02  0.1166504E+00
         21   -1    0    0  501  502  0.00000000000E+00  0.00000000000E+00  0.10986599315E+04  0.10986599315E+04  0.00000000000E+00 0. -1.
         21   -1    0    0  502  503 -0.00000000000E+00 -0.00000000000E+00 -0.31170390345E+02  0.31170390345E+02  0.00000000000E+00 0. -1.
          6    2    1    2  501    0  0.41749734316E+02 -0.36410624284E+02  0.64648932407E+03  0.67142205112E+03  0.17259881438E+03 0.  0.
         24    2    3    3    0    0  0.81011370230E+02  0.16677389670E+02  0.42511474764E+03  0.44036230480E+03  0.79720972145E+02 0.  0.
         -6    2    1    2    0  503 -0.41749734316E+02  0.36410624284E+02  0.42100021708E+03  0.45840827071E+03  0.17270838428E+03 0.  0.
        -24    2    5    5    0    0 -0.11761686565E+02  0.87684656487E+02  0.29365884470E+03  0.31781586513E+03  0.83333491512E+02 0.  0.
          5    1    3    3  501    0 -0.39261635915E+02 -0.53088013954E+02  0.22137457643E+03  0.23105974632E+03  0.47000000000E+01 0. -1.
        -11    1    4    4    0    0  0.45211410853E+02  0.20599312732E+01  0.71370083577E+02  0.84510376984E+02  0.00000000000E+00 0.  1.
         12    1    4    4    0    0  0.35799959377E+02  0.14617458397E+02  0.35374466406E+03  0.35585192782E+03  0.00000000000E+00 0. -1.
         -5    1    5    5    0  503 -0.29988047751E+02 -0.51274032203E+02  0.12734137238E+03  0.14059240558E+03  0.47000000000E+01 0.  1.
         11    1    6    6    0    0 -0.36797318071E+02  0.45536275313E+02  0.83272416303E+02  0.10179337063E+03  0.00000000000E+00 0. -1.
        -12    1    6    6    0    0  0.25035631506E+02  0.42148381174E+02  0.21038642839E+03  0.21602249451E+03  0.00000000000E+00 0.  1.
</event>
<event>
12    1  0.8798177E-003  0.1788205E+03  0.7818608E-02  0.1169069E+00
         21   -1    0    0  503  502  0.00000000000E+00  0.00000000000E+00  0.20260189269E+02  0.20260189269E+02  0.00000000000E+00 0.  1.
         21   -1    0    0  501  503 -0.00000000000E+00 -0.00000000000E+00 -0.16661368048E+04  0.16661368048E+04  0.00000000000E+00 0.  1.
          6    2    1    2  501    0  0.23351130977E+02  0.48499018256E+02 -0.62572169824E+03  0.65077215883E+03  0.17052662246E+03 0.  0.
         24    2    3    3    0    0  0.80645726060E+02  0.22676903978E+02 -0.39100853640E+03  0.40774580110E+03  0.79693084187E+02 0.  0.
         -6    2    1    2    0  502 -0.23351130977E+02 -0.48499018256E+02 -0.10201549173E+04  0.10356248352E+04  0.17001562872E+03 0.  0.
        -24    2    5    5    0    0  0.49556104673E+02  0.58642905014E+01 -0.45074841592E+03  0.45898223523E+03  0.70713226386E+02 0.  0.
          5    1    3    3  501    0 -0.57294595083E+02  0.25822114278E+02 -0.23471316184E+03  0.24302635773E+03  0.47000000000E+01 0. -1.
        -13    1    4    4    0    0 -0.12040166075E+02  0.19454031789E+02 -0.76054953932E+02  0.79421539708E+02  0.00000000000E+00 0.  1.
         14    1    4    4    0    0  0.92685892135E+02  0.32228721890E+01 -0.31495358247E+03  0.32832426139E+03  0.00000000000E+00 0. -1.
         -5    1    5    5    0  502 -0.72907235650E+02 -0.54363308757E+02 -0.56940650136E+03  0.57664260000E+03  0.47000000000E+01 0.  1.
         11    1    6    6    0    0  0.22269227565E+02  0.37507118547E+02 -0.19290004712E+03  0.19777039873E+03  0.00000000000E+00 0. -1.
        -12    1    6    6    0    0  0.27286877109E+02 -0.31642828046E+02 -0.25784836881E+03  0.26121183649E+03  0.00000000000E+00 0.  1.
</event>
<event>
12    1  0.8798177E-003  0.1744273E+03  0.7818608E-02  0.1173674E+00
         21   -1    0    0  501  502  0.00000000000E+00  0.00000000000E+00  0.45546958119E+02  0.45546958119E+02  0.00000000000E+00 0. -1.
         21   -1    0    0  502  503 -0.00000000000E+00 -0.00000000000E+00 -0.71014412223E+03  0.71014412223E+03  0.00000000000E+00 0. -1.
          6    2    1    2  501    0  0.11272476844E+02  0.29600780266E+02 -0.23568244616E+03  0.29320830959E+03  0.17152732277E+03 0.  0.
         24    2    3    3    0    0 -0.32735790475E+01 -0.12427905008E+02 -0.23517704936E+03  0.24848310916E+03  0.79186121551E+02 0.  0.
         -6    2    1    2    0  503 -0.11272476844E+02 -0.29600780266E+02 -0.42891471795E+03  0.46248277076E+03  0.17005647017E+03 0.  0.
        -24    2    5    5    0    0  0.16893704595E+02 -0.10331437675E+01 -0.41189592077E+03  0.41865158221E+03  0.72968713145E+02 0.  0.
          5    1    3    3  501    0  0.14546055892E+02  0.42028685274E+02 -0.50539679701E+00  0.44725200433E+02  0.47000000000E+01 0. -1.
        -11    1    4    4    0    0  0.35182794193E+02  0.73044229875E+01 -0.12714648861E+03  0.13212650442E+03  0.00000000000E+00 0.  1.
         12    1    4    4    0    0 -0.38456373240E+02 -0.19732327996E+02 -0.10803056075E+03  0.11635660474E+03  0.00000000000E+00 0. -1.
         -5    1    5    5    0  503 -0.28166181440E+02 -0.28567636498E+02 -0.17018797176E+02  0.43831188545E+02  0.47000000000E+01 0.  1.
         13    1    6    6    0    0 -0.56198872855E+01  0.33168139711E+02 -0.20515017525E+03  0.20789012249E+03  0.00000000000E+00 0. -1.
        -14    1    6    6    0    0  0.22513591881E+02 -0.34201283479E+02 -0.20674574552E+03  0.21076145972E+03  0.00000000000E+00 0.  1.
</event>
<event>
12    1  0.8798177E-003  0.1873249E+03  0.7818608E-02  0.1164817E+00
         21   -1    0    0  501  502  0.00000000000E+00  0.00000000000E+00  0.15591769846E+03  0.15591769846E+03  0.00000000000E+00 0.  1.
         21   -1    0    0  502  503 -0.00000000000E+00 -0.00000000000E+00 -0.20606895019E+03  0.20606895019E+03  0.00000000000E+00 0. -1.
          6    2    1    2  501    0  0.43927728238E+02 -0.61284844977E+02 -0.19529331120E+02  0.17217538291E+03  0.15354963423E+03 0.  0.
         24    2    3    3    0    0  0.67079843957E+02 -0.31900232400E+02 -0.53247549663E+02  0.12159392207E+03  0.80202556361E+02 0.  0.
         -6    2    1    2    0  503 -0.43927728238E+02  0.61284844977E+02 -0.30621920608E+02  0.18981126574E+03  0.17147926128E+03 0.  0.
        -24    2    5    5    0    0 -0.16419088286E+02  0.42005756143E+02  0.48867518766E+02  0.10338748712E+03  0.79163552813E+02 0.  0.
          5    1    3    3  501    0 -0.23152115718E+02 -0.29384612577E+02  0.33718218543E+02  0.50581460835E+02  0.47000000000E+01 0. -1.
        -13    1    4    4    0    0  0.10072172062E+02 -0.26204028617E+02  0.15528390268E+02  0.32081625117E+02  0.00000000000E+00 0.  1.
         14    1    4    4    0    0  0.57007671895E+02 -0.56962037823E+01 -0.68775939932E+02  0.89512296953E+02  0.00000000000E+00 0. -1.
         -5    1    5    5    0  503 -0.27508639952E+02  0.19279088834E+02 -0.79489439374E+02  0.86423778616E+02  0.47000000000E+01 0.  1.
         11    1    6    6    0    0 -0.48240017765E+02  0.21998839315E+02  0.23207044587E+02  0.57875859939E+02  0.00000000000E+00 0. -1.
        -12    1    6    6    0    0  0.31820929479E+02  0.20006916828E+02  0.25660474179E+02  0.45511627184E+02  0.00000000000E+00 0.  1.
</event>
<event>
12    1  0.8798177E-003  0.1943843E+03  0.7818608E-02  0.1155047E+00
         21   -1    0    0  503  502  0.00000000000E+00  0.00000000000E+00  0.13967383234E+03  0.13967383234E+03  0.00000000000E+00 0. -1.
         21   -1    0    0  501  503 -0.00000000000E+00 -0.00000000000E+00 -0.31611337426E+03  0.31611337426E+03  0.00000000000E+00 0.  1.
          6    2    1    2  501    0  0.79217494232E+02  0.35088966786E+02 -0.17802273753E+03  0.26358556680E+03  0.17400749686E+03 0.  0.
         24    2    3    3    0    0  0.19954960659E+02 -0.41508273992E+02 -0.53227306525E+02  0.10555020752E+03  0.78654706683E+02 0.  0.
         -6    2    1    2    0  502 -0.79217494232E+02 -0.35088966786E+02  0.15831956175E+01  0.19220163980E+03  0.17155849397E+03 0.  0.
        -24    2    5    5    0    0  0.82509259011E+01 -0.25787565436E+02 -0.42504904435E+02  0.93697370081E+02  0.78990214265E+02 0.  0.
          5    1    3    3  501    0  0.59262533573E+02  0.76597240778E+02 -0.12479543101E+03  0.15803535927E+03  0.47000000000E+01 0. -1.
        -13    1    4    4    0    0  0.86722904930E+01  0.96824922263E+01 -0.51486441706E+02  0.53101911054E+02  0.00000000000E+00 0.  1.
         14    1    4    4    0    0  0.11282670166E+02 -0.51190766219E+02 -0.17408648192E+01  0.52448296468E+02  0.00000000000E+00 0. -1.
         -5    1    5    5    0  502 -0.87468420133E+02 -0.93014013497E+01  0.44088100053E+02  0.98504269724E+02  0.47000000000E+01 0.  1.
         11    1    6    6    0    0  0.25220325599E+02 -0.38664552357E+02 -0.10794977722E-01  0.46162891469E+02  0.00000000000E+00 0. -1.
        -12    1    6    6    0    0 -0.16969399698E+02  0.12876986921E+02 -0.42494109457E+02  0.47534478611E+02  0.00000000000E+00 0.  1.
</event>
<event>
12    1  0.8798177E-003  0.2479421E+03  0.7818608E-02  0.1114650E+00
         21   -1    0    0  503  502  0.00000000000E+00  0.00000000000E+00  0.13927223060E+04  0.13927223060E+04  0.00000000000E+00 0.  1.
         21   -1    0    0  501  503 -0.00000000000E+00 -0.00000000000E+00 -0.46760402229E+02  0.46760402229E+02  0.00000000000E+00 0. -1.
          6    2    1    2  501    0  0.14928756350E+03  0.95653878303E+02  0.50094619135E+03  0.55884268330E+03  0.17297866052E+03 0.  0.
         24    2    3    3    0    0  0.36868935236E+02  0.92614197747E+02  0.33151613142E+03  0.35543220460E+03  0.80575422181E+02 0.  0.
         -6    2    1    2    0  502 -0.14928756350E+03 -0.95653878303E+02  0.84501571240E+03  0.88064002491E+03  0.17331721847E+03 0.  0.
        -24    2    5    5    0    0 -0.12285214807E+03 -0.79972655203E+02  0.38266161553E+03  0.41724156480E+03  0.78564212743E+02 0.  0.
          5    1    3    3  501    0  0.11241862827E+03  0.30396805555E+01  0.16943005993E+03  0.20341047870E+03  0.47000000000E+01 0. -1.
        -13    1    4    4    0    0  0.60020788449E+02  0.70009253255E+02  0.27798867348E+03  0.29288477798E+03  0.00000000000E+00 0.  1.
         14    1    4    4    0    0 -0.23151853213E+02  0.22604944492E+02  0.53527457944E+02  0.62547426619E+02  0.00000000000E+00 0. -1.
         -5    1    5    5    0  502 -0.26435415429E+02 -0.15681223100E+02  0.46235409686E+03  0.46339846011E+03  0.47000000000E+01 0.  1.
         11    1    6    6    0    0 -0.67416971997E+02 -0.84189766096E+02  0.28700910471E+03  0.30660592136E+03  0.00000000000E+00 0. -1.
        -12    1    6    6    0    0 -0.55435176076E+02  0.42171108924E+01  0.95652510824E+02  0.11063564343E+03  0.00000000000E+00 0.  1.
</event>
<event>
12    1  0.8798177E-003  0.2161129E+03  0.7818608E-02  0.1136869E+00
         21   -1    0    0  501  502  0.00000000000E+00  0.00000000000E+00  0.26202043705E+03  0.26202043705E+03  0.00000000000E+00 0.  1.
         21   -1    0    0  502  503 -0.00000000000E+00 -0.00000000000E+00 -0.18325655063E+03  0.18325655063E+03  0.00000000000E+00 0.  1.
          6    2    1    2  501    0 -0.91784663261E+02  0.92429323363E+02  0.77057870862E+02  0.22944000387E+03  0.17244476127E+03 0.  0.
         24    2    3    3    0    0 -0.52468095200E+01  0.18599908088E+02  0.75883904051E+02  0.11558460924E+03  0.85017347685E+02 0.  0.
         -6    2    1    2    0  503  0.91784663261E+02 -0.92429323363E+02  0.17060155588E+01  0.21583698381E+03  0.17209035087E+03 0.  0.
        -24    2    5    5    0    0  0.58236965911E+02 -0.10594087707E+03  0.51995686363E+02  0.15371491792E+03  0.79433689064E+02 0.  0.
          5    1    3    3  501    0 -0.86537853741E+02  0.73829415276E+02  0.11739668115E+01  0.11385539464E+03  0.47000000000E+01 0. -1.
        -13    1    4    4    0    0 -0.26205755100E+01  0.45350545574E+02  0.76189205190E+02  0.88703632323E+02  0.00000000000E+00 0.  1.
         14    1    4    4    0    0 -0.26262340100E+01 -0.26750637487E+02 -0.30530113927E+00  0.26880976913E+02  0.00000000000E+00 0. -1.
         -5    1    5    5    0  503  0.33547697350E+02  0.13511553702E+02 -0.50289670805E+02  0.62122065891E+02  0.47000000000E+01 0.  1.
         11    1    6    6    0    0  0.74944026917E+01 -0.86804954245E+02  0.15892034246E+02  0.88565359513E+02  0.00000000000E+00 0. -1.
        -12    1    6    6    0    0  0.50742563219E+02 -0.19135922821E+02  0.36103652117E+02  0.65149558406E+02  0.00000000000E+00 0.  1.
</event>
<event>
12    1  0.8798177E-003  0.2229090E+03  0.7818608E-02  0.1131905E+00
         21   -1    0    0  501  502  0.00000000000E+00  0.00000000000E+00  0.40279178571E+03  0.40279178571E+03  0.00000000000E+00 0. -1.
         21   -1    0    0  502  503 -0.00000000000E+00 -0.00000000000E+00 -0.14481613351E+03  0.14481613351E+03  0.00000000000E+00 0. -1.
          6    2    1    2  501    0  0.22567938845E+02 -0.13905065031E+03  0.23541287590E+03  0.32355992775E+03  0.17154419106E+03 0.  0.
         24    2    3    3    0    0  0.47950351249E+02 -0.10681423397E+02  0.72166612722E+02  0.11428891274E+03  0.73760467688E+02 0.  0.
         -6    2    1    2    0  503 -0.22567938845E+02  0.13905065031E+03  0.22562776302E+02  0.22404799148E+03  0.17275424277E+03 0.  0.
        -24    2    5    5    0    0  0.46131371511E+02  0.12045993286E+03  0.19530718770E+02  0.15265826259E+03  0.79274190615E+02 0.  0.
          5    1    3    3  501    0 -0.25382412404E+02 -0.12836922692E+03  0.16324626318E+03  0.20927101500E+03  0.47000000000E+01 0. -1.
        -13    1    4    4    0    0  0.15139144882E+01  0.20160999763E+02 -0.32796120576E+01  0.20482033683E+02  0.00000000000E+00 0.  1.
         14    1    4    4    0    0  0.46436436761E+02 -0.30842423161E+02  0.75446224780E+02  0.93806879060E+02  0.00000000000E+00 0. -1.
         -5    1    5    5    0  503 -0.68699310356E+02  0.18590717451E+02  0.30320575320E+01  0.71389728895E+02  0.47000000000E+01 0.  1.
         13    1    6    6    0    0 -0.50059681332E+01  0.30850181781E+02 -0.25255740926E+02  0.40182656490E+02  0.00000000000E+00 0. -1.
        -14    1    6    6    0    0  0.51137339644E+02  0.89609751083E+02  0.44786459696E+02  0.11247560610E+03  0.00000000000E+00 0.  1.
</event>
<event>
12    1  0.8798177E-003  0.2187743E+03  0.7818608E-02  0.1134987E+00
         21   -1    0    0  503  502  0.00000000000E+00  0.00000000000E+00  0.59604719043E+03  0.59604719043E+03  0.00000000000E+00 0.  1.
         21   -1    0    0  501  503 -0.00000000000E+00 -0.00000000000E+00 -0.80574315720E+02  0.80574315720E+02  0.00000000000E+00 0. -1.
          6    2    1    2  501    0  0.13539005433E+03 -0.73356874295E+00  0.22701121247E+03  0.31458241273E+03  0.17057842441E+03 0.  0.
         24    2    3    3    0    0  0.65041720780E+02 -0.43040145041E+02  0.56353241893E+02  0.12514913331E+03  0.80023360139E+02 0.  0.
         -6    2    1    2    0  502 -0.13539005433E+03  0.73356874295E+00  0.28846166224E+03  0.36203909342E+03  0.17184635477E+03 0.  0.
        -24    2    5    5    0    0 -0.97432939708E+02 -0.67103365174E+02  0.17714199110E+03  0.22618346661E+03  0.76050221554E+02 0.  0.
          5    1    3    3  501    0  0.70348333553E+02  0.42306576298E+02  0.17065797058E+03  0.18943327942E+03  0.47000000000E+01 0. -1.
        -13    1    4    4    0    0  0.51532333134E+02 -0.34134586427E+01  0.64365001117E+02  0.82523247797E+02  0.00000000000E+00 0.  1.
         14    1    4    4    0    0  0.13509387646E+02 -0.39626686398E+02 -0.80117592238E+01  0.42625885508E+02  0.00000000000E+00 0. -1.
         -5    1    5    5    0  502 -0.37957114625E+02  0.67836933917E+02  0.11131967114E+03  0.13585562682E+03  0.47000000000E+01 0.  1.
         13    1    6    6    0    0 -0.52240953167E+02 -0.11722200722E+02  0.27150981768E+02  0.60030850307E+02  0.00000000000E+00 0. -1.
        -14    1    6    6    0    0 -0.45191986541E+02 -0.55381164452E+02  0.14999100933E+03  0.16615261630E+03  0.00000000000E+00 0.  1.
</event>
<event>
12    1  0.8798177E-003  0.1850610E+03  0.7818608E-02  0.1163905E+00
         21   -1    0    0  503  502  0.00000000000E+00  0.00000000000E+00  0.11151584699E+03  0.11151584699E+03  0.00000000000E+00 0.  1.
         21   -1    0    0  501  503 -0.00000000000E+00 -0.00000000000E+00 -0.33644990912E+03  0.33644990912E+03  0.00000000000E+00 0.  1.
          6    2    1    2  501    0  0.56683742525E+01  0.57659873338E+02 -0.18650122307E+03  0.26273617007E+03  0.17575778047E+03 0.  0.
         24    2    3    3    0    0  0.69662181168E+02  0.38297879578E+02 -0.14465031432E+03  0.18371919285E+03  0.80681356719E+02 0.  0.
         -6    2    1    2    0  502 -0.56683742525E+01 -0.57659873338E+02 -0.38432839058E+02  0.18522958605E+03  0.17168612340E+03 0.  0.
        -24    2    5    5    0    0 -0.45732517779E+02 -0.24707475974E+02  0.29033480989E+02  0.99995846078E+02  0.80338680989E+02 0.  0.
          5    1    3    3  501    0 -0.63993806915E+02  0.19361993760E+02 -0.41850908747E+02  0.79016977219E+02  0.47000000000E+01 0. -1.
        -13    1    4    4    0    0  0.32736718818E+02  0.17952748375E+02 -0.47893598358E+01  0.37642155900E+02  0.00000000000E+00 0.  1.
         14    1    4    4    0    0  0.36925462350E+02  0.20345131203E+02 -0.13986095449E+03  0.14607703695E+03  0.00000000000E+00 0. -1.
         -5    1    5    5    0  502  0.40064143527E+02 -0.32952397364E+02 -0.67466320047E+02  0.85233739970E+02  0.47000000000E+01 0.  1.
         11    1    6    6    0    0 -0.41692524290E+02  0.23128524981E+02  0.14914715268E+02  0.49956420819E+02  0.00000000000E+00 0. -1.
        -12    1    6    6    0    0 -0.40399934889E+01 -0.47836000955E+02  0.14118765721E+02  0.50039425259E+02  0.00000000000E+00 0.  1.
</event>
<event>
12    1  0.8798177E-003  0.2633503E+03  0.7818608E-02  0.1106071E+00
         21   -1    0    0  501  502  0.00000000000E+00  0.00000000000E+00  0.57202825141E+02  0.57202825141E+02  0.00000000000E+00 0. -1.
         21   -1    0    0  502  503 -0.00000000000E+00 -0.00000000000E+00 -0.12480464282E+04  0.12480464282E+04  0.00000000000E+00 0. -1.
          6    2    1    2  501    0  0.69224704396E+02 -0.17843855796E+03 -0.44103900574E+03  0.51054157689E+03  0.17176995806E+03 0.  0.
         24    2    3    3    0    0  0.99562809828E+02 -0.12708548181E+03 -0.23563373448E+03  0.29660010234E+03  0.79905513578E+02 0.  0.
         -6    2    1    2    0  503 -0.69224704396E+02  0.17843855796E+03 -0.74980459729E+03  0.79470767641E+03  0.18088940867E+03 0.  0.
        -24    2    5    5    0    0 -0.10946263946E+03  0.80482096282E+02 -0.48935360567E+03  0.51351135915E+03  0.75944238377E+02 0.  0.
          5    1    3    3  501    0 -0.30338105432E+02 -0.51353076151E+02 -0.20540527126E+03  0.21394147455E+03  0.47000000000E+01 0. -1.
        -11    1    4    4    0    0  0.89697648207E+02 -0.68761128468E+02 -0.10988872007E+03  0.15763658103E+03  0.00000000000E+00 0.  1.
         12    1    4    4    0    0  0.98651616208E+01 -0.58324353338E+02 -0.12574501441E+03  0.13896352131E+03  0.00000000000E+00 0. -1.
         -5    1    5    5    0  503  0.40237935067E+02  0.97956461675E+02 -0.26045099162E+03  0.28119631726E+03  0.47000000000E+01 0.  1.
         11    1    6    6    0    0 -0.54082323229E+02  0.72899885982E+02 -0.38010942267E+03  0.39079721630E+03  0.00000000000E+00 0. -1.
        -12    1    6    6    0    0 -0.55380316233E+02  0.75822103007E+01 -0.10924418299E+03  0.12271414286E+03  0.00000000000E+00 0.  1.
</event>
<event>
12    1  0.8798177E-003  0.2220241E+03  0.7818608E-02  0.1132436E+00
         21   -1    0    0  501  502  0.00000000000E+00  0.00000000000E+00  0.69935799396E+03  0.69935799396E+03  0.00000000000E+00 0. -1.
         21   -1    0    0  502  503 -0.00000000000E+00 -0.00000000000E+00 -0.85960944213E+02  0.85960944213E+02  0.00000000000E+00 0. -1.
          6    2    1    2  501    0  0.11784245601E+03  0.76111624667E+02  0.47395512626E+03  0.52338146291E+03  0.17208971545E+03 0.  0.
         24    2    3    3    0    0  0.45137933655E+02  0.74014106216E+00  0.10083497445E+03  0.13581528043E+03  0.78994414132E+02 0.  0.
         -6    2    1    2    0  503 -0.11784245601E+03 -0.76111624667E+02  0.13944192349E+03  0.26193747526E+03  0.17171886056E+03 0.  0.
        -24    2    5    5    0    0 -0.88980809080E+02 -0.11201752941E+03  0.68187604508E+02  0.17695808581E+03  0.78734385402E+02 0.  0.
          5    1    3    3  501    0  0.72704522355E+02  0.75371483605E+02  0.37312015181E+03  0.38756618248E+03  0.47000000000E+01 0. -1.
        -13    1    4    4    0    0  0.64252937224E+02  0.12099099605E+02  0.89554831037E+02  0.11088235168E+03  0.00000000000E+00 0.  1.
         14    1    4    4    0    0 -0.19115003569E+02 -0.11358958542E+02  0.11280143408E+02  0.24932928747E+02  0.00000000000E+00 0. -1.
         -5    1    5    5    0  503 -0.28861646930E+02  0.35905904742E+02  0.71254318979E+02  0.84979389455E+02  0.47000000000E+01 0.  1.
         11    1    6    6    0    0 -0.26350205935E+02 -0.89852723950E+02  0.56899002752E+02  0.10956889097E+03  0.00000000000E+00 0. -1.
        -12    1    6    6    0    0 -0.62630603145E+02 -0.22164805459E+02  0.11288601756E+02  0.67389194838E+02  0.00000000000E+00 0.  1.
</event>
<event>
12    1  0.8798177E-003  0.1912822E+03  0.7818608E-02  0.1157382E+00
         21   -1    0    0  501  502  0.00000000000E+00  0.00000000000E+00  0.25775242103E+03  0.25775242103E+03  0.00000000000E+00 0. -1.
         21   -1    0    0  502  503 -0.00000000000E+00 -0.00000000000E+00 -0.14222290128E+03  0.14222290128E+03  0.00000000000E+00 0. -1.
          6    2    1    2  501    0  0.82684556277E+02 -0.13355087154E+02  0.45865628725E+02  0.19670417756E+03  0.17197029794E+03 0.  0.
         24    2    3    3    0    0  0.76681729645E+02 -0.71074842299E+02  0.39918460999E+02  0.13818014092E+03  0.81046572697E+02 0.  0.
         -6    2    1    2    0  503 -0.82684556277E+02  0.13355087154E+02  0.69663891032E+02  0.20327114475E+03  0.17161295515E+03 0.  0.
        -24    2    5    5    0    0 -0.12225887634E+03  0.20827934353E+02  0.32833519625E+02  0.14849399156E+03  0.74775596448E+02 0.  0.
          5    1    3    3  501    0  0.60028266320E+01  0.57719755145E+02  0.59471677260E+01  0.58524036648E+02  0.47000000000E+01 0. -1.
        -11    1    4    4    0    0 -0.43043577563E+01 -0.18407798575E+02 -0.17532277675E+02  0.25782849039E+02  0.00000000000E+00 0.  1.
         12    1    4    4    0    0  0.80986087402E+02 -0.52667043724E+02  0.57450738674E+02  0.11239729188E+03  0.00000000000E+00 0. -1.
         -5    1    5    5    0  503  0.39574320064E+02 -0.74728471987E+01  0.36830371407E+02  0.54777153191E+02  0.47000000000E+01 0.  1.
         11    1    6    6    0    0 -0.86683398275E+01 -0.78234273607E+01  0.29022911872E+02  0.31283790445E+02  0.00000000000E+00 0. -1.
        -12    1    6    6    0    0 -0.11359053651E+03  0.28651361713E+02  0.38106077529E+01  0.11721020111E+03  0.00000000000E+00 0.  1.
</event>
<event>
12    1  0.8798177E-003  0.1782077E+03  0.7818608E-02  0.1170154E+00
         21   -1    0    0  501  502  0.00000000000E+00  0.00000000000E+00  0.39138715900E+03  0.39138715900E+03  0.00000000000E+00 0. -1.
         21   -1    0    0  502  503 -0.00000000000E+00 -0.00000000000E+00 -0.31098995659E+03  0.31098995659E+03  0.00000000000E+00 0. -1.
          6    2    1    2  501    0  0.44297816191E+02 -0.89635490557E+01  0.34277114154E+03  0.38520510530E+03  0.16984780230E+03 0.  0.
         24    2    3    3    0    0  0.39350875881E+02  0.61491809046E+02  0.22927004950E+03  0.25144032070E+03  0.72991405427E+02 0.  0.
         -6    2    1    2    0  503 -0.44297816191E+02  0.89635490557E+01 -0.26237393913E+03  0.31717201028E+03  0.17238143299E+03 0.  0.
        -24    2    5    5    0    0  0.18744476335E+02 -0.47536252848E+02 -0.17781717235E+03  0.19742855506E+03  0.68906000024E+02 0.  0.
          5    1    3    3  501    0  0.49469403101E+01 -0.70455358102E+02  0.11350109205E+03  0.13376478460E+03  0.47000000000E+01 0. -1.
        -13    1    4    4    0    0  0.42535910518E+02  0.44330737878E+02  0.78597274929E+02  0.99759960058E+02  0.00000000000E+00 0.  1.
         14    1    4    4    0    0 -0.31850346371E+01  0.17161071168E+02  0.15067277457E+03  0.15168036065E+03  0.00000000000E+00 0. -1.
         -5    1    5    5    0  503 -0.63042292526E+02  0.56499801903E+02 -0.84556766780E+02  0.11974345523E+03  0.47000000000E+01 0.  1.
         13    1    6    6    0    0 -0.18483545211E+02  0.32611292878E+01 -0.70893419677E+02  0.73335894086E+02  0.00000000000E+00 0. -1.
        -14    1    6    6    0    0  0.37228021546E+02 -0.50797382136E+02 -0.10692375268E+03  0.12409266097E+03  0.00000000000E+00 0.  1.
</event>
<event>
12    1  0.8798177E-003  0.2786221E+03  0.7818608E-02  0.1096520E+00
         21   -1    0    0  503  502  0.00000000000E+00  0.00000000000E+00  0.93111488398E+02  0.93111488398E+02  0.00000000000E+00 0.  1.
         21   -1    0    0  501  503 -0.00000000000E+00 -0.00000000000E+00 -0.88184654855E+03  0.88184654855E+03  0.00000000000E+00 0. -1.
          6    2    1    2  501    0 -0.12122251057E+03  0.18224369093E+03 -0.50979421264E+03  0.58070140821E+03  0.17151188387E+03 0.  0.
         24    2    3    3    0    0 -0.14589331162E+02  0.10394190868E+03 -0.34456089480E+03  0.36898002673E+03  0.80045492915E+02 0.  0.
         -6    2    1    2    0  502  0.12122251057E+03 -0.18224369093E+03 -0.27894084751E+03  0.39425662873E+03  0.17240253170E+03 0.  0.
        -24    2    5    5    0    0  0.14109504673E+03 -0.93539991086E+02 -0.16844157997E+03  0.25109433556E+03  0.77577428047E+02 0.  0.
          5    1    3    3  501    0 -0.10663317940E+03  0.78301782246E+02 -0.16523331784E+03  0.21172138148E+03  0.47000000000E+01 0. -1.
        -13    1    4    4    0    0  0.31289640226E+02  0.39856945152E+02 -0.10123948477E+03  0.11321241513E+03  0.00000000000E+00 0.  1.
         14    1    4    4    0    0 -0.45878971389E+02  0.64084963532E+02 -0.24332141003E+03  0.25576761160E+03  0.00000000000E+00 0. -1.
         -5    1    5    5    0  502 -0.19872536167E+02 -0.88703699844E+02 -0.11049926754E+03  0.14316229317E+03  0.47000000000E+01 0.  1.
         11    1    6    6    0    0 -0.60994369441E+00  0.86262494995E+01 -0.20221276225E+02  0.21992822100E+02  0.00000000000E+00 0. -1.
        -12    1    6    6    0    0  0.14170499043E+03 -0.10216624059E+03 -0.14822030375E+03  0.22910151346E+03  0.00000000000E+00 0.  1.
</event>
<event>
12    1  0.8798177E-003  0.2902414E+03  0.7818608E-02  0.1090868E+00
         21   -1    0    0  501  502  0.00000000000E+00  0.00000000000E+00  0.80489689442E+03  0.80489689442E+03  0.00000000000E+00 0. -1.
         21   -1    0    0  502  503 -0.00000000000E+00 -0.00000000000E+00 -0.10292541484E+03  0.10292541484E+03  0.00000000000E+00 0. -1.
          6    2    1    2  501    0 -0.52408220532E+02  0.22189488565E+03  0.35526432965E+03  0.45566533009E+03  0.17156394515E+03 0.  0.
         24    2    3    3    0    0 -0.16170735436E+02  0.17277833333E+03  0.14906373525E+03  0.24056915122E+03  0.74428987627E+02 0.  0.
         -6    2    1    2    0  503  0.52408220532E+02 -0.22189488565E+03  0.34670714994E+03  0.45215697916E+03  0.17959990014E+03 0.  0.
        -24    2    5    5    0    0 -0.15040334598E+02 -0.20174427236E+03  0.28465254638E+03  0.35819837856E+03  0.79699706058E+02 0.  0.
          5    1    3    3  501    0 -0.36237485097E+02  0.49116552316E+02  0.20620059439E+03  0.21509617887E+03  0.47000000000E+01 0. -1.
        -11    1    4    4    0    0 -0.33646982389E+02  0.98426998217E+02  0.49810238858E+02  0.11533019248E+03  0.00000000000E+00 0.  1.
         12    1    4    4    0    0  0.17476246954E+02  0.74351335114E+02  0.99253496394E+02  0.12523895874E+03  0.00000000000E+00 0. -1.
         -5    1    5    5    0  503  0.67448555130E+02 -0.20150613289E+02  0.62054603553E+02  0.93958600603E+02  0.47000000000E+01 0.  1.
         13    1    6    6    0    0 -0.28461108564E+02 -0.22943146498E+02  0.33329558996E+02  0.49470012884E+02  0.00000000000E+00 0. -1.
        -14    1    6    6    0    0  0.13420773967E+02 -0.17880112586E+03  0.25132298739E+03  0.30872836567E+03  0.00000000000E+00 0.  1.
</event>
<event>
12    1  0.8798177E-003  0.1877837E+03  0.7818608E-02  0.1160610E+00
         21   -1    0    0  503  502  0.00000000000E+00  0.00000000000E+00  0.19344074840E+03  0.19344074840E+03  0.00000000000E+00 0. -1.
         21   -1    0    0  501  503 -0.00000000000E+00 -0.00000000000E+00 -0.18209680985E+03  0.18209680985E+03  0.00000000000E+00 0. -1.
          6    2    1    2  501    0 -0.48561349483E+02 -0.51961799218E+02 -0.28109387623E+01  0.18780472121E+03  0.17379435748E+03 0.  0.
         24    2    3    3    0    0 -0.92263719598E+02 -0.70115733097E+02  0.13972820859E+01  0.14006310843E+03  0.78656925714E+02 0.  0.
         -6    2    1    2    0  502  0.48561349483E+02  0.51961799218E+02  0.14154877317E+02  0.18773283704E+03  0.17316184427E+03 0.  0.
        -24    2    5    5    0    0  0.87393143070E+02  0.59168210744E+02  0.43606403971E+02  0.13824220174E+03  0.77916296472E+02 0.  0.
          5    1    3    3  501    0  0.43702370115E+02  0.18153933879E+02 -0.42082208482E+01  0.47741612788E+02  0.47000000000E+01 0. -1.
        -13    1    4    4    0    0 -0.13917585084E+02  0.52226877699E+01  0.24768231493E+02  0.28886691285E+02  0.00000000000E+00 0.  1.
         14    1    4    4    0    0 -0.78346134513E+02 -0.75338420867E+02 -0.23370949407E+02  0.11117641714E+03  0.00000000000E+00 0. -1.
         -5    1    5    5    0  502 -0.38831793586E+02 -0.72064115265E+01 -0.29451526654E+02  0.49490635301E+02  0.47000000000E+01 0.  1.
         13    1    6    6    0    0  0.52529132171E+02  0.30533458471E+02 -0.16620767724E+02  0.62990886108E+02  0.00000000000E+00 0. -1.
        -14    1    6    6    0    0  0.34864010898E+02  0.28634752273E+02  0.60227171696E+02  0.75251315630E+02  0.00000000000E+00 0.  1.
</event>
<event>
12    1  0.8798177E-003  0.2189201E+03  0.7818608E-02  0.1134729E+00
         21   -1    0    0  501  502  0.00000000000E+00  0.00000000000E+00  0.82449573854E+02  0.82449573854E+02  0.00000000000E+00 0. -1.
         21   -1    0    0  502  503 -0.00000000000E+00 -0.00000000000E+00 -0.65044856402E+03  0.65044856402E+03  0.00000000000E+00 0. -1.
          6    2    1    2  501    0 -0.11264588659E+03 -0.74106711609E+02 -0.16415186355E+03  0.27362721345E+03  0.17246772789E+03 0.  0.
         24    2    3    3    0    0  0.30076477253E+01  0.33842142844E+01 -0.54502774871E+02  0.96354552716E+02  0.79329367256E+02 0.  0.
         -6    2    1    2    0  503  0.11264588659E+03  0.74106711609E+02 -0.40384712661E+03  0.45927092442E+03  0.17221027807E+03 0.  0.
        -24    2    5    5    0    0  0.10828493647E+03  0.11431432548E+03 -0.30562297505E+03  0.35294245199E+03  0.79809642656E+02 0.  0.
          5    1    3    3  501    0 -0.11565353432E+03 -0.77490925893E+02 -0.10964908868E+03  0.17727266074E+03  0.47000000000E+01 0. -1.
        -13    1    4    4    0    0  0.13336310206E+02 -0.29790055622E+02 -0.11171741807E+01  0.32658117858E+02  0.00000000000E+00 0.  1.
         14    1    4    4    0    0 -0.10328662481E+02  0.33174269907E+02 -0.53385600690E+02  0.63696434858E+02  0.00000000000E+00 0. -1.
         -5    1    5    5    0  503  0.43609501179E+01 -0.40207613873E+02 -0.98224151568E+02  0.10632847244E+03  0.47000000000E+01 0.  1.
         11    1    6    6    0    0  0.10882596695E+02  0.16640145327E+02 -0.12022671771E+03  0.12185971032E+03  0.00000000000E+00 0. -1.
        -12    1    6    6    0    0  0.97402339779E+02  0.97674180155E+02 -0.18539625734E+03  0.23108274167E+03  0.00000000000E+00 0.  1.
</event>
<event>
12    1  0.8798177E-003  0.2171212E+03  0.7818608E-02  0.1136151E+00
         21   -1    0    0  501  502  0.00000000000E+00  0.00000000000E+00  0.11098166981E+04  0.11098166981E+04  0.00000000000E+00 0. -1.
         21   -1    0    0  502  503 -0.00000000000E+00 -0.00000000000E+00 -0.42586750886E+02  0.42586750886E+02  0.00000000000E+00 0. -1.
          6    2    1    2  501    0 -0.12874898094E+03  0.32975440189E+02  0.57529052842E+03  0.61489903842E+03  0.17169145466E+03 0.  0.
         24    2    3    3    0    0 -0.37746368277E+02 -0.21833249676E+02  0.39562132262E+03  0.40612025235E+03  0.80721430553E+02 0.  0.
         -6    2    1    2    0  503  0.12874898094E+03 -0.32975440189E+02  0.49193941881E+03  0.53750441059E+03  0.17100561358E+03 0.  0.
        -24    2    5    5    0    0 -0.38839328103E+01 -0.90355441672E+01  0.18264077097E+03  0.20008426894E+03  0.81113115254E+02 0.  0.
          5    1    3    3  501    0 -0.91002612662E+02  0.54808689864E+02  0.17966920581E+03  0.20877878607E+03  0.47000000000E+01 0. -1.
        -11    1    4    4    0    0  0.18561321105E+02 -0.16048592712E+02  0.47870722301E+02  0.53792992321E+02  0.00000000000E+00 0.  1.
         12    1    4    4    0    0 -0.56307689383E+02 -0.57846569635E+01  0.34775060032E+03  0.35232726003E+03  0.00000000000E+00 0. -1.
         -5    1    5    5    0  503  0.13263291375E+03 -0.23939896021E+02  0.30929864785E+03  0.33742014165E+03  0.47000000000E+01 0.  1.
         13    1    6    6    0    0 -0.57022473380E+01 -0.18585357616E+02  0.18798717739E+03  0.18898970873E+03  0.00000000000E+00 0. -1.
        -14    1    6    6    0    0  0.18183145277E+01  0.95498134483E+01 -0.53464064251E+01  0.11094560211E+02  0.00000000000E+00 0.  1.
</event>
<event>
12    1  0.8798177E-003  0.1814735E+03  0.7818608E-02  0.1169427E+00
         21   -1    0    0  503  502  0.00000000000E+00  0.00000000000E+00  0.73376670264E+02  0.73376670264E+02  0.00000000000E+00 0. -1.
         21   -1    0    0  501  503 -0.00000000000E+00 -0.00000000000E+00 -0.43340297997E+03  0.43340297997E+03  0.00000000000E+00 0. -1.
          6    2    1    2  501    0  0.61355464380E+02  0.43923708085E+01 -0.12784717816E+03  0.21209373817E+03  0.15765489804E+03 0.  0.
         24    2    3    3    0    0  0.70669823659E+01 -0.48503322194E+02 -0.56423991887E+02  0.10784137534E+03  0.77740471262E+02 0.  0.
         -6    2    1    2    0  502 -0.61355464380E+02 -0.43923708085E+01 -0.23217913154E+03  0.29468591206E+03  0.17073034795E+03 0.  0.
        -24    2    5    5    0    0 -0.62910449761E+02 -0.19302649976E+02 -0.56386793835E+02  0.11819293656E+03  0.80372773676E+02 0.  0.
          5    1    3    3  501    0  0.54288482014E+02  0.52895693002E+02 -0.71423186274E+02  0.10425236283E+03  0.47000000000E+01 0. -1.
        -11    1    4    4    0    0  0.12413921375E+02 -0.38146882647E+02  0.92273139958E+01  0.41163496246E+02  0.00000000000E+00 0.  1.
         12    1    4    4    0    0 -0.53469390091E+01 -0.10356439546E+02 -0.65651305883E+02  0.66677879098E+02  0.00000000000E+00 0. -1.
         -5    1    5    5    0  502  0.15549853810E+01  0.14910279168E+02 -0.17579233770E+03  0.17649297550E+03  0.47000000000E+01 0.  1.
         11    1    6    6    0    0 -0.12523378588E+02  0.28702898451E+02 -0.31132709047E+02  0.44158090576E+02  0.00000000000E+00 0. -1.
        -12    1    6    6    0    0 -0.50387071173E+02 -0.48005548428E+02 -0.25254084788E+02  0.74034845983E+02  0.00000000000E+00 0.  1.
</event>
<event>
12    1  0.8798177E-003  0.2568315E+03  0.7818608E-02  0.1109320E+00
         21   -1    0    0  503  502  0.00000000000E+00  0.00000000000E+00  0.84383494093E+03  0.84383494093E+03  0.00000000000E+00 0. -1.
         21   -1    0    0  501  503 -0.00000000000E+00 -0.00000000000E+00 -0.88511355680E+02  0.88511355680E+02  0.00000000000E+00 0.  1.
          6    2    1    2  501    0  0.14850971816E+03  0.11953936835E+03  0.21550822476E+03  0.33527034797E+03  0.17209768829E+03 0.  0.
         24    2    3    3    0    0  0.12710681965E+03  0.91148100373E+02  0.23580958799E+03  0.29405889918E+03  0.80002216207E+02 0.  0.
         -6    2    1    2    0  502 -0.14850971816E+03 -0.11953936835E+03  0.53981536049E+03  0.59707594864E+03  0.16957083490E+03 0.  0.
        -24    2    5    5    0    0 -0.15465699166E+01 -0.41577032754E+02  0.23061253561E+03  0.24592815978E+03  0.74615525576E+02 0.  0.
          5    1    3    3  501    0  0.21402898510E+02  0.28391267981E+02 -0.20301363230E+02  0.41211448788E+02  0.47000000000E+01 0. -1.
        -11    1    4    4    0    0  0.34861886654E+02  0.13595961292E+02  0.11029741059E+02  0.39010979126E+02  0.00000000000E+00 0.  1.
         12    1    4    4    0    0  0.92244932994E+02  0.77552139080E+02  0.22477984693E+03  0.25504792006E+03  0.00000000000E+00 0. -1.
         -5    1    5    5    0  502 -0.14696314824E+03 -0.77962335600E+02  0.30920282488E+03  0.35114778887E+03  0.47000000000E+01 0.  1.
         13    1    6    6    0    0 -0.28112468119E+02 -0.10803463007E+01  0.14373532335E+03  0.14646269556E+03  0.00000000000E+00 0. -1.
        -14    1    6    6    0    0  0.26565898202E+02 -0.40496686453E+02  0.86877212265E+02  0.99465464217E+02  0.00000000000E+00 0.  1.
</event>
<event>
12    1  0.8798177E-003  0.1867163E+03  0.7818608E-02  0.1161469E+00
         21   -1    0    0  501  502  0.00000000000E+00  0.00000000000E+00  0.14779588424E+03  0.14779588424E+03  0.00000000000E+00 0. -1.
         21   -1    0    0  502  503 -0.00000000000E+00 -0.00000000000E+00 -0.34919975537E+03  0.34919975537E+03  0.00000000000E+00 0. -1.
          6    2    1    2  501    0  0.79459281867E+01 -0.70210475168E+02  0.40905882622E+02  0.19109204878E+03  0.17277219474E+03 0.  0.
         24    2    3    3    0    0 -0.14912486810E+02  0.20001196923E+02  0.53123259313E+02  0.97113289419E+02  0.77372347518E+02 0.  0.
         -6    2    1    2    0  503 -0.79459281867E+01  0.70210475168E+02 -0.24230975375E+03  0.30590359082E+03  0.17283038366E+03 0.  0.
        -24    2    5    5    0    0 -0.68085235074E+02  0.21385732213E+02 -0.16650945187E+03  0.19742148390E+03  0.78465890457E+02 0.  0.
          5    1    3    3  501    0  0.22858414996E+02 -0.90211672090E+02 -0.12217376691E+02  0.93978759359E+02  0.47000000000E+01 0. -1.
        -13    1    4    4    0    0 -0.24019983024E+02  0.11413176984E+00 -0.13107659709E+02  0.27363906037E+02  0.00000000000E+00 0.  1.
         14    1    4    4    0    0  0.91074962147E+01  0.19887065153E+02  0.66230919022E+02  0.69749383382E+02  0.00000000000E+00 0. -1.
         -5    1    5    5    0  503  0.60139306887E+02  0.48824742955E+02 -0.75800301877E+02  0.10848210692E+03  0.47000000000E+01 0.  1.
         11    1    6    6    0    0 -0.36789489437E+02 -0.25710229504E+02 -0.10319055167E+03  0.11252898465E+03  0.00000000000E+00 0. -1.
        -12    1    6    6    0    0 -0.31295745637E+02  0.47095961716E+02 -0.63318900210E+02  0.84892499249E+02  0.00000000000E+00 0.  1.
</event>
<event>
12    1  0.8798177E-003  0.2219676E+03  0.7818608E-02  0.1132663E+00
         21   -1    0    0  501  502  0.00000000000E+00  0.00000000000E+00  0.31520778088E+03  0.31520778088E+03  0.00000000000E+00 0. -1.
         21   -1    0    0  502  503 -0.00000000000E+00 -0.00000000000E+00 -0.15579155362E+03  0.15579155362E+03  0.00000000000E+00 0. -1.
          6    2    1    2  501    0  0.25737699966E+02 -0.13796905960E+03  0.67705652817E+02  0.23083182030E+03  0.17029792493E+03 0.  0.
         24    2    3    3    0    0 -0.46213101326E+02 -0.65636988139E+02  0.13179891021E+02  0.11505619650E+03  0.81365557080E+02 0.  0.
         -6    2    1    2    0  503 -0.25737699966E+02  0.13796905960E+03  0.91710574443E+02  0.24016751420E+03  0.17196428352E+03 0.  0.
        -24    2    5    5    0    0 -0.36439356731E+02  0.93207695608E+02  0.13020905238E+03  0.17998173542E+03  0.73644596038E+02 0.  0.
          5    1    3    3  501    0  0.71950801292E+02 -0.72332071462E+02  0.54525761796E+02  0.11577562381E+03  0.47000000000E+01 0. -1.
        -13    1    4    4    0    0  0.15301921171E+01 -0.52419343989E+02 -0.19230975668E+02  0.55856597974E+02  0.00000000000E+00 0.  1.
         14    1    4    4    0    0 -0.47743293443E+02 -0.13217644151E+02  0.32410866690E+02  0.59199598523E+02  0.00000000000E+00 0. -1.
         -5    1    5    5    0  503  0.10701656765E+02  0.44761363993E+02 -0.38498477935E+02  0.60185778780E+02  0.47000000000E+01 0.  1.
         13    1    6    6    0    0 -0.34303165820E+02  0.10558181715E+03  0.11066483631E+03  0.15675118275E+03  0.00000000000E+00 0. -1.
        -14    1    6    6    0    0 -0.21361909112E+01 -0.12374121547E+02  0.19544216072E+02  0.23230552674E+02  0.00000000000E+00 0.  1.
</event>
<event>
12    1  0.8798177E-003  0.1956873E+03  0.7818608E-02  0.1154952E+00
         21   -1    0    0  503  502  0.00000000000E+00  0.00000000000E+00  0.12929552354E+02  0.12929552354E+02  0.00000000000E+00 0.  1.
         21   -1    0    0  501  503 -0.00000000000E+00 -0.00000000000E+00 -0.28592196616E+04  0.28592196616E+04  0.00000000000E+00 0.  1.
          6    2    1    2  501    0  0.55802246567E+02  0.73423571888E+02 -0.13744995020E+04  0.13874064396E+04  0.16475082974E+03 0.  0.
         24    2    3    3    0    0  0.36233475492E+02  0.31345758826E+02 -0.12654421439E+04  0.12687933015E+04  0.78722304047E+02 0.  0.
         -6    2    1    2    0  502 -0.55802246567E+02 -0.73423571888E+02 -0.14717906072E+04  0.14847427744E+04  0.17259375108E+03 0.  0.
        -24    2    5    5    0    0 -0.43050914057E+01 -0.10779017849E+03 -0.10270193190E+04  0.10356585847E+04  0.78630566258E+02 0.  0.
          5    1    3    3  501    0  0.19568771075E+02  0.42077813061E+02 -0.10905735813E+03  0.11861313804E+03  0.47000000000E+01 0. -1.
        -11    1    4    4    0    0 -0.15558907131E+02  0.17880959981E+02 -0.78887592583E+03  0.78923192705E+03  0.00000000000E+00 0.  1.
         12    1    4    4    0    0  0.51792382622E+02  0.13464798845E+02 -0.47656621805E+03  0.47956137447E+03  0.00000000000E+00 0. -1.
         -5    1    5    5    0  502 -0.51497155161E+02  0.34366606605E+02 -0.44477128818E+03  0.44908418968E+03  0.47000000000E+01 0.  1.
         11    1    6    6    0    0 -0.16649910094E+02 -0.17675237100E+02 -0.51853621696E+03  0.51910446137E+03  0.00000000000E+00 0. -1.
        -12    1    6    6    0    0  0.12344818688E+02 -0.90114941393E+02 -0.50848310207E+03  0.51655412330E+03  0.00000000000E+00 0.  1.
</event>
<event>
12    1  0.8798177E-003  0.1807160E+03  0.7818608E-02  0.1167302E+00
         21   -1    0    0  503  502  0.00000000000E+00  0.00000000000E+00  0.21164228196E+03  0.21164228196E+03  0.00000000000E+00 0. -1.
         21   -1    0    0  501  503 -0.00000000000E+00 -0.00000000000E+00 -0.23845442258E+03  0.23845442258E+03  0.00000000000E+00 0. -1.
          6    2    1    2  501    0  0.51340519047E+02 -0.23598926269E+02 -0.14760737000E+03  0.23272662365E+03  0.17082443461E+03 0.  0.
         24    2    3    3    0    0 -0.83735474195E+01 -0.60515171787E+02 -0.12446700968E+03  0.15865810677E+03  0.77124289508E+02 0.  0.
         -6    2    1    2    0  502 -0.51340519047E+02  0.23598926269E+02  0.12079522938E+03  0.21737008090E+03  0.17165519629E+03 0.  0.
        -24    2    5    5    0    0 -0.43278511254E+02  0.73205791637E+02  0.57646433862E+02  0.13652642044E+03  0.89912372204E+02 0.  0.
          5    1    3    3  501    0  0.59714066466E+02  0.36916245518E+02 -0.23140360316E+02  0.74068516879E+02  0.47000000000E+01 0. -1.
        -13    1    4    4    0    0 -0.68914597654E+00 -0.78450598164E+02 -0.10523812468E+03  0.13126322471E+03  0.00000000000E+00 0.  1.
         14    1    4    4    0    0 -0.76844014430E+01  0.17935426376E+02 -0.19228884999E+02  0.27394882061E+02  0.00000000000E+00 0. -1.
         -5    1    5    5    0  502 -0.80620077928E+01 -0.49606865368E+02  0.63148795516E+02  0.80843660459E+02  0.47000000000E+01 0.  1.
         13    1    6    6    0    0  0.20194034706E+02  0.28854089055E+02  0.46444360191E+02  0.58287529425E+02  0.00000000000E+00 0. -1.
        -14    1    6    6    0    0 -0.63472545960E+02  0.44351702582E+02  0.11202073671E+02  0.78238891014E+02  0.00000000000E+00 0.  1.
</event>
<event>
12    1  0.8798177E-003  0.1938031E+03  0.7818608E-02  0.1155384E+00
         21   -1    0    0  501  502  0.00000000000E+00  0.00000000000E+00  0.10888739485E+03  0.10888739485E+03  0.00000000000E+00 0. -1.
         21   -1    0    0  502  503 -0.00000000000E+00 -0.00000000000E+00 -0.34807608675E+03  0.34807608675E+03  0.00000000000E+00 0.  1.
          6    2    1    2  501    0 -0.85574166036E+02  0.10586190160E+02 -0.90134906085E+02  0.21247081609E+03  0.17200157290E+03 0.  0.
         24    2    3    3    0    0 -0.11353308212E+03 -0.24066138596E+02 -0.94443048193E+02  0.16749154347E+03  0.75266114693E+02 0.  0.
         -6    2    1    2    0  503  0.85574166036E+02 -0.10586190160E+02 -0.14905378581E+03  0.24449266551E+03  0.17356447536E+03 0.  0.
        -24    2    5    5    0    0  0.10628366531E+03  0.26420410097E+02 -0.14970099898E+03  0.20182088669E+03  0.79542602591E+02 0.  0.
          5    1    3    3  501    0  0.27958916080E+02  0.34652328757E+02  0.43081421083E+01  0.44979272616E+02  0.47000000000E+01 0. -1.
        -13    1    4    4    0    0 -0.57767418577E+02 -0.38281369135E+02 -0.17622785671E+02  0.71505946933E+02  0.00000000000E+00 0.  1.
         14    1    4    4    0    0 -0.55765663538E+02  0.14215230538E+02 -0.76820262522E+02  0.95985596540E+02  0.00000000000E+00 0. -1.
         -5    1    5    5    0  503 -0.20709499276E+02 -0.37006600257E+02  0.64721316599E+00  0.42671778821E+02  0.47000000000E+01 0.  1.
         13    1    6    6    0    0  0.54593398961E+02 -0.10144573437E+02 -0.22848804437E+02  0.60045145053E+02  0.00000000000E+00 0. -1.
        -14    1    6    6    0    0  0.51690266351E+02  0.36564983533E+02 -0.12685219454E+03  0.14177574164E+03  0.00000000000E+00 0.  1.
</event>
<event>
12    1  0.8798177E-003  0.2076987E+03  0.7818608E-02  0.1143736E+00
         21   -1    0    0  501  502  0.00000000000E+00  0.00000000000E+00  0.45063063145E+02  0.45063063145E+02  0.00000000000E+00 0. -1.
         21   -1    0    0  502  503 -0.00000000000E+00 -0.00000000000E+00 -0.10913376188E+04  0.10913376188E+04  0.00000000000E+00 0.  1.
          6    2    1    2  501    0 -0.86494613559E+02 -0.73001010406E+02 -0.72968366817E+03  0.75866792827E+03  0.17415023427E+03 0.  0.
         24    2    3    3    0    0  0.18523489395E-01 -0.67769722948E+02 -0.54251738419E+03  0.55235458137E+03  0.78598573272E+02 0.  0.
         -6    2    1    2    0  503  0.86494613559E+02  0.73001010406E+02 -0.31659088743E+03  0.37773275362E+03  0.17216787580E+03 0.  0.
        -24    2    5    5    0    0  0.14302927462E+02 -0.54344284089E+00 -0.22915755843E+03  0.24250293751E+03  0.78036011254E+02 0.  0.
          5    1    3    3  501    0 -0.86513137048E+02 -0.52312874585E+01 -0.18716628398E+03  0.20631334690E+03  0.47000000000E+01 0. -1.
        -11    1    4    4    0    0 -0.16950123327E+02 -0.52695179484E+02 -0.50822775877E+03  0.51123335514E+03  0.00000000000E+00 0.  1.
         12    1    4    4    0    0  0.16968646816E+02 -0.15074543463E+02 -0.34289625426E+02  0.41121226237E+02  0.00000000000E+00 0. -1.
         -5    1    5    5    0  503  0.72191686097E+02  0.73544453247E+02 -0.87433329006E+02  0.13522981611E+03  0.47000000000E+01 0.  1.
         11    1    6    6    0    0 -0.13811626586E+02 -0.33943684882E+01 -0.29350764827E+01  0.14522308369E+02  0.00000000000E+00 0. -1.
        -12    1    6    6    0    0  0.28114554048E+02  0.28509256473E+01 -0.22622248194E+03  0.22798062914E+03  0.00000000000E+00 0.  1.
</event>
<event>
12    1  0.8798177E-003  0.2443087E+03  0.7818608E-02  0.1117139E+00
         21   -1    0    0  503  502  0.00000000000E+00  0.00000000000E+00  0.97987347440E+03  0.97987347440E+03  0.00000000000E+00 0. -1.
         21   -1    0    0  501  503 -0.00000000000E+00 -0.00000000000E+00 -0.61857260882E+02  0.61857260882E+02  0.00000000000E+00 0.  1.
          6    2    1    2  501    0  0.10857970207E+03  0.13548750101E+03  0.38467838837E+03  0.45509968364E+03  0.17026991789E+03 0.  0.
         24    2    3    3    0    0  0.40823496228E+02  0.11668707405E+03  0.14892142103E+03  0.20903506381E+03  0.78966050703E+02 0.  0.
         -6    2    1    2    0  502 -0.10857970207E+03 -0.13548750101E+03  0.53333782515E+03  0.58663105164E+03  0.17187303564E+03 0.  0.
        -24    2    5    5    0    0 -0.82979924495E+02 -0.16261209319E+03  0.38567320337E+03  0.43425643880E+03  0.80662718293E+02 0.  0.
          5    1    3    3  501    0  0.67756205846E+02  0.18800426960E+02  0.23575696734E+03  0.24606461983E+03  0.47000000000E+01 0. -1.
        -11    1    4    4    0    0  0.28787010528E+02  0.12641156567E+03  0.14136697172E+03  0.19181552754E+03  0.00000000000E+00 0.  1.
         12    1    4    4    0    0  0.12036485700E+02 -0.97244916110E+01  0.75544493038E+01  0.17219536271E+02  0.00000000000E+00 0. -1.
         -5    1    5    5    0  502 -0.25599777579E+02  0.27124592174E+02  0.14766462178E+03  0.15237461284E+03  0.47000000000E+01 0.  1.
         13    1    6    6    0    0 -0.60041951555E+02 -0.16071971746E+03  0.36502881686E+03  0.40333844432E+03  0.00000000000E+00 0. -1.
        -14    1    6    6    0    0 -0.22937972940E+02 -0.18923757288E+01  0.20644386510E+02  0.30917994483E+02  0.00000000000E+00 0.  1.
</event>
<event>
12    1  0.8798177E-003  0.2070064E+03  0.7818608E-02  0.1144005E+00
         21   -1    0    0  501  502  0.00000000000E+00  0.00000000000E+00  0.47530069573E+02  0.47530069573E+02  0.00000000000E+00 0.  1.
         21   -1    0    0  502  503 -0.00000000000E+00 -0.00000000000E+00 -0.98198441308E+03  0.98198441308E+03  0.00000000000E+00 0.  1.
          6    2    1    2  501    0 -0.72889233706E+02 -0.88804159898E+02 -0.31924612464E+03  0.38048620214E+03  0.17219942717E+03 0.  0.
         24    2    3    3    0    0 -0.10032850419E+03 -0.10390187741E+03 -0.21843617370E+03  0.27481884272E+03  0.83364413579E+02 0.  0.
         -6    2    1    2    0  503  0.72889233706E+02  0.88804159898E+02 -0.61520821887E+03  0.64902828051E+03  0.17192305586E+03 0.  0.
        -24    2    5    5    0    0  0.39361495734E+02  0.87389939723E+01 -0.44221238216E+03  0.45541993997E+03  0.10114263901E+03 0.  0.
          5    1    3    3  501    0  0.27439270481E+02  0.15097717512E+02 -0.10080995095E+03  0.10566735943E+03  0.47000000000E+01 0. -1.
        -11    1    4    4    0    0 -0.88346781664E+02 -0.35077081262E+02 -0.10535474895E+03  0.14189847986E+03  0.00000000000E+00 0.  1.
         12    1    4    4    0    0 -0.11981722522E+02 -0.68824796147E+02 -0.11308142474E+03  0.13292036285E+03  0.00000000000E+00 0. -1.
         -5    1    5    5    0  503  0.33527737971E+02  0.80065165925E+02 -0.17299583671E+03  0.19360834054E+03  0.47000000000E+01 0.  1.
         13    1    6    6    0    0 -0.57366414014E+01  0.14899090175E+02 -0.63411359758E+01  0.17178531604E+02  0.00000000000E+00 0. -1.
        -14    1    6    6    0    0  0.45098137136E+02 -0.61600962024E+01 -0.43587124618E+03  0.43824140837E+03  0.00000000000E+00 0.  1.
</event>
<event>
12    1  0.8798177E-003  0.2027598E+03  0.7818608E-02  0.1147746E+00
         21   -1    0    0  501  502  0.00000000000E+00  0.00000000000E+00  0.33436197002E+02  0.33436197002E+02  0.00000000000E+00 0. -1.
         21   -1    0    0  502  503 -0.00000000000E+00 -0.00000000000E+00 -0.12530858647E+04  0.12530858647E+04  0.00000000000E+00 0. -1.
          6    2    1    2  501    0 -0.91304929257E+02  0.48631684067E+02 -0.50816778530E+03  0.54712523592E+03  0.17438433118E+03 0.  0.
         24    2    3    3    0    0  0.21783833470E+02  0.28529994882E+02 -0.22930417055E+03  0.24549607321E+03  0.79996395686E+02 0.  0.
         -6    2    1    2    0  503  0.91304929257E+02 -0.48631684067E+02 -0.71148188242E+03  0.73939682581E+03  0.17262550854E+03 0.  0.
        -24    2    5    5    0    0  0.16578704670E+02 -0.27198758634E+02 -0.57668952042E+03  0.58372264752E+03  0.84538159054E+02 0.  0.
          5    1    3    3  501    0 -0.11308876273E+03  0.20101689185E+02 -0.27886361475E+03  0.30162916271E+03  0.47000000000E+01 0. -1.
        -13    1    4    4    0    0  0.28872703212E+02  0.46071300310E+02 -0.91775314823E+02  0.10667195561E+03  0.00000000000E+00 0.  1.
         14    1    4    4    0    0 -0.70888697419E+01 -0.17541305428E+02 -0.13752885573E+03  0.13882411760E+03  0.00000000000E+00 0. -1.
         -5    1    5    5    0  503  0.74726224587E+02 -0.21432925433E+02 -0.13479236200E+03  0.15567417829E+03  0.47000000000E+01 0.  1.
         11    1    6    6    0    0  0.25007293423E+02 -0.48651007587E+02 -0.23609724956E+03  0.24235139058E+03  0.00000000000E+00 0. -1.
        -12    1    6    6    0    0 -0.84285887535E+01  0.21452248953E+02 -0.34059227086E+03  0.34137125694E+03  0.00000000000E+00 0.  1.
</event>
<event>
12    1  0.8798177E-003  0.2008114E+03  0.7818608E-02  0.1149349E+00
         21   -1    0    0  501  502  0.00000000000E+00  0.00000000000E+00  0.84612992239E+03  0.84612992239E+03  0.00000000000E+00 0. -1.
         21   -1    0    0  502  503 -0.00000000000E+00 -0.00000000000E+00 -0.49522632118E+02  0.49522632118E+02  0.00000000000E+00 0.  1.
          6    2    1    2  501    0 -0.64734142857E+02 -0.81361242632E+02  0.49387806008E+03  0.53314233790E+03  0.17179945630E+03 0.  0.
         24    2    3    3    0    0 -0.10849407073E+03 -0.64233614114E+02  0.41660076959E+03  0.44257657963E+03  0.80130562525E+02 0.  0.
         -6    2    1    2    0  503  0.64734142857E+02  0.81361242632E+02  0.30272923020E+03  0.36251021661E+03  0.17017199909E+03 0.  0.
        -24    2    5    5    0    0  0.33249562695E+02  0.10636845369E+03  0.13894859179E+03  0.19380091956E+03  0.76369522080E+02 0.  0.
          5    1    3    3  501    0  0.43759927872E+02 -0.17127628518E+02  0.77277290484E+02  0.90565758267E+02  0.47000000000E+01 0. -1.
        -11    1    4    4    0    0 -0.18863331799E+02 -0.54050195005E+02  0.19758197373E+03  0.20570825265E+03  0.00000000000E+00 0.  1.
         12    1    4    4    0    0 -0.89630738930E+02 -0.10183419109E+02  0.21901879586E+03  0.23686832698E+03  0.00000000000E+00 0. -1.
         -5    1    5    5    0  503  0.31484580162E+02 -0.25007211057E+02  0.16378063841E+03  0.16870929705E+03  0.47000000000E+01 0.  1.
         13    1    6    6    0    0  0.28785225883E+02  0.57319750320E+02  0.12825819146E+03  0.14340260347E+03  0.00000000000E+00 0. -1.
        -14    1    6    6    0    0  0.44643368122E+01  0.49048703369E+02  0.10690400329E+02  0.50398316089E+02  0.00000000000E+00 0.  1.
</event>
<event>
12    1  0.8798177E-003  0.1746315E+03  0.7818608E-02  0.1173240E+00
         21   -1    0    0  501  502  0.00000000000E+00  0.00000000000E+00  0.10442068293E+03  0.10442068293E+03  0.00000000000E+00 0. -1.
         21   -1    0    0  502  503 -0.00000000000E+00 -0.00000000000E+00 -0.29393956906E+03  0.29393956906E+03  0.00000000000E+00 0. -1.
          6    2    1    2  501    0 -0.52187612445E+00 -0.27742701755E+02 -0.75159729366E+02  0.18961593370E+03  0.17185833567E+03 0.  0.
         24    2    3    3    0    0  0.73050069464E+01  0.39658799016E+02 -0.81629252119E+02  0.12129194722E+03  0.80138743391E+02 0.  0.
         -6    2    1    2    0  503  0.52187612445E+00  0.27742701755E+02 -0.11435915677E+03  0.20874431829E+03  0.17241300364E+03 0.  0.
        -24    2    5    5    0    0 -0.24277814228E+02 -0.47471703694E+02 -0.61589106560E+02  0.11346053358E+03  0.78975310817E+02 0.  0.
          5    1    3    3  501    0 -0.78268830709E+01 -0.67401500771E+02  0.64695227527E+01  0.68323986487E+02  0.47000000000E+01 0. -1.
        -11    1    4    4    0    0 -0.13257384353E+02 -0.16837303350E+02 -0.47614783219E+02  0.52215137700E+02  0.00000000000E+00 0.  1.
         12    1    4    4    0    0  0.20562391300E+02  0.56496102366E+02 -0.34014468900E+02  0.69076809517E+02  0.00000000000E+00 0. -1.
         -5    1    5    5    0  503  0.24799690352E+02  0.75214405449E+02 -0.52770050207E+02  0.95283784704E+02  0.47000000000E+01 0.  1.
         13    1    6    6    0    0  0.23712273130E+02  0.42841475846E+01 -0.21471985735E+02  0.32274943670E+02  0.00000000000E+00 0. -1.
        -14    1    6    6    0    0 -0.47990087358E+02 -0.51755851279E+02 -0.40117120825E+02  0.81185589913E+02  0.00000000000E+00 0.  1.
</event>
<event>
12    1  0.8798177E-003  0.1750255E+03  0.7818608E-02  0.1173014E+00
         21   -1    0    0  503  502  0.00000000000E+00  0.00000000000E+00  0.21713067580E+03  0.21713067580E+03  0.00000000000E+00 0. -1.
         21   -1    0    0  501  503 -0.00000000000E+00 -0.00000000000E+00 -0.18049702304E+03  0.18049702304E+03  0.00000000000E+00 0. -1.
          6    2    1    2  501    0 -0.33554932710E+02 -0.31559885766E+01 -0.75785591163E+02  0.18960842242E+03  0.17050514435E+03 0.  0.
         24    2    3    3    0    0 -0.64847748376E+02  0.20667447176E+02 -0.99035698822E+02  0.14367963069E+03  0.78761620043E+02 0.  0.
         -6    2    1    2    0  502  0.33554932710E+02  0.31559885766E+01  0.11241924393E+03  0.20801927642E+03  0.17174993212E+03 0.  0.
        -24    2    5    5    0    0 -0.21632885993E+02  0.53684560296E+02  0.80909565833E+02  0.12669411606E+03  0.78453982892E+02 0.  0.
          5    1    3    3  501    0  0.31292815666E+02 -0.23823435752E+02  0.23250107660E+02  0.45928791727E+02  0.47000000000E+01 0. -1.
        -11    1    4    4    0    0 -0.22700664129E+02  0.19592495474E+02  0.59264622992E+01  0.30566468330E+02  0.00000000000E+00 0.  1.
         12    1    4    4    0    0 -0.42147084247E+02  0.10749517017E+01 -0.10496216112E+03  0.11311316236E+03  0.00000000000E+00 0. -1.
         -5    1    5    5    0  502  0.55187818703E+02 -0.50528571720E+02  0.31509678097E+02  0.81325160356E+02  0.47000000000E+01 0.  1.
         11    1    6    6    0    0  0.16229364743E+02  0.15581047271E+02  0.67752316066E+02  0.71390038845E+02  0.00000000000E+00 0. -1.
        -12    1    6    6    0    0 -0.37862250736E+02  0.38103513026E+02  0.13157249767E+02  0.55304077220E+02  0.00000000000E+00 0.  1.
</event>
<event>
12    1  0.8798177E-003  0.1736700E+03  0.7818608E-02  0.1174091E+00
         21   -1    0    0  503  502  0.00000000000E+00  0.00000000000E+00  0.18967344453E+03  0.18967344453E+03  0.00000000000E+00 0.  1.
         21   -1    0    0  501  503 -0.00000000000E+00 -0.00000000000E+00 -0.24027088476E+03  0.24027088476E+03  0.00000000000E+00 0.  1.
          6    2    1    2  501    0 -0.23510675919E+02 -0.14116284211E+01 -0.15035717692E+03  0.22966135975E+03  0.17199510148E+03 0.  0.
         24    2    3    3    0    0  0.52478453021E+02 -0.99835112258E+01 -0.69516501341E+02  0.11828304175E+03  0.79401986615E+02 0.  0.
         -6    2    1    2    0  502  0.23510675919E+02  0.14116284211E+01  0.99759736693E+02  0.20028296954E+03  0.17206544756E+03 0.  0.
        -24    2    5    5    0    0 -0.19926711604E+02  0.49789789964E+02  0.94867451383E+02  0.13491265820E+03  0.79532980519E+02 0.  0.
          5    1    3    3  501    0 -0.75989128940E+02  0.85718828047E+01 -0.80840675583E+02  0.11137831800E+03  0.47000000000E+01 0. -1.
        -11    1    4    4    0    0  0.34639457998E+00 -0.33383545192E+02 -0.45172742719E+02  0.56170791018E+02  0.00000000000E+00 0.  1.
         12    1    4    4    0    0  0.52132058441E+02  0.23400033966E+02 -0.24343758621E+02  0.62112250730E+02  0.00000000000E+00 0. -1.
         -5    1    5    5    0  502  0.43437387523E+02 -0.48378161543E+02  0.48922853101E+01  0.65370311340E+02  0.47000000000E+01 0.  1.
         13    1    6    6    0    0  0.22102213849E+02  0.42211532145E+02  0.27112820748E+02  0.54821768961E+02  0.00000000000E+00 0. -1.
        -14    1    6    6    0    0 -0.42028925453E+02  0.75782578192E+01  0.67754630635E+02  0.80090889238E+02  0.00000000000E+00 0.  1.
</event>
<event>
12    1  0.8798177E-003  0.1785042E+03  0.7818608E-02  0.1169546E+00
         21   -1    0    0  501  502  0.00000000000E+00  0.00000000000E+00  0.69414739474E+02  0.69414739474E+02  0.00000000000E+00 0.  1.
         21   -1    0    0  502  503 -0.00000000000E+00 -0.00000000000E+00 -0.61856131558E+03  0.61856131558E+03  0.00000000000E+00 0.  1.
          6    2    1    2  501    0 -0.44784904842E+02  0.13889045687E+02 -0.97578462506E+02  0.20240677966E+03  0.17102150395E+03 0.  0.
         24    2    3    3    0    0 -0.58230895692E+02  0.66762665734E+02 -0.84980893230E+02  0.14621778502E+03  0.79434235019E+02 0.  0.
         -6    2    1    2    0  503  0.44784904842E+02 -0.13889045687E+02 -0.45156811360E+03  0.48556927539E+03  0.17223578808E+03 0.  0.
        -24    2    5    5    0    0  0.56618665351E+02  0.44505796726E+02 -0.20215280835E+03  0.22909299969E+03  0.80196043382E+02 0.  0.
          5    1    3    3  501    0  0.13445990850E+02 -0.52873620047E+02 -0.12597569275E+02  0.56188994638E+02  0.47000000000E+01 0. -1.
        -11    1    4    4    0    0 -0.75221305769E+02  0.68189778108E+02 -0.68294967810E+02  0.12236132276E+03  0.00000000000E+00 0.  1.
         12    1    4    4    0    0  0.16990410077E+02 -0.14271123739E+01 -0.16685925420E+02  0.23856462258E+02  0.00000000000E+00 0. -1.
         -5    1    5    5    0  503 -0.11833760508E+02 -0.58394842413E+02 -0.24941530524E+03  0.25647627570E+03  0.47000000000E+01 0.  1.
         11    1    6    6    0    0  0.42843022063E+02  0.11569244534E+02 -0.30697689300E+02  0.53960356624E+02  0.00000000000E+00 0. -1.
        -12    1    6    6    0    0  0.13775643287E+02  0.32936552192E+02 -0.17145511905E+03  0.17513264307E+03  0.00000000000E+00 0.  1.
</event>
<event>
12    1  0.8798177E-003  0.3962798E+03  0.7818608E-02  0.1045090E+00
         21   -1    0    0  501  502  0.00000000000E+00  0.00000000000E+00  0.76608681834E+03  0.76608681834E+03  0.00000000000E+00 0. -1.
         21   -1    0    0  502  503 -0.00000000000E+00 -0.00000000000E+00 -0.21178101802E+03  0.21178101802E+03  0.00000000000E+00 0. -1.
          6    2    1    2  501    0  0.17532088670E+03  0.31106297729E+03  0.36521822752E+03  0.53878723315E+03  0.17149268129E+03 0.  0.
         24    2    3    3    0    0  0.13021382347E+03  0.10882845923E+03  0.17353446192E+03  0.25647853075E+03  0.82871912646E+02 0.  0.
         -6    2    1    2    0  503 -0.17532088670E+03 -0.31106297729E+03  0.18908757280E+03  0.43908060321E+03  0.17187226876E+03 0.  0.
        -24    2    5    5    0    0 -0.18948618699E+03 -0.27735586526E+03  0.12927737823E+03  0.36882268900E+03  0.80537223332E+02 0.  0.
          5    1    3    3  501    0  0.45107063231E+02  0.20223451807E+03  0.19168376561E+03  0.28230870240E+03  0.47000000000E+01 0. -1.
        -11    1    4    4    0    0  0.57553477092E+02  0.26481413981E+02  0.11678400540E+03  0.13286147647E+03  0.00000000000E+00 0.  1.
         12    1    4    4    0    0  0.72660346374E+02  0.82347045244E+02  0.56750456518E+02  0.12361705429E+03  0.00000000000E+00 0. -1.
         -5    1    5    5    0  503  0.14165300294E+02 -0.33707112030E+02  0.59810194576E+02  0.70257914209E+02  0.47000000000E+01 0.  1.
         11    1    6    6    0    0 -0.18573878524E+03 -0.24607838838E+03  0.13540459203E+03  0.33673115851E+03  0.00000000000E+00 0. -1.
        -12    1    6    6    0    0 -0.37474017506E+01 -0.31277476880E+02 -0.61272138003E+01  0.32091530484E+02  0.00000000000E+00 0.  1.
</event>
<event>
12    1  0.8798177E-003  0.2829078E+03  0.7818608E-02  0.1094188E+00
         21   -1    0    0  503  502  0.00000000000E+00  0.00000000000E+00  0.45852809321E+03  0.45852809321E+03  0.00000000000E+00 0.  1.
         21   -1    0    0  501  503 -0.00000000000E+00 -0.00000000000E+00 -0.18890646217E+03  0.18890646217E+03  0.00000000000E+00 0. -1.
          6    2    1    2  501    0  0.68480103021E+02  0.21385316042E+03  0.22500489112E+03  0.36103017462E+03  0.17115164979E+03 0.  0.
         24    2    3    3    0    0  0.49744432830E+02  0.21131311191E+03  0.24246304817E+03  0.33487000581E+03  0.78878711959E+02 0.  0.
         -6    2    1    2    0  502 -0.68480103021E+02 -0.21385316042E+03  0.44616739921E+02  0.28640438076E+03  0.17208752746E+03 0.  0.
        -24    2    5    5    0    0 -0.48893818789E+02 -0.83675756112E+02 -0.37799557664E+02  0.13101996961E+03  0.79656689613E+02 0.  0.
          5    1    3    3  501    0  0.18735670191E+02  0.25400485067E+01 -0.17458157058E+02  0.26160168803E+02  0.47000000000E+01 0. -1.
        -11    1    4    4    0    0  0.70900515685E+02  0.14830935718E+03  0.17766813743E+03  0.24205064679E+03  0.00000000000E+00 0.  1.
         12    1    4    4    0    0 -0.21156082855E+02  0.63003754729E+02  0.64794910745E+02  0.92819359027E+02  0.00000000000E+00 0. -1.
         -5    1    5    5    0  502 -0.19586284231E+02 -0.13017740431E+03  0.82416297585E+02  0.15538441115E+03  0.47000000000E+01 0.  1.
         11    1    6    6    0    0 -0.11413726294E+02 -0.52430286745E+02  0.18276887711E+02  0.56685560247E+02  0.00000000000E+00 0. -1.
        -12    1    6    6    0    0 -0.37480092495E+02 -0.31245469367E+02 -0.56076445375E+02  0.74334409363E+02  0.00000000000E+00 0.  1.
</event>
<event>
12    1  0.8798177E-003  0.1828825E+03  0.7818608E-02  0.1166387E+00
         21   -1    0    0  503  502  0.00000000000E+00  0.00000000000E+00  0.42917369353E+03  0.42917369353E+03  0.00000000000E+00 0.  1.
         21   -1    0    0  501  503 -0.00000000000E+00 -0.00000000000E+00 -0.76500894085E+02  0.76500894085E+02  0.00000000000E+00 0.  1.
          6    2    1    2  501    0 -0.22290927710E+02 -0.59508164071E+02  0.15116119262E+03  0.23726719558E+03  0.17148734324E+03 0.  0.
         24    2    3    3    0    0  0.93829068456E+01  0.24333596669E+02  0.10814459529E+03  0.13774237312E+03  0.81225273120E+02 0.  0.
         -6    2    1    2    0  502  0.22290927710E+02  0.59508164071E+02  0.20151160682E+03  0.26840739204E+03  0.16552188184E+03 0.  0.
        -24    2    5    5    0    0  0.43909167468E+02  0.46986282813E+02  0.21605598823E+03  0.23911959883E+03  0.79763818457E+02 0.  0.
          5    1    3    3  501    0 -0.31673834556E+02 -0.83841760740E+02  0.43016597328E+02  0.99524822457E+02  0.47000000000E+01 0. -1.
        -13    1    4    4    0    0  0.18890086072E+02  0.29905292184E+02  0.70732024115E+01  0.36072039653E+02  0.00000000000E+00 0.  1.
         14    1    4    4    0    0 -0.95071792260E+01 -0.55716955148E+01  0.10107139288E+03  0.10167033347E+03  0.00000000000E+00 0. -1.
         -5    1    5    5    0  502 -0.21618239758E+02  0.12521881258E+02 -0.14544381406E+02  0.29287793207E+02  0.47000000000E+01 0.  1.
         13    1    6    6    0    0  0.38259356535E+02  0.16795043610E+02  0.32294950081E+02  0.52809238331E+02  0.00000000000E+00 0. -1.
        -14    1    6    6    0    0  0.56498109323E+01  0.30191239203E+02  0.18376103815E+03  0.18631036050E+03  0.00000000000E+00 0.  1.
</event>
<event>
12    1  0.8798177E-003  0.1890607E+03  0.7818608E-02  0.1159513E+00
         21   -1    0    0  501  502  0.00000000000E+00  0.00000000000E+00  0.11418409316E+03  0.11418409316E+03  0.00000000000E+00 0.  1.
         21   -1    0    0  502  503 -0.00000000000E+00 -0.00000000000E+00 -0.32073581531E+03  0.32073581531E+03  0.00000000000E+00 0. -1.
          6    2    1    2  501    0  0.41843870623E+02  0.63322360506E+02 -0.13980405524E+03  0.23442249206E+03  0.17218623659E+03 0.  0.
         24    2    3    3    0    0  0.77191700620E+02  0.66380338428E+02 -0.14946146357E+03  0.19735261412E+03  0.79021625104E+02 0.  0.
         -6    2    1    2    0  503 -0.41843870623E+02 -0.63322360506E+02 -0.66747666917E+02  0.20049741641E+03  0.17315695799E+03 0.  0.
        -24    2    5    5    0    0 -0.50827010951E+02  0.27210442802E+02 -0.33812213782E+02  0.10362781665E+03  0.79193846627E+02 0.  0.
          5    1    3    3  501    0 -0.35347829997E+02 -0.30579779218E+01  0.96574083264E+01  0.37069877935E+02  0.47000000000E+01 0. -1.
        -13    1    4    4    0    0  0.58568090429E+02  0.15573362058E+02 -0.33168160591E+02  0.69086016670E+02  0.00000000000E+00 0.  1.
         14    1    4    4    0    0  0.18623610191E+02  0.50806976369E+02 -0.11629330298E+03  0.12826659745E+03  0.00000000000E+00 0. -1.
         -5    1    5    5    0  503  0.89831403278E+01 -0.90532803308E+02 -0.32935453135E+02  0.96869599762E+02  0.47000000000E+01 0.  1.
         11    1    6    6    0    0  0.69087379634E+00 -0.24739784402E+02 -0.98938409740E+01  0.26653748856E+02  0.00000000000E+00 0. -1.
        -12    1    6    6    0    0 -0.51517884747E+02  0.51950227204E+02 -0.23918372808E+02  0.76974067796E+02  0.00000000000E+00 0.  1.
</event>
<event>
12    1  0.8798177E-003  0.2444847E+03  0.7818608E-02  0.1117084E+00
         21   -1    0    0  503  502  0.00000000000E+00  0.00000000000E+00  0.75727884107E+03  0.75727884107E+03  0.00000000000E+00 0.  1.
         21   -1    0    0  501  503 -0.00000000000E+00 -0.00000000000E+00 -0.89506233267E+02  0.89506233267E+02  0.00000000000E+00 0.  1.
          6    2    1    2  501    0  0.12049494289E+03  0.12551710431E+03  0.18419546603E+03  0.30491829479E+03  0.16962789292E+03 0.  0.
         24    2    3    3    0    0  0.10747521475E+03  0.12941352653E+03  0.85344405414E+02  0.20502676557E+03  0.80333831144E+02 0.  0.
         -6    2    1    2    0  502 -0.12049494289E+03 -0.12551710431E+03  0.48357714178E+03  0.54186677955E+03  0.17175325322E+03 0.  0.
        -24    2    5    5    0    0 -0.81761577786E+02 -0.56782942691E+02  0.14025073321E+03  0.18956041945E+03  0.79709637265E+02 0.  0.
          5    1    3    3  501    0  0.13019728136E+02 -0.38964222230E+01  0.98851060611E+02  0.99891529224E+02  0.47000000000E+01 0. -1.
        -13    1    4    4    0    0  0.31847370071E+02  0.22872259757E+02 -0.13204305482E+02  0.41373287640E+02  0.00000000000E+00 0.  1.
         14    1    4    4    0    0  0.75627844683E+02  0.10654126678E+03  0.98548710897E+02  0.16365347793E+03  0.00000000000E+00 0. -1.
         -5    1    5    5    0  502 -0.38733365104E+02 -0.68734161620E+02  0.34332640857E+03  0.35230636010E+03  0.47000000000E+01 0.  1.
         11    1    6    6    0    0 -0.42756542718E+00 -0.30039762531E+02  0.64755267050E+01  0.30732760879E+02  0.00000000000E+00 0. -1.
        -12    1    6    6    0    0 -0.81334012359E+02 -0.26743180160E+02  0.13377520650E+03  0.15882765857E+03  0.00000000000E+00 0.  1.
</event>
<event>
12    1  0.8798177E-003  0.3163725E+03  0.7818608E-02  0.1077487E+00
         21   -1    0    0  503  502  0.00000000000E+00  0.00000000000E+00  0.68277331034E+03  0.68277331034E+03  0.00000000000E+00 0.  1.
         21   -1    0    0  501  503 -0.00000000000E+00 -0.00000000000E+00 -0.17649247065E+03  0.17649247065E+03  0.00000000000E+00 0. -1.
          6    2    1    2  501    0  0.77449198987E+02  0.25383431931E+03  0.74056792792E+02  0.32362675332E+03  0.16976344372E+03 0.  0.
         24    2    3    3    0    0  0.66998432497E+02  0.17130996357E+03 -0.16070468624E+02  0.20088922417E+03  0.79134864959E+02 0.  0.
         -6    2    1    2    0  502 -0.77449198987E+02 -0.25383431931E+03  0.43222404690E+03  0.53563902766E+03  0.17222456605E+03 0.  0.
        -24    2    5    5    0    0 -0.94923344714E+01 -0.34106212677E+02  0.16619755578E+03  0.18394205545E+03  0.70425237388E+02 0.  0.
          5    1    3    3  501    0  0.10450766490E+02  0.82524355745E+02  0.90127261416E+02  0.12273752915E+03  0.47000000000E+01 0. -1.
        -13    1    4    4    0    0  0.27922454812E+02  0.43414007533E+01 -0.72966148954E+01  0.29184787684E+02  0.00000000000E+00 0.  1.
         14    1    4    4    0    0  0.39075977685E+02  0.16696856282E+03 -0.87738537288E+01  0.17170443649E+03  0.00000000000E+00 0. -1.
         -5    1    5    5    0  502 -0.67956864516E+02 -0.21972810664E+03  0.26602649112E+03  0.35169697221E+03  0.47000000000E+01 0.  1.
         13    1    6    6    0    0 -0.10735957771E+02  0.10951699473E+02  0.43591331713E+01  0.15943730825E+02  0.00000000000E+00 0. -1.
        -14    1    6    6    0    0  0.12436232995E+01 -0.45057912150E+02  0.16183842261E+03  0.16799832463E+03  0.00000000000E+00 0.  1.
</event>
<event>
12    1  0.8798177E-003  0.2014526E+03  0.7818608E-02  0.1148693E+00
         21   -1    0    0  501  502  0.00000000000E+00  0.00000000000E+00  0.36172742685E+03  0.36172742685E+03  0.00000000000E+00 0.  1.
         21   -1    0    0  502  503 -0.00000000000E+00 -0.00000000000E+00 -0.11817853717E+03  0.11817853717E+03  0.00000000000E+00 0.  1.
          6    2    1    2  501    0 -0.10162451644E+03 -0.21650016742E+02  0.17805821564E+03  0.26886403812E+03  0.17258875187E+03 0.  0.
         24    2    3    3    0    0 -0.97890069340E+02 -0.71005311986E+02  0.10065703388E+03  0.17686988505E+03  0.80789218093E+02 0.  0.
         -6    2    1    2    0  503  0.10162451644E+03  0.21650016742E+02  0.65490674048E+02  0.21104192589E+03  0.17161993046E+03 0.  0.
        -24    2    5    5    0    0  0.48215238585E+02  0.53600343605E+02 -0.16716638273E+02  0.10782610081E+03  0.78417574274E+02 0.  0.
          5    1    3    3  501    0 -0.37344471042E+01  0.49355295244E+02  0.77401181752E+02  0.91994153077E+02  0.47000000000E+01 0. -1.
        -13    1    4    4    0    0 -0.91807878784E+01  0.63004850026E+01  0.45635354697E+02  0.46974126662E+02  0.00000000000E+00 0.  1.
         14    1    4    4    0    0 -0.88709281462E+02 -0.77305796989E+02  0.55021679187E+02  0.12989575838E+03  0.00000000000E+00 0. -1.
         -5    1    5    5    0  503  0.53409277859E+02 -0.31950326864E+02  0.82207312320E+02  0.10321582508E+03  0.47000000000E+01 0.  1.
         11    1    6    6    0    0  0.92426160929E+01 -0.19915211051E+02 -0.10639319613E+02  0.24397473338E+02  0.00000000000E+00 0. -1.
        -12    1    6    6    0    0  0.38972622492E+02  0.73515554656E+02 -0.60773186600E+01  0.83428627475E+02  0.00000000000E+00 0.  1.
</event>
<event>
12    1  0.8798177E-003  0.1872496E+03  0.7818608E-02  0.1161695E+00
         21   -1    0    0  503  502  0.00000000000E+00  0.00000000000E+00  0.10312442096E+04  0.10312442096E+04  0.00000000000E+00 0. -1.
         21   -1    0    0  501  503 -0.00000000000E+00 -0.00000000000E+00 -0.41619287330E+02  0.41619287330E+02  0.00000000000E+00 0.  1.
          6    2    1    2  501    0 -0.66940644487E+02 -0.15356358316E+01  0.25351526116E+03  0.31331108871E+03  0.17149473055E+03 0.  0.
         24    2    3    3    0    0 -0.97513403933E+02  0.31493491278E+02  0.14363290601E+03  0.19447574535E+03  0.81790585652E+02 0.  0.
         -6    2    1    2    0  502  0.66940644487E+02  0.15356358316E+01  0.73610966114E+03  0.75955240825E+03  0.17486857806E+03 0.  0.
        -24    2    5    5    0    0  0.11370156841E+03  0.76764841187E+01  0.54944448783E+03  0.56696406242E+03  0.81068044254E+02 0.  0.
          5    1    3    3  501    0  0.30572759446E+02 -0.33029127110E+02  0.10988235515E+03  0.11883534336E+03  0.47000000000E+01 0. -1.
        -11    1    4    4    0    0 -0.32836860327E+02 -0.33915496033E+01 -0.13973257748E+00  0.33011839240E+02  0.00000000000E+00 0.  1.
         12    1    4    4    0    0 -0.64676543606E+02  0.34885040881E+02  0.14377263858E+03  0.16146390611E+03  0.00000000000E+00 0. -1.
         -5    1    5    5    0  502 -0.46760923921E+02 -0.61408482870E+01  0.18666517331E+03  0.19258834583E+03  0.47000000000E+01 0.  1.
         13    1    6    6    0    0  0.90275993597E+02  0.40921805592E+02  0.39740099044E+03  0.40957526341E+03  0.00000000000E+00 0. -1.
        -14    1    6    6    0    0  0.23425574811E+02 -0.33245321473E+02  0.15204349739E+03  0.15738879901E+03  0.00000000000E+00 0.  1.
</event>
<event>
12    1  0.8798177E-003  0.1993840E+03  0.7818608E-02  0.1150463E+00
         21   -1    0    0  503  502  0.00000000000E+00  0.00000000000E+00  0.83664224006E+03  0.83664224006E+03  0.00000000000E+00 0. -1.
         21   -1    0    0  501  503 -0.00000000000E+00 -0.00000000000E+00 -0.48779239138E+02  0.48779239138E+02  0.00000000000E+00 0. -1.
          6    2    1    2  501    0 -0.88205113078E+02  0.46031510964E+02  0.31561503641E+03  0.37280844210E+03  0.17168063759E+03 0.  0.
         24    2    3    3    0    0 -0.12172597105E+01  0.51066029512E+02  0.89816941364E+02  0.13073592665E+03  0.80097306264E+02 0.  0.
         -6    2    1    2    0  502  0.88205113078E+02 -0.46031510964E+02  0.47224796451E+03  0.51261303710E+03  0.17278583228E+03 0.  0.
        -24    2    5    5    0    0  0.12776586693E+03 -0.52963340466E+02  0.34912454529E+03  0.38301917202E+03  0.75408923993E+02 0.  0.
          5    1    3    3  501    0 -0.86987853368E+02 -0.50345185480E+01  0.22579809504E+03  0.24207251545E+03  0.47000000000E+01 0. -1.
        -13    1    4    4    0    0  0.73693594886E+01  0.71625703318E+02  0.75055168382E+02  0.10400878394E+03  0.00000000000E+00 0.  1.
         14    1    4    4    0    0 -0.85866191990E+01 -0.20559673806E+02  0.14761772982E+02  0.26727142717E+02  0.00000000000E+00 0. -1.
         -5    1    5    5    0  502 -0.39560753856E+02  0.69318295019E+01  0.12312341922E+03  0.12959386508E+03  0.47000000000E+01 0.  1.
         11    1    6    6    0    0  0.37165557357E+02 -0.45729577586E+02  0.82917436216E+02  0.10172400970E+03  0.00000000000E+00 0. -1.
        -12    1    6    6    0    0  0.90600309578E+02 -0.72337628800E+01  0.26620710908E+03  0.28129516232E+03  0.00000000000E+00 0.  1.
</event>
<event>
12    1  0.8798177E-003  0.1866391E+03  0.7818608E-02  0.1163989E+00
         21   -1    0    0  501  502  0.00000000000E+00  0.00000000000E+00  0.14327249789E+04  0.14327249789E+04  0.00000000000E+00 0. -1.
         21   -1    0    0  502  503 -0.00000000000E+00 -0.00000000000E+00 -0.22998732479E+02  0.22998732479E+02  0.00000000000E+00 0. -1.
          6    2    1    2  501    0 -0.74470748177E+02 -0.13700553972E+01  0.66674219867E+03  0.68965619204E+03  0.15978965658E+03 0.  0.
         24    2    3    3    0    0  0.20319128451E+02 -0.11686223027E+02  0.30780903803E+03  0.31824449617E+03  0.77354512849E+02 0.  0.
         -6    2    1    2    0  503  0.74470748177E+02  0.13700553972E+01  0.74298404774E+03  0.76606751932E+03  0.17113263740E+03 0.  0.
        -24    2    5    5    0    0  0.12487661300E+02  0.58841037748E+02  0.37626055889E+03  0.38969931644E+03  0.81702751772E+02 0.  0.
          5    1    3    3  501    0 -0.94789876628E+02  0.10316167630E+02  0.35893316064E+03  0.37141169588E+03  0.47000000000E+01 0. -1.
        -13    1    4    4    0    0 -0.14682710653E+02  0.65854353197E+01  0.23387440818E+03  0.23442736349E+03  0.00000000000E+00 0.  1.
         14    1    4    4    0    0  0.35001839104E+02 -0.18271658347E+02  0.73934629846E+02  0.83817132675E+02  0.00000000000E+00 0. -1.
         -5    1    5    5    0  503  0.61983086878E+02 -0.57470982351E+02  0.36672348884E+03  0.37636820288E+03  0.47000000000E+01 0.  1.
         13    1    6    6    0    0  0.30564266659E+02  0.23487651471E+02  0.31048044921E+03  0.31286411349E+03  0.00000000000E+00 0. -1.
        -14    1    6    6    0    0 -0.18076605360E+02  0.35353386277E+02  0.65780109688E+02  0.76835202955E+02  0.00000000000E+00 0.  1.
</event>
<event>
12    1  0.8798177E-003  0.2126590E+03  0.7818608E-02  0.1139516E+00
         21   -1    0    0  501  502  0.00000000000E+00  0.00000000000E+00  0.12100083034E+03  0.12100083034E+03  0.00000000000E+00 0. -1.
         21   -1    0    0  502  503 -0.00000000000E+00 -0.00000000000E+00 -0.52952718774E+03  0.52952718774E+03  0.00000000000E+00 0.  1.
          6    2    1    2  501    0  0.10465442483E+03 -0.69074136514E+02 -0.27714594327E+02  0.21445733768E+03  0.17175583244E+03 0.  0.
         24    2    3    3    0    0  0.65703568018E+02  0.43244661404E+01  0.35298331963E+02  0.11006747708E+03  0.80828320610E+02 0.  0.
         -6    2    1    2    0  503 -0.10465442483E+03  0.69074136514E+02 -0.38081176308E+03  0.43607068040E+03  0.17151167433E+03 0.  0.
        -24    2    5    5    0    0 -0.97338876789E+02 -0.10183885290E+02 -0.22156431389E+03  0.25797747071E+03  0.88786607947E+02 0.  0.
          5    1    3    3  501    0  0.38950856812E+02 -0.73398602655E+02 -0.63012926290E+02  0.10438986061E+03  0.47000000000E+01 0. -1.
        -13    1    4    4    0    0  0.41181650353E+02  0.28430725245E+02 -0.12124004475E+02  0.51490056790E+02  0.00000000000E+00 0.  1.
         14    1    4    4    0    0  0.24521917665E+02 -0.24106259104E+02  0.47422336438E+02  0.58577420285E+02  0.00000000000E+00 0. -1.
         -5    1    5    5    0  503 -0.73155480412E+01  0.79258021804E+02 -0.15924744919E+03  0.17809320969E+03  0.47000000000E+01 0.  1.
         13    1    6    6    0    0  0.13452880600E+02 -0.12612551271E+02 -0.15864190590E+02  0.24325480244E+02  0.00000000000E+00 0. -1.
        -14    1    6    6    0    0 -0.11079175739E+03  0.24286659816E+01 -0.20570012330E+03  0.23365199047E+03  0.00000000000E+00 0.  1.
</event>
<event>
12    1  0.8798177E-003  0.2494754E+03  0.7818608E-02  0.1113924E+00
         21   -1    0    0  501  502  0.00000000000E+00  0.00000000000E+00  0.35951247838E+03  0.35951247838E+03  0.00000000000E+00 0.  1.
         21   -1    0    0  502  503 -0.00000000000E+00 -0.00000000000E+00 -0.21571868954E+03  0.21571868954E+03  0.00000000000E+00 0. -1.
          6    2    1    2  501    0 -0.16804082732E+03 -0.56864562012E+02  0.20177798569E+03  0.32086185548E+03  0.17540432359E+03 0.  0.
         24    2    3    3    0    0 -0.98816872693E+02  0.31724691011E+02  0.13277379194E+03  0.18886306609E+03  0.85259296023E+02 0.  0.
         -6    2    1    2    0  503  0.16804082732E+03  0.56864562012E+02 -0.57984196851E+02  0.25436931244E+03  0.17283021139E+03 0.  0.
        -24    2    5    5    0    0  0.25511105891E+02  0.49061009860E+02  0.60498799304E+01  0.97850719597E+02  0.80500702271E+02 0.  0.
          5    1    3    3  501    0 -0.69223954625E+02 -0.88589253023E+02  0.69004193746E+02  0.13199878939E+03  0.47000000000E+01 0. -1.
        -13    1    4    4    0    0 -0.70527869658E+02 -0.56432224031E+01  0.12159237146E+03  0.14067953354E+03  0.00000000000E+00 0.  1.
         14    1    4    4    0    0 -0.28289003036E+02  0.37367913414E+02  0.11181420478E+02  0.48183532556E+02  0.00000000000E+00 0. -1.
         -5    1    5    5    0  503  0.14252972143E+03  0.78035521526E+01 -0.64034076782E+02  0.15651859284E+03  0.47000000000E+01 0.  1.
         13    1    6    6    0    0  0.46749591743E+02  0.24386648013E+02 -0.19755997328E+02  0.56307480497E+02  0.00000000000E+00 0. -1.
        -14    1    6    6    0    0 -0.21238485852E+02  0.24674361847E+02  0.25805877258E+02  0.41543239100E+02  0.00000000000E+00 0.  1.
</event>
<event>
12    1  0.8798177E-003  0.1868767E+03  0.7818608E-02  0.1161460E+00
         21   -1    0    0  501  502  0.00000000000E+00  0.00000000000E+00  0.15878805774E+04  0.15878805774E+04  0.00000000000E+00 0.  1.
         21   -1    0    0  502  503 -0.00000000000E+00 -0.00000000000E+00 -0.26978346536E+02  0.26978346536E+02  0.00000000000E+00 0.  1.
          6    2    1    2  501    0 -0.66639340875E+02  0.31254037345E+02  0.11313114475E+04  0.11466422638E+04  0.17177099060E+03 0.  0.
         24    2    3    3    0    0 -0.10956607946E+03  0.40708378527E+02  0.86223727507E+03  0.87396096679E+03  0.81809260483E+02 0.  0.
         -6    2    1    2    0  503  0.66639340875E+02 -0.31254037345E+02  0.42959078336E+03  0.46821666017E+03  0.17105842015E+03 0.  0.
        -24    2    5    5    0    0  0.18535725757E+02 -0.10204393892E+02  0.39971125115E+03  0.40762027643E+03  0.77055192403E+02 0.  0.
          5    1    3    3  501    0  0.42926738589E+02 -0.94543411818E+01  0.26907417245E+03  0.27268129700E+03  0.47000000000E+01 0. -1.
        -13    1    4    4    0    0  0.31138185394E+01  0.11160314789E+02  0.27703409054E+03  0.27727628066E+03  0.00000000000E+00 0.  1.
         14    1    4    4    0    0 -0.11267989800E+03  0.29548063738E+02  0.58520318453E+03  0.59668468613E+03  0.00000000000E+00 0. -1.
         -5    1    5    5    0  503  0.48103615118E+02 -0.21049643453E+02  0.29879532215E+02  0.60596383739E+02  0.47000000000E+01 0.  1.
         13    1    6    6    0    0 -0.18067234980E+02 -0.11010071142E+02  0.31006477179E+03  0.31078579335E+03  0.00000000000E+00 0. -1.
        -14    1    6    6    0    0  0.36602960737E+02  0.80567725016E+00  0.89646479364E+02  0.96834483077E+02  0.00000000000E+00 0.  1.
</event>
<event>
12    1  0.8798177E-003  0.2700821E+03  0.7818608E-02  0.1101321E+00
         21   -1    0    0  501  502  0.00000000000E+00  0.00000000000E+00  0.41080830062E+03  0.41080830062E+03  0.00000000000E+00 0.  1.
         21   -1    0    0  502  503 -0.00000000000E+00 -0.00000000000E+00 -0.21784731077E+03  0.21784731077E+03  0.00000000000E+00 0.  1.
          6    2    1    2  501    0  0.12560719507E+03 -0.16576280889E+03  0.23223640249E+03  0.35573268318E+03  0.17134036003E+03 0.  0.
         24    2    3    3    0    0  0.54323001708E+02 -0.59617295186E+02  0.18823772622E+03  0.22043198172E+03  0.81557382189E+02 0.  0.
         -6    2    1    2    0  503 -0.12560719507E+03  0.16576280889E+03 -0.39275412645E+02  0.27292292821E+03  0.17230754608E+03 0.  0.
        -24    2    5    5    0    0 -0.66700065131E+02  0.14563861408E+03 -0.82069621379E+02  0.19723628820E+03  0.80667378968E+02 0.  0.
          5    1    3    3  501    0  0.71284193358E+02 -0.10614551371E+03  0.43998676267E+02  0.13530070146E+03  0.47000000000E+01 0. -1.
        -13    1    4    4    0    0  0.60811405694E+02 -0.34775711183E+02  0.68518650010E+02  0.97990726857E+02  0.00000000000E+00 0.  1.
         14    1    4    4    0    0 -0.64884039855E+01 -0.24841584003E+02  0.11971907621E+03  0.12244125486E+03  0.00000000000E+00 0. -1.
         -5    1    5    5    0  503 -0.58907129936E+02  0.20124194811E+02  0.42794208734E+02  0.75686640005E+02  0.47000000000E+01 0.  1.
         13    1    6    6    0    0  0.18054614157E+01  0.51545427037E+02  0.50917526375E+01  0.51827759785E+02  0.00000000000E+00 0. -1.
        -14    1    6    6    0    0 -0.68505526546E+02  0.94093187046E+02 -0.87161374016E+02  0.14540852842E+03  0.00000000000E+00 0.  1.
</event>
<event>
12    1  0.8798177E-003  0.1871040E+03  0.7818608E-02  0.1161135E+00
         21   -1    0    0  501  502  0.00000000000E+00  0.00000000000E+00  0.80611785193E+03  0.80611785193E+03  0.00000000000E+00 0. -1.
         21   -1    0    0  502  503 -0.00000000000E+00 -0.00000000000E+00 -0.43705768867E+02  0.43705768867E+02  0.00000000000E+00 0. -1.
          6    2    1    2  501    0 -0.72481830156E+02 -0.32459988760E-01  0.34535562788E+03  0.39278292392E+03  0.17249434444E+03 0.  0.
         24    2    3    3    0    0 -0.16701380313E+02 -0.38309635175E+02  0.29501494698E+03  0.30832657497E+03  0.79277321104E+02 0.  0.
         -6    2    1    2    0  503  0.72481830156E+02  0.32459988760E-01  0.41705645519E+03  0.45704069687E+03  0.17232671015E+03 0.  0.
        -24    2    5    5    0    0  0.90585742108E+02 -0.45815736038E+02  0.35371663097E+03  0.37664273646E+03  0.80246106208E+02 0.  0.
          5    1    3    3  501    0 -0.55780449842E+02  0.38277175186E+02  0.50340680896E+02  0.84456348950E+02  0.47000000000E+01 0. -1.
        -11    1    4    4    0    0  0.22842409590E+02  0.25426387533E+01  0.33007125599E+02  0.40220778560E+02  0.00000000000E+00 0.  1.
         12    1    4    4    0    0 -0.39543789904E+02 -0.40852273928E+02  0.26200782138E+03  0.26810579641E+03  0.00000000000E+00 0. -1.
         -5    1    5    5    0  503 -0.18103911953E+02  0.45848196027E+02  0.63339824214E+02  0.80397960412E+02  0.47000000000E+01 0.  1.
         13    1    6    6    0    0  0.64660050734E+02 -0.11403722027E+02  0.30329387402E+03  0.31031941779E+03  0.00000000000E+00 0. -1.
        -14    1    6    6    0    0  0.25925691375E+02 -0.34412014011E+02  0.50422756950E+02  0.66323318674E+02  0.00000000000E+00 0.  1.
</event>
<event>
12    1  0.8798177E-003  0.2009934E+03  0.7818608E-02  0.1149018E+00
         21   -1    0    0  503  502  0.00000000000E+00  0.00000000000E+00  0.55738878503E+02  0.55738878503E+02  0.00000000000E+00 0.  1.
         21   -1    0    0  501  503 -0.00000000000E+00 -0.00000000000E+00 -0.76300804635E+03  0.76300804635E+03  0.00000000000E+00 0. -1.
          6    2    1    2  501    0  0.30026212330E+02 -0.98937909675E+02 -0.44713828884E+03  0.49001237534E+03  0.17172418362E+03 0.  0.
         24    2    3    3    0    0  0.68413073177E+02 -0.52738066912E+02 -0.38956376199E+03  0.40667635252E+03  0.78511647304E+02 0.  0.
         -6    2    1    2    0  502 -0.30026212330E+02  0.98937909675E+02 -0.26013087900E+03  0.32873454951E+03  0.17236022289E+03 0.  0.
        -24    2    5    5    0    0 -0.67734280572E+02  0.28839692328E+02 -0.98922094356E+02  0.14888455442E+03  0.83434819927E+02 0.  0.
          5    1    3    3  501    0 -0.38386860847E+02 -0.46199842762E+02 -0.57574526859E+02  0.83336022823E+02  0.47000000000E+01 0. -1.
        -11    1    4    4    0    0  0.53582959183E+02 -0.14314100213E+02 -0.10133464789E+03  0.11551942626E+03  0.00000000000E+00 0.  1.
         12    1    4    4    0    0  0.14830113994E+02 -0.38423966700E+02 -0.28822911409E+03  0.29115692626E+03  0.00000000000E+00 0. -1.
         -5    1    5    5    0  502  0.37708068242E+02  0.70098217347E+02 -0.16120878464E+03  0.17984999508E+03  0.47000000000E+01 0.  1.
         13    1    6    6    0    0 -0.82546934524E+02  0.34005081096E+02 -0.98848784279E+02  0.13319693725E+03  0.00000000000E+00 0. -1.
        -14    1    6    6    0    0  0.14812653952E+02 -0.51653887679E+01 -0.73310077557E-01  0.15687617174E+02  0.00000000000E+00 0.  1.
</event>
<event>
12    1  0.8798177E-003  0.2613631E+03  0.7818608E-02  0.1106358E+00
         21   -1    0    0  501  502  0.00000000000E+00  0.00000000000E+00  0.34565837048E+03  0.34565837048E+03  0.00000000000E+00 0.  1.
         21   -1    0    0  502  503 -0.00000000000E+00 -0.00000000000E+00 -0.26971088215E+03  0.26971088215E+03  0.00000000000E+00 0. -1.
          6    2    1    2  501    0  0.19474293397E+03 -0.23574001190E+02  0.19720621961E+03  0.32724710311E+03  0.17239440124E+03 0.  0.
         24    2    3    3    0    0  0.10702944935E+03 -0.80924100822E+02  0.10420929775E+03  0.18705720766E+03  0.78273929740E+02 0.  0.
         -6    2    1    2    0  503 -0.19474293397E+03  0.23574001190E+02 -0.12125873127E+03  0.28812214952E+03  0.17271406795E+03 0.  0.
        -24    2    5    5    0    0 -0.15309840207E+03 -0.58002026772E+00 -0.19601778636E+02  0.17554368883E+03  0.83617580828E+02 0.  0.
          5    1    3    3  501    0  0.87713484625E+02  0.57350099632E+02  0.92996921854E+02  0.14018989545E+03  0.47000000000E+01 0. -1.
        -13    1    4    4    0    0  0.87728409207E+02 -0.72534587641E+02  0.11634050549E+03  0.16276563951E+03  0.00000000000E+00 0.  1.
         14    1    4    4    0    0  0.19301040139E+02 -0.83895131815E+01 -0.12131207740E+02  0.24291568149E+02  0.00000000000E+00 0. -1.
         -5    1    5    5    0  503 -0.41644531901E+02  0.24154021458E+02 -0.10165695264E+03  0.11257846068E+03  0.47000000000E+01 0.  1.
         11    1    6    6    0    0 -0.41254469251E+02  0.33938294105E+02 -0.23656411365E+02  0.58424009094E+02  0.00000000000E+00 0. -1.
        -12    1    6    6    0    0 -0.11184393282E+03 -0.34518314373E+02  0.40546327297E+01  0.11711967974E+03  0.00000000000E+00 0.  1.
</event>
<event>
12    1  0.8798177E-003  0.2089518E+03  0.7818608E-02  0.1142969E+00
         21   -1    0    0  503  502  0.00000000000E+00  0.00000000000E+00  0.16162469570E+04  0.16162469570E+04  0.00000000000E+00 0.  1.
         21   -1    0    0  501  503 -0.00000000000E+00 -0.00000000000E+00 -0.27448498385E+02  0.27448498385E+02  0.00000000000E+00 0.  1.
          6    2    1    2  501    0  0.28304507497E+02 -0.10896106280E+03  0.64872041543E+03  0.68067543189E+03  0.17264764067E+03 0.  0.
         24    2    3    3    0    0  0.50943576217E+02 -0.39979652697E+02  0.21545563688E+03  0.24134478112E+03  0.87364474033E+02 0.  0.
         -6    2    1    2    0  502 -0.28304507497E+02  0.10896106280E+03  0.94007804321E+03  0.96302002353E+03  0.17603175858E+03 0.  0.
        -24    2    5    5    0    0  0.37511597606E+02  0.62284105045E+02  0.32408670121E+03  0.34174880940E+03  0.80458866076E+02 0.  0.
          5    1    3    3  501    0 -0.22639068720E+02 -0.68981410099E+02  0.43326477855E+03  0.43933065077E+03  0.47000000000E+01 0. -1.
        -11    1    4    4    0    0  0.47664446639E+02 -0.64742612907E+02  0.18658116844E+03  0.20316505067E+03  0.00000000000E+00 0.  1.
         12    1    4    4    0    0  0.32791295781E+01  0.24762960210E+02  0.28874468441E+02  0.38179730446E+02  0.00000000000E+00 0. -1.
         -5    1    5    5    0  502 -0.65816105103E+02  0.46676957751E+02  0.61599134200E+03  0.62127121413E+03  0.47000000000E+01 0.  1.
         11    1    6    6    0    0 -0.53301660473E+01  0.10165375339E+02  0.80946860944E+00  0.11506553146E+02  0.00000000000E+00 0. -1.
        -12    1    6    6    0    0  0.42841763653E+02  0.52118729706E+02  0.32327723260E+03  0.33024225625E+03  0.00000000000E+00 0.  1.
</event>
<event>
12    1  0.8798177E-003  0.2658318E+03  0.7818608E-02  0.1104200E+00
         21   -1    0    0  501  502  0.00000000000E+00  0.00000000000E+00  0.11576102731E+03  0.11576102731E+03  0.00000000000E+00 0.  1.
         21   -1    0    0  502  503 -0.00000000000E+00 -0.00000000000E+00 -0.63448337819E+03  0.63448337819E+03  0.00000000000E+00 0.  1.
          6    2    1    2  501    0  0.17915877263E+03 -0.85678216356E+02 -0.17351140279E+03  0.31454137519E+03  0.17143933984E+03 0.  0.
         24    2    3    3    0    0  0.13090874988E+03  0.11976113294E+02 -0.10414643993E+03  0.18532055308E+03  0.78846042137E+02 0.  0.
         -6    2    1    2    0  503 -0.17915877263E+03  0.85678216356E+02 -0.34521094809E+03  0.43570303030E+03  0.17671420249E+03 0.  0.
        -24    2    5    5    0    0 -0.86384622476E+02  0.38762976667E+02 -0.29563953855E+03  0.32043162320E+03  0.79428061989E+02 0.  0.
          5    1    3    3  501    0  0.48250022753E+02 -0.97654329649E+02 -0.69364962856E+02  0.12922082211E+03  0.47000000000E+01 0. -1.
        -13    1    4    4    0    0  0.50713982396E+02  0.20530838445E+02 -0.87147876656E+02  0.10289886172E+03  0.00000000000E+00 0.  1.
         14    1    4    4    0    0  0.80194767481E+02 -0.85547251518E+01 -0.16998563277E+02  0.82421691363E+02  0.00000000000E+00 0. -1.
         -5    1    5    5    0  503 -0.92774150153E+02  0.46915239689E+02 -0.49571409545E+02  0.11527140711E+03  0.47000000000E+01 0.  1.
         11    1    6    6    0    0  0.56217283009E+01  0.30197109357E+02 -0.86366335997E+02  0.91665769162E+02  0.00000000000E+00 0. -1.
        -12    1    6    6    0    0 -0.92006350777E+02  0.85658673093E+01 -0.20927320255E+03  0.22876585403E+03  0.00000000000E+00 0.  1.
</event>
<event>
12    1  0.8798177E-003  0.2131646E+03  0.7818608E-02  0.1139364E+00
         21   -1    0    0  503  502  0.00000000000E+00  0.00000000000E+00  0.15437050374E+04  0.15437050374E+04  0.00000000000E+00 0.  1.
         21   -1    0    0  501  503 -0.00000000000E+00 -0.00000000000E+00 -0.29431438119E+02  0.29431438119E+02  0.00000000000E+00 0.  1.
          6    2    1    2  501    0  0.12409802503E+03 -0.11518167145E+02  0.82364188543E+03  0.85077911979E+03  0.17293399680E+03 0.  0.
         24    2    3    3    0    0  0.12391741031E+02  0.88394486527E-01  0.54398917534E+03  0.54938115295E+03  0.75775096612E+02 0.  0.
         -6    2    1    2    0  502 -0.12409802503E+03  0.11518167145E+02  0.69063171381E+03  0.72235735569E+03  0.17115781374E+03 0.  0.
        -24    2    5    5    0    0 -0.15421907308E+03 -0.93356274540E+01  0.54733617036E+03  0.57437809681E+03  0.80390535948E+02 0.  0.
          5    1    3    3  501    0  0.11170628400E+03 -0.11606561632E+02  0.27965271009E+03  0.30139796684E+03  0.47000000000E+01 0. -1.
        -13    1    4    4    0    0  0.13115294055E+02 -0.12603473452E+02  0.53062408017E+03  0.53093575217E+03  0.00000000000E+00 0.  1.
         14    1    4    4    0    0 -0.72355302455E+00  0.12691867939E+02  0.13365095173E+02  0.18445400775E+02  0.00000000000E+00 0. -1.
         -5    1    5    5    0  502  0.30121048052E+02  0.20853794599E+02  0.14329554345E+03  0.14797925888E+03  0.47000000000E+01 0.  1.
         11    1    6    6    0    0 -0.95611180118E+01 -0.85525169069E+01  0.16649070839E+03  0.16698418040E+03  0.00000000000E+00 0. -1.
        -12    1    6    6    0    0 -0.14465795507E+03 -0.78311054716E+00  0.38084546197E+03  0.40739391641E+03  0.00000000000E+00 0.  1.
</event>
<event>
12    1  0.8798177E-003  0.3003643E+03  0.7818608E-02  0.1085156E+00
         21   -1    0    0  503  502  0.00000000000E+00  0.00000000000E+00  0.15823012790E+03  0.15823012790E+03  0.00000000000E+00 0.  1.
         21   -1    0    0  501  503 -0.00000000000E+00 -0.00000000000E+00 -0.85484115203E+03  0.85484115203E+03  0.00000000000E+00 0. -1.
          6    2    1    2  501    0 -0.42074673523E+02 -0.24204003727E+03 -0.64106570804E+03  0.70761429615E+03  0.17146163504E+03 0.  0.
         24    2    3    3    0    0  0.15248875529E+02 -0.17128173301E+03 -0.53600164221E+03  0.56849824809E+03  0.79514384631E+02 0.  0.
         -6    2    1    2    0  502  0.42074673523E+02  0.24204003727E+03 -0.55545316092E+02  0.30545698378E+03  0.17281501384E+03 0.  0.
        -24    2    5    5    0    0 -0.31791483769E+01  0.18294450862E+03 -0.94893887329E+02  0.22113266961E+03  0.80099984370E+02 0.  0.
          5    1    3    3  501    0 -0.57323549052E+02 -0.70758304258E+02 -0.10506406583E+03  0.13911604805E+03  0.47000000000E+01 0. -1.
        -13    1    4    4    0    0  0.39815690802E+02 -0.43945070421E+02 -0.18723004392E+03  0.19639640474E+03  0.00000000000E+00 0.  1.
         14    1    4    4    0    0 -0.24566815273E+02 -0.12733666259E+03 -0.34877159830E+03  0.37210184336E+03  0.00000000000E+00 0. -1.
         -5    1    5    5    0  502  0.45253821900E+02  0.59095528644E+02  0.39348571238E+02  0.84324314173E+02  0.47000000000E+01 0.  1.
         11    1    6    6    0    0 -0.37982432996E+01  0.12677832454E+03 -0.10426088012E+03  0.16418739705E+03  0.00000000000E+00 0. -1.
        -12    1    6    6    0    0  0.61909492275E+00  0.56166184082E+02  0.93669927947E+01  0.56945272559E+02  0.00000000000E+00 0.  1.
</event>
<event>
12    1  0.8798177E-003  0.1827990E+03  0.7818608E-02  0.1165220E+00
         21   -1    0    0  501  502  0.00000000000E+00  0.00000000000E+00  0.23731307932E+02  0.23731307932E+02  0.00000000000E+00 0.  1.
         21   -1    0    0  502  503 -0.00000000000E+00 -0.00000000000E+00 -0.14348687919E+04  0.14348687919E+04  0.00000000000E+00 0.  1.
          6    2    1    2  501    0 -0.35675487220E+02 -0.48157816881E+02 -0.59932973317E+03  0.62646591725E+03  0.17225417469E+03 0.  0.
         24    2    3    3    0    0 -0.51758565751E+01  0.38046055541E+02 -0.22750234838E+03  0.24353115888E+03  0.77947514342E+02 0.  0.
         -6    2    1    2    0  503  0.35675487220E+02  0.48157816881E+02 -0.81180775078E+03  0.83213418257E+03  0.17269498502E+03 0.  0.
        -24    2    5    5    0    0  0.79853677844E+02  0.59154684301E+02 -0.41164178425E+03  0.42935938893E+03  0.70884693553E+02 0.  0.
          5    1    3    3  501    0 -0.30499630645E+02 -0.86203872422E+02 -0.37182738479E+03  0.38293475837E+03  0.47000000000E+01 0. -1.
        -11    1    4    4    0    0 -0.22816335225E+01 -0.14857099154E+02 -0.66925001516E+01  0.16453838613E+02  0.00000000000E+00 0.  1.
         12    1    4    4    0    0 -0.28942230526E+01  0.52903154696E+02 -0.22080984823E+03  0.22707732027E+03  0.00000000000E+00 0. -1.
         -5    1    5    5    0  503 -0.44178190623E+02 -0.10996867420E+02 -0.40016596653E+03  0.40277479364E+03  0.47000000000E+01 0.  1.
         11    1    6    6    0    0  0.12190820197E+02  0.42517446233E+02 -0.90308358954E+02  0.10055818728E+03  0.00000000000E+00 0. -1.
        -12    1    6    6    0    0  0.67662857647E+02  0.16637238068E+02 -0.32133342529E+03  0.32880120165E+03  0.00000000000E+00 0.  1.
</event>
<event>
12    1  0.8798177E-003  0.2649147E+03  0.7818608E-02  0.1104438E+00
         21   -1    0    0  501  502  0.00000000000E+00  0.00000000000E+00  0.47602096222E+03  0.47602096222E+03  0.00000000000E+00 0. -1.
         21   -1    0    0  502  503 -0.00000000000E+00 -0.00000000000E+00 -0.18918864494E+03  0.18918864494E+03  0.00000000000E+00 0.  1.
          6    2    1    2  501    0 -0.19794505105E+03  0.26963699579E+02  0.30086839653E+03  0.39992333121E+03  0.17177774737E+03 0.  0.
         24    2    3    3    0    0 -0.11750139232E+03 -0.50394713180E+02  0.18962696075E+03  0.24227735668E+03  0.79960796649E+02 0.  0.
         -6    2    1    2    0  503  0.19794505105E+03 -0.26963699579E+02 -0.14036079244E+02  0.26528627594E+03  0.17398423017E+03 0.  0.
        -24    2    5    5    0    0  0.15621061703E+03 -0.82023956538E+02 -0.28836706408E+01  0.19514455442E+03  0.83327037900E+02 0.  0.
          5    1    3    3  501    0 -0.80443658729E+02  0.77358412760E+02  0.11124143577E+03  0.15764597453E+03  0.47000000000E+01 0. -1.
        -13    1    4    4    0    0 -0.71789092067E+02 -0.10611554860E+02  0.44801376108E+02  0.85284477706E+02  0.00000000000E+00 0.  1.
         14    1    4    4    0    0 -0.45712300256E+02 -0.39783158320E+02  0.14482558465E+03  0.15699287897E+03  0.00000000000E+00 0. -1.
         -5    1    5    5    0  503  0.41734434023E+02  0.55060256958E+02 -0.11152408603E+02  0.70141721516E+02  0.47000000000E+01 0.  1.
         11    1    6    6    0    0  0.44681728907E+02  0.96554929522E+01  0.18270694571E+02  0.49229094267E+02  0.00000000000E+00 0. -1.
        -12    1    6    6    0    0  0.11152888812E+03 -0.91679449490E+02 -0.21154365212E+02  0.14591546015E+03  0.00000000000E+00 0.  1.
</event>
<event>
12    1  0.8798177E-003  0.2919872E+03  0.7818608E-02  0.1089345E+00
         21   -1    0    0  503  502  0.00000000000E+00  0.00000000000E+00  0.48734027761E+03  0.48734027761E+03  0.00000000000E+00 0.  1.
         21   -1    0    0  501  503 -0.00000000000E+00 -0.00000000000E+00 -0.18770601415E+03  0.18770601415E+03  0.00000000000E+00 0. -1.
          6    2    1    2  501    0 -0.22042977040E+03 -0.83323500491E+02  0.61402582193E+02  0.29837356582E+03  0.17240770942E+03 0.  0.
         24    2    3    3    0    0 -0.52502351362E+02 -0.59709743168E+02  0.66472673552E+02  0.12865313857E+03  0.76231643080E+02 0.  0.
         -6    2    1    2    0  502  0.22042977040E+03  0.83323500491E+02  0.23823168126E+03  0.37667272594E+03  0.17203464505E+03 0.  0.
        -24    2    5    5    0    0  0.70189027686E+02 -0.18343739126E+02  0.68178328231E+02  0.12797865432E+03  0.80419271002E+02 0.  0.
          5    1    3    3  501    0 -0.16792741904E+03 -0.23613757323E+02 -0.50700913583E+01  0.16972042725E+03  0.47000000000E+01 0. -1.
        -13    1    4    4    0    0 -0.25447010111E+02  0.12231723446E+02  0.19523024392E+01  0.28301534708E+02  0.00000000000E+00 0.  1.
         14    1    4    4    0    0 -0.27055341252E+02 -0.71941466614E+02  0.64520371112E+02  0.10035160386E+03  0.00000000000E+00 0. -1.
         -5    1    5    5    0  502  0.15024074272E+03  0.10166723962E+03  0.17005335303E+03  0.24869407162E+03  0.47000000000E+01 0.  1.
         13    1    6    6    0    0  0.24247130833E+02 -0.96132713181E+01 -0.16769910066E+02  0.31009163528E+02  0.00000000000E+00 0. -1.
        -14    1    6    6    0    0  0.45941896853E+02 -0.87304678075E+01  0.84948238298E+02  0.96969490792E+02  0.00000000000E+00 0.  1.
</event>
<event>
12    1  0.8798177E-003  0.1950323E+03  0.7818608E-02  0.1155144E+00
         21   -1    0    0  501  502  0.00000000000E+00  0.00000000000E+00  0.24856647280E+03  0.24856647280E+03  0.00000000000E+00 0.  1.
         21   -1    0    0  502  503 -0.00000000000E+00 -0.00000000000E+00 -0.15024759424E+03  0.15024759424E+03  0.00000000000E+00 0.  1.
          6    2    1    2  501    0  0.11221213315E+01 -0.87006753505E+02  0.66719489804E+02  0.20123850259E+03  0.16874243774E+03 0.  0.
         24    2    3    3    0    0  0.13787047312E+02  0.35958899225E+01  0.73018314816E+02  0.10941800084E+03  0.80234727586E+02 0.  0.
         -6    2    1    2    0  503 -0.11221213315E+01  0.87006753505E+02  0.31599388762E+02  0.19757556445E+03  0.17454554702E+03 0.  0.
        -24    2    5    5    0    0 -0.31166165481E+02  0.69677272338E+01 -0.29366865560E+02  0.92466742355E+02  0.81656638159E+02 0.  0.
          5    1    3    3  501    0 -0.12664925981E+02 -0.90602643428E+02 -0.62988250121E+01  0.91820501756E+02  0.47000000000E+01 0. -1.
        -11    1    4    4    0    0  0.33949688164E+02 -0.98387761034E+01  0.77129578988E+02  0.84843118734E+02  0.00000000000E+00 0.  1.
         12    1    4    4    0    0 -0.20162640851E+02  0.13434666026E+02 -0.41112641717E+01  0.24574882104E+02  0.00000000000E+00 0. -1.
         -5    1    5    5    0  503  0.30044044150E+02  0.80039026271E+02  0.60966254322E+02  0.10510882209E+03  0.47000000000E+01 0.  1.
         11    1    6    6    0    0 -0.27519305983E+02 -0.24579749940E+02  0.13349338075E+02  0.39238770826E+02  0.00000000000E+00 0. -1.
        -12    1    6    6    0    0 -0.36468594983E+01  0.31547477174E+02 -0.42716203634E+02  0.53227971530E+02  0.00000000000E+00 0.  1.
</event>
<event>
12    1  0.8798177E-003  0.2026375E+03  0.7818608E-02  0.1148177E+00
         21   -1    0    0  503  502  0.00000000000E+00  0.00000000000E+00  0.66421942875E+02  0.66421942875E+02  0.00000000000E+00 0. -1.
         21   -1    0    0  501  503 -0.00000000000E+00 -0.00000000000E+00 -0.61653683798E+03  0.61653683798E+03  0.00000000000E+00 0. -1.
          6    2    1    2  501    0  0.33694156835E+02  0.10311937628E+03 -0.23480157431E+03  0.30814624830E+03  0.16749157911E+03 0.  0.
         24    2    3    3    0    0 -0.21006302147E+02  0.10336824675E+03 -0.11200653392E+03  0.17363634496E+03  0.80485138290E+02 0.  0.
         -6    2    1    2    0  502 -0.33694156835E+02 -0.10311937628E+03 -0.31531332079E+03  0.37481253256E+03  0.17115210289E+03 0.  0.
        -24    2    5    5    0    0 -0.65140623586E+02 -0.11492645204E+02 -0.19580599952E+03  0.22090207821E+03  0.77989467087E+02 0.  0.
          5    1    3    3  501    0  0.54700458982E+02 -0.24887047749E+00 -0.12279504039E+03  0.13450990333E+03  0.47000000000E+01 0. -1.
        -11    1    4    4    0    0 -0.50417153185E+02  0.72425295407E+02 -0.61800138807E+02  0.10773379185E+03  0.00000000000E+00 0.  1.
         12    1    4    4    0    0  0.29410851038E+02  0.30942951347E+02 -0.50206395110E+02  0.65902553113E+02  0.00000000000E+00 0. -1.
         -5    1    5    5    0  502  0.31446466751E+02 -0.91626731072E+02 -0.11950732128E+03  0.15391045435E+03  0.47000000000E+01 0.  1.
         13    1    6    6    0    0 -0.21980834925E+02  0.31147300059E+02 -0.49222136196E+02  0.62258574483E+02  0.00000000000E+00 0. -1.
        -14    1    6    6    0    0 -0.43159788661E+02 -0.42639945263E+02 -0.14658386332E+03  0.15864350373E+03  0.00000000000E+00 0.  1.
</event>
<event>
12    1  0.8798177E-003  0.1872438E+03  0.7818608E-02  0.1161089E+00
         21   -1    0    0  503  502  0.00000000000E+00  0.00000000000E+00  0.91142492986E+03  0.91142492986E+03  0.00000000000E+00 0.  1.
         21   -1    0    0  501  503 -0.00000000000E+00 -0.00000000000E+00 -0.44556943692E+02  0.44556943692E+02  0.00000000000E+00 0. -1.
          6    2    1    2  501    0  0.50291963899E+02  0.56345232510E+02  0.25571721447E+03  0.31694087701E+03  0.17133639101E+03 0.  0.
         24    2    3    3    0    0  0.88381807427E+02  0.55167480421E+02  0.24346468771E+03  0.27663656344E+03  0.79987119539E+02 0.  0.
         -6    2    1    2    0  502 -0.50291963899E+02 -0.56345232510E+02  0.61115077170E+03  0.63904099654E+03  0.17077488882E+03 0.  0.
        -24    2    5    5    0    0  0.26270747556E+02 -0.58403928212E+02  0.43540765577E+03  0.44727598459E+03  0.79842398996E+02 0.  0.
          5    1    3    3  501    0 -0.38089843528E+02  0.11777520893E+01  0.12252526757E+02  0.40304313564E+02  0.47000000000E+01 0. -1.
        -13    1    4    4    0    0 -0.10239236773E+02 -0.45004230938E+01  0.60413905509E+01  0.12711969851E+02  0.00000000000E+00 0.  1.
         14    1    4    4    0    0  0.98621044200E+02  0.59667903515E+02  0.23742329716E+03  0.26392459359E+03  0.00000000000E+00 0. -1.
         -5    1    5    5    0  502 -0.76562711455E+02  0.20586957015E+01  0.17574311593E+03  0.19176501195E+03  0.47000000000E+01 0.  1.
         11    1    6    6    0    0  0.27058229185E+02 -0.29163677287E+02  0.68577147084E+02  0.79281100785E+02  0.00000000000E+00 0. -1.
        -12    1    6    6    0    0 -0.78748162952E+00 -0.29240250925E+02  0.36683050868E+03  0.36799488380E+03  0.00000000000E+00 0.  1.
</event>
<event>
12    1  0.8798177E-003  0.1844166E+03  0.7818608E-02  0.1163720E+00
         21   -1    0    0  503  502  0.00000000000E+00  0.00000000000E+00  0.86695879389E+02  0.86695879389E+02  0.00000000000E+00 0. -1.
         21   -1    0    0  501  503 -0.00000000000E+00 -0.00000000000E+00 -0.52336609783E+03  0.52336609783E+03  0.00000000000E+00 0. -1.
          6    2    1    2  501    0  0.28774067707E+02  0.55606158747E+02 -0.37140772908E+03  0.41443814436E+03  0.17290252288E+03 0.  0.
         24    2    3    3    0    0 -0.46973015395E+02  0.26040147189E+02 -0.17222445183E+03  0.19924558507E+03  0.84575338734E+02 0.  0.
         -6    2    1    2    0  502 -0.28774067707E+02 -0.55606158747E+02 -0.65262489367E+02  0.19562383286E+03  0.17346325145E+03 0.  0.
        -24    2    5    5    0    0  0.49025385040E+02 -0.17315583971E+02 -0.16929916762E+02  0.96240481444E+02  0.79197792648E+02 0.  0.
          5    1    3    3  501    0  0.75747083102E+02  0.29566011558E+02 -0.19918327725E+03  0.21519255929E+03  0.47000000000E+01 0. -1.
        -11    1    4    4    0    0 -0.45572659359E+02  0.46491886596E+02 -0.72518475148E+02  0.97454050907E+02  0.00000000000E+00 0.  1.
         12    1    4    4    0    0 -0.14003560357E+01 -0.20451739407E+02 -0.99705976681E+02  0.10179153417E+03  0.00000000000E+00 0. -1.
         -5    1    5    5    0  502 -0.77799452747E+02 -0.38290574775E+02 -0.48332572604E+02  0.99383351417E+02  0.47000000000E+01 0.  1.
         13    1    6    6    0    0  0.75319215151E+01 -0.39904456475E+02  0.10052070645E+02  0.41834669982E+02  0.00000000000E+00 0. -1.
        -14    1    6    6    0    0  0.41493463525E+02  0.22588872504E+02 -0.26981987407E+02  0.54405811461E+02  0.00000000000E+00 0.  1.
</event>
<event>
12    1  0.8798177E-003  0.2641742E+03  0.7818608E-02  0.1104865E+00
         21   -1    0    0  503  502  0.00000000000E+00  0.00000000000E+00  0.16747893602E+03  0.16747893602E+03  0.00000000000E+00 0.  1.
         21   -1    0    0  501  503 -0.00000000000E+00 -0.00000000000E+00 -0.41594595899E+03  0.41594595899E+03  0.00000000000E+00 0. -1.
          6    2    1    2  501    0 -0.17878927688E+03 -0.90012403219E+02 -0.10748235047E+03  0.28520251518E+03  0.17239541973E+03 0.  0.
         24    2    3    3    0    0 -0.12061901508E+03 -0.27918300482E+02  0.50601042336E+00  0.14764149948E+03  0.80432443842E+02 0.  0.
         -6    2    1    2    0  502  0.17878927688E+03  0.90012403219E+02 -0.14098467251E+03  0.29822237982E+03  0.17027058373E+03 0.  0.
        -24    2    5    5    0    0  0.15081385578E+03  0.32197478942E+02 -0.15404264946E+03  0.23251248394E+03  0.80940846222E+02 0.  0.
          5    1    3    3  501    0 -0.58170261804E+02 -0.62094102737E+02 -0.10798836089E+03  0.13756101570E+03  0.47000000000E+01 0. -1.
        -11    1    4    4    0    0 -0.47965312214E+02  0.62995981011E+00  0.37853371569E+02  0.61106020688E+02  0.00000000000E+00 0.  1.
         12    1    4    4    0    0 -0.72653702861E+02 -0.28548260293E+02 -0.37347361145E+02  0.86535478792E+02  0.00000000000E+00 0. -1.
         -5    1    5    5    0  502  0.27975421095E+02  0.57814924278E+02  0.13057976958E+02  0.65709895883E+02  0.47000000000E+01 0.  1.
         11    1    6    6    0    0 -0.63176003381E+01  0.46188401123E+01 -0.28356861445E+02  0.29416956828E+02  0.00000000000E+00 0. -1.
        -12    1    6    6    0    0  0.15713145612E+03  0.27578638829E+02 -0.12568578802E+03  0.20309552711E+03  0.00000000000E+00 0.  1.
</event>
<event>
12    1  0.8798177E-003  0.2162021E+03  0.7818608E-02  0.1137734E+00
         21   -1    0    0  503  502  0.00000000000E+00  0.00000000000E+00  0.14807177176E+02  0.14807177176E+02  0.00000000000E+00 0. -1.
         21   -1    0    0  501  503 -0.00000000000E+00 -0.00000000000E+00 -0.32270948509E+04  0.32270948509E+04  0.00000000000E+00 0.  1.
          6    2    1    2  501    0  0.12770167862E+03  0.20323718132E+02 -0.19308089786E+04  0.19423132503E+04  0.16684327399E+03 0.  0.
         24    2    3    3    0    0  0.14007675480E+03  0.53474914279E+02 -0.13854335378E+04  0.13957708404E+04  0.79177570399E+02 0.  0.
         -6    2    1    2    0  502 -0.12770167862E+03 -0.20323718132E+02 -0.12814786951E+04  0.12995887778E+04  0.17327023146E+03 0.  0.
        -24    2    5    5    0    0 -0.14924230062E+03  0.19329829616E+02 -0.98033422099E+03  0.99504569950E+03  0.80086532223E+02 0.  0.
          5    1    3    3  501    0 -0.12375076178E+02 -0.33151196147E+02 -0.54537544082E+03  0.54654240985E+03  0.47000000000E+01 0. -1.
        -11    1    4    4    0    0  0.74130545380E+02  0.67938459159E+02 -0.91710714457E+03  0.92260310352E+03  0.00000000000E+00 0.  1.
         12    1    4    4    0    0  0.65946209419E+02 -0.14463544880E+02 -0.46832639324E+03  0.47316773693E+03  0.00000000000E+00 0. -1.
         -5    1    5    5    0  502  0.21540621995E+02 -0.39653547748E+02 -0.30114447411E+03  0.30454307828E+03  0.47000000000E+01 0.  1.
         13    1    6    6    0    0  0.62513091468E+01  0.72482034182E+01 -0.20518153761E+02  0.22640891162E+02  0.00000000000E+00 0. -1.
        -14    1    6    6    0    0 -0.15549360976E+03  0.12081626198E+02 -0.95981606723E+03  0.97240480834E+03  0.00000000000E+00 0.  1.
</event>
<event>
12    1  0.8798177E-003  0.1932689E+03  0.7818608E-02  0.1155677E+00
         21   -1    0    0  501  502  0.00000000000E+00  0.00000000000E+00  0.29183391554E+02  0.29183391554E+02  0.00000000000E+00 0.  1.
         21   -1    0    0  502  503 -0.00000000000E+00 -0.00000000000E+00 -0.13811214937E+04  0.13811214937E+04  0.00000000000E+00 0.  1.
          6    2    1    2  501    0  0.84553936115E+02  0.11744237348E+02 -0.48044985293E+03  0.51764332908E+03  0.17272886189E+03 0.  0.
         24    2    3    3    0    0  0.23644050688E+02 -0.36180794373E+01 -0.42720920857E+03  0.43516502204E+03  0.79301682743E+02 0.  0.
         -6    2    1    2    0  503 -0.84553936115E+02 -0.11744237348E+02 -0.87148824917E+03  0.89266155613E+03  0.17339431979E+03 0.  0.
        -24    2    5    5    0    0 -0.95072271725E+02 -0.58189890834E+02 -0.51175362106E+03  0.52975808856E+03  0.79542840579E+02 0.  0.
          5    1    3    3  501    0  0.60909885426E+02  0.15362316785E+02 -0.53240644358E+02  0.82478307035E+02  0.47000000000E+01 0. -1.
        -13    1    4    4    0    0 -0.97350056862E+01  0.19973452498E+02 -0.39609806972E+02  0.45416362126E+02  0.00000000000E+00 0.  1.
         14    1    4    4    0    0  0.33379056375E+02 -0.23591531935E+02 -0.38759940160E+03  0.38974865992E+03  0.00000000000E+00 0. -1.
         -5    1    5    5    0  503  0.10518335611E+02  0.46445653486E+02 -0.35973462811E+03  0.36290346757E+03  0.47000000000E+01 0.  1.
         11    1    6    6    0    0  0.57671843585E+00 -0.31724965577E+02 -0.67947552902E+02  0.74991172750E+02  0.00000000000E+00 0. -1.
        -12    1    6    6    0    0 -0.95648990161E+02 -0.26464925257E+02 -0.44380606815E+03  0.45476691581E+03  0.00000000000E+00 0.  1.
</event>
<event>
12    1  0.8798177E-003  0.1805166E+03  0.7818608E-02  0.1167353E+00
         21   -1    0    0  503  502  0.00000000000E+00  0.00000000000E+00  0.52948563534E+03  0.52948563534E+03  0.00000000000E+00 0.  1.
         21   -1    0    0  501  503 -0.00000000000E+00 -0.00000000000E+00 -0.63990103068E+02  0.63990103068E+02  0.00000000000E+00 0.  1.
          6    2    1    2  501    0 -0.55254976828E+02  0.10824488850E+02  0.29170677284E+03  0.34304384979E+03  0.17151081462E+03 0.  0.
         24    2    3    3    0    0 -0.26987050927E+02 -0.44890341654E+02  0.90102467966E+02  0.13192870652E+03  0.80890575340E+02 0.  0.
         -6    2    1    2    0  502  0.55254976828E+02 -0.10824488850E+02  0.17378875943E+03  0.25043188862E+03  0.17129890808E+03 0.  0.
        -24    2    5    5    0    0  0.56215295363E+02  0.32524676260E+02  0.40978802649E+02  0.11064402453E+03  0.79654402881E+02 0.  0.
          5    1    3    3  501    0 -0.28267925900E+02  0.55714830504E+02  0.20160430487E+03  0.21111514327E+03  0.47000000000E+01 0. -1.
        -13    1    4    4    0    0  0.30083322766E+01  0.22241901744E+02  0.16210882917E+02  0.27686548741E+02  0.00000000000E+00 0.  1.
         14    1    4    4    0    0 -0.29995383204E+02 -0.67132243397E+02  0.73891585049E+02  0.10424215778E+03  0.00000000000E+00 0. -1.
         -5    1    5    5    0  502 -0.96031853540E+00 -0.43349165110E+02  0.13280995678E+03  0.13978786409E+03  0.47000000000E+01 0.  1.
         11    1    6    6    0    0 -0.10541127020E+02 -0.16454732834E+02  0.11947628909E+02  0.22904572208E+02  0.00000000000E+00 0. -1.
        -12    1    6    6    0    0  0.66756422383E+02  0.48979409094E+02  0.29031173740E+02  0.87739452319E+02  0.00000000000E+00 0.  1.
</event>
<event>
12    1  0.8798177E-003  0.1807024E+03  0.7818608E-02  0.1167574E+00
         21   -1    0    0  503  502  0.00000000000E+00  0.00000000000E+00  0.36570359967E+02  0.36570359967E+02  0.00000000000E+00 0. -1.
         21   -1    0    0  501  503 -0.00000000000E+00 -0.00000000000E+00 -0.10682325862E+04  0.10682325862E+04  0.00000000000E+00 0.  1.
          6    2    1    2  501    0 -0.44276947940E+02  0.21017578283E+02 -0.74319115934E+03  0.76440772437E+03  0.17199966000E+03 0.  0.
         24    2    3    3    0    0 -0.50247829478E+02 -0.27089833247E+02 -0.24996395161E+03  0.26878171323E+03  0.80640739279E+02 0.  0.
         -6    2    1    2    0  502  0.44276947940E+02 -0.21017578283E+02 -0.28847106691E+03  0.34039522182E+03  0.17392861718E+03 0.  0.
        -24    2    5    5    0    0 -0.41654518272E+02 -0.25280836460E+02 -0.12845384666E+03  0.15865366622E+03  0.79349703823E+02 0.  0.
          5    1    3    3  501    0  0.59708815383E+01  0.48107411529E+02 -0.49322720773E+03  0.49562601114E+03  0.47000000000E+01 0. -1.
        -13    1    4    4    0    0 -0.13775425430E+02  0.12082339098E+02 -0.17880168283E+03  0.17973810683E+03  0.00000000000E+00 0.  1.
         14    1    4    4    0    0 -0.36472404048E+02 -0.39172172345E+02 -0.71162268774E+02  0.89043606398E+02  0.00000000000E+00 0. -1.
         -5    1    5    5    0  502  0.85931466212E+02  0.42632581772E+01 -0.16001722025E+03  0.18174155560E+03  0.47000000000E+01 0.  1.
         11    1    6    6    0    0  0.15277257331E+02 -0.29793201497E+02 -0.30627083193E+02  0.45376730512E+02  0.00000000000E+00 0. -1.
        -12    1    6    6    0    0 -0.56931775604E+02  0.45123650374E+01 -0.97826763469E+02  0.11327693570E+03  0.00000000000E+00 0.  1.
</event>
<event>
12    1  0.8798177E-003  0.2006348E+03  0.7818608E-02  0.1150120E+00
         21   -1    0    0  501  502  0.00000000000E+00  0.00000000000E+00  0.61829080331E+02  0.61829080331E+02  0.00000000000E+00 0.  1.
         21   -1    0    0  502  503 -0.00000000000E+00 -0.00000000000E+00 -0.65124953521E+03  0.65124953521E+03  0.00000000000E+00 0.  1.
          6    2    1    2  501    0 -0.54099914232E+02  0.90674513012E+02 -0.35028776832E+03  0.40367790318E+03  0.17060381252E+03 0.  0.
         24    2    3    3    0    0 -0.42955817089E+02  0.56250895136E+02 -0.35137634852E+03  0.36717514471E+03  0.79642219774E+02 0.  0.
         -6    2    1    2    0  503  0.54099914232E+02 -0.90674513012E+02 -0.23913268655E+03  0.30940071236E+03  0.16551643726E+03 0.  0.
        -24    2    5    5    0    0  0.76231642025E+02 -0.10833552209E+03 -0.15210160294E+03  0.21775888713E+03  0.82074275604E+02 0.  0.
          5    1    3    3  501    0 -0.11144097143E+02  0.34423617877E+02  0.10885801918E+01  0.36502758467E+02  0.47000000000E+01 0. -1.
        -13    1    4    4    0    0 -0.35823064161E+02  0.15361655422E+02 -0.29280470264E+03  0.29538765423E+03  0.00000000000E+00 0.  1.
         14    1    4    4    0    0 -0.71327529275E+01  0.40889239714E+02 -0.58571645874E+02  0.71787490478E+02  0.00000000000E+00 0. -1.
         -5    1    5    5    0  503 -0.22131727794E+02  0.17661009075E+02 -0.87031083618E+02  0.91641825235E+02  0.47000000000E+01 0.  1.
         11    1    6    6    0    0  0.94175361840E+01 -0.19734387281E+02 -0.85686966896E+02  0.88432982111E+02  0.00000000000E+00 0. -1.
        -12    1    6    6    0    0  0.66814105841E+02 -0.88601134806E+02 -0.66414636039E+02  0.12932590502E+03  0.00000000000E+00 0.  1.
</event>
<event>
12    1  0.8798177E-003  0.3223846E+03  0.7818608E-02  0.1074633E+00
         21   -1    0    0  503  502  0.00000000000E+00  0.00000000000E+00  0.34915071182E+03  0.34915071182E+03  0.00000000000E+00 0.  1.
         21   -1    0    0  501  503 -0.00000000000E+00 -0.00000000000E+00 -0.32356368333E+03  0.32356368333E+03  0.00000000000E+00 0. -1.
          6    2    1    2  501    0 -0.84526200015E+02  0.25952795048E+03  0.10908481612E+03  0.34034002076E+03  0.17155872771E+03 0.  0.
         24    2    3    3    0    0  0.19131328923E+02  0.15093309280E+03  0.54011161735E+02  0.18036213533E+03  0.80414476432E+02 0.  0.
         -6    2    1    2    0  502  0.84526200015E+02 -0.25952795048E+03 -0.83497787634E+02  0.33237437439E+03  0.17029799952E+03 0.  0.
        -24    2    5    5    0    0  0.15491895095E+02 -0.40780388903E+02 -0.32348238306E+02  0.97311409744E+02  0.80746907136E+02 0.  0.
          5    1    3    3  501    0 -0.10365752894E+03  0.10859485768E+03  0.55073654387E+02  0.15997788543E+03  0.47000000000E+01 0. -1.
        -13    1    4    4    0    0 -0.12130043124E+02  0.43899687705E+02  0.51607977670E+02  0.68830980568E+02  0.00000000000E+00 0.  1.
         14    1    4    4    0    0  0.31261372047E+02  0.10703340509E+03  0.24031840650E+01  0.11153115476E+03  0.00000000000E+00 0. -1.
         -5    1    5    5    0  502  0.69034304920E+02 -0.21874756158E+03 -0.51149549327E+02  0.23506296465E+03  0.47000000000E+01 0.  1.
         11    1    6    6    0    0  0.37157321025E+02 -0.58945075728E+01 -0.40678592255E+02  0.55409020864E+02  0.00000000000E+00 0. -1.
        -12    1    6    6    0    0 -0.21665425930E+02 -0.34885881331E+02  0.83303539484E+01  0.41902388880E+02  0.00000000000E+00 0.  1.
</event>
<event>
12    1  0.8798177E-003  0.2118166E+03  0.7818608E-02  0.1140216E+00
         21   -1    0    0  501  502  0.00000000000E+00  0.00000000000E+00  0.85095626315E+02  0.85095626315E+02  0.00000000000E+00 0.  1.
         21   -1    0    0  502  503 -0.00000000000E+00 -0.00000000000E+00 -0.71949444657E+03  0.71949444657E+03  0.00000000000E+00 0.  1.
          6    2    1    2  501    0 -0.43437123618E+02  0.11624225755E+03 -0.10892105985E+03  0.23818073124E+03  0.17166017975E+03 0.  0.
         24    2    3    3    0    0 -0.79995807625E+02  0.13099536141E+03 -0.91149965623E+02  0.19468253312E+03  0.77677915283E+02 0.  0.
         -6    2    1    2    0  503  0.43437123618E+02 -0.11624225755E+03 -0.52547776041E+03  0.56640934164E+03  0.17115378893E+03 0.  0.
        -24    2    5    5    0    0  0.58277969641E+02 -0.63355122910E+02 -0.17051436754E+03  0.20719018848E+03  0.80264757643E+02 0.  0.
          5    1    3    3  501    0  0.36558684008E+02 -0.14753103860E+02 -0.17771094222E+02  0.43498198121E+02  0.47000000000E+01 0. -1.
        -11    1    4    4    0    0 -0.96799176933E+01  0.67530138442E+02 -0.80834925401E+01  0.68697621911E+02  0.00000000000E+00 0.  1.
         12    1    4    4    0    0 -0.70315889932E+02  0.63465222965E+02 -0.83066473083E+02  0.12598491121E+03  0.00000000000E+00 0. -1.
         -5    1    5    5    0  503 -0.14840846023E+02 -0.52887134637E+02 -0.35496339287E+03  0.35921915316E+03  0.47000000000E+01 0.  1.
         11    1    6    6    0    0  0.23527985067E+02 -0.20329856196E+02 -0.14122457943E+03  0.14460723001E+03  0.00000000000E+00 0. -1.
        -12    1    6    6    0    0  0.34749984574E+02 -0.43025266715E+02 -0.29289788109E+02  0.62582958473E+02  0.00000000000E+00 0.  1.
</event>
<event>
12    1  0.8798177E-003  0.1859598E+03  0.7818608E-02  0.1162179E+00
         21   -1    0    0  501  502  0.00000000000E+00  0.00000000000E+00  0.24275306441E+04  0.24275306441E+04  0.00000000000E+00 0.  1.
         21   -1    0    0  502  503 -0.00000000000E+00 -0.00000000000E+00 -0.14839207524E+02  0.14839207524E+02  0.00000000000E+00 0.  1.
          6    2    1    2  501    0  0.36281504696E+02 -0.61291133023E+02  0.14524551588E+04  0.14643111116E+04  0.17177919741E+03 0.  0.
         24    2    3    3    0    0  0.71936732835E+02  0.35846786137E+01  0.97068136532E+03  0.97686035069E+03  0.82741092080E+02 0.  0.
         -6    2    1    2    0  503 -0.36281504696E+02  0.61291133023E+02  0.96023627775E+03  0.97805874000E+03  0.17167480656E+03 0.  0.
        -24    2    5    5    0    0 -0.16827575448E+02 -0.86372116264E+01  0.77632522863E+03  0.78028666731E+03  0.76214525173E+02 0.  0.
          5    1    3    3  501    0 -0.35655228139E+02 -0.64875811636E+02  0.48177379352E+03  0.48745076095E+03  0.47000000000E+01 0. -1.
        -11    1    4    4    0    0  0.41764649071E+02  0.35321690629E+02  0.74269996623E+03  0.74471145256E+03  0.00000000000E+00 0.  1.
         12    1    4    4    0    0  0.30172083764E+02 -0.31737012016E+02  0.22798139909E+03  0.23214889813E+03  0.00000000000E+00 0. -1.
         -5    1    5    5    0  503 -0.19453929248E+02  0.69928344649E+02  0.18391104912E+03  0.19777207269E+03  0.47000000000E+01 0.  1.
         11    1    6    6    0    0  0.87875169065E+01 -0.38100071134E+02  0.42705704206E+03  0.42884327329E+03  0.00000000000E+00 0. -1.
        -12    1    6    6    0    0 -0.25615092354E+02  0.29462859508E+02  0.34926818657E+03  0.35144339402E+03  0.00000000000E+00 0.  1.
</event>
<event>
12    1  0.8798177E-003  0.2791572E+03  0.7818608E-02  0.1096164E+00
         21   -1    0    0  503  502  0.00000000000E+00  0.00000000000E+00  0.14396083378E+03  0.14396083378E+03  0.00000000000E+00 0. -1.
         21   -1    0    0  501  503 -0.00000000000E+00 -0.00000000000E+00 -0.80102555277E+03  0.80102555277E+03  0.00000000000E+00 0.  1.
          6    2    1    2  501    0  0.13744003635E+03 -0.17157204478E+03 -0.59771590195E+03  0.65969164026E+03  0.17205240667E+03 0.  0.
         24    2    3    3    0    0  0.12800565847E+03 -0.52992052960E+02 -0.34499823113E+03  0.38033786260E+03  0.80246519968E+02 0.  0.
         -6    2    1    2    0  502 -0.13744003635E+03  0.17157204478E+03 -0.59348817039E+02  0.28529474628E+03  0.17188391440E+03 0.  0.
        -24    2    5    5    0    0 -0.16799036069E+03  0.16041913217E+03 -0.47976097934E+02  0.25052207717E+03  0.80650765198E+02 0.  0.
          5    1    3    3  501    0  0.94343778732E+01 -0.11857999182E+03 -0.25271767082E+03  0.27935377766E+03  0.47000000000E+01 0. -1.
        -11    1    4    4    0    0  0.36157674673E+02  0.16301823413E+02 -0.13714871995E+03  0.14276868798E+03  0.00000000000E+00 0.  1.
         12    1    4    4    0    0  0.91847983801E+02 -0.69293876373E+02 -0.20784951117E+03  0.23756917461E+03  0.00000000000E+00 0. -1.
         -5    1    5    5    0  502  0.30550324344E+02  0.11152912620E+02 -0.11372719105E+02  0.34772669113E+02  0.47000000000E+01 0.  1.
         11    1    6    6    0    0 -0.78492426010E+02  0.58322392872E+02  0.18224275024E+02  0.99472039546E+02  0.00000000000E+00 0. -1.
        -12    1    6    6    0    0 -0.89497934680E+02  0.10209673929E+03 -0.66200372958E+02  0.15105003762E+03  0.00000000000E+00 0.  1.
</event>
<event>
12    1  0.8798177E-003  0.3203950E+03  0.7818608E-02  0.1075478E+00
         21   -1    0    0  503  502  0.00000000000E+00  0.00000000000E+00  0.84084675809E+02  0.84084675809E+02  0.00000000000E+00 0. -1.
         21   -1    0    0  501  503 -0.00000000000E+00 -0.00000000000E+00 -0.18020920406E+04  0.18020920406E+04  0.00000000000E+00 0. -1.
          6    2    1    2  501    0  0.25141343716E+03  0.98990482835E+02 -0.32331353194E+03  0.45517535629E+03  0.17217762040E+03 0.  0.
         24    2    3    3    0    0  0.11937944928E+03  0.50900187344E+02 -0.25951367292E+03  0.30077923430E+03  0.79237108550E+02 0.  0.
         -6    2    1    2    0  502 -0.25141343716E+03 -0.98990482835E+02 -0.13946938328E+04  0.14310013601E+04  0.17200631724E+03 0.  0.
        -24    2    5    5    0    0 -0.17771090185E+03 -0.38502309358E+02 -0.11720986695E+04  0.11887998333E+04  0.79788220532E+02 0.  0.
          5    1    3    3  501    0  0.13203398788E+03  0.48090295491E+02 -0.63799859014E+02  0.15439612199E+03  0.47000000000E+01 0. -1.
        -11    1    4    4    0    0  0.24497365212E+02  0.47050334850E+02 -0.61801619260E+02  0.81445043158E+02  0.00000000000E+00 0.  1.
         12    1    4    4    0    0  0.94882084069E+02  0.38498524939E+01 -0.19771205366E+03  0.21933419114E+03  0.00000000000E+00 0. -1.
         -5    1    5    5    0  502 -0.73702535315E+02 -0.60488173477E+02 -0.22259516327E+03  0.24220152673E+03  0.47000000000E+01 0.  1.
         11    1    6    6    0    0 -0.13425587456E+03 -0.19793266937E+02 -0.62002410782E+03  0.63470174692E+03  0.00000000000E+00 0. -1.
        -12    1    6    6    0    0 -0.43455027285E+02 -0.18709042420E+02 -0.55207456172E+03  0.55409808641E+03  0.00000000000E+00 0.  1.
</event>
<event>
12    1  0.8798177E-003  0.2298925E+03  0.7818608E-02  0.1126822E+00
         21   -1    0    0  501  502  0.00000000000E+00  0.00000000000E+00  0.10671618075E+03  0.10671618075E+03  0.00000000000E+00 0.  1.
         21   -1    0    0  502  503 -0.00000000000E+00 -0.00000000000E+00 -0.74894678813E+03  0.74894678813E+03  0.00000000000E+00 0.  1.
          6    2    1    2  501    0 -0.13915298733E+03  0.59211618855E+02 -0.71750048216E+02  0.24082907109E+03  0.17315023065E+03 0.  0.
         24    2    3    3    0    0 -0.10063227315E+03 -0.30568630441E+02 -0.42265187025E+02  0.13867337803E+03  0.79891577621E+02 0.  0.
         -6    2    1    2    0  503  0.13915298733E+03 -0.59211618855E+02 -0.57048055917E+03  0.61483389778E+03  0.17234582613E+03 0.  0.
        -24    2    5    5    0    0  0.28905750599E+02 -0.83229357166E+01 -0.38652989854E+03  0.39437064274E+03  0.72235917051E+02 0.  0.
          5    1    3    3  501    0 -0.38520714183E+02  0.89780249296E+02 -0.29484861191E+02  0.10215569306E+03  0.47000000000E+01 0. -1.
        -13    1    4    4    0    0 -0.35746524509E+02  0.14299720111E+02  0.14865593016E+02  0.41270835531E+02  0.00000000000E+00 0.  1.
         14    1    4    4    0    0 -0.64885748642E+02 -0.44868350552E+02 -0.57130780041E+02  0.97402542504E+02  0.00000000000E+00 0. -1.
         -5    1    5    5    0  503  0.11024723673E+03 -0.50888683138E+02 -0.18395066063E+03  0.22046325504E+03  0.47000000000E+01 0.  1.
         11    1    6    6    0    0  0.45914509832E+02  0.15763679739E+02 -0.22598245042E+03  0.23113784569E+03  0.00000000000E+00 0. -1.
        -12    1    6    6    0    0 -0.17008759233E+02 -0.24086615456E+02 -0.16054744812E+03  0.16323279705E+03  0.00000000000E+00 0.  1.
</event>
<event>
12    1  0.8798177E-003  0.1786180E+03  0.7818608E-02  0.1169516E+00
         21   -1    0    0  503  502  0.00000000000E+00  0.00000000000E+00  0.21862862400E+03  0.21862862400E+03  0.00000000000E+00 0. -1.
         21   -1    0    0  501  503 -0.00000000000E+00 -0.00000000000E+00 -0.16225526804E+03  0.16225526804E+03  0.00000000000E+00 0. -1.
          6    2    1    2  501    0 -0.38570020793E+02  0.71660099470E+01 -0.34339125880E+02  0.18188891497E+03  0.17425671758E+03 0.  0.
         24    2    3    3    0    0  0.41036405045E+02  0.24939182430E+02 -0.35487089919E+02  0.10017920615E+03  0.80439980324E+02 0.  0.
         -6    2    1    2    0  502  0.38570020793E+02 -0.71660099470E+01  0.90712481835E+02  0.19899497706E+03  0.17271724967E+03 0.  0.
        -24    2    5    5    0    0  0.73267765608E+02  0.51314581346E+02  0.50193094398E+02  0.11969917761E+03  0.61702468823E+02 0.  0.
          5    1    3    3  501    0 -0.79606425838E+02 -0.17773172483E+02  0.11479640385E+01  0.81709708825E+02  0.47000000000E+01 0. -1.
        -11    1    4    4    0    0  0.20858219119E+02 -0.26832015286E+02 -0.28154923145E+02  0.44133004050E+02  0.00000000000E+00 0.  1.
         12    1    4    4    0    0  0.20178185926E+02  0.51771197716E+02 -0.73321667736E+01  0.56046202100E+02  0.00000000000E+00 0. -1.
         -5    1    5    5    0  502 -0.34697744815E+02 -0.58480591293E+02  0.40519387437E+02  0.79295799457E+02  0.47000000000E+01 0.  1.
         13    1    6    6    0    0  0.43609090624E+02  0.21574169166E+02 -0.65602524252E+01  0.49094138878E+02  0.00000000000E+00 0. -1.
        -14    1    6    6    0    0  0.29658674983E+02  0.29740412180E+02  0.56753346823E+02  0.70605038730E+02  0.00000000000E+00 0.  1.
</event>
<event>
12    1  0.8798177E-003  0.1832445E+03  0.7818608E-02  0.1165691E+00
         21   -1    0    0  503  502  0.00000000000E+00  0.00000000000E+00  0.37491286780E+02  0.37491286780E+02  0.00000000000E+00 0.  1.
         21   -1    0    0  501  503 -0.00000000000E+00 -0.00000000000E+00 -0.88163372913E+03  0.88163372913E+03  0.00000000000E+00 0.  1.
          6    2    1    2  501    0  0.34219507930E+02 -0.32446368384E+02 -0.46520982677E+03  0.49999874667E+03  0.17707292907E+03 0.  0.
         24    2    3    3    0    0  0.76510355081E+02  0.23774744331E+02 -0.27205042898E+03  0.29437294036E+03  0.78898157179E+02 0.  0.
         -6    2    1    2    0  502 -0.34219507930E+02  0.32446368384E+02 -0.37893261558E+03  0.41912626924E+03  0.17278067273E+03 0.  0.
        -24    2    5    5    0    0 -0.61319466151E+02  0.75771620664E+02 -0.28648421646E+03  0.31338941795E+03  0.81475797464E+02 0.  0.
          5    1    3    3  501    0 -0.42290847151E+02 -0.56221112715E+02 -0.19315939778E+03  0.20562580631E+03  0.47000000000E+01 0. -1.
        -13    1    4    4    0    0  0.74946120971E+02 -0.75070590179E+01 -0.14355256666E+03  0.16211297412E+03  0.00000000000E+00 0.  1.
         14    1    4    4    0    0  0.15642341102E+01  0.31281803349E+02 -0.12849786232E+03  0.13225996624E+03  0.00000000000E+00 0. -1.
         -5    1    5    5    0  502  0.27099958220E+02 -0.43325252280E+02 -0.92448399118E+02  0.10573685129E+03  0.47000000000E+01 0.  1.
         11    1    6    6    0    0 -0.20383827791E+01  0.11649073030E+02  0.19853940095E+01  0.11991567712E+02  0.00000000000E+00 0. -1.
        -12    1    6    6    0    0 -0.59281083372E+02  0.64122547634E+02 -0.28846961047E+03  0.30139785024E+03  0.00000000000E+00 0.  1.
</event>
<event>
12    1  0.8798177E-003  0.1862896E+03  0.7818608E-02  0.1162427E+00
         21   -1    0    0  503  502  0.00000000000E+00  0.00000000000E+00  0.99764208176E+02  0.99764208176E+02  0.00000000000E+00 0. -1.
         21   -1    0    0  501  503 -0.00000000000E+00 -0.00000000000E+00 -0.34733153647E+03  0.34733153647E+03  0.00000000000E+00 0. -1.
          6    2    1    2  501    0 -0.51527388456E+02  0.48435023590E+02 -0.98750797288E+02  0.20866300333E+03  0.16966881188E+03 0.  0.
         24    2    3    3    0    0  0.27497792961E+02  0.43912505989E+02 -0.16218067221E+02  0.94211380384E+02  0.76995595261E+02 0.  0.
         -6    2    1    2    0  502  0.51527388456E+02 -0.48435023590E+02 -0.14881653101E+03  0.23843274131E+03  0.17234497079E+03 0.  0.
        -24    2    5    5    0    0  0.14926136528E+02 -0.52440295639E+02 -0.17207827890E+03  0.19462757310E+03  0.72774885655E+02 0.  0.
          5    1    3    3  501    0 -0.79025181417E+02  0.45225176017E+01 -0.82532730067E+02  0.11445162295E+03  0.47000000000E+01 0. -1.
        -11    1    4    4    0    0  0.30908597847E+02  0.35274046954E+01  0.22317599567E+02  0.38286541437E+02  0.00000000000E+00 0.  1.
         12    1    4    4    0    0 -0.34108048864E+01  0.40385101293E+02 -0.38535666788E+02  0.55924838947E+02  0.00000000000E+00 0. -1.
         -5    1    5    5    0  502  0.36601251928E+02  0.40052720482E+01  0.23261747898E+02  0.43805168213E+02  0.47000000000E+01 0.  1.
         13    1    6    6    0    0  0.25985697289E+02 -0.20869418688E+02 -0.19903368358E+02  0.38819237138E+02  0.00000000000E+00 0. -1.
        -14    1    6    6    0    0 -0.11059560762E+02 -0.31570876951E+02 -0.15217491055E+03  0.15580833596E+03  0.00000000000E+00 0.  1.
</event>
<event>
12    1  0.8798177E-003  0.1835561E+03  0.7818608E-02  0.1164429E+00
         21   -1    0    0  503  502  0.00000000000E+00  0.00000000000E+00  0.75506923741E+03  0.75506923741E+03  0.00000000000E+00 0.  1.
         21   -1    0    0  501  503 -0.00000000000E+00 -0.00000000000E+00 -0.47147059638E+02  0.47147059638E+02  0.00000000000E+00 0.  1.
          6    2    1    2  501    0  0.56647304459E+02  0.31539353386E+02  0.26058405992E+03  0.31868320651E+03  0.17161376960E+03 0.  0.
         24    2    3    3    0    0  0.91269372550E+02  0.11361490710E+02  0.24673790830E+03  0.27602597201E+03  0.82774150521E+02 0.  0.
         -6    2    1    2    0  502 -0.56647304459E+02 -0.31539353386E+02  0.44733811786E+03  0.48353309054E+03  0.17172422672E+03 0.  0.
        -24    2    5    5    0    0 -0.62623386467E+02 -0.74719642696E+02  0.23282232372E+03  0.26458248681E+03  0.79328080549E+02 0.  0.
          5    1    3    3  501    0 -0.34622068091E+02  0.20177862676E+02  0.13846151621E+02  0.42657234507E+02  0.47000000000E+01 0. -1.
        -13    1    4    4    0    0  0.29469422925E+02  0.43641444310E+02  0.12671379483E+03  0.13722029132E+03  0.00000000000E+00 0.  1.
         14    1    4    4    0    0  0.61799949625E+02 -0.32279953600E+02  0.12002411347E+03  0.13880568069E+03  0.00000000000E+00 0. -1.
         -5    1    5    5    0  502  0.59760820087E+01  0.43180289310E+02  0.21451579413E+03  0.21895060373E+03  0.47000000000E+01 0.  1.
         11    1    6    6    0    0 -0.15045494010E+02  0.13382569078E+01  0.33598168980E-01  0.15104931327E+02  0.00000000000E+00 0. -1.
        -12    1    6    6    0    0 -0.47577892457E+02 -0.76057899604E+02  0.23278872556E+03  0.24947755548E+03  0.00000000000E+00 0.  1.
</event>
<event>
12    1  0.8798177E-003  0.1738762E+03  0.7818608E-02  0.1174226E+00
         21   -1    0    0  503  502  0.00000000000E+00  0.00000000000E+00  0.25825006410E+03  0.25825006410E+03  0.00000000000E+00 0. -1.
         21   -1    0    0  501  503 -0.00000000000E+00 -0.00000000000E+00 -0.12321563770E+03  0.12321563770E+03  0.00000000000E+00 0. -1.
          6    2    1    2  501    0 -0.18664158220E+02  0.15780323543E+02  0.11356905672E+03  0.20767972906E+03  0.17214984695E+03 0.  0.
         24    2    3    3    0    0 -0.12531136278E+02  0.56342953395E+02  0.17000362384E+02  0.10265333417E+03  0.83169326806E+02 0.  0.
         -6    2    1    2    0  502  0.18664158220E+02 -0.15780323543E+02  0.21465369678E+02  0.17378597274E+03  0.17071447745E+03 0.  0.
        -24    2    5    5    0    0 -0.16183696140E+02  0.32947478503E+02 -0.32493178297E+02  0.93024679132E+02  0.79059066091E+02 0.  0.
          5    1    3    3  501    0 -0.61330219420E+01 -0.40562629852E+02  0.96568694333E+02  0.10502639489E+03  0.47000000000E+01 0. -1.
        -13    1    4    4    0    0 -0.32316494415E+02  0.63304394081E+01 -0.18918520208E+02  0.37978160582E+02  0.00000000000E+00 0.  1.
         14    1    4    4    0    0  0.19785358137E+02  0.50012513987E+02  0.35918882593E+02  0.64675173588E+02  0.00000000000E+00 0. -1.
         -5    1    5    5    0  502  0.34847854360E+02 -0.48727802046E+02  0.53958547976E+02  0.80761293609E+02  0.47000000000E+01 0.  1.
         13    1    6    6    0    0 -0.45816048543E+02  0.10552339762E+02 -0.59905678071E+01  0.47395665215E+02  0.00000000000E+00 0. -1.
        -14    1    6    6    0    0  0.29632352403E+02  0.22395138741E+02 -0.26502610490E+02  0.45629013916E+02  0.00000000000E+00 0.  1.
</event>
<event>
12    1  0.8798177E-003  0.1789793E+03  0.7818608E-02  0.1169231E+00
         21   -1    0    0  501  502  0.00000000000E+00  0.00000000000E+00  0.11380887040E+03  0.11380887040E+03  0.00000000000E+00 0. -1.
         21   -1    0    0  502  503 -0.00000000000E+00 -0.00000000000E+00 -0.28769338223E+03  0.28769338223E+03  0.00000000000E+00 0. -1.
          6    2    1    2  501    0  0.96324861536E+01 -0.51210828163E+02 -0.50975227973E+02  0.18438416340E+03  0.16936266453E+03 0.  0.
         24    2    3    3    0    0  0.28506903148E+02 -0.80213542208E+02 -0.77157005543E+02  0.14073812675E+03  0.81284444614E+02 0.  0.
         -6    2    1    2    0  503 -0.96324861536E+01  0.51210828163E+02 -0.12290928385E+03  0.21711808923E+03  0.17122569580E+03 0.  0.
        -24    2    5    5    0    0  0.30949590475E+02  0.22405504073E+00 -0.11492771706E+02  0.87958168367E+02  0.81526855881E+02 0.  0.
          5    1    3    3  501    0 -0.18874416995E+02  0.29002714045E+02  0.26181777570E+02  0.43646036654E+02  0.47000000000E+01 0. -1.
        -11    1    4    4    0    0 -0.59659407299E+01 -0.79564506732E+02 -0.37416898201E+02  0.88125634473E+02  0.00000000000E+00 0.  1.
         12    1    4    4    0    0  0.34472843878E+02 -0.64903547618E+00 -0.39740107342E+02  0.52612492277E+02  0.00000000000E+00 0. -1.
         -5    1    5    5    0  503 -0.40582076629E+02  0.50986773122E+02 -0.11141651215E+03  0.12915992086E+03  0.47000000000E+01 0.  1.
         11    1    6    6    0    0  0.53087749169E+02 -0.98777005605E+01 -0.25676021722E+02  0.59792442430E+02  0.00000000000E+00 0. -1.
        -12    1    6    6    0    0 -0.22138158694E+02  0.10101755601E+02  0.14183250017E+02  0.28165725938E+02  0.00000000000E+00 0.  1.
</event>
<event>
12    1  0.8798177E-003  0.1802637E+03  0.7818608E-02  0.1167593E+00
         21   -1    0    0  503  502  0.00000000000E+00  0.00000000000E+00  0.24231621407E+03  0.24231621407E+03  0.00000000000E+00 0.  1.
         21   -1    0    0  501  503 -0.00000000000E+00 -0.00000000000E+00 -0.13964263748E+03  0.13964263748E+03  0.00000000000E+00 0.  1.
          6    2    1    2  501    0 -0.52577694713E+02 -0.57730225139E+01  0.12846007477E+02  0.18072081766E+03  0.17232890721E+03 0.  0.
         24    2    3    3    0    0  0.18177140050E+02  0.41818397519E+01 -0.40808965079E+02  0.91242932100E+02  0.79448126619E+02 0.  0.
         -6    2    1    2    0  502  0.52577694713E+02  0.57730225139E+01  0.89827569114E+02  0.20123803389E+03  0.17213370484E+03 0.  0.
        -24    2    5    5    0    0 -0.11304001509E+01 -0.44581695195E+02  0.94578340158E+01  0.92143848123E+02  0.80076418325E+02 0.  0.
          5    1    3    3  501    0 -0.70754834763E+02 -0.99548622658E+01  0.53654972556E+02  0.89477885564E+02  0.47000000000E+01 0. -1.
        -11    1    4    4    0    0 -0.28584991119E+01 -0.26981027905E+02 -0.45882168461E+02  0.53304036120E+02  0.00000000000E+00 0.  1.
         12    1    4    4    0    0  0.21035639162E+02  0.31162867657E+02  0.50732033823E+01  0.37938895979E+02  0.00000000000E+00 0. -1.
         -5    1    5    5    0  502  0.53708094864E+02  0.50354717709E+02  0.80369735098E+02  0.10909418577E+03  0.47000000000E+01 0.  1.
         11    1    6    6    0    0  0.31829760191E+02 -0.44638814224E+02  0.18676636769E+02  0.57918685501E+02  0.00000000000E+00 0. -1.
        -12    1    6    6    0    0 -0.32960160342E+02  0.57119029032E-01 -0.92188027534E+01  0.34225162623E+02  0.00000000000E+00 0.  1.
</event>
<event>
12    1  0.8798177E-003  0.1907218E+03  0.7818608E-02  0.1158049E+00
         21   -1    0    0  503  502  0.00000000000E+00  0.00000000000E+00  0.47704597074E+03  0.47704597074E+03  0.00000000000E+00 0. -1.
         21   -1    0    0  501  503 -0.00000000000E+00 -0.00000000000E+00 -0.11742139677E+03  0.11742139677E+03  0.00000000000E+00 0. -1.
          6    2    1    2  501    0 -0.80456711457E+02  0.17474198316E+02  0.32331411676E+01  0.19074923275E+03  0.17203542242E+03 0.  0.
         24    2    3    3    0    0 -0.13243548764E+02  0.62805408187E+02  0.27749024097E+02  0.10592207706E+03  0.79558577086E+02 0.  0.
         -6    2    1    2    0  502  0.80456711457E+02 -0.17474198316E+02  0.35639143281E+03  0.40371813476E+03  0.17086500205E+03 0.  0.
        -24    2    5    5    0    0  0.92712543216E+02  0.18237000046E+02  0.33968631298E+03  0.36216520310E+03  0.82756505930E+02 0.  0.
          5    1    3    3  501    0 -0.67213162693E+02 -0.45331209871E+02 -0.24515882930E+02  0.84827155696E+02  0.47000000000E+01 0. -1.
        -11    1    4    4    0    0  0.24260995481E+02 -0.34055901034E+01  0.15111519614E+02  0.28784578696E+02  0.00000000000E+00 0.  1.
         12    1    4    4    0    0 -0.37504544244E+02  0.66210998290E+02  0.12637504484E+02  0.77137498359E+02  0.00000000000E+00 0. -1.
         -5    1    5    5    0  502 -0.12255831759E+02 -0.35711198362E+02  0.16705119833E+02  0.41552931656E+02  0.47000000000E+01 0.  1.
         13    1    6    6    0    0  0.30115177371E+01 -0.56894040821E+01  0.15802840912E+03  0.15815946588E+03  0.00000000000E+00 0. -1.
        -14    1    6    6    0    0  0.89701025478E+02  0.23926404128E+02  0.18165790386E+03  0.20400573722E+03  0.00000000000E+00 0.  1.
</event>
<event>
12    1  0.8798177E-003  0.2188797E+03  0.7818608E-02  0.1134922E+00
         21   -1    0    0  501  502  0.00000000000E+00  0.00000000000E+00  0.15972533244E+03  0.15972533244E+03  0.00000000000E+00 0.  1.
         21   -1    0    0  502  503 -0.00000000000E+00 -0.00000000000E+00 -0.31969604139E+03  0.31969604139E+03  0.00000000000E+00 0. -1.
          6    2    1    2  501    0  0.26017858804E+02 -0.13158408856E+03 -0.18044981748E+02  0.21855507038E+03  0.17160826344E+03 0.  0.
         24    2    3    3    0    0  0.11098890369E+02 -0.18228632792E+01  0.16973449185E+02  0.83244569268E+02  0.80715872896E+02 0.  0.
         -6    2    1    2    0  503 -0.26017858804E+02  0.13158408856E+03 -0.14192572721E+03  0.26086630345E+03  0.17296535750E+03 0.  0.
        -24    2    5    5    0    0  0.50253596918E+02  0.49529405449E+02 -0.73605658838E+02  0.12956501740E+03  0.79941945890E+02 0.  0.
          5    1    3    3  501    0  0.14918968435E+02 -0.12976122528E+03 -0.35018430933E+02  0.13531050111E+03  0.47000000000E+01 0. -1.
        -13    1    4    4    0    0  0.16947731763E+02  0.37245941818E+02  0.15357270674E+02  0.43707339846E+02  0.00000000000E+00 0.  1.
         14    1    4    4    0    0 -0.58488413943E+01 -0.39068805097E+02  0.16161785106E+01  0.39537229422E+02  0.00000000000E+00 0. -1.
         -5    1    5    5    0  503 -0.76271455722E+02  0.82054683110E+02 -0.68320068369E+02  0.13130128606E+03  0.47000000000E+01 0.  1.
         13    1    6    6    0    0  0.31082681966E+02  0.28815036049E+02 -0.88152465316E+02  0.97812558304E+02  0.00000000000E+00 0. -1.
        -14    1    6    6    0    0  0.19170914952E+02  0.20714369400E+02  0.14546806478E+02  0.31752459092E+02  0.00000000000E+00 0.  1.
</event>
<event>
12    1  0.8798177E-003  0.2441453E+03  0.7818608E-02  0.1117117E+00
         21   -1    0    0  501  502  0.00000000000E+00  0.00000000000E+00  0.21639003687E+03  0.21639003687E+03  0.00000000000E+00 0. -1.
         21   -1    0    0  502  503 -0.00000000000E+00 -0.00000000000E+00 -0.33913576241E+03  0.33913576241E+03  0.00000000000E+00 0.  1.
          6    2    1    2  501    0 -0.39963049387E+02  0.16820018488E+03  0.59379370317E+02  0.25093348170E+03  0.17191089294E+03 0.  0.
         24    2    3    3    0    0 -0.18039249236E+01  0.14848326276E+03 -0.10362963886E+02  0.16889105989E+03  0.79788881573E+02 0.  0.
         -6    2    1    2    0  503  0.39963049387E+02 -0.16820018488E+03 -0.18212509586E+03  0.30459231758E+03  0.17239078247E+03 0.  0.
        -24    2    5    5    0    0 -0.44025919717E+02 -0.88520042824E+02 -0.93954104167E+02  0.15899257258E+03  0.81714043209E+02 0.  0.
          5    1    3    3  501    0 -0.38159124463E+02  0.19716922116E+02  0.69742334203E+02  0.82042421817E+02  0.47000000000E+01 0. -1.
        -13    1    4    4    0    0  0.14918912558E+02 -0.37794323460E+01 -0.59609258592E+00  0.15401733252E+02  0.00000000000E+00 0.  1.
         14    1    4    4    0    0 -0.16722837482E+02  0.15226269511E+03 -0.97668713004E+01  0.15348932663E+03  0.00000000000E+00 0. -1.
         -5    1    5    5    0  503  0.83988969103E+02 -0.79680142057E+02 -0.88170991689E+02  0.14559974500E+03  0.47000000000E+01 0.  1.
         11    1    6    6    0    0 -0.11530216662E+02 -0.19068928302E+02  0.14193805801E+02  0.26420333949E+02  0.00000000000E+00 0. -1.
        -12    1    6    6    0    0 -0.32495703054E+02 -0.69451114522E+02 -0.10814790997E+03  0.13257223863E+03  0.00000000000E+00 0.  1.
</event>
<event>
12    1  0.8798177E-003  0.2207270E+03  0.7818608E-02  0.1133825E+00
         21   -1    0    0  503  502  0.00000000000E+00  0.00000000000E+00  0.43209645092E+02  0.43209645092E+02  0.00000000000E+00 0. -1.
         21   -1    0    0  501  503 -0.00000000000E+00 -0.00000000000E+00 -0.11441383001E+04  0.11441383001E+04  0.00000000000E+00 0. -1.
          6    2    1    2  501    0 -0.87172577083E+02  0.10650388776E+03 -0.45785822381E+03  0.50828591824E+03  0.17256385851E+03 0.  0.
         24    2    3    3    0    0 -0.59912326732E+02  0.21811425582E+02 -0.37326489725E+03  0.38542805199E+03  0.71853145827E+02 0.  0.
         -6    2    1    2    0  502  0.87172577083E+02 -0.10650388776E+03 -0.64307043124E+03  0.67906202700E+03  0.16924396791E+03 0.  0.
        -24    2    5    5    0    0  0.55470323626E+02 -0.11771929276E+02 -0.46241683559E+03  0.47257476722E+03  0.79259356848E+02 0.  0.
          5    1    3    3  501    0 -0.27260250352E+02  0.84692462176E+02 -0.84593326562E+02  0.12285786624E+03  0.47000000000E+01 0. -1.
        -11    1    4    4    0    0 -0.41775277637E+02  0.48328188277E+02 -0.25448759707E+03  0.26238278272E+03  0.00000000000E+00 0.  1.
         12    1    4    4    0    0 -0.18137049095E+02 -0.26516762695E+02 -0.11877730018E+03  0.12304526928E+03  0.00000000000E+00 0. -1.
         -5    1    5    5    0  502  0.31702253457E+02 -0.94731958483E+02 -0.18065359565E+03  0.20648725978E+03  0.47000000000E+01 0.  1.
         13    1    6    6    0    0  0.72949640241E+02 -0.11983365470E+02 -0.29001873499E+03  0.29929269571E+03  0.00000000000E+00 0. -1.
        -14    1    6    6    0    0 -0.17479316615E+02  0.21143619451E+00 -0.17239810061E+03  0.17328207151E+03  0.00000000000E+00 0.  1.
</event>
<event>
12    1  0.8798177E-003  0.3219718E+03  0.7818608E-02  0.1074878E+00
         21   -1    0    0  503  502  0.00000000000E+00  0.00000000000E+00  0.82317918982E+03  0.82317918982E+03  0.00000000000E+00 0. -1.
         21   -1    0    0  501  503 -0.00000000000E+00 -0.00000000000E+00 -0.18055645122E+03  0.18055645122E+03  0.00000000000E+00 0.  1.
          6    2    1    2  501    0 -0.12059312361E+03 -0.24374913907E+03  0.44531959257E+02  0.32503678361E+03  0.17236435550E+03 0.  0.
         24    2    3    3    0    0 -0.14936410673E+03 -0.23484555199E+03  0.25455956480E+02  0.28907809600E+03  0.73865216416E+02 0.  0.
         -6    2    1    2    0  502  0.12059312361E+03  0.24374913907E+03  0.59809077934E+03  0.67869885743E+03  0.17018582339E+03 0.  0.
        -24    2    5    5    0    0  0.12058454541E+03  0.11182642408E+03  0.27912744987E+03  0.33349848323E+03  0.79141160773E+02 0.  0.
          5    1    3    3  501    0  0.28770983123E+02 -0.89035870778E+01  0.19076002777E+02  0.35958687610E+02  0.47000000000E+01 0. -1.
        -13    1    4    4    0    0 -0.91513727897E+02 -0.11500211796E+03 -0.20279189492E+02  0.14836271450E+03  0.00000000000E+00 0.  1.
         14    1    4    4    0    0 -0.57850378835E+02 -0.11984343404E+03  0.45735145972E+02  0.14071538150E+03  0.00000000000E+00 0. -1.
         -5    1    5    5    0  502  0.85782033012E-02  0.13192271499E+03  0.31896332947E+03  0.34520037420E+03  0.47000000000E+01 0.  1.
         11    1    6    6    0    0  0.54766953205E+02  0.85937135701E+02  0.21543128905E+03  0.23831754186E+03  0.00000000000E+00 0. -1.
        -12    1    6    6    0    0  0.65817592201E+02  0.25889288380E+02  0.63696160820E+02  0.95180941365E+02  0.00000000000E+00 0.  1.
</event>
<event>
12    1  0.8798177E-003  0.1847226E+03  0.7818608E-02  0.1164275E+00
         21   -1    0    0  503  502  0.00000000000E+00  0.00000000000E+00  0.16779494772E+03  0.16779494772E+03  0.00000000000E+00 0. -1.
         21   -1    0    0  501  503 -0.00000000000E+00 -0.00000000000E+00 -0.19889322089E+03  0.19889322089E+03  0.00000000000E+00 0.  1.
          6    2    1    2  501    0 -0.31064756631E+02  0.46203257767E+02 -0.15834928673E+02  0.18540001702E+03  0.17613251038E+03 0.  0.
         24    2    3    3    0    0 -0.46015476852E+02  0.92843371212E+02 -0.28991558518E+02  0.13446858148E+03  0.80647214782E+02 0.  0.
         -6    2    1    2    0  502  0.31064756631E+02 -0.46203257767E+02 -0.15263344503E+02  0.18128815159E+03  0.17185070291E+03 0.  0.
        -24    2    5    5    0    0 -0.20419451441E+02 -0.56875522691E+02 -0.52776406990E+02  0.11652828148E+03  0.84508651462E+02 0.  0.
          5    1    3    3  501    0  0.14950720220E+02 -0.46640113445E+02  0.13156629845E+02  0.50931435540E+02  0.47000000000E+01 0. -1.
        -11    1    4    4    0    0  0.11567003319E+02  0.49331269546E+02 -0.35701541594E+02  0.61983625200E+02  0.00000000000E+00 0.  1.
         12    1    4    4    0    0 -0.57582480170E+02  0.43512101666E+02  0.67099830763E+01  0.72484956279E+02  0.00000000000E+00 0. -1.
         -5    1    5    5    0  502  0.51484208072E+02  0.10672264924E+02  0.37513062487E+02  0.64759870109E+02  0.47000000000E+01 0.  1.
         11    1    6    6    0    0  0.26193485901E+02 -0.44466567727E+02 -0.11115239881E+02  0.52791314690E+02  0.00000000000E+00 0. -1.
        -12    1    6    6    0    0 -0.46612937342E+02 -0.12408954963E+02 -0.41661167109E+02  0.63736966792E+02  0.00000000000E+00 0.  1.
</event>
<event>
12    1  0.8798177E-003  0.2399756E+03  0.7818608E-02  0.1120048E+00
         21   -1    0    0  503  502  0.00000000000E+00  0.00000000000E+00  0.72023248584E+03  0.72023248584E+03  0.00000000000E+00 0.  1.
         21   -1    0    0  501  503 -0.00000000000E+00 -0.00000000000E+00 -0.11860242128E+03  0.11860242128E+03  0.00000000000E+00 0.  1.
          6    2    1    2  501    0 -0.16867411043E+03  0.10197275387E+02  0.59329847442E+02  0.24581062238E+03  0.16836832041E+03 0.  0.
         24    2    3    3    0    0 -0.16198414942E+03 -0.35800469900E+02  0.15147894467E+02  0.18150912069E+03  0.72080259979E+02 0.  0.
         -6    2    1    2    0  502  0.16867411043E+03 -0.10197275387E+02  0.54230021712E+03  0.59302428475E+03  0.17039171593E+03 0.  0.
        -24    2    5    5    0    0  0.11930369817E+03 -0.19193057175E+02  0.51645239086E+03  0.53638011630E+03  0.79867460787E+02 0.  0.
          5    1    3    3  501    0 -0.66899610102E+01  0.45997745287E+02  0.44181952975E+02  0.64301501681E+02  0.47000000000E+01 0. -1.
        -13    1    4    4    0    0 -0.54547112300E+02 -0.11481918130E+02 -0.29002175286E+02  0.62835882071E+02  0.00000000000E+00 0.  1.
         14    1    4    4    0    0 -0.10743703712E+03 -0.24318551770E+02  0.44150069754E+02  0.11867323862E+03  0.00000000000E+00 0. -1.
         -5    1    5    5    0  502  0.49370412264E+02  0.89957817872E+01  0.25847826258E+02  0.56644168450E+02  0.47000000000E+01 0.  1.
         13    1    6    6    0    0  0.17952893573E+02  0.27583716923E+02  0.13293533489E+03  0.13694879003E+03  0.00000000000E+00 0. -1.
        -14    1    6    6    0    0  0.10135080460E+03 -0.46776774097E+02  0.38351705597E+03  0.39943132627E+03  0.00000000000E+00 0.  1.
</event>
<event>
12    1  0.8798177E-003  0.1933657E+03  0.7818608E-02  0.1155575E+00
         21   -1    0    0  503  502  0.00000000000E+00  0.00000000000E+00  0.25246276252E+03  0.25246276252E+03  0.00000000000E+00 0. -1.
         21   -1    0    0  501  503 -0.00000000000E+00 -0.00000000000E+00 -0.15222057566E+03  0.15222057566E+03  0.00000000000E+00 0. -1.
          6    2    1    2  501    0  0.26517625758E+02  0.84465147311E+02  0.84910661589E+02  0.21071075808E+03  0.17132325451E+03 0.  0.
         24    2    3    3    0    0  0.40385416620E+02 -0.51845910268E+00 -0.29159336338E+00  0.89483520090E+02  0.79849637855E+02 0.  0.
         -6    2    1    2    0  502 -0.26517625758E+02 -0.84465147311E+02  0.15331525267E+02  0.19397258009E+03  0.17190916373E+03 0.  0.
        -24    2    5    5    0    0 -0.82622909394E+01 -0.83007709479E+02 -0.35573845295E+02  0.13966946668E+03  0.10622389641E+03 0.  0.
          5    1    3    3  501    0 -0.13867790862E+02  0.84983606414E+02  0.85202254952E+02  0.12122723799E+03  0.47000000000E+01 0. -1.
        -13    1    4    4    0    0 -0.14690557810E+02 -0.19856567308E+02  0.15312629902E+02  0.29061527636E+02  0.00000000000E+00 0.  1.
         14    1    4    4    0    0  0.55075974430E+02  0.19338108205E+02 -0.15604223265E+02  0.60421992454E+02  0.00000000000E+00 0. -1.
         -5    1    5    5    0  502 -0.18255334819E+02 -0.14574378327E+01  0.50905370562E+02  0.54303113414E+02  0.47000000000E+01 0.  1.
         11    1    6    6    0    0 -0.42506621562E+02 -0.10624140262E+02  0.13384914553E+02  0.45813111338E+02  0.00000000000E+00 0. -1.
        -12    1    6    6    0    0  0.34244330623E+02 -0.72383569216E+02 -0.48958759848E+02  0.93856355342E+02  0.00000000000E+00 0.  1.
</event>
<event>
12    1  0.8798177E-003  0.1764706E+03  0.7818608E-02  0.1171425E+00
         21   -1    0    0  501  502  0.00000000000E+00  0.00000000000E+00  0.86569581611E+03  0.86569581611E+03  0.00000000000E+00 0. -1.
         21   -1    0    0  502  503 -0.00000000000E+00 -0.00000000000E+00 -0.35901077555E+02  0.35901077555E+02  0.00000000000E+00 0. -1.
          6    2    1    2  501    0 -0.36188809298E+02 -0.29110237470E+01  0.39561185448E+03  0.43292147843E+03  0.17202954138E+03 0.  0.
         24    2    3    3    0    0 -0.87187874877E+02 -0.18277577660E+02  0.23617309618E+03  0.26475536022E+03  0.79886632381E+02 0.  0.
         -6    2    1    2    0  503  0.36188809298E+02  0.29110237470E+01  0.43418288408E+03  0.46867541523E+03  0.17269558199E+03 0.  0.
        -24    2    5    5    0    0  0.43881891012E+02  0.15612281359E+02  0.44168634971E+03  0.45138676440E+03  0.80584216020E+02 0.  0.
          5    1    3    3  501    0  0.50999065579E+02  0.15366553913E+02  0.15943875829E+03  0.16816611821E+03  0.47000000000E+01 0. -1.
        -11    1    4    4    0    0 -0.38810205597E+02  0.31637870639E+02  0.94369309180E+02  0.10683048924E+03  0.00000000000E+00 0.  1.
         12    1    4    4    0    0 -0.48377669280E+02 -0.49915448299E+02  0.14180378700E+03  0.15792487097E+03  0.00000000000E+00 0. -1.
         -5    1    5    5    0  503 -0.76930817143E+01 -0.12701257612E+02 -0.75034656259E+01  0.17288650832E+02  0.47000000000E+01 0.  1.
         11    1    6    6    0    0 -0.23188571828E+02 -0.30940642367E+01  0.11773637694E+03  0.12003806710E+03  0.00000000000E+00 0. -1.
        -12    1    6    6    0    0  0.67070462841E+02  0.18706345596E+02  0.32394997276E+03  0.33134869730E+03  0.00000000000E+00 0.  1.
</event>
<event>
12    1  0.8798177E-003  0.2947557E+03  0.7818608E-02  0.1087991E+00
         21   -1    0    0  503  502  0.00000000000E+00  0.00000000000E+00  0.21717220813E+03  0.21717220813E+03  0.00000000000E+00 0.  1.
         21   -1    0    0  501  503 -0.00000000000E+00 -0.00000000000E+00 -0.40043976651E+03  0.40043976651E+03  0.00000000000E+00 0.  1.
          6    2    1    2  501    0  0.17993168786E+03 -0.15636612765E+03 -0.10997173862E+03  0.31387984637E+03  0.17204940131E+03 0.  0.
         24    2    3    3    0    0  0.11637234229E+03 -0.34790294363E+02 -0.14571852791E+02  0.14671614856E+03  0.80996313026E+02 0.  0.
         -6    2    1    2    0  502 -0.17993168786E+03  0.15636612765E+03 -0.73295819759E+02  0.30373212827E+03  0.17336421308E+03 0.  0.
        -24    2    5    5    0    0 -0.54746868870E+02  0.38351558733E+02  0.23160775739E+02  0.10643883847E+03  0.79528253437E+02 0.  0.
          5    1    3    3  501    0  0.63559345567E+02 -0.12157583329E+03 -0.95399885826E+02  0.16716369781E+03  0.47000000000E+01 0. -1.
        -11    1    4    4    0    0  0.88255449098E+02 -0.55785606099E+02  0.84467795705E+01  0.10474925407E+03  0.00000000000E+00 0.  1.
         12    1    4    4    0    0  0.28116893192E+02  0.20995311735E+02 -0.23018632361E+02  0.41966894493E+02  0.00000000000E+00 0. -1.
         -5    1    5    5    0  502 -0.12518481899E+03  0.11801456892E+03 -0.96456595498E+02  0.19729328979E+03  0.47000000000E+01 0.  1.
         11    1    6    6    0    0 -0.31551332228E+02  0.62416012975E+02  0.10615499835E+02  0.70738490780E+02  0.00000000000E+00 0. -1.
        -12    1    6    6    0    0 -0.23195536642E+02 -0.24064454242E+02  0.12545275904E+02  0.35700347695E+02  0.00000000000E+00 0.  1.
</event>
<event>
12    1  0.8798177E-003  0.3350656E+03  0.7818608E-02  0.1069066E+00
         21   -1    0    0  503  502  0.00000000000E+00  0.00000000000E+00  0.15336603883E+04  0.15336603883E+04  0.00000000000E+00 0.  1.
         21   -1    0    0  501  503 -0.00000000000E+00 -0.00000000000E+00 -0.78717134272E+02  0.78717134272E+02  0.00000000000E+00 0. -1.
          6    2    1    2  501    0  0.26592002058E+03 -0.10470223165E+03  0.50701514354E+03  0.60697377997E+03  0.17226955368E+03 0.  0.
         24    2    3    3    0    0  0.21992365614E+03 -0.13959708939E+03  0.44725723713E+03  0.52374869951E+03  0.80124292006E+02 0.  0.
         -6    2    1    2    0  502 -0.26592002058E+03  0.10470223165E+03  0.94792811044E+03  0.10054037426E+04  0.17490845702E+03 0.  0.
        -24    2    5    5    0    0 -0.18842754083E+03  0.29978537224E+02  0.76945021110E+03  0.79692073251E+03  0.81396410916E+02 0.  0.
          5    1    3    3  501    0  0.45996364442E+02  0.34894857747E+02  0.59757906412E+02  0.83225080461E+02  0.47000000000E+01 0. -1.
        -13    1    4    4    0    0  0.53252446600E+02 -0.63615904365E+02  0.19578007802E+03  0.21263265343E+03  0.00000000000E+00 0.  1.
         14    1    4    4    0    0  0.16667120954E+03 -0.75981185029E+02  0.25147715911E+03  0.31111604607E+03  0.00000000000E+00 0. -1.
         -5    1    5    5    0  502 -0.77492479752E+02  0.74723694424E+02  0.17847789934E+03  0.20848301005E+03  0.47000000000E+01 0.  1.
         13    1    6    6    0    0 -0.11016102730E+03 -0.11925092690E+02  0.53200716640E+03  0.54342366977E+03  0.00000000000E+00 0. -1.
        -14    1    6    6    0    0 -0.78266513531E+02  0.41903629914E+02  0.23744304470E+03  0.25349706274E+03  0.00000000000E+00 0.  1.
</event>
<event>
12    1  0.8798177E-003  0.2005156E+03  0.7818608E-02  0.1149604E+00
         21   -1    0    0  503  502  0.00000000000E+00  0.00000000000E+00  0.42707688077E+02  0.42707688077E+02  0.00000000000E+00 0.  1.
         21   -1    0    0  501  503 -0.00000000000E+00 -0.00000000000E+00 -0.10803651179E+04  0.10803651179E+04  0.00000000000E+00 0.  1.
          6    2    1    2  501    0 -0.13915196916E+02  0.10257040400E+03 -0.72654119824E+03  0.75370327955E+03  0.17173293331E+03 0.  0.
         24    2    3    3    0    0 -0.85920585627E+01 -0.15033935462E+02 -0.34924982281E+03  0.35844388569E+03  0.78782851999E+02 0.  0.
         -6    2    1    2    0  502  0.13915196916E+02 -0.10257040400E+03 -0.31111623160E+03  0.36936952644E+03  0.17007709140E+03 0.  0.
        -24    2    5    5    0    0 -0.21349280042E+02 -0.13156822941E+03 -0.21258736312E+03  0.26067506873E+03  0.70654891901E+02 0.  0.
          5    1    3    3  501    0 -0.53231383529E+01  0.11760433946E+03 -0.37729137543E+03  0.39525939386E+03  0.47000000000E+01 0. -1.
        -11    1    4    4    0    0 -0.11819813985E+02  0.14149268007E+02 -0.17572871345E+02  0.25469895859E+02  0.00000000000E+00 0.  1.
         12    1    4    4    0    0  0.32277554220E+01 -0.29183203469E+02 -0.33167695147E+03  0.33297398983E+03  0.00000000000E+00 0. -1.
         -5    1    5    5    0  502  0.35264476957E+02  0.28997825412E+02 -0.98528868481E+02  0.10869445771E+03  0.47000000000E+01 0.  1.
         11    1    6    6    0    0 -0.36233677570E+02 -0.12609848135E+03 -0.16678291784E+03  0.21220331777E+03  0.00000000000E+00 0. -1.
        -12    1    6    6    0    0  0.14884397529E+02 -0.54697480630E+01 -0.45804445285E+02  0.48471750964E+02  0.00000000000E+00 0.  1.
</event>
<event>
12    1  0.8798177E-003  0.1819964E+03  0.7818608E-02  0.1166128E+00
         21   -1    0    0  503  502  0.00000000000E+00  0.00000000000E+00  0.10124324203E+04  0.10124324203E+04  0.00000000000E+00 0. -1.
         21   -1    0    0  501  503 -0.00000000000E+00 -0.00000000000E+00 -0.40353861494E+02  0.40353861494E+02  0.00000000000E+00 0. -1.
          6    2    1    2  501    0  0.48595177783E+02 -0.32034572725E+02  0.25540815267E+03  0.31361761297E+03  0.17243832974E+03 0.  0.
         24    2    3    3    0    0 -0.15261953370E+02 -0.64052066702E+02  0.19212781109E+03  0.21807000835E+03  0.79409308501E+02 0.  0.
         -6    2    1    2    0  502 -0.48595177783E+02  0.32034572725E+02  0.71667040617E+03  0.73916866885E+03  0.17136552973E+03 0.  0.
        -24    2    5    5    0    0 -0.68493474185E+02 -0.19602405474E+02  0.60425676994E+03  0.61378431844E+03  0.80804302126E+02 0.  0.
          5    1    3    3  501    0  0.63857131153E+02  0.32017493977E+02  0.63280341574E+02  0.95547604624E+02  0.47000000000E+01 0. -1.
        -11    1    4    4    0    0 -0.44300608013E+01  0.10879387312E+01 -0.69571257540E+01  0.83192937286E+01  0.00000000000E+00 0.  1.
         12    1    4    4    0    0 -0.10831892568E+02 -0.65140005433E+02  0.19908493685E+03  0.20975071462E+03  0.00000000000E+00 0. -1.
         -5    1    5    5    0  502  0.19898296402E+02  0.51636978199E+02  0.11241363623E+03  0.12538435041E+03  0.47000000000E+01 0.  1.
         13    1    6    6    0    0 -0.57443669907E+02  0.23542471600E+02  0.30750611852E+03  0.31371011477E+03  0.00000000000E+00 0. -1.
        -14    1    6    6    0    0 -0.11049804278E+02 -0.43144877074E+02  0.29675065141E+03  0.30007420366E+03  0.00000000000E+00 0.  1.
</event>
<event>
12    1  0.8798177E-003  0.2116580E+03  0.7818608E-02  0.1140464E+00
         21   -1    0    0  503  502  0.00000000000E+00  0.00000000000E+00  0.37017383917E+03  0.37017383917E+03  0.00000000000E+00 0.  1.
         21   -1    0    0  501  503 -0.00000000000E+00 -0.00000000000E+00 -0.13079262805E+03  0.13079262805E+03  0.00000000000E+00 0.  1.
          6    2    1    2  501    0  0.99417267100E+02 -0.68689408949E+02  0.18992707136E+03  0.28360775163E+03  0.17250807649E+03 0.  0.
         24    2    3    3    0    0  0.74642791026E+01  0.14782395324E+02  0.10259995939E+03  0.13171631476E+03  0.80920956704E+02 0.  0.
         -6    2    1    2    0  502 -0.99417267100E+02  0.68689408949E+02  0.49454139764E+02  0.21735871558E+03  0.17377304567E+03 0.  0.
        -24    2    5    5    0    0 -0.76597689716E+02 -0.15898569681E+02 -0.94986573357E+01  0.11165449842E+03  0.79098242319E+02 0.  0.
          5    1    3    3  501    0  0.91952987998E+02 -0.83471804273E+02  0.87327111972E+02  0.15189143687E+03  0.47000000000E+01 0. -1.
        -13    1    4    4    0    0  0.11874894489E+02  0.13775242521E+02  0.11608063075E+03  0.11749673723E+03  0.00000000000E+00 0.  1.
         14    1    4    4    0    0 -0.44106153862E+01  0.10071528032E+01 -0.13480671358E+02  0.14219577530E+02  0.00000000000E+00 0. -1.
         -5    1    5    5    0  502 -0.22819577384E+02  0.84587978629E+02  0.58952797100E+02  0.10570421716E+03  0.47000000000E+01 0.  1.
         13    1    6    6    0    0 -0.45291148822E+02 -0.28749260931E+02  0.28520621477E+02  0.60755526622E+02  0.00000000000E+00 0. -1.
        -14    1    6    6    0    0 -0.31306540894E+02  0.12850691251E+02 -0.38019278813E+02  0.50898971796E+02  0.00000000000E+00 0.  1.
</event>
<event>
12    1  0.8798177E-003  0.1968243E+03  0.7818608E-02  0.1152560E+00
         21   -1    0    0  503  502  0.00000000000E+00  0.00000000000E+00  0.12862069040E+03  0.12862069040E+03  0.00000000000E+00 0. -1.
         21   -1    0    0  501  503 -0.00000000000E+00 -0.00000000000E+00 -0.41221842191E+03  0.41221842191E+03  0.00000000000E+00 0. -1.
          6    2    1    2  501    0  0.91940213840E+02 -0.26825570711E+02 -0.28278758032E+03  0.34454115011E+03  0.17195108134E+03 0.  0.
         24    2    3    3    0    0  0.29948885867E+02 -0.48436046291E+02 -0.67238022763E+02  0.11916670799E+03  0.80229459948E+02 0.  0.
         -6    2    1    2    0  502 -0.91940213840E+02  0.26825570711E+02 -0.81015119547E+00  0.19629796220E+03  0.17134648947E+03 0.  0.
        -24    2    5    5    0    0 -0.62936319081E+02  0.24077725520E+02  0.69684799568E+02  0.11987542202E+03  0.70522538150E+02 0.  0.
          5    1    3    3  501    0  0.61991327973E+02  0.21610475580E+02 -0.21554955756E+03  0.22537444212E+03  0.47000000000E+01 0. -1.
        -11    1    4    4    0    0  0.40817971670E+02 -0.45978959112E+02 -0.11781525132E+02  0.62601723832E+02  0.00000000000E+00 0.  1.
         12    1    4    4    0    0 -0.10869085803E+02 -0.24570871797E+01 -0.55456497631E+02  0.56564984161E+02  0.00000000000E+00 0. -1.
         -5    1    5    5    0  502 -0.29003894759E+02  0.27478451913E+01 -0.70494950763E+02  0.76422540179E+02  0.47000000000E+01 0.  1.
         11    1    6    6    0    0  0.90516585956E+01  0.23553976474E+02  0.22433913299E+02  0.33763927452E+02  0.00000000000E+00 0. -1.
        -12    1    6    6    0    0 -0.71987977677E+02  0.52374904653E+00  0.47250886269E+02  0.86111494565E+02  0.00000000000E+00 0.  1.
</event>
<event>
12    1  0.8798177E-003  0.3407701E+03  0.7818608E-02  0.1066547E+00
         21   -1    0    0  503  502  0.00000000000E+00  0.00000000000E+00  0.15568481459E+04  0.15568481459E+04  0.00000000000E+00 0.  1.
         21   -1    0    0  501  503 -0.00000000000E+00 -0.00000000000E+00 -0.79736040435E+02  0.79736040435E+02  0.00000000000E+00 0. -1.
          6    2    1    2  501    0 -0.26900854971E+03 -0.11479009308E+03  0.52667773174E+03  0.62690612448E+03  0.17343439832E+03 0.  0.
         24    2    3    3    0    0 -0.23998730158E+03 -0.11569865590E+03  0.52879938613E+03  0.59741630002E+03  0.79355912607E+02 0.  0.
         -6    2    1    2    0  502  0.26900854971E+03  0.11479009308E+03  0.95043437369E+03  0.10096780618E+04  0.17487688393E+03 0.  0.
        -24    2    5    5    0    0  0.27196599310E+03  0.10908677167E+03  0.74947275290E+03  0.80855884996E+03  0.78692956167E+02 0.  0.
          5    1    3    3  501    0 -0.29021248132E+02  0.90856282338E+00 -0.21216543882E+01  0.29489824463E+02  0.47000000000E+01 0. -1.
        -13    1    4    4    0    0 -0.22528482939E+03 -0.11336883101E+03  0.43812967396E+03  0.50553274613E+03  0.00000000000E+00 0.  1.
         14    1    4    4    0    0 -0.14702472188E+02 -0.23298248902E+01  0.90669712164E+02  0.91883553895E+02  0.00000000000E+00 0. -1.
         -5    1    5    5    0  502 -0.29574433943E+01  0.57033214066E+01  0.20096162079E+03  0.20111921186E+03  0.47000000000E+01 0.  1.
         11    1    6    6    0    0  0.11309929563E+03  0.72573346605E+02  0.41986035251E+03  0.44084130582E+03  0.00000000000E+00 0. -1.
        -12    1    6    6    0    0  0.15886669747E+03  0.36513425070E+02  0.32961240039E+03  0.36771754414E+03  0.00000000000E+00 0.  1.
</event>
<event>
12    1  0.8798177E-003  0.2148326E+03  0.7818608E-02  0.1138384E+00
         21   -1    0    0  503  502  0.00000000000E+00  0.00000000000E+00  0.65360835982E+02  0.65360835982E+02  0.00000000000E+00 0. -1.
         21   -1    0    0  501  503 -0.00000000000E+00 -0.00000000000E+00 -0.69817140319E+03  0.69817140319E+03  0.00000000000E+00 0. -1.
          6    2    1    2  501    0  0.52838724771E+02 -0.11734159693E+03 -0.29821334670E+03  0.36753807604E+03  0.17202341696E+03 0.  0.
         24    2    3    3    0    0 -0.11416464404E+02 -0.36708675063E+02 -0.22186025748E+03  0.23915473732E+03  0.80592506181E+02 0.  0.
         -6    2    1    2    0  502 -0.52838724771E+02  0.11734159693E+03 -0.33459722051E+03  0.39599416313E+03  0.16821146232E+03 0.  0.
        -24    2    5    5    0    0 -0.14090605452E+01  0.39389831622E+02 -0.26217130277E+03  0.27771867270E+03  0.82706256607E+02 0.  0.
          5    1    3    3  501    0  0.64255189175E+02 -0.80632921872E+02 -0.76353089220E+02  0.12838333871E+03  0.47000000000E+01 0. -1.
        -11    1    4    4    0    0 -0.21641168981E+01  0.20818548967E+02 -0.19621232084E+02  0.28689512570E+02  0.00000000000E+00 0.  1.
         12    1    4    4    0    0 -0.92523475054E+01 -0.57527224029E+02 -0.20223902539E+03  0.21046522475E+03  0.00000000000E+00 0. -1.
         -5    1    5    5    0  502 -0.51429664226E+02  0.77951765313E+02 -0.72425917740E+02  0.11827549044E+03  0.47000000000E+01 0.  1.
         13    1    6    6    0    0  0.21255558684E+01  0.53829117658E+02 -0.89884823819E+02  0.10479204859E+03  0.00000000000E+00 0. -1.
        -14    1    6    6    0    0 -0.35346164137E+01 -0.14439286037E+02 -0.17228647895E+03  0.17292662410E+03  0.00000000000E+00 0.  1.
</event>
<event>
12    1  0.8798177E-003  0.3402103E+03  0.7818608E-02  0.1066723E+00
         21   -1    0    0  503  502  0.00000000000E+00  0.00000000000E+00  0.40902056307E+03  0.40902056307E+03  0.00000000000E+00 0. -1.
         21   -1    0    0  501  503 -0.00000000000E+00 -0.00000000000E+00 -0.52567169281E+03  0.52567169281E+03  0.00000000000E+00 0.  1.
          6    2    1    2  501    0  0.27626577414E+03  0.98436376979E+02 -0.37595372174E+03  0.50692962599E+03  0.17211608450E+03 0.  0.
         24    2    3    3    0    0  0.28080976824E+03  0.10291332842E+03 -0.30186834921E+03  0.43242175124E+03  0.80117361316E+02 0.  0.
         -6    2    1    2    0  502 -0.27626577414E+03 -0.98436376979E+02  0.25930259200E+03  0.42776262990E+03  0.17242544779E+03 0.  0.
        -24    2    5    5    0    0 -0.23060779135E+03 -0.21945792692E+02  0.15176281940E+03  0.28804021377E+03  0.79206313824E+02 0.  0.
          5    1    3    3  501    0 -0.45439941025E+01 -0.44769514458E+01 -0.74085372528E+02  0.74507874746E+02  0.47000000000E+01 0. -1.
        -13    1    4    4    0    0  0.57777689758E+02  0.34867925212E+01 -0.10021885142E+03  0.11573347544E+03  0.00000000000E+00 0.  1.
         14    1    4    4    0    0  0.22303207849E+03  0.99426535903E+02 -0.20164949778E+03  0.31668827581E+03  0.00000000000E+00 0. -1.
         -5    1    5    5    0  502 -0.45657982795E+02 -0.76490584287E+02  0.10753977260E+03  0.13972241613E+03  0.47000000000E+01 0.  1.
         11    1    6    6    0    0 -0.14703325650E+03 -0.26168425014E+02  0.13779385000E+03  0.20320115670E+03  0.00000000000E+00 0. -1.
        -12    1    6    6    0    0 -0.83574534846E+02  0.42226323225E+01  0.13968969392E+02  0.84839057068E+02  0.00000000000E+00 0.  1.
</event>
<event>
12    1  0.8798177E-003  0.2085622E+03  0.7818608E-02  0.1143084E+00
         21   -1    0    0  501  502  0.00000000000E+00  0.00000000000E+00  0.24556742281E+03  0.24556742281E+03  0.00000000000E+00 0.  1.
         21   -1    0    0  502  503 -0.00000000000E+00 -0.00000000000E+00 -0.17975647030E+03  0.17975647030E+03  0.00000000000E+00 0. -1.
          6    2    1    2  501    0  0.10314716458E+03  0.55700425671E+02  0.65281073109E+02  0.21676102904E+03  0.17024056573E+03 0.  0.
         24    2    3    3    0    0  0.64275674012E+02 -0.28064067817E+02  0.63384673910E+02  0.12427768200E+03  0.80674476665E+02 0.  0.
         -6    2    1    2    0  503 -0.10314716458E+03 -0.55700425671E+02  0.52987939654E+00  0.20856286407E+03  0.17250018121E+03 0.  0.
        -24    2    5    5    0    0 -0.11234288179E+03 -0.85387512015E+02 -0.29565014869E+02  0.16504646519E+03  0.80338628762E+02 0.  0.
          5    1    3    3  501    0  0.38871490571E+02  0.83764493488E+02  0.18963991985E+01  0.92483347033E+02  0.47000000000E+01 0. -1.
        -13    1    4    4    0    0  0.21054409952E+02 -0.27670357337E+01  0.70559943732E+02  0.73686161012E+02  0.00000000000E+00 0.  1.
         14    1    4    4    0    0  0.43221264059E+02 -0.25297032083E+02 -0.71752698221E+01  0.50591520991E+02  0.00000000000E+00 0. -1.
         -5    1    5    5    0  503  0.91957172086E+01  0.29687086344E+02  0.30094894265E+02  0.43516398879E+02  0.47000000000E+01 0.  1.
         11    1    6    6    0    0 -0.81288329550E+02 -0.11593786739E+02 -0.19104460946E+02  0.84304144856E+02  0.00000000000E+00 0. -1.
        -12    1    6    6    0    0 -0.31054552241E+02 -0.73793725276E+02 -0.10460553923E+02  0.80742320336E+02  0.00000000000E+00 0.  1.
</event>
<event>
12    1  0.8798177E-003  0.1831855E+03  0.7818608E-02  0.1164775E+00
         21   -1    0    0  501  502  0.00000000000E+00  0.00000000000E+00  0.21891519192E+03  0.21891519192E+03  0.00000000000E+00 0. -1.
         21   -1    0    0  502  503 -0.00000000000E+00 -0.00000000000E+00 -0.16041167861E+03  0.16041167861E+03  0.00000000000E+00 0. -1.
          6    2    1    2  501    0  0.42514291065E+02 -0.48907798098E+02 -0.10917152134E+02  0.18342849484E+03  0.17125241852E+03 0.  0.
         24    2    3    3    0    0  0.40439671725E+02 -0.53354600960E+01 -0.67330031428E+02  0.11196272937E+03  0.79614605771E+02 0.  0.
         -6    2    1    2    0  503 -0.42514291065E+02  0.48907798098E+02  0.69420665446E+02  0.19589837569E+03  0.17134032551E+03 0.  0.
        -24    2    5    5    0    0 -0.86249619711E+02  0.23402072585E+02 -0.71567447396E+00  0.10926975927E+03  0.62870614745E+02 0.  0.
          5    1    3    3  501    0  0.20746193399E+01 -0.43572338002E+02  0.56412879295E+02  0.71465765473E+02  0.47000000000E+01 0. -1.
        -13    1    4    4    0    0  0.37393348837E+02  0.25104514850E+02 -0.87575144952E+01  0.45882385108E+02  0.00000000000E+00 0.  1.
         14    1    4    4    0    0  0.30463228887E+01 -0.30439974946E+02 -0.58572516933E+02  0.66080344262E+02  0.00000000000E+00 0. -1.
         -5    1    5    5    0  503  0.43735328645E+02  0.25505725512E+02  0.70136339920E+02  0.86628616421E+02  0.47000000000E+01 0.  1.
         11    1    6    6    0    0 -0.45537618546E+02  0.15256058313E+02  0.30879585755E+02  0.57096154288E+02  0.00000000000E+00 0. -1.
        -12    1    6    6    0    0 -0.40712001165E+02  0.81460142726E+01 -0.31595260229E+02  0.52173604978E+02  0.00000000000E+00 0.  1.
</event>
<event>
12    1  0.8798177E-003  0.2016272E+03  0.7818608E-02  0.1148710E+00
         21   -1    0    0  503  502  0.00000000000E+00  0.00000000000E+00  0.19093420527E+03  0.19093420527E+03  0.00000000000E+00 0. -1.
         21   -1    0    0  501  503 -0.00000000000E+00 -0.00000000000E+00 -0.23055936723E+03  0.23055936723E+03  0.00000000000E+00 0.  1.
          6    2    1    2  501    0 -0.43775648632E+01 -0.10407585197E+03 -0.80915021377E+02  0.21725736931E+03  0.17263423125E+03 0.  0.
         24    2    3    3    0    0 -0.55796750389E+02 -0.38099423270E+02 -0.59399763121E+01  0.10482886240E+03  0.79930993153E+02 0.  0.
         -6    2    1    2    0  502  0.43775648632E+01  0.10407585197E+03  0.41289859411E+02  0.20423620319E+03  0.17075312051E+03 0.  0.
        -24    2    5    5    0    0  0.75162589549E+02  0.34922473968E+02 -0.17940302943E+01  0.96203703630E+02  0.48815366348E+02 0.  0.
          5    1    3    3  501    0  0.51419185526E+02 -0.65976428699E+02 -0.74975045065E+02  0.11242850691E+03  0.47000000000E+01 0. -1.
        -13    1    4    4    0    0 -0.33535962650E+02 -0.98973189795E+01 -0.41507558662E+02  0.54272416013E+02  0.00000000000E+00 0.  1.
         14    1    4    4    0    0 -0.22260787739E+02 -0.28202104290E+02  0.35567582350E+02  0.50556446388E+02  0.00000000000E+00 0. -1.
         -5    1    5    5    0  502 -0.70785024685E+02  0.69153378001E+02  0.43083889705E+02  0.10803249956E+03  0.47000000000E+01 0.  1.
         13    1    6    6    0    0  0.11275913970E+02  0.11067090292E+02  0.19186058603E+02  0.24854206246E+02  0.00000000000E+00 0. -1.
        -14    1    6    6    0    0  0.63886675578E+02  0.23855383675E+02 -0.20980088897E+02  0.71349497384E+02  0.00000000000E+00 0.  1.
</event>
<event>
12    1  0.8798177E-003  0.1939879E+03  0.7818608E-02  0.1155048E+00
         21   -1    0    0  503  502  0.00000000000E+00  0.00000000000E+00  0.68006824110E+03  0.68006824110E+03  0.00000000000E+00 0. -1.
         21   -1    0    0  501  503 -0.00000000000E+00 -0.00000000000E+00 -0.66837437032E+02  0.66837437032E+02  0.00000000000E+00 0. -1.
          6    2    1    2  501    0  0.69028126980E+02  0.53698052387E+02  0.46231751379E+03  0.50112906207E+03  0.17246591011E+03 0.  0.
         24    2    3    3    0    0  0.58388518421E+02  0.93780906538E+02  0.24661073729E+03  0.28142166598E+03  0.78595297716E+02 0.  0.
         -6    2    1    2    0  502 -0.69028126980E+02 -0.53698052387E+02  0.15091329028E+03  0.24577661606E+03  0.17315588548E+03 0.  0.
        -24    2    5    5    0    0  0.10669571441E+02 -0.75838584013E+02  0.97173678651E+02  0.14702459263E+03  0.79424029333E+02 0.  0.
          5    1    3    3  501    0  0.10639608559E+02 -0.40082854151E+02  0.21570677650E+03  0.21970739609E+03  0.47000000000E+01 0. -1.
        -11    1    4    4    0    0  0.44375502731E+02  0.65692728195E+02  0.23490313571E+03  0.24791975102E+03  0.00000000000E+00 0.  1.
         12    1    4    4    0    0  0.14013015690E+02  0.28088178344E+02  0.11707601583E+02  0.33501914963E+02  0.00000000000E+00 0. -1.
         -5    1    5    5    0  502 -0.79697698420E+02  0.22140531625E+02  0.53739611624E+02  0.98752023431E+02  0.47000000000E+01 0.  1.
         13    1    6    6    0    0 -0.15200078742E+02 -0.12693114677E+02 -0.82420263812E+01  0.21449674889E+02  0.00000000000E+00 0. -1.
        -14    1    6    6    0    0  0.25869650182E+02 -0.63145469336E+02  0.10541570503E+03  0.12557491774E+03  0.00000000000E+00 0.  1.
</event>
<event>
12    1  0.8798177E-003  0.2046360E+03  0.7818608E-02  0.1146020E+00
         21   -1    0    0  501  502  0.00000000000E+00  0.00000000000E+00  0.16574151978E+03  0.16574151978E+03  0.00000000000E+00 0. -1.
         21   -1    0    0  502  503 -0.00000000000E+00 -0.00000000000E+00 -0.35252246791E+03  0.35252246791E+03  0.00000000000E+00 0. -1.
          6    2    1    2  501    0 -0.81908621422E+02 -0.74210358533E+02  0.44981878127E+02  0.20952151935E+03  0.17221991213E+03 0.  0.
         24    2    3    3    0    0 -0.25894393797E+01 -0.96905708252E+02  0.25068746859E+02  0.12452014091E+03  0.74022982486E+02 0.  0.
         -6    2    1    2    0  503  0.81908621422E+02  0.74210358533E+02 -0.23176282626E+03  0.30874246834E+03  0.17144009025E+03 0.  0.
        -24    2    5    5    0    0  0.45588290069E+02 -0.52156009405E+01 -0.19270657705E+03  0.21295556887E+03  0.78158523465E+02 0.  0.
          5    1    3    3  501    0 -0.79319182042E+02  0.22695349719E+02  0.19913131269E+02  0.85001378434E+02  0.47000000000E+01 0. -1.
        -13    1    4    4    0    0 -0.34605781156E+02 -0.69613891042E+02  0.49810568339E+01  0.77900352006E+02  0.00000000000E+00 0.  1.
         14    1    4    4    0    0  0.32016341776E+02 -0.27291817210E+02  0.20087690025E+02  0.46619788908E+02  0.00000000000E+00 0. -1.
         -5    1    5    5    0  503  0.36320331352E+02  0.79425959473E+02 -0.39056249213E+02  0.95786899471E+02  0.47000000000E+01 0.  1.
         13    1    6    6    0    0  0.59218405416E+02  0.18448065688E+02 -0.14932353318E+03  0.16169312981E+03  0.00000000000E+00 0. -1.
        -14    1    6    6    0    0 -0.13630115347E+02 -0.23663666628E+02 -0.43383043872E+02  0.51262439059E+02  0.00000000000E+00 0.  1.
</event>
<event>
12    1  0.8798177E-003  0.1787606E+03  0.7818608E-02  0.1169120E+00
         21   -1    0    0  501  502  0.00000000000E+00  0.00000000000E+00  0.19943475060E+03  0.19943475060E+03  0.00000000000E+00 0. -1.
         21   -1    0    0  502  503 -0.00000000000E+00 -0.00000000000E+00 -0.16275023923E+03  0.16275023923E+03  0.00000000000E+00 0.  1.
          6    2    1    2  501    0 -0.31591046581E+02 -0.38099179004E+02  0.42666211432E+02  0.18378183053E+03  0.17177256466E+03 0.  0.
         24    2    3    3    0    0 -0.39405776162E+01 -0.60664566501E+02  0.78017138251E+02  0.13332865250E+03  0.89409943154E+02 0.  0.
         -6    2    1    2    0  503  0.31591046581E+02  0.38099179004E+02 -0.59817000588E+01  0.17840315930E+03  0.17129613203E+03 0.  0.
        -24    2    5    5    0    0  0.88414144298E+01 -0.54339630194E+01 -0.63924599836E+02  0.10229698444E+03  0.79187246433E+02 0.  0.
          5    1    3    3  501    0 -0.27650468964E+02  0.22565387498E+02 -0.35350926819E+02  0.50453178035E+02  0.47000000000E+01 0. -1.
        -13    1    4    4    0    0  0.38270213391E+02 -0.23001964542E+02  0.11694536654E+02  0.46156925735E+02  0.00000000000E+00 0.  1.
         14    1    4    4    0    0 -0.42210791007E+02 -0.37662601959E+02  0.66322601597E+02  0.87171726760E+02  0.00000000000E+00 0. -1.
         -5    1    5    5    0  503  0.22749632151E+02  0.43533142023E+02  0.57942899777E+02  0.76106174861E+02  0.47000000000E+01 0.  1.
         11    1    6    6    0    0 -0.32572621480E+02 -0.13809820875E+02 -0.17323497659E+02  0.39392770832E+02  0.00000000000E+00 0. -1.
        -12    1    6    6    0    0  0.41414035910E+02  0.83758578555E+01 -0.46601102176E+02  0.62904213605E+02  0.00000000000E+00 0.  1.
</event>
<event>
12    1  0.8798177E-003  0.2784623E+03  0.7818608E-02  0.1096817E+00
         21   -1    0    0  503  502  0.00000000000E+00  0.00000000000E+00  0.55402405057E+03  0.55402405057E+03  0.00000000000E+00 0. -1.
         21   -1    0    0  501  503 -0.00000000000E+00 -0.00000000000E+00 -0.13905146249E+03  0.13905146249E+03  0.00000000000E+00 0.  1.
          6    2    1    2  501    0  0.20107259191E+03 -0.84014735478E+02  0.19769077871E+03  0.34150093423E+03  0.17335680287E+03 0.  0.
         24    2    3    3    0    0  0.17294432813E+03 -0.81400874403E+02  0.22219010447E+03  0.30381355630E+03  0.79989946145E+02 0.  0.
         -6    2    1    2    0  502 -0.20107259191E+03  0.84014735478E+02  0.21728180936E+03  0.35157457883E+03  0.17001363711E+03 0.  0.
        -24    2    5    5    0    0 -0.14154231205E+03 -0.10667385842E+02  0.11430930166E+03  0.19947597377E+03  0.81092715113E+02 0.  0.
          5    1    3    3  501    0  0.28128263774E+02 -0.26138610752E+01 -0.24499325757E+02  0.37687377930E+02  0.47000000000E+01 0. -1.
        -11    1    4    4    0    0  0.43776202869E+02 -0.14153525815E+02  0.11035564843E+02  0.47312386560E+02  0.00000000000E+00 0.  1.
         12    1    4    4    0    0  0.12916812526E+03 -0.67247348588E+02  0.21115453962E+03  0.25650116974E+03  0.00000000000E+00 0. -1.
         -5    1    5    5    0  502 -0.59530279853E+02  0.94682121320E+02  0.10297250771E+03  0.15209860506E+03  0.47000000000E+01 0.  1.
         11    1    6    6    0    0 -0.14235061542E+03 -0.12313602587E+02  0.12426074480E+03  0.18935695186E+03  0.00000000000E+00 0. -1.
        -12    1    6    6    0    0  0.80830336785E+00  0.16462167445E+01 -0.99514431399E+01  0.10119021913E+02  0.00000000000E+00 0.  1.
</event>
<event>
12    1  0.8798177E-003  0.1838621E+03  0.7818608E-02  0.1165279E+00
         21   -1    0    0  503  502  0.00000000000E+00  0.00000000000E+00  0.12519898290E+03  0.12519898290E+03  0.00000000000E+00 0.  1.
         21   -1    0    0  501  503 -0.00000000000E+00 -0.00000000000E+00 -0.29641784344E+03  0.29641784344E+03  0.00000000000E+00 0.  1.
          6    2    1    2  501    0  0.34408949327E+02 -0.66192416549E+01 -0.15749904808E+03  0.24209758163E+03  0.18049237860E+03 0.  0.
         24    2    3    3    0    0  0.91635423047E+02 -0.34055207078E+01 -0.82417495915E+02  0.14752207332E+03  0.81002902143E+02 0.  0.
         -6    2    1    2    0  502 -0.34408949327E+02  0.66192416549E+01 -0.13719812452E+02  0.17951924471E+03  0.17553101097E+03 0.  0.
        -24    2    5    5    0    0  0.95976864051E+01 -0.39754125041E+02  0.39510627578E+02  0.96196721506E+02  0.77590034765E+02 0.  0.
          5    1    3    3  501    0 -0.57226473720E+02 -0.32137209470E+01 -0.75081552169E+02  0.94575508314E+02  0.47000000000E+01 0. -1.
        -11    1    4    4    0    0  0.62002035102E+02  0.36949868754E+02 -0.45596552961E+02  0.85373244050E+02  0.00000000000E+00 0.  1.
         12    1    4    4    0    0  0.29633387945E+02 -0.40355389462E+02 -0.36820942954E+02  0.62148829271E+02  0.00000000000E+00 0. -1.
         -5    1    5    5    0  502 -0.44006635732E+02  0.46373366696E+02 -0.53230440030E+02  0.83322523203E+02  0.47000000000E+01 0.  1.
         11    1    6    6    0    0  0.25335728811E+02 -0.12600038493E+02  0.54506124196E+02  0.61413172034E+02  0.00000000000E+00 0. -1.
        -12    1    6    6    0    0 -0.15738042406E+02 -0.27154086548E+02 -0.14995496618E+02  0.34783549472E+02  0.00000000000E+00 0.  1.
</event>
<event>
12    1  0.8798177E-003  0.2647258E+03  0.7818608E-02  0.1104516E+00
         21   -1    0    0  501  502  0.00000000000E+00  0.00000000000E+00  0.17664224681E+03  0.17664224681E+03  0.00000000000E+00 0.  1.
         21   -1    0    0  502  503 -0.00000000000E+00 -0.00000000000E+00 -0.39738831436E+03  0.39738831436E+03  0.00000000000E+00 0. -1.
          6    2    1    2  501    0 -0.13994221021E+03  0.14382981466E+03 -0.13278696462E+03  0.29507433334E+03  0.17077952582E+03 0.  0.
         24    2    3    3    0    0 -0.48381463083E+02  0.91809803706E+02 -0.13570066462E+03  0.18962277289E+03  0.82294104242E+02 0.  0.
         -6    2    1    2    0  503  0.13994221021E+03 -0.14382981466E+03 -0.87959102928E+02  0.27895622783E+03  0.17265264398E+03 0.  0.
        -24    2    5    5    0    0  0.27419938071E+02 -0.94148375627E+02 -0.87628896913E+02  0.15586396102E+03  0.83659913544E+02 0.  0.
          5    1    3    3  501    0 -0.91560747124E+02  0.52020010957E+02  0.29136999995E+01  0.10545156045E+03  0.47000000000E+01 0. -1.
        -11    1    4    4    0    0  0.95326508964E+01 -0.10694182753E+02 -0.19559130878E+02  0.24244516464E+02  0.00000000000E+00 0.  1.
         12    1    4    4    0    0 -0.57914113979E+02  0.10250398646E+03 -0.11614153374E+03  0.16537825643E+03  0.00000000000E+00 0. -1.
         -5    1    5    5    0  503  0.11252227214E+03 -0.49681439036E+02 -0.33020601481E+00  0.12309226681E+03  0.47000000000E+01 0.  1.
         11    1    6    6    0    0 -0.30299623521E+02 -0.33693496336E+02 -0.30973265565E+02  0.54887722312E+02  0.00000000000E+00 0. -1.
        -12    1    6    6    0    0  0.57719561592E+02 -0.60454879291E+02 -0.56655631348E+02  0.10097623871E+03  0.00000000000E+00 0.  1.
</event>
<event>
12    1  0.8798177E-003  0.2873972E+03  0.7818608E-02  0.1091779E+00
         21   -1    0    0  503  502  0.00000000000E+00  0.00000000000E+00  0.20077808942E+03  0.20077808942E+03  0.00000000000E+00 0.  1.
         21   -1    0    0  501  503 -0.00000000000E+00 -0.00000000000E+00 -0.69190149944E+03  0.69190149944E+03  0.00000000000E+00 0. -1.
          6    2    1    2  501    0 -0.18463982395E+03 -0.13809441459E+03 -0.53022637566E+03  0.60310625160E+03  0.17156692381E+03 0.  0.
         24    2    3    3    0    0 -0.49304833215E+02 -0.52682515560E+02 -0.17565432667E+03  0.21406360594E+03  0.98804710860E+02 0.  0.
         -6    2    1    2    0  502  0.18463982395E+03  0.13809441459E+03  0.39102965637E+02  0.28957333726E+03  0.17076809949E+03 0.  0.
        -24    2    5    5    0    0  0.15504948316E+02  0.37262117432E+02  0.14909612418E+02  0.91126451056E+02  0.80329725021E+02 0.  0.
          5    1    3    3  501    0 -0.13533499074E+03 -0.85411899026E+02 -0.35457204899E+03  0.38904264566E+03  0.47000000000E+01 0. -1.
        -13    1    4    4    0    0 -0.38517908344E+02 -0.48782746058E+02 -0.31921706510E+02  0.69874036113E+02  0.00000000000E+00 0.  1.
         14    1    4    4    0    0 -0.10786924870E+02 -0.38997695025E+01 -0.14373262016E+03  0.14418956983E+03  0.00000000000E+00 0. -1.
         -5    1    5    5    0  502  0.16913487563E+03  0.10083229716E+03  0.24193353219E+02  0.19844688621E+03  0.47000000000E+01 0.  1.
         11    1    6    6    0    0  0.41734015988E+02 -0.22376451077E+01  0.13715126974E+01  0.41816458401E+02  0.00000000000E+00 0. -1.
        -12    1    6    6    0    0 -0.26229067672E+02  0.39499762539E+02  0.13538099721E+02  0.49309992655E+02  0.00000000000E+00 0.  1.
</event>
<event>
12    1  0.8798177E-003  0.1774140E+03  0.7818608E-02  0.1171373E+00
         21   -1    0    0  501  502  0.00000000000E+00  0.00000000000E+00  0.98523347441E+02  0.98523347441E+02  0.00000000000E+00 0.  1.
         21   -1    0    0  502  503 -0.00000000000E+00 -0.00000000000E+00 -0.31454962378E+03  0.31454962378E+03  0.00000000000E+00 0.  1.
          6    2    1    2  501    0  0.15358742374E+02  0.14948390020E+02 -0.88134743245E+02  0.19436776389E+03  0.17190622252E+03 0.  0.
         24    2    3    3    0    0 -0.49520717488E+02  0.37127522645E+02 -0.38462901735E+02  0.10957012197E+03  0.81825805344E+02 0.  0.
         -6    2    1    2    0  503 -0.15358742374E+02 -0.14948390020E+02 -0.12789153310E+03  0.21870520734E+03  0.17611467329E+03 0.  0.
        -24    2    5    5    0    0  0.57855800461E+02 -0.15103298916E+02 -0.95484656590E+02  0.13850116178E+03  0.80559598338E+02 0.  0.
          5    1    3    3  501    0  0.64879459862E+02 -0.22179132625E+02 -0.49671841509E+02  0.84797641918E+02  0.47000000000E+01 0. -1.
        -13    1    4    4    0    0  0.91662781469E+01  0.83839230547E+01  0.18900058452E+02  0.22616874902E+02  0.00000000000E+00 0.  1.
         14    1    4    4    0    0 -0.58686995635E+02  0.28743599590E+02 -0.57362960187E+02  0.86953247067E+02  0.00000000000E+00 0. -1.
         -5    1    5    5    0  503 -0.73214542834E+02  0.15490889663E+00 -0.32406876508E+02  0.80204045560E+02  0.47000000000E+01 0.  1.
         11    1    6    6    0    0  0.59391271725E+02 -0.42385554041E+02 -0.71094212905E+02  0.10187367401E+03  0.00000000000E+00 0. -1.
        -12    1    6    6    0    0 -0.15354712646E+01  0.27282255125E+02 -0.24390443685E+02  0.36627487763E+02  0.00000000000E+00 0.  1.
</event>
<event>
12    1  0.8798177E-003  0.2443190E+03  0.7818608E-02  0.1117282E+00
         21   -1    0    0  501  502  0.00000000000E+00  0.00000000000E+00  0.15515259044E+03  0.15515259044E+03  0.00000000000E+00 0. -1.
         21   -1    0    0  502  503 -0.00000000000E+00 -0.00000000000E+00 -0.39505912486E+03  0.39505912486E+03  0.00000000000E+00 0. -1.
          6    2    1    2  501    0 -0.15631483573E+03 -0.67556163330E+02 -0.68554554386E+02  0.25179377671E+03  0.17234330852E+03 0.  0.
         24    2    3    3    0    0 -0.17487713758E+03 -0.24873018853E+02 -0.57292595407E+02  0.20367588407E+03  0.83670448461E+02 0.  0.
         -6    2    1    2    0  503  0.15631483573E+03  0.67556163330E+02 -0.17135198004E+03  0.29841793859E+03  0.17519589589E+03 0.  0.
        -24    2    5    5    0    0  0.84692289298E+02  0.67494358840E+02 -0.18164314095E+03  0.22590731199E+03  0.79445645678E+02 0.  0.
          5    1    3    3  501    0  0.18562301857E+02 -0.42683144476E+02 -0.11261958979E+02  0.48117892646E+02  0.47000000000E+01 0. -1.
        -13    1    4    4    0    0 -0.19672480496E+02  0.23704698302E+01 -0.40649595164E+02  0.45221844313E+02  0.00000000000E+00 0.  1.
         14    1    4    4    0    0 -0.15520465709E+03 -0.27243488684E+02 -0.16643000244E+02  0.15845403975E+03  0.00000000000E+00 0. -1.
         -5    1    5    5    0  503  0.71622546429E+02  0.61804489988E-01  0.10291160909E+02  0.72510626598E+02  0.47000000000E+01 0.  1.
         13    1    6    6    0    0  0.30551973540E+02  0.19295003625E+02 -0.13490079311E+03  0.13965652235E+03  0.00000000000E+00 0. -1.
        -14    1    6    6    0    0  0.54140315757E+02  0.48199355214E+02 -0.46742347836E+02  0.86250789646E+02  0.00000000000E+00 0.  1.
</event>
<event>
12    1  0.8798177E-003  0.2945502E+03  0.7818608E-02  0.1088932E+00
         21   -1    0    0  501  502  0.00000000000E+00  0.00000000000E+00  0.66560056898E+03  0.66560056898E+03  0.00000000000E+00 0. -1.
         21   -1    0    0  502  503 -0.00000000000E+00 -0.00000000000E+00 -0.12718242582E+03  0.12718242582E+03  0.00000000000E+00 0. -1.
          6    2    1    2  501    0  0.21745735275E+03  0.93263100095E+02  0.26989352051E+03  0.39950261431E+03  0.17542554069E+03 0.  0.
         24    2    3    3    0    0  0.21723775501E+03  0.34613742452E+02  0.19779012046E+03  0.30643927205E+03  0.79960880002E+02 0.  0.
         -6    2    1    2    0  503 -0.21745735275E+03 -0.93263100095E+02  0.26852462265E+03  0.39328038049E+03  0.16302845950E+03 0.  0.
        -24    2    5    5    0    0 -0.83509871341E+02 -0.95382701876E+01  0.52964841807E+02  0.12599797547E+03  0.77494116839E+02 0.  0.
          5    1    3    3  501    0  0.21959773183E+00  0.58649357643E+02  0.72103400053E+02  0.93063342269E+02  0.47000000000E+01 0. -1.
        -11    1    4    4    0    0  0.89380576451E+02 -0.24818869832E+02  0.86159068828E+02  0.12660272070E+03  0.00000000000E+00 0.  1.
         12    1    4    4    0    0  0.12785717856E+03  0.59432612284E+02  0.11163105163E+03  0.17983655135E+03  0.00000000000E+00 0. -1.
         -5    1    5    5    0  503 -0.13394748140E+03 -0.83724829907E+02  0.21555978084E+03  0.26728240502E+03  0.47000000000E+01 0.  1.
         11    1    6    6    0    0 -0.88637635234E+02 -0.28455575952E+02  0.51387874887E+02  0.10633467858E+03  0.00000000000E+00 0. -1.
        -12    1    6    6    0    0  0.51277638934E+01  0.18917305764E+02  0.15769669195E+01  0.19663296890E+02  0.00000000000E+00 0.  1.
</event>
<event>
12    1  0.8798177E-003  0.2530063E+03  0.7818608E-02  0.1111465E+00
         21   -1    0    0  503  502  0.00000000000E+00  0.00000000000E+00  0.38132899309E+03  0.38132899309E+03  0.00000000000E+00 0. -1.
         21   -1    0    0  501  503 -0.00000000000E+00 -0.00000000000E+00 -0.16769146275E+03  0.16769146275E+03  0.00000000000E+00 0. -1.
          6    2    1    2  501    0 -0.30426243007E+02 -0.18502506142E+03  0.10972194170E+03  0.27577358220E+03  0.16985916087E+03 0.  0.
         24    2    3    3    0    0 -0.32773627731E+02 -0.86894305651E+02  0.12686969388E+03  0.17601742526E+03  0.79129537721E+02 0.  0.
         -6    2    1    2    0  502  0.30426243007E+02  0.18502506142E+03  0.10391558863E+03  0.27324687365E+03  0.16942660588E+03 0.  0.
        -24    2    5    5    0    0  0.39487952655E+01  0.14198002769E+03  0.64609745011E+01  0.16336774923E+03  0.80457169040E+02 0.  0.
          5    1    3    3  501    0  0.23473847240E+01 -0.98130755767E+02 -0.17147752178E+02  0.99756156939E+02  0.47000000000E+01 0. -1.
        -11    1    4    4    0    0  0.86497518540E+01  0.69652487977E+01 -0.20130532033E+01  0.11286508811E+02  0.00000000000E+00 0.  1.
         12    1    4    4    0    0 -0.41423379585E+02 -0.93859554449E+02  0.12888274708E+03  0.16473091645E+03  0.00000000000E+00 0. -1.
         -5    1    5    5    0  502  0.26477447742E+02  0.43045033732E+02  0.97454614131E+02  0.10987912442E+03  0.47000000000E+01 0.  1.
         11    1    6    6    0    0  0.25085881391E+02  0.54519018960E+02 -0.29000348023E+02  0.66653169910E+02  0.00000000000E+00 0. -1.
        -12    1    6    6    0    0 -0.21137086126E+02  0.87461008726E+02  0.35461322524E+02  0.96714579317E+02  0.00000000000E+00 0.  1.
</event>
<event>
12    1  0.8798177E-003  0.1829277E+03  0.7818608E-02  0.1165116E+00
         21   -1    0    0  501  502  0.00000000000E+00  0.00000000000E+00  0.60895476491E+02  0.60895476491E+02  0.00000000000E+00 0. -1.
         21   -1    0    0  502  503 -0.00000000000E+00 -0.00000000000E+00 -0.54967288538E+03  0.54967288538E+03  0.00000000000E+00 0.  1.
          6    2    1    2  501    0 -0.11558329602E+02 -0.61493544400E+02 -0.22801889236E+03  0.29232712004E+03  0.17189380108E+03 0.  0.
         24    2    3    3    0    0 -0.51717308771E+02 -0.82129904426E+02 -0.20720736103E+03  0.24238903038E+03  0.79984688249E+02 0.  0.
         -6    2    1    2    0  503  0.11558329602E+02  0.61493544400E+02 -0.26075851653E+03  0.31824124183E+03  0.17136928860E+03 0.  0.
        -24    2    5    5    0    0 -0.29371428731E+01  0.50849670983E+02 -0.52838120721E+02  0.10949165080E+03  0.81254161408E+02 0.  0.
          5    1    3    3  501    0  0.40158979169E+02  0.20636360025E+02 -0.20811531334E+02  0.49938089665E+02  0.47000000000E+01 0. -1.
        -11    1    4    4    0    0 -0.52636096645E+02 -0.64051028467E+02 -0.84588489027E+02  0.11844114738E+03  0.00000000000E+00 0.  1.
         12    1    4    4    0    0  0.91878787387E+00 -0.18078875959E+02 -0.12261887200E+03  0.12394788299E+03  0.00000000000E+00 0. -1.
         -5    1    5    5    0  503  0.14495472476E+02  0.10643873417E+02 -0.20792039581E+03  0.20874959103E+03  0.47000000000E+01 0.  1.
         11    1    6    6    0    0  0.35593213584E+02  0.24936951534E+02 -0.44711321145E+02  0.62352471030E+02  0.00000000000E+00 0. -1.
        -12    1    6    6    0    0 -0.38530356457E+02  0.25912719449E+02 -0.81267995762E+01  0.47139179769E+02  0.00000000000E+00 0.  1.
</event>
<event>
12    1  0.8798177E-003  0.5162953E+03  0.7818608E-02  0.1009624E+00
         21   -1    0    0  501  502  0.00000000000E+00  0.00000000000E+00  0.68473359615E+03  0.68473359615E+03  0.00000000000E+00 0.  1.
         21   -1    0    0  502  503 -0.00000000000E+00 -0.00000000000E+00 -0.50540474598E+03  0.50540474598E+03  0.00000000000E+00 0. -1.
          6    2    1    2  501    0  0.47965095349E+03 -0.83923525064E+02  0.37506695098E+03  0.63798418204E+03  0.17099825606E+03 0.  0.
         24    2    3    3    0    0  0.18497503440E+03  0.14817851709E+02  0.11710270604E+03  0.23406414237E+03  0.81471755242E+02 0.  0.
         -6    2    1    2    0  503 -0.47965095349E+03  0.83923525064E+02 -0.19573810081E+03  0.55215416009E+03  0.17161764815E+03 0.  0.
        -24    2    5    5    0    0 -0.45172721895E+03  0.36474566994E+02 -0.16720814082E+03  0.48996744777E+03  0.81985749593E+02 0.  0.
          5    1    3    3  501    0  0.29467591909E+03 -0.98741376774E+02  0.25796424495E+03  0.40392003967E+03  0.47000000000E+01 0. -1.
        -11    1    4    4    0    0  0.10800232538E+03 -0.30446989678E+02  0.52726011741E+02  0.12398207041E+03  0.00000000000E+00 0.  1.
         12    1    4    4    0    0  0.76972709017E+02  0.45264841387E+02  0.64376694295E+02  0.11008207196E+03  0.00000000000E+00 0. -1.
         -5    1    5    5    0  503 -0.27923734533E+02  0.47448958070E+02 -0.28529959986E+02  0.62186712319E+02  0.47000000000E+01 0.  1.
         13    1    6    6    0    0 -0.24828474835E+03  0.59935185507E+02 -0.10222929160E+03  0.27511519548E+03  0.00000000000E+00 0. -1.
        -14    1    6    6    0    0 -0.20344247061E+03 -0.23460618513E+02 -0.64978849221E+02  0.21485225229E+03  0.00000000000E+00 0.  1.
</event>
<event>
12    1  0.8798177E-003  0.2193098E+03  0.7818608E-02  0.1134863E+00
         21   -1    0    0  501  502  0.00000000000E+00  0.00000000000E+00  0.40776265203E+03  0.40776265203E+03  0.00000000000E+00 0.  1.
         21   -1    0    0  502  503 -0.00000000000E+00 -0.00000000000E+00 -0.11928565769E+03  0.11928565769E+03  0.00000000000E+00 0.  1.
          6    2    1    2  501    0  0.13023633934E+03 -0.14852913510E+02  0.18276143337E+03  0.28358876231E+03  0.17273891124E+03 0.  0.
         24    2    3    3    0    0  0.14623275336E+03 -0.53092720750E+02  0.14359709973E+03  0.22636898296E+03  0.80124492167E+02 0.  0.
         -6    2    1    2    0  503 -0.13023633934E+03  0.14852913510E+02  0.10571556097E+03  0.24345954741E+03  0.17582564736E+03 0.  0.
        -24    2    5    5    0    0  0.28948586390E+01  0.17783031868E+02  0.69148666564E+02  0.10528672361E+03  0.77324896720E+02 0.  0.
          5    1    3    3  501    0 -0.15996414019E+02  0.38239807240E+02  0.39164333639E+02  0.57219779348E+02  0.47000000000E+01 0. -1.
        -11    1    4    4    0    0  0.48775119206E+02 -0.59852193625E+02  0.67053211849E+02  0.10226157907E+03  0.00000000000E+00 0.  1.
         12    1    4    4    0    0  0.97457634150E+02  0.67594728754E+01  0.76543887885E+02  0.12410740389E+03  0.00000000000E+00 0. -1.
         -5    1    5    5    0  503 -0.13313119798E+03 -0.29301183577E+01  0.36566894406E+02  0.13817282379E+03  0.47000000000E+01 0.  1.
         13    1    6    6    0    0 -0.30166379482E+02 -0.44881593943E+00  0.58881143476E+02  0.66160418256E+02  0.00000000000E+00 0. -1.
        -14    1    6    6    0    0  0.33061238121E+02  0.18231847807E+02  0.10267523088E+02  0.39126305357E+02  0.00000000000E+00 0.  1.
</event>
<event>
12    1  0.8798177E-003  0.1822742E+03  0.7818608E-02  0.1165712E+00
         21   -1    0    0  503  502  0.00000000000E+00  0.00000000000E+00  0.29893041650E+02  0.29893041650E+02  0.00000000000E+00 0. -1.
         21   -1    0    0  501  503 -0.00000000000E+00 -0.00000000000E+00 -0.12694237459E+04  0.12694237459E+04  0.00000000000E+00 0. -1.
          6    2    1    2  501    0  0.17510908393E+01 -0.61275785531E+02 -0.38829750496E+03  0.42878715425E+03  0.17124743232E+03 0.  0.
         24    2    3    3    0    0 -0.47774753977E+01 -0.10163300922E+03 -0.21517520467E+03  0.25084123960E+03  0.79176170319E+02 0.  0.
         -6    2    1    2    0  502 -0.17510908393E+01  0.61275785531E+02 -0.85123319928E+03  0.87052963329E+03  0.17165690979E+03 0.  0.
        -24    2    5    5    0    0  0.43989550337E+02  0.78176828025E+02 -0.72963903862E+03  0.73943775178E+03  0.79676628316E+02 0.  0.
          5    1    3    3  501    0  0.65285662370E+01  0.40357223685E+02 -0.17312230029E+03  0.17794591465E+03  0.47000000000E+01 0. -1.
        -11    1    4    4    0    0  0.28288000503E+02 -0.31243097606E+02 -0.12419832479E+03  0.13115474067E+03  0.00000000000E+00 0.  1.
         12    1    4    4    0    0 -0.33065475900E+02 -0.70389911610E+02 -0.90976879883E+02  0.11968649893E+03  0.00000000000E+00 0. -1.
         -5    1    5    5    0  502 -0.45740641176E+02 -0.16901042495E+02 -0.12159416065E+03  0.13109188151E+03  0.47000000000E+01 0.  1.
         11    1    6    6    0    0 -0.37444224211E+01  0.25200504925E+01 -0.32486857769E+03  0.32489992940E+03  0.00000000000E+00 0. -1.
        -12    1    6    6    0    0  0.47733972758E+02  0.75656777533E+02 -0.40477046093E+03  0.41453782238E+03  0.00000000000E+00 0.  1.
</event>
<event>
12    1  0.8798177E-003  0.1923640E+03  0.7818608E-02  0.1156817E+00
         21   -1    0    0  501  502  0.00000000000E+00  0.00000000000E+00  0.81226550934E+02  0.81226550934E+02  0.00000000000E+00 0.  1.
         21   -1    0    0  502  503 -0.00000000000E+00 -0.00000000000E+00 -0.45483843626E+03  0.45483843626E+03  0.00000000000E+00 0.  1.
          6    2    1    2  501    0  0.17661434276E+01  0.78483840190E+02 -0.21376727793E+03  0.28757671445E+03  0.17561630092E+03 0.  0.
         24    2    3    3    0    0 -0.67428533407E+02  0.42846165774E+02 -0.13728413963E+03  0.17835351369E+03  0.81121142834E+02 0.  0.
         -6    2    1    2    0  503 -0.17661434276E+01 -0.78483840190E+02 -0.15984460740E+03  0.24848827274E+03  0.17330115620E+03 0.  0.
        -24    2    5    5    0    0  0.18977045228E+01 -0.10664855165E+03 -0.17196947713E+03  0.21725083976E+03  0.79037405446E+02 0.  0.
          5    1    3    3  501    0  0.69194676835E+02  0.35637674417E+02 -0.76483138298E+02  0.10922320076E+03  0.47000000000E+01 0. -1.
        -13    1    4    4    0    0 -0.25542156613E+02  0.21524031738E+02 -0.16464431060E+00  0.33402287563E+02  0.00000000000E+00 0.  1.
         14    1    4    4    0    0 -0.41886376794E+02  0.21322134036E+02 -0.13711949532E+03  0.14495122613E+03  0.00000000000E+00 0. -1.
         -5    1    5    5    0  503 -0.36638479504E+01  0.28164711463E+02  0.12124869726E+02  0.31237432985E+02  0.47000000000E+01 0.  1.
         11    1    6    6    0    0 -0.65382833113E+01 -0.91427999774E+02 -0.17683670808E+03  0.19918094692E+03  0.00000000000E+00 0. -1.
        -12    1    6    6    0    0  0.84359878341E+01 -0.15220551879E+02  0.48672309470E+01  0.18069892842E+02  0.00000000000E+00 0.  1.
</event>
<event>
12    1  0.8798177E-003  0.1847722E+03  0.7818608E-02  0.1163515E+00
         21   -1    0    0  503  502  0.00000000000E+00  0.00000000000E+00  0.11830728299E+03  0.11830728299E+03  0.00000000000E+00 0.  1.
         21   -1    0    0  501  503 -0.00000000000E+00 -0.00000000000E+00 -0.28988662029E+03  0.28988662029E+03  0.00000000000E+00 0.  1.
          6    2    1    2  501    0 -0.54286427309E+02 -0.35440839262E+02 -0.10674361853E+03  0.21338919551E+03  0.17302508311E+03 0.  0.
         24    2    3    3    0    0  0.34405665813E+02 -0.43418889524E+02 -0.51834610842E+02  0.10866562704E+03  0.77797440899E+02 0.  0.
         -6    2    1    2    0  502  0.54286427309E+02  0.35440839262E+02 -0.64835718775E+02  0.19480470777E+03  0.17187825477E+03 0.  0.
        -24    2    5    5    0    0  0.31037100816E+02 -0.47833952838E+02 -0.36585513082E+02  0.10372569645E+03  0.78543820033E+02 0.  0.
          5    1    3    3  501    0 -0.88692093123E+02  0.79780502621E+01 -0.54909007688E+02  0.10472356847E+03  0.47000000000E+01 0. -1.
        -13    1    4    4    0    0  0.35401534264E+02  0.12207370487E+02 -0.33046871358E+02  0.49943810718E+02  0.00000000000E+00 0.  1.
         14    1    4    4    0    0 -0.99586845092E+00 -0.55626260011E+02 -0.18787739484E+02  0.58721816318E+02  0.00000000000E+00 0. -1.
         -5    1    5    5    0  502  0.23249326493E+02  0.83274792100E+02 -0.28250205693E+02  0.91079011322E+02  0.47000000000E+01 0.  1.
         11    1    6    6    0    0 -0.67546467623E+01 -0.42565574442E+02 -0.47401423574E+02  0.64065188186E+02  0.00000000000E+00 0. -1.
        -12    1    6    6    0    0  0.37791747579E+02 -0.52683783963E+01  0.10815910492E+02  0.39660508264E+02  0.00000000000E+00 0.  1.
</event>
<event>
12    1  0.8798177E-003  0.3031517E+03  0.7818608E-02  0.1083740E+00
         21   -1    0    0  501  502  0.00000000000E+00  0.00000000000E+00  0.19128030198E+04  0.19128030198E+04  0.00000000000E+00 0. -1.
         21   -1    0    0  502  503 -0.00000000000E+00 -0.00000000000E+00 -0.52610857931E+02  0.52610857931E+02  0.00000000000E+00 0. -1.
          6    2    1    2  501    0  0.35320916604E+02  0.24649373722E+03  0.63872662076E+03  0.70701670863E+03  0.17289939440E+03 0.  0.
         24    2    3    3    0    0  0.21580270055E+02  0.21893104610E+03  0.63349880724E+03  0.67542672061E+03  0.80523320425E+02 0.  0.
         -6    2    1    2    0  503 -0.35320916604E+02 -0.24649373722E+03  0.12214655411E+04  0.12583971691E+04  0.17198441042E+03 0.  0.
        -24    2    5    5    0    0  0.23078412407E+00 -0.22381790861E+03  0.11578448489E+04  0.11819262655E+04  0.79060061662E+02 0.  0.
          5    1    3    3  501    0  0.13740646549E+02  0.27562691117E+02  0.52278135141E+01  0.31589988024E+02  0.47000000000E+01 0. -1.
        -13    1    4    4    0    0  0.50971860566E+00  0.55137596347E+02  0.27836224694E+03  0.28377095494E+03  0.00000000000E+00 0.  1.
         14    1    4    4    0    0  0.21070551449E+02  0.16379344976E+03  0.35513656030E+03  0.39165576567E+03  0.00000000000E+00 0. -1.
         -5    1    5    5    0  503 -0.35551700728E+02 -0.22675828615E+02  0.63620692224E+02  0.76470903664E+02  0.47000000000E+01 0.  1.
         13    1    6    6    0    0  0.37183499705E+02 -0.13825609551E+03  0.64726094960E+03  0.66290579834E+03  0.00000000000E+00 0. -1.
        -14    1    6    6    0    0 -0.36952715581E+02 -0.85561813097E+02  0.51058389931E+03  0.51902046711E+03  0.00000000000E+00 0.  1.
</event>
<event>
12    1  0.8798177E-003  0.1804013E+03  0.7818608E-02  0.1167500E+00
         21   -1    0    0  503  502  0.00000000000E+00  0.00000000000E+00  0.77334103109E+03  0.77334103109E+03  0.00000000000E+00 0. -1.
         21   -1    0    0  501  503 -0.00000000000E+00 -0.00000000000E+00 -0.46411068585E+02  0.46411068585E+02  0.00000000000E+00 0. -1.
          6    2    1    2  501    0  0.44221057358E+02 -0.31195148809E+02  0.23744189131E+03  0.29820004992E+03  0.17209293651E+03 0.  0.
         24    2    3    3    0    0 -0.27971508658E+02  0.26775275438E+02  0.10164843470E+03  0.13377897604E+03  0.77878684392E+02 0.  0.
         -6    2    1    2    0  502 -0.44221057358E+02  0.31195148809E+02  0.48948807119E+03  0.52155204976E+03  0.17172457467E+03 0.  0.
        -24    2    5    5    0    0 -0.91601011340E+02  0.16849995877E+02  0.41592986329E+03  0.43276272944E+03  0.74908351876E+02 0.  0.
          5    1    3    3  501    0  0.72192566016E+02 -0.57970424247E+02  0.13579345661E+03  0.16442107387E+03  0.47000000000E+01 0. -1.
        -11    1    4    4    0    0 -0.43444681431E+00  0.12618113543E+02  0.10203527403E+03  0.10281343629E+03  0.00000000000E+00 0.  1.
         12    1    4    4    0    0 -0.27537061844E+02  0.14157161894E+02 -0.38683933246E+00  0.30965539759E+02  0.00000000000E+00 0. -1.
         -5    1    5    5    0  502  0.47379953982E+02  0.14345152932E+02  0.73558207908E+02  0.88789320319E+02  0.47000000000E+01 0.  1.
         11    1    6    6    0    0 -0.53511087433E+02  0.10598831790E+01  0.35610574618E+03  0.36010534888E+03  0.00000000000E+00 0. -1.
        -12    1    6    6    0    0 -0.38089923907E+02  0.15790112698E+02  0.59824117105E+02  0.72657380558E+02  0.00000000000E+00 0.  1.
</event>
<event>
12    1  0.8798177E-003  0.1952671E+03  0.7818608E-02  0.1154149E+00
         21   -1    0    0  503  502  0.00000000000E+00  0.00000000000E+00  0.12938395685E+04  0.12938395685E+04  0.00000000000E+00 0.  1.
         21   -1    0    0  501  503 -0.00000000000E+00 -0.00000000000E+00 -0.39069210828E+02  0.39069210828E+02  0.00000000000E+00 0. -1.
          6    2    1    2  501    0 -0.20530123846E+02 -0.89735055205E+02  0.29481745557E+03  0.35361926369E+03  0.17220739075E+03 0.  0.
         24    2    3    3    0    0  0.32614812261E+02 -0.11662412421E+01  0.17620644169E+03  0.19626780467E+03  0.80045330671E+02 0.  0.
         -6    2    1    2    0  502  0.20530123846E+02  0.89735055205E+02  0.95995290210E+03  0.97928951563E+03  0.17036582716E+03 0.  0.
        -24    2    5    5    0    0 -0.15510872412E+02  0.55597981850E+02  0.87731801171E+03  0.88277574305E+03  0.79211085715E+02 0.  0.
          5    1    3    3  501    0 -0.53144936107E+02 -0.88568813963E+02  0.11861101389E+03  0.15735145902E+03  0.47000000000E+01 0. -1.
        -13    1    4    4    0    0  0.33983110086E+02 -0.36508820645E+02  0.11872479663E+03  0.12877625205E+03  0.00000000000E+00 0.  1.
         14    1    4    4    0    0 -0.13682978250E+01  0.35342579403E+02  0.57481645055E+02  0.67491552628E+02  0.00000000000E+00 0. -1.
         -5    1    5    5    0  502  0.36040996258E+02  0.34137073354E+02  0.82634890383E+02  0.96513772577E+02  0.47000000000E+01 0.  1.
         13    1    6    6    0    0  0.27379219645E+01  0.71696925724E+02  0.57047797698E+03  0.57497223202E+03  0.00000000000E+00 0. -1.
        -14    1    6    6    0    0 -0.18248794376E+02 -0.16098943874E+02  0.30684003474E+03  0.30780351104E+03  0.00000000000E+00 0.  1.
</event>
<event>
12    1  0.8798177E-003  0.1911624E+03  0.7818608E-02  0.1157494E+00
         21   -1    0    0  503  502  0.00000000000E+00  0.00000000000E+00  0.15223227124E+04  0.15223227124E+04  0.00000000000E+00 0. -1.
         21   -1    0    0  501  503 -0.00000000000E+00 -0.00000000000E+00 -0.24321035182E+02  0.24321035182E+02  0.00000000000E+00 0. -1.
          6    2    1    2  501    0  0.17572193277E+02  0.81986321528E+02  0.65431285603E+03  0.68156925113E+03  0.17140826008E+03 0.  0.
         24    2    3    3    0    0  0.78506569248E+02  0.48742378942E+02  0.45696491922E+03  0.47231711600E+03  0.75679718193E+02 0.  0.
         -6    2    1    2    0  502 -0.17572193277E+02 -0.81986321528E+02  0.84368882121E+03  0.86507449647E+03  0.17179207934E+03 0.  0.
        -24    2    5    5    0    0 -0.65234548387E+02 -0.96232787467E+02  0.64622459681E+03  0.66138632352E+03  0.79431377442E+02 0.  0.
          5    1    3    3  501    0 -0.60934375971E+02  0.33243942585E+02  0.19734793681E+03  0.20925213513E+03  0.47000000000E+01 0. -1.
        -11    1    4    4    0    0  0.34472861009E+02  0.23394178302E+02  0.36397805181E+03  0.36635459315E+03  0.00000000000E+00 0.  1.
         12    1    4    4    0    0  0.44033708239E+02  0.25348200640E+02  0.92986867419E+02  0.10596252285E+03  0.00000000000E+00 0. -1.
         -5    1    5    5    0  502  0.47662355110E+02  0.14246465939E+02  0.19746422439E+03  0.20368817295E+03  0.47000000000E+01 0.  1.
         11    1    6    6    0    0  0.41592004847E+01  0.11287591567E+02  0.78612262704E+02  0.79527331903E+02  0.00000000000E+00 0. -1.
        -12    1    6    6    0    0 -0.69393748872E+02 -0.10752037903E+03  0.56761233411E+03  0.58185899162E+03  0.00000000000E+00 0.  1.
</event>
<event>
12    1  0.8798177E-003  0.2448243E+03  0.7818608E-02  0.1116955E+00
         21   -1    0    0  501  502  0.00000000000E+00  0.00000000000E+00  0.22350416476E+03  0.22350416476E+03  0.00000000000E+00 0. -1.
         21   -1    0    0  502  503 -0.00000000000E+00 -0.00000000000E+00 -0.33131230836E+03  0.33131230836E+03  0.00000000000E+00 0.  1.
          6    2    1    2  501    0 -0.13269926515E+03 -0.10834190278E+03  0.69509023570E+02  0.25252470871E+03  0.17201790977E+03 0.  0.
         24    2    3    3    0    0 -0.43272729898E+02 -0.58335231706E+02  0.97249359552E+02  0.14627317413E+03  0.81626436444E+02 0.  0.
         -6    2    1    2    0  503  0.13269926515E+03  0.10834190278E+03 -0.17731716717E+03  0.30229176440E+03  0.17490531777E+03 0.  0.
        -24    2    5    5    0    0  0.52331752455E+02 -0.95908621405E+01 -0.41679370100E+02  0.10534817823E+03  0.80811334687E+02 0.  0.
          5    1    3    3  501    0 -0.89426535256E+02 -0.50006671074E+02 -0.27740335982E+02  0.10625153458E+03  0.47000000000E+01 0. -1.
        -13    1    4    4    0    0  0.77178030165E+01 -0.28500836550E+02 -0.32400407280E+01  0.29704545635E+02  0.00000000000E+00 0.  1.
         14    1    4    4    0    0 -0.50990532914E+02 -0.29834395155E+02  0.10048940028E+03  0.11656862850E+03  0.00000000000E+00 0. -1.
         -5    1    5    5    0  503  0.80367512699E+02  0.11793276492E+03 -0.13563779707E+03  0.19694358617E+03  0.47000000000E+01 0.  1.
         13    1    6    6    0    0  0.51658513351E+02 -0.26646515079E+02 -0.57726372163E+02  0.81920527407E+02  0.00000000000E+00 0. -1.
        -14    1    6    6    0    0  0.67323910363E+00  0.17055652939E+02  0.16047002063E+02  0.23427650827E+02  0.00000000000E+00 0.  1.
</event>
<event>
12    1  0.8798177E-003  0.1986761E+03  0.7818608E-02  0.1150956E+00
         21   -1    0    0  503  502  0.00000000000E+00  0.00000000000E+00  0.99561266622E+02  0.99561266622E+02  0.00000000000E+00 0.  1.
         21   -1    0    0  501  503 -0.00000000000E+00 -0.00000000000E+00 -0.54259190150E+03  0.54259190150E+03  0.00000000000E+00 0. -1.
          6    2    1    2  501    0  0.67558160727E+02 -0.69967005040E+02 -0.38883150445E+03  0.43664874002E+03  0.17324172832E+03 0.  0.
         24    2    3    3    0    0 -0.10439641651E+01 -0.46702945016E+02 -0.91066447521E+02  0.13016287222E+03  0.80417787256E+02 0.  0.
         -6    2    1    2    0  502 -0.67558160727E+02  0.69967005040E+02 -0.54199130425E+02  0.20550442810E+03  0.17272821818E+03 0.  0.
        -24    2    5    5    0    0 -0.91773223977E+02  0.99043385598E+02 -0.31149957569E+02  0.16094929861E+03  0.81868431017E+02 0.  0.
          5    1    3    3  501    0  0.68602124892E+02 -0.23264060024E+02 -0.29776505693E+03  0.30648586779E+03  0.47000000000E+01 0. -1.
        -11    1    4    4    0    0 -0.30595924560E+01  0.22920552486E+02 -0.26724982121E+02  0.35340309869E+02  0.00000000000E+00 0.  1.
         12    1    4    4    0    0  0.20156282910E+01 -0.69623497502E+02 -0.64341465400E+02  0.94822562355E+02  0.00000000000E+00 0. -1.
         -5    1    5    5    0  502  0.24215063250E+02 -0.29076380558E+02 -0.23049172856E+02  0.44555129491E+02  0.47000000000E+01 0.  1.
         13    1    6    6    0    0 -0.43116154807E+02  0.41594287254E+01 -0.32752262988E+02  0.54304828362E+02  0.00000000000E+00 0. -1.
        -14    1    6    6    0    0 -0.48657069171E+02  0.94883956872E+02  0.16023054194E+01  0.10664447025E+03  0.00000000000E+00 0.  1.
</event>
<event>
12    1  0.8798177E-003  0.1925711E+03  0.7818608E-02  0.1156394E+00
         21   -1    0    0  501  502  0.00000000000E+00  0.00000000000E+00  0.11983375144E+03  0.11983375144E+03  0.00000000000E+00 0.  1.
         21   -1    0    0  502  503 -0.00000000000E+00 -0.00000000000E+00 -0.34180151721E+03  0.34180151721E+03  0.00000000000E+00 0.  1.
          6    2    1    2  501    0 -0.36597809293E+02 -0.76634980532E+02 -0.37898493897E+02  0.19524247360E+03  0.17167121999E+03 0.  0.
         24    2    3    3    0    0 -0.13083029547E+01  0.20942965647E+02 -0.58190242527E+01  0.86531907369E+02  0.83747181941E+02 0.  0.
         -6    2    1    2    0  503  0.36597809293E+02  0.76634980532E+02 -0.18406927187E+03  0.26639279504E+03  0.17283316961E+03 0.  0.
        -24    2    5    5    0    0 -0.44241374493E+02  0.59181860710E+02 -0.10825191722E+03  0.15409877787E+03  0.81044209566E+02 0.  0.
          5    1    3    3  501    0 -0.35289506338E+02 -0.97577946178E+02 -0.32079469644E+02  0.10871056623E+03  0.47000000000E+01 0. -1.
        -13    1    4    4    0    0  0.28354261217E+01 -0.28310360382E+02  0.15843635681E+02  0.32565886106E+02  0.00000000000E+00 0.  1.
         14    1    4    4    0    0 -0.41437290763E+01  0.49253326029E+02 -0.21662659933E+02  0.53966021263E+02  0.00000000000E+00 0. -1.
         -5    1    5    5    0  503  0.80839183786E+02  0.17453119822E+02 -0.75817354653E+02  0.11229401718E+03  0.47000000000E+01 0.  1.
         11    1    6    6    0    0 -0.33301886512E+02  0.32258054263E+02 -0.47640927815E+01  0.46607877983E+02  0.00000000000E+00 0. -1.
        -12    1    6    6    0    0 -0.10939487981E+02  0.26923806447E+02 -0.10348782444E+03  0.10749089988E+03  0.00000000000E+00 0.  1.
</event>
<event>
12    1  0.8798177E-003  0.2158612E+03  0.7818608E-02  0.1137270E+00
         21   -1    0    0  501  502  0.00000000000E+00  0.00000000000E+00  0.40032824548E+03  0.40032824548E+03  0.00000000000E+00 0.  1.
         21   -1    0    0  502  503 -0.00000000000E+00 -0.00000000000E+00 -0.12477048531E+03  0.12477048531E+03  0.00000000000E+00 0.  1.
          6    2    1    2  501    0  0.78247894316E+02 -0.10216906867E+03  0.20915058410E+03  0.30056620254E+03  0.17330557904E+03 0.  0.
         24    2    3    3    0    0  0.24049287158E+02 -0.37904640110E+02  0.19435334781E+03  0.21507670613E+03  0.80434046017E+02 0.  0.
         -6    2    1    2    0  503 -0.78247894316E+02  0.10216906867E+03  0.66407176068E+02  0.22453252825E+03  0.17159164214E+03 0.  0.
        -24    2    5    5    0    0 -0.11134139269E+03  0.92446477997E+02  0.20744173437E+02  0.16711381864E+03  0.80953385533E+02 0.  0.
          5    1    3    3  501    0  0.54198607158E+02 -0.64264428557E+02  0.14797236287E+02  0.85489496415E+02  0.47000000000E+01 0. -1.
        -11    1    4    4    0    0  0.47841155816E+02 -0.42094948426E+02  0.10790781928E+03  0.12531902623E+03  0.00000000000E+00 0.  1.
         12    1    4    4    0    0 -0.23791868658E+02  0.41903083160E+01  0.86445528533E+02  0.89757679902E+02  0.00000000000E+00 0. -1.
         -5    1    5    5    0  503  0.33093498372E+02  0.97225906695E+01  0.45663002631E+02  0.57418709609E+02  0.47000000000E+01 0.  1.
         11    1    6    6    0    0 -0.91784303348E+02  0.77958640857E+02  0.48831974982E+02  0.12994795037E+03  0.00000000000E+00 0. -1.
        -12    1    6    6    0    0 -0.19557089340E+02  0.14487837141E+02 -0.28087801546E+02  0.37165868268E+02  0.00000000000E+00 0.  1.
</event>
<event>
12    1  0.8798177E-003  0.2347491E+03  0.7818608E-02  0.1125414E+00
         21   -1    0    0  503  502  0.00000000000E+00  0.00000000000E+00  0.17239033030E+03  0.17239033030E+03  0.00000000000E+00 0. -1.
         21   -1    0    0  501  503 -0.00000000000E+00 -0.00000000000E+00 -0.30914588063E+03  0.30914588063E+03  0.00000000000E+00 0. -1.
          6    2    1    2  501    0 -0.86873878982E+02  0.11124198835E+03 -0.35110909794E+02  0.22572614290E+03  0.17262000110E+03 0.  0.
         24    2    3    3    0    0 -0.88032147768E+01  0.10419347265E+03 -0.56388036530E+02  0.14436573296E+03  0.82024861207E+02 0.  0.
         -6    2    1    2    0  502  0.86873878982E+02 -0.11124198835E+03 -0.10164464054E+03  0.25581006804E+03  0.18757746969E+03 0.  0.
        -24    2    5    5    0    0 -0.21340543471E+02 -0.87979451538E+02 -0.33086603197E+02  0.12552652598E+03  0.80413821732E+02 0.  0.
          5    1    3    3  501    0 -0.78070664205E+02  0.70485156972E+01  0.21277126736E+02  0.81360409937E+02  0.47000000000E+01 0. -1.
        -13    1    4    4    0    0  0.22024497676E+02  0.16246723500E+02  0.10858313549E+02  0.29443802328E+02  0.00000000000E+00 0.  1.
         14    1    4    4    0    0 -0.30827712453E+02  0.87946749149E+02 -0.67246350080E+02  0.11492193063E+03  0.00000000000E+00 0. -1.
         -5    1    5    5    0  502  0.10821442245E+03 -0.23262536809E+02 -0.68558037344E+02  0.13028354205E+03  0.47000000000E+01 0.  1.
         11    1    6    6    0    0 -0.31939951384E+02 -0.14366950566E+02 -0.37134836267E+02  0.51044743388E+02  0.00000000000E+00 0. -1.
        -12    1    6    6    0    0  0.10599407913E+02 -0.73612500972E+02  0.40482330697E+01  0.74481782594E+02  0.00000000000E+00 0.  1.
</event>
<event>
12    1  0.8798177E-003  0.3394045E+03  0.7818608E-02  0.1067342E+00
         21   -1    0    0  503  502  0.00000000000E+00  0.00000000000E+00  0.36094852108E+03  0.36094852108E+03  0.00000000000E+00 0.  1.
         21   -1    0    0  501  503 -0.00000000000E+00 -0.00000000000E+00 -0.33906809168E+03  0.33906809168E+03  0.00000000000E+00 0. -1.
          6    2    1    2  501    0 -0.15588878450E+02  0.28922909372E+03  0.10110612953E+03  0.35414380739E+03  0.17691496573E+03 0.  0.
         24    2    3    3    0    0  0.21678041409E+02  0.28060729402E+03  0.11365417925E+03  0.31361354342E+03  0.78903683205E+02 0.  0.
         -6    2    1    2    0  502  0.15588878450E+02 -0.28922909372E+03 -0.79225700126E+02  0.34587280537E+03  0.17162401973E+03 0.  0.
        -24    2    5    5    0    0 -0.70053376129E+01 -0.11546827983E+03 -0.95827671627E+02  0.16980169899E+03  0.79168654961E+02 0.  0.
          5    1    3    3  501    0 -0.37266919858E+02  0.86217997034E+01 -0.12548049715E+02  0.40530263970E+02  0.47000000000E+01 0. -1.
        -13    1    4    4    0    0  0.48422839497E+02  0.13971154131E+03  0.70763780098E+02  0.16392558901E+03  0.00000000000E+00 0.  1.
         14    1    4    4    0    0 -0.26744798088E+02  0.14089575271E+03  0.42890399147E+02  0.14968795441E+03  0.00000000000E+00 0. -1.
         -5    1    5    5    0  502  0.22594216063E+02 -0.17376081390E+03  0.16601971501E+02  0.17607110638E+03  0.47000000000E+01 0.  1.
         11    1    6    6    0    0  0.52772201778E+01 -0.12377826738E+03 -0.92474622873E+02  0.15459775032E+03  0.00000000000E+00 0. -1.
        -12    1    6    6    0    0 -0.12282557791E+02  0.83099875562E+01 -0.33530487532E+01  0.15203948665E+02  0.00000000000E+00 0.  1.
</event>
<event>
12    1  0.8798177E-003  0.2188790E+03  0.7818608E-02  0.1134958E+00
         21   -1    0    0  501  502  0.00000000000E+00  0.00000000000E+00  0.39719172570E+02  0.39719172570E+02  0.00000000000E+00 0.  1.
         21   -1    0    0  502  503 -0.00000000000E+00 -0.00000000000E+00 -0.13521117013E+04  0.13521117013E+04  0.00000000000E+00 0.  1.
          6    2    1    2  501    0 -0.71861732720E+02  0.10795466546E+03 -0.42054884075E+03  0.47352091215E+03  0.17476386460E+03 0.  0.
         24    2    3    3    0    0 -0.94434546924E+02  0.12322705902E+03 -0.40645150629E+03  0.44247896014E+03  0.80510940114E+02 0.  0.
         -6    2    1    2    0  503  0.71861732720E+02 -0.10795466546E+03 -0.89184368803E+03  0.91830996176E+03  0.17632272561E+03 0.  0.
        -24    2    5    5    0    0  0.12061331670E+02 -0.32134747574E+02 -0.20543334468E+03  0.22512456278E+03  0.85440575454E+02 0.  0.
          5    1    3    3  501    0  0.22572814204E+02 -0.15272393553E+02 -0.14097334459E+02  0.31041952013E+02  0.47000000000E+01 0. -1.
        -13    1    4    4    0    0  0.53557913473E+00  0.12696555424E+02 -0.23750100030E+01  0.12927878293E+02  0.00000000000E+00 0.  1.
         14    1    4    4    0    0 -0.94970126059E+02  0.11053050359E+03 -0.40407649628E+03  0.42955108185E+03  0.00000000000E+00 0. -1.
         -5    1    5    5    0  503  0.59800401050E+02 -0.75819917890E+02 -0.68641034334E+03  0.69318539898E+03  0.47000000000E+01 0.  1.
         11    1    6    6    0    0  0.40413514371E+02 -0.44758417706E+02 -0.12162287377E+03  0.13575231683E+03  0.00000000000E+00 0. -1.
        -12    1    6    6    0    0 -0.28352182701E+02  0.12623670132E+02 -0.83810470910E+02  0.89372245947E+02  0.00000000000E+00 0.  1.
</event>
<event>
12    1  0.8798177E-003  0.2142509E+03  0.7818608E-02  0.1138413E+00
         21   -1    0    0  503  502  0.00000000000E+00  0.00000000000E+00  0.14680120600E+03  0.14680120600E+03  0.00000000000E+00 0. -1.
         21   -1    0    0  501  503 -0.00000000000E+00 -0.00000000000E+00 -0.33153355890E+03  0.33153355890E+03  0.00000000000E+00 0. -1.
          6    2    1    2  501    0  0.11252389986E+03  0.58413779091E+02 -0.15110537419E+03  0.26146102944E+03  0.17162528421E+03 0.  0.
         24    2    3    3    0    0  0.12612564340E+03  0.20852677282E+02 -0.16022887974E+03  0.22021576123E+03  0.80493325936E+02 0.  0.
         -6    2    1    2    0  502 -0.11252389986E+03 -0.58413779091E+02 -0.33626978708E+02  0.21687373546E+03  0.17271261045E+03 0.  0.
        -24    2    5    5    0    0 -0.12953116049E+03 -0.90509165471E+02 -0.32463207434E+02  0.18022943025E+03  0.80365148657E+02 0.  0.
          5    1    3    3  501    0 -0.13601743534E+02  0.37561101809E+02  0.91235055491E+01  0.41245268211E+02  0.47000000000E+01 0. -1.
        -13    1    4    4    0    0  0.73097194162E+02  0.72650690997E+01 -0.30737597912E+02  0.79629020770E+02  0.00000000000E+00 0.  1.
         14    1    4    4    0    0  0.53028449236E+02  0.13587608182E+02 -0.12949128183E+03  0.14058674046E+03  0.00000000000E+00 0. -1.
         -5    1    5    5    0  502  0.17007260628E+02  0.32095386380E+02 -0.11637712741E+01  0.36644305212E+02  0.47000000000E+01 0.  1.
         13    1    6    6    0    0 -0.54654482390E+02 -0.82021524194E+02 -0.99828293521E+00  0.98567943294E+02  0.00000000000E+00 0. -1.
        -14    1    6    6    0    0 -0.74876678102E+02 -0.84876412764E+01 -0.31464924499E+02  0.81661486955E+02  0.00000000000E+00 0.  1.
</event>
<event>
12    1  0.8798177E-003  0.1827802E+03  0.7818608E-02  0.1165361E+00
         21   -1    0    0  501  502  0.00000000000E+00  0.00000000000E+00  0.87645219800E+02  0.87645219800E+02  0.00000000000E+00 0.  1.
         21   -1    0    0  502  503 -0.00000000000E+00 -0.00000000000E+00 -0.39147855603E+03  0.39147855603E+03  0.00000000000E+00 0. -1.
          6    2    1    2  501    0 -0.33021680321E+02 -0.51414220025E+02 -0.10993581919E+03  0.21329434722E+03  0.17226357951E+03 0.  0.
         24    2    3    3    0    0 -0.47197742162E+02 -0.59032648504E+02 -0.70287389011E+01  0.10903045915E+03  0.78267217900E+02 0.  0.
         -6    2    1    2    0  503  0.33021680321E+02  0.51414220025E+02 -0.19389751703E+03  0.26582942860E+03  0.17127517218E+03 0.  0.
        -24    2    5    5    0    0 -0.96879382174E+00  0.16679679770E+02 -0.17763340851E+02  0.83053120950E+02  0.79392281379E+02 0.  0.
          5    1    3    3  501    0  0.14176061841E+02  0.76184284786E+01 -0.10290708029E+03  0.10426388807E+03  0.47000000000E+01 0. -1.
        -13    1    4    4    0    0  0.87606756445E+01 -0.50916350616E+02  0.23309311997E+01  0.51717090387E+02  0.00000000000E+00 0.  1.
         14    1    4    4    0    0 -0.55958417807E+02 -0.81162978872E+01 -0.93596701009E+01  0.57313368765E+02  0.00000000000E+00 0. -1.
         -5    1    5    5    0  503  0.33990474143E+02  0.34734540255E+02 -0.17613417618E+03  0.18277630765E+03  0.47000000000E+01 0.  1.
         13    1    6    6    0    0 -0.16069007414E+02  0.40701463721E+02 -0.29042947584E+02  0.52519662534E+02  0.00000000000E+00 0. -1.
        -14    1    6    6    0    0  0.15100213592E+02 -0.24021783952E+02  0.11279606733E+02  0.30533458416E+02  0.00000000000E+00 0.  1.
</event>
<event>
12    1  0.8798177E-003  0.2983068E+03  0.7818608E-02  0.1086322E+00
         21   -1    0    0  503  502  0.00000000000E+00  0.00000000000E+00  0.89393982202E+02  0.89393982202E+02  0.00000000000E+00 0. -1.
         21   -1    0    0  501  503 -0.00000000000E+00 -0.00000000000E+00 -0.98969275527E+03  0.98969275527E+03  0.00000000000E+00 0. -1.
          6    2    1    2  501    0  0.18051025430E+03 -0.16290749476E+03 -0.43859813336E+03  0.52940098804E+03  0.16962983168E+03 0.  0.
         24    2    3    3    0    0  0.63779202213E+02 -0.90697715412E+01 -0.17303119468E+03  0.20101086559E+03  0.79470286019E+02 0.  0.
         -6    2    1    2    0  502 -0.18051025430E+03  0.16290749476E+03 -0.46170063970E+03  0.54968574943E+03  0.17281243782E+03 0.  0.
        -24    2    5    5    0    0 -0.17204043351E+03  0.72581098727E+02 -0.26923385433E+03  0.33685682950E+03  0.78228694285E+02 0.  0.
          5    1    3    3  501    0  0.11673105209E+03 -0.15383772322E+03 -0.26556693868E+03  0.32839012245E+03  0.47000000000E+01 0. -1.
        -11    1    4    4    0    0 -0.16493504261E+02  0.63386470849E+01 -0.52369883829E+02  0.55270415793E+02  0.00000000000E+00 0.  1.
         12    1    4    4    0    0  0.80272706474E+02 -0.15408418626E+02 -0.12066131085E+03  0.14574044979E+03  0.00000000000E+00 0. -1.
         -5    1    5    5    0  502 -0.84698207858E+01  0.90326396031E+02 -0.19246678538E+03  0.21282891993E+03  0.47000000000E+01 0.  1.
         13    1    6    6    0    0 -0.15364212769E+03  0.53064005890E+02 -0.26322694078E+03  0.30937051327E+03  0.00000000000E+00 0. -1.
        -14    1    6    6    0    0 -0.18398305820E+02  0.19517092836E+02 -0.60069135409E+01  0.27486316234E+02  0.00000000000E+00 0.  1.
</event>
<event>
12    1  0.8798177E-003  0.1873820E+03  0.7818608E-02  0.1162076E+00
         21   -1    0    0  503  502  0.00000000000E+00  0.00000000000E+00  0.56510211441E+03  0.56510211441E+03  0.00000000000E+00 0.  1.
         21   -1    0    0  501  503 -0.00000000000E+00 -0.00000000000E+00 -0.63538385608E+02  0.63538385608E+02  0.00000000000E+00 0.  1.
          6    2    1    2  501    0 -0.50541799597E+02  0.52383655585E+02  0.18427626035E+03  0.26281123604E+03  0.17266581821E+03 0.  0.
         24    2    3    3    0    0 -0.13596888814E+02  0.71075675480E+02  0.44594706931E+02  0.11704654756E+03  0.80464771042E+02 0.  0.
         -6    2    1    2    0  502  0.50541799597E+02 -0.52383655585E+02  0.31728746844E+03  0.36582926398E+03  0.16691672136E+03 0.  0.
        -24    2    5    5    0    0 -0.33071620717E+02 -0.27125065316E+02  0.12189432419E+03  0.15175037370E+03  0.79626932529E+02 0.  0.
          5    1    3    3  501    0 -0.36944910783E+02 -0.18692019895E+02  0.13968155342E+03  0.14576468848E+03  0.47000000000E+01 0. -1.
        -13    1    4    4    0    0 -0.45787179621E+01  0.75730769600E+02  0.61273939108E+02  0.97522355059E+02  0.00000000000E+00 0.  1.
         14    1    4    4    0    0 -0.90181708520E+01 -0.46550941198E+01 -0.16679232177E+02  0.19524192500E+02  0.00000000000E+00 0. -1.
         -5    1    5    5    0  502  0.83613420314E+02 -0.25258590269E+02  0.19539314426E+03  0.21407889028E+03  0.47000000000E+01 0.  1.
         11    1    6    6    0    0  0.92566074931E+01 -0.30301648861E+02  0.11891584601E+02  0.33842052100E+02  0.00000000000E+00 0. -1.
        -12    1    6    6    0    0 -0.42328228210E+02  0.31765835451E+01  0.11000273958E+03  0.11790832160E+03  0.00000000000E+00 0.  1.
</event>
<event>
12    1  0.8798177E-003  0.3291495E+03  0.7818608E-02  0.1071762E+00
         21   -1    0    0  501  502  0.00000000000E+00  0.00000000000E+00  0.13321840760E+03  0.13321840760E+03  0.00000000000E+00 0. -1.
         21   -1    0    0  502  503 -0.00000000000E+00 -0.00000000000E+00 -0.12097842782E+04  0.12097842782E+04  0.00000000000E+00 0.  1.
          6    2    1    2  501    0  0.36749848843E+02 -0.27460510162E+03 -0.15240299420E+03  0.36272035309E+03  0.17771006916E+03 0.  0.
         24    2    3    3    0    0  0.13669230508E+02 -0.17681671581E+03 -0.17132895815E+03  0.26037014326E+03  0.83594262659E+02 0.  0.
         -6    2    1    2    0  503 -0.36749848843E+02  0.27460510162E+03 -0.92416287642E+03  0.98028233272E+03  0.17354514243E+03 0.  0.
        -24    2    5    5    0    0 -0.49481829366E+02  0.22745850727E+03 -0.88141314113E+03  0.91520903133E+03  0.80824635482E+02 0.  0.
          5    1    3    3  501    0  0.23080618336E+02 -0.97788385807E+02  0.18925963944E+02  0.10235020983E+03  0.47000000000E+01 0. -1.
        -13    1    4    4    0    0 -0.29099437287E+02 -0.12415857160E+03 -0.12209915412E+03  0.17655121520E+03  0.00000000000E+00 0.  1.
         14    1    4    4    0    0  0.42768667795E+02 -0.52658144215E+02 -0.49229804023E+02  0.83818928061E+02  0.00000000000E+00 0. -1.
         -5    1    5    5    0  503  0.12731980522E+02  0.47146594345E+02 -0.42749735289E+02  0.65073301389E+02  0.47000000000E+01 0.  1.
         11    1    6    6    0    0  0.16961403390E+02  0.10311269274E+03 -0.33644944951E+03  0.35230405715E+03  0.00000000000E+00 0. -1.
        -12    1    6    6    0    0 -0.66443232756E+02  0.12434581454E+03 -0.54496369162E+03  0.56290497418E+03  0.00000000000E+00 0.  1.
</event>
<event>
12    1  0.8798177E-003  0.3300159E+03  0.7818608E-02  0.1071131E+00
         21   -1    0    0  503  502  0.00000000000E+00  0.00000000000E+00  0.52416965706E+03  0.52416965706E+03  0.00000000000E+00 0. -1.
         21   -1    0    0  501  503 -0.00000000000E+00 -0.00000000000E+00 -0.20868618803E+03  0.20868618803E+03  0.00000000000E+00 0.  1.
          6    2    1    2  501    0  0.35259395000E+02  0.27922617683E+03  0.13343232677E+03  0.35595650525E+03  0.17230892327E+03 0.  0.
         24    2    3    3    0    0 -0.13728070053E+02  0.22888766888E+03  0.14802734509E+03  0.28406184846E+03  0.78746517278E+02 0.  0.
         -6    2    1    2    0  502 -0.35259395000E+02 -0.27922617683E+03  0.18205114226E+03  0.37689933983E+03  0.17233691191E+03 0.  0.
        -24    2    5    5    0    0 -0.56245073990E+01 -0.14071381939E+03  0.23168186942E+02  0.16399141791E+03  0.80773796570E+02 0.  0.
          5    1    3    3  501    0  0.48987465053E+02  0.50338507947E+02 -0.14595018322E+02  0.71894656787E+02  0.47000000000E+01 0. -1.
        -11    1    4    4    0    0  0.37162043305E+01  0.20794685773E+03  0.10462952052E+03  0.23281546851E+03  0.00000000000E+00 0.  1.
         12    1    4    4    0    0 -0.17444274384E+02  0.20940811151E+02  0.43397824570E+02  0.51246379949E+02  0.00000000000E+00 0. -1.
         -5    1    5    5    0  502 -0.29634887601E+02 -0.13851235744E+03  0.15888295532E+03  0.21290792192E+03  0.47000000000E+01 0.  1.
         13    1    6    6    0    0  0.33268477066E+02 -0.10076610522E+03  0.91969320968E+01  0.10651376948E+03  0.00000000000E+00 0. -1.
        -14    1    6    6    0    0 -0.38892984465E+02 -0.39947714162E+02  0.13971254845E+02  0.57477648433E+02  0.00000000000E+00 0.  1.
</event>
<event>
12    1  0.8798177E-003  0.2553926E+03  0.7818608E-02  0.1110413E+00
         21   -1    0    0  503  502  0.00000000000E+00  0.00000000000E+00  0.38680233484E+03  0.38680233484E+03  0.00000000000E+00 0.  1.
         21   -1    0    0  501  503 -0.00000000000E+00 -0.00000000000E+00 -0.17926061744E+03  0.17926061744E+03  0.00000000000E+00 0.  1.
          6    2    1    2  501    0 -0.87216007307E+02  0.16634815310E+03  0.29215900766E+02  0.25705829323E+03  0.17305218083E+03 0.  0.
         24    2    3    3    0    0 -0.11524944166E+03  0.89259770627E+02  0.47141484012E+02  0.17296365197E+03  0.80276801966E+02 0.  0.
         -6    2    1    2    0  502  0.87216007307E+02 -0.16634815310E+03  0.17832581664E+03  0.30900465905E+03  0.16853914223E+03 0.  0.
        -24    2    5    5    0    0  0.80215360234E+02 -0.88881462189E+02  0.18058093633E+03  0.23104779389E+03  0.80244564668E+02 0.  0.
          5    1    3    3  501    0  0.28033434349E+02  0.77088382475E+02 -0.17925583246E+02  0.84094641260E+02  0.47000000000E+01 0. -1.
        -11    1    4    4    0    0 -0.12637354132E+03  0.83183772393E+02  0.51090622276E+02  0.15968739343E+03  0.00000000000E+00 0.  1.
         12    1    4    4    0    0  0.11124099664E+02  0.60759982333E+01 -0.39491382634E+01  0.13276258543E+02  0.00000000000E+00 0. -1.
         -5    1    5    5    0  502  0.70006470730E+01 -0.77466690913E+02 -0.22551196899E+01  0.77956865158E+02  0.47000000000E+01 0.  1.
         11    1    6    6    0    0  0.34417077223E+02  0.77969845713E+01  0.62026869731E+02  0.71362880698E+02  0.00000000000E+00 0. -1.
        -12    1    6    6    0    0  0.45798283011E+02 -0.96678446760E+02  0.11855406659E+03  0.15968491319E+03  0.00000000000E+00 0.  1.
</event>
<event>
12    1  0.8798177E-003  0.2215649E+03  0.7818608E-02  0.1132797E+00
         21   -1    0    0  503  502  0.00000000000E+00  0.00000000000E+00  0.68613057321E+03  0.68613057321E+03  0.00000000000E+00 0. -1.
         21   -1    0    0  501  503 -0.00000000000E+00 -0.00000000000E+00 -0.81650788527E+02  0.81650788527E+02  0.00000000000E+00 0.  1.
          6    2    1    2  501    0 -0.13789683014E+03  0.18412796228E+01  0.16657075599E+03  0.27719452328E+03  0.17341297793E+03 0.  0.
         24    2    3    3    0    0 -0.16335633320E+03 -0.21623859779E+02  0.12167753930E+03  0.22030612405E+03  0.81095510444E+02 0.  0.
         -6    2    1    2    0  502  0.13789683014E+03 -0.18412796228E+01  0.43790902869E+03  0.49058683846E+03  0.17289361637E+03 0.  0.
        -24    2    5    5    0    0  0.72644236717E+02  0.49843786091E+02  0.34861176723E+03  0.36841753842E+03  0.80247929715E+02 0.  0.
          5    1    3    3  501    0  0.25459503058E+02  0.23465139402E+02  0.44893216688E+02  0.56888399236E+02  0.47000000000E+01 0. -1.
        -13    1    4    4    0    0 -0.21101274410E+02 -0.10654996736E+02 -0.10450924232E+02  0.25845977530E+02  0.00000000000E+00 0.  1.
         14    1    4    4    0    0 -0.14225505879E+03 -0.10968863043E+02  0.13212846354E+03  0.19446014652E+03  0.00000000000E+00 0. -1.
         -5    1    5    5    0  502  0.65252593425E+02 -0.51685065714E+02  0.89297261468E+02  0.12216930004E+03  0.47000000000E+01 0.  1.
         13    1    6    6    0    0  0.33109988249E+01 -0.20276611900E+02  0.58006773890E+02  0.61537708118E+02  0.00000000000E+00 0. -1.
        -14    1    6    6    0    0  0.69333237892E+02  0.70120397991E+02  0.29060499334E+03  0.30687983030E+03  0.00000000000E+00 0.  1.
</event>
<event>
12    1  0.8798177E-003  0.2236901E+03  0.7818608E-02  0.1131257E+00
         21   -1    0    0  501  502  0.00000000000E+00  0.00000000000E+00  0.24499365109E+03  0.24499365109E+03  0.00000000000E+00 0. -1.
         21   -1    0    0  502  503 -0.00000000000E+00 -0.00000000000E+00 -0.20429774518E+03  0.20429774518E+03  0.00000000000E+00 0. -1.
          6    2    1    2  501    0 -0.89997593589E+02  0.11051109016E+03  0.31899518759E+02  0.22595319678E+03  0.17240939631E+03 0.  0.
         24    2    3    3    0    0 -0.54156264438E+02  0.11843286706E+03 -0.27007800323E+02  0.15638655487E+03  0.82268391795E+02 0.  0.
         -6    2    1    2    0  503  0.89997593589E+02 -0.11051109016E+03  0.87963871443E+01  0.22333819950E+03  0.17172742072E+03 0.  0.
        -24    2    5    5    0    0  0.22612044502E+01 -0.99686870867E+02  0.32313514675E+02  0.13174134917E+03  0.79806231471E+02 0.  0.
          5    1    3    3  501    0 -0.35841329150E+02 -0.79217768997E+01  0.58907319081E+02  0.69566641905E+02  0.47000000000E+01 0. -1.
        -11    1    4    4    0    0  0.34288915361E+01  0.75816607257E+01 -0.30305306237E+02  0.31426906667E+02  0.00000000000E+00 0.  1.
         12    1    4    4    0    0 -0.57585155975E+02  0.11085120633E+03  0.32975059144E+01  0.12495964820E+03  0.00000000000E+00 0. -1.
         -5    1    5    5    0  503  0.87736389139E+02 -0.10824219292E+02 -0.23517127530E+02  0.91596850326E+02  0.47000000000E+01 0.  1.
         11    1    6    6    0    0 -0.31499545065E+02 -0.24226964130E+02 -0.67511521538E+01  0.40308128035E+02  0.00000000000E+00 0. -1.
        -12    1    6    6    0    0  0.33760749516E+02 -0.75459906737E+02  0.39064666829E+02  0.91433221135E+02  0.00000000000E+00 0.  1.
</event>
<event>
12    1  0.8798177E-003  0.1853659E+03  0.7818608E-02  0.1164282E+00
         21   -1    0    0  501  502  0.00000000000E+00  0.00000000000E+00  0.25149021318E+03  0.25149021318E+03  0.00000000000E+00 0.  1.
         21   -1    0    0  502  503 -0.00000000000E+00 -0.00000000000E+00 -0.20127651355E+03  0.20127651355E+03  0.00000000000E+00 0.  1.
          6    2    1    2  501    0 -0.33890293333E+02  0.35021695195E+02  0.15840701829E+03  0.24383047839E+03  0.17884475847E+03 0.  0.
         24    2    3    3    0    0 -0.48285234846E+02  0.82182075027E+02  0.14723571026E+03  0.19305446151E+03  0.80661721858E+02 0.  0.
         -6    2    1    2    0  503  0.33890293333E+02 -0.35021695195E+02 -0.10819331866E+03  0.20893624834E+03  0.17196944656E+03 0.  0.
        -24    2    5    5    0    0  0.78026026782E+02 -0.39446173662E+02 -0.34022670283E+02  0.12238618157E+03  0.78592454309E+02 0.  0.
          5    1    3    3  501    0  0.14394941513E+02 -0.47160379831E+02  0.11171308026E+02  0.50776016878E+02  0.47000000000E+01 0. -1.
        -11    1    4    4    0    0 -0.55876485890E+02  0.16795875648E+02  0.79384717588E+02  0.98520132463E+02  0.00000000000E+00 0.  1.
         12    1    4    4    0    0  0.75912510433E+01  0.65386199379E+02  0.67850992674E+02  0.94534329048E+02  0.00000000000E+00 0. -1.
         -5    1    5    5    0  503 -0.44135733449E+02  0.44244784662E+01 -0.74170648380E+02  0.86550066770E+02  0.47000000000E+01 0.  1.
         13    1    6    6    0    0  0.57346167330E+02 -0.58793133339E+02 -0.42965220484E+02  0.92688864523E+02  0.00000000000E+00 0. -1.
        -14    1    6    6    0    0  0.20679859452E+02  0.19346959678E+02  0.89425502011E+01  0.29697317048E+02  0.00000000000E+00 0.  1.
</event>
<event>
12    1  0.8798177E-003  0.2662770E+03  0.7818608E-02  0.1103824E+00
         21   -1    0    0  503  502  0.00000000000E+00  0.00000000000E+00  0.10866855454E+03  0.10866855454E+03  0.00000000000E+00 0. -1.
         21   -1    0    0  501  503 -0.00000000000E+00 -0.00000000000E+00 -0.65300126870E+03  0.65300126870E+03  0.00000000000E+00 0. -1.
          6    2    1    2  501    0  0.13883227374E+03 -0.14409974655E+03 -0.31054620330E+03  0.40732599638E+03  0.17157035220E+03 0.  0.
         24    2    3    3    0    0  0.76507281484E+02 -0.48921307300E+02 -0.75523039668E+02  0.14617217695E+03  0.86115720783E+02 0.  0.
         -6    2    1    2    0  502 -0.13883227374E+03  0.14409974655E+03 -0.23378651085E+03  0.35434382686E+03  0.17568232065E+03 0.  0.
        -24    2    5    5    0    0 -0.69633432797E+02  0.68495451814E+02 -0.22064257246E+03  0.25090620272E+03  0.68777437427E+02 0.  0.
          5    1    3    3  501    0  0.62324992256E+02 -0.95178439255E+02 -0.23502316363E+03  0.26115381943E+03  0.47000000000E+01 0. -1.
        -13    1    4    4    0    0 -0.10875512030E+02 -0.34911539537E+02 -0.19649307475E+02  0.41511295318E+02  0.00000000000E+00 0.  1.
         14    1    4    4    0    0  0.87382793514E+02 -0.14009767762E+02 -0.55873732193E+02  0.10466088163E+03  0.00000000000E+00 0. -1.
         -5    1    5    5    0  502 -0.69198840943E+02  0.75604294740E+02 -0.13143938391E+02  0.10343762414E+03  0.47000000000E+01 0.  1.
         13    1    6    6    0    0 -0.68796328567E+01  0.13326896983E+02 -0.27228591658E-01  0.14997875611E+02  0.00000000000E+00 0. -1.
        -14    1    6    6    0    0 -0.62753799940E+02  0.55168554831E+02 -0.22061534387E+03  0.23590832711E+03  0.00000000000E+00 0.  1.
</event>
<event>
12    1  0.8798177E-003  0.1843730E+03  0.7818608E-02  0.1163847E+00
         21   -1    0    0  503  502  0.00000000000E+00  0.00000000000E+00  0.28143599333E+03  0.28143599333E+03  0.00000000000E+00 0.  1.
         21   -1    0    0  501  503 -0.00000000000E+00 -0.00000000000E+00 -0.14262328257E+03  0.14262328257E+03  0.00000000000E+00 0.  1.
          6    2    1    2  501    0  0.44799680020E+02  0.46117658700E+02 -0.14521176443E+02  0.18494395790E+03  0.17279917020E+03 0.  0.
         24    2    3    3    0    0  0.38275213078E+01  0.89975368189E+02 -0.28611540766E+02  0.12311479942E+03  0.78920319127E+02 0.  0.
         -6    2    1    2    0  502 -0.44799680020E+02 -0.46117658700E+02  0.15333388720E+03  0.23911531801E+03  0.17184587445E+03 0.  0.
        -24    2    5    5    0    0 -0.43534624248E+02 -0.91951811502E+02  0.78817710873E+02  0.15149613937E+03  0.79927777091E+02 0.  0.
          5    1    3    3  501    0  0.40972158713E+02 -0.43857709489E+02  0.14090364322E+02  0.61829158477E+02  0.47000000000E+01 0. -1.
        -11    1    4    4    0    0  0.31796027025E+02  0.76045850325E+02 -0.26117784375E+01  0.82466842262E+02  0.00000000000E+00 0.  1.
         12    1    4    4    0    0 -0.27968505717E+02  0.13929517864E+02 -0.25999762328E+02  0.40647957157E+02  0.00000000000E+00 0. -1.
         -5    1    5    5    0  502 -0.12650557727E+01  0.45834152803E+02  0.74516176331E+02  0.87619178632E+02  0.47000000000E+01 0.  1.
         11    1    6    6    0    0  0.17401884441E+02  0.99231285428E+00  0.52101438403E+01  0.18192192439E+02  0.00000000000E+00 0. -1.
        -12    1    6    6    0    0 -0.60936508689E+02 -0.92944124357E+02  0.73607567033E+02  0.13330394693E+03  0.00000000000E+00 0.  1.
</event>
<event>
12    1  0.8798177E-003  0.1772027E+03  0.7818608E-02  0.1171538E+00
         21   -1    0    0  501  502  0.00000000000E+00  0.00000000000E+00  0.80874118861E+02  0.80874118861E+02  0.00000000000E+00 0.  1.
         21   -1    0    0  502  503 -0.00000000000E+00 -0.00000000000E+00 -0.53890711138E+03  0.53890711138E+03  0.00000000000E+00 0.  1.
          6    2    1    2  501    0 -0.90835529247E+01  0.19205322831E+02 -0.39936213829E+03  0.43691066635E+03  0.17592457905E+03 0.  0.
         24    2    3    3    0    0 -0.20226533651E+02  0.80154494589E+02 -0.26746844059E+03  0.29111284384E+03  0.79833986921E+02 0.  0.
         -6    2    1    2    0  503  0.90835529247E+01 -0.19205322831E+02 -0.58670854228E+02  0.18287056389E+03  0.17189537121E+03 0.  0.
        -24    2    5    5    0    0 -0.32659262503E+02  0.44323713930E+02 -0.30636768064E+02  0.10171391820E+03  0.79849173792E+02 0.  0.
          5    1    3    3  501    0  0.11142980727E+02 -0.60949171757E+02 -0.13189369770E+03  0.14579782252E+03  0.47000000000E+01 0. -1.
        -13    1    4    4    0    0 -0.18281564661E+02  0.40658728661E+02 -0.23709755423E+03  0.24125214620E+03  0.00000000000E+00 0.  1.
         14    1    4    4    0    0 -0.19449689900E+01  0.39495765927E+02 -0.30370886357E+02  0.49860697635E+02  0.00000000000E+00 0. -1.
         -5    1    5    5    0  503  0.41742815428E+02 -0.63529036762E+02 -0.28034086164E+02  0.81156645684E+02  0.47000000000E+01 0.  1.
         11    1    6    6    0    0 -0.16284732095E+02 -0.21631865929E+02  0.22358176288E+00  0.27077298827E+02  0.00000000000E+00 0. -1.
        -12    1    6    6    0    0 -0.16374530408E+02  0.65955579859E+02 -0.30860349827E+02  0.74636619377E+02  0.00000000000E+00 0.  1.
</event>
<event>
12    1  0.8798177E-003  0.2989525E+03  0.7818608E-02  0.1085833E+00
         21   -1    0    0  501  502  0.00000000000E+00  0.00000000000E+00  0.29527993285E+03  0.29527993285E+03  0.00000000000E+00 0.  1.
         21   -1    0    0  502  503 -0.00000000000E+00 -0.00000000000E+00 -0.31592454190E+03  0.31592454190E+03  0.00000000000E+00 0.  1.
          6    2    1    2  501    0  0.37712959049E+02 -0.24181407546E+03  0.53538621039E+02  0.30370869828E+03  0.17168656062E+03 0.  0.
         24    2    3    3    0    0  0.79268494890E+02 -0.14186328111E+03 -0.31535651094E+01  0.18142575662E+03  0.80601956448E+02 0.  0.
         -6    2    1    2    0  503 -0.37712959049E+02  0.24181407546E+03 -0.74183230080E+02  0.30749577647E+03  0.17074597081E+03 0.  0.
        -24    2    5    5    0    0 -0.68014323183E+02  0.20558472451E+03 -0.10302504730E+03  0.25195589027E+03  0.77308364103E+02 0.  0.
          5    1    3    3  501    0 -0.41555535841E+02 -0.99950794349E+02  0.56692186149E+02  0.12228294166E+03  0.47000000000E+01 0. -1.
        -13    1    4    4    0    0  0.55095280811E+02 -0.10234119798E+03  0.35026239558E+02  0.12139212590E+03  0.00000000000E+00 0.  1.
         14    1    4    4    0    0  0.24173214079E+02 -0.39522083133E+02 -0.38179804667E+02  0.60033630729E+02  0.00000000000E+00 0. -1.
         -5    1    5    5    0  503  0.30301364134E+02  0.36229350956E+02  0.28841817216E+02  0.55539886203E+02  0.47000000000E+01 0.  1.
         13    1    6    6    0    0 -0.64675442107E+02  0.94992573996E+02 -0.28019305050E+02  0.11828602361E+03  0.00000000000E+00 0. -1.
        -14    1    6    6    0    0 -0.33388810762E+01  0.11059215051E+03 -0.75005742247E+02  0.13366986666E+03  0.00000000000E+00 0.  1.
</event>
<event>
12    1  0.8798177E-003  0.2537536E+03  0.7818608E-02  0.1111852E+00
         21   -1    0    0  503  502  0.00000000000E+00  0.00000000000E+00  0.22786394138E+03  0.22786394138E+03  0.00000000000E+00 0.  1.
         21   -1    0    0  501  503 -0.00000000000E+00 -0.00000000000E+00 -0.37219309766E+03  0.37219309766E+03  0.00000000000E+00 0. -1.
          6    2    1    2  501    0 -0.15015639483E+03  0.10000974268E+03 -0.22509417481E+03  0.33920242506E+03  0.17844328536E+03 0.  0.
         24    2    3    3    0    0 -0.16162812922E+03  0.65173066525E+02 -0.23239179059E+03  0.30151237475E+03  0.80824421056E+02 0.  0.
         -6    2    1    2    0  502  0.15015639483E+03 -0.10000974268E+03  0.80765018533E+02  0.26085461397E+03  0.17021530446E+03 0.  0.
        -24    2    5    5    0    0  0.85229346925E+01 -0.41775750710E+02  0.23216607900E+01  0.88730573745E+02  0.77780915687E+02 0.  0.
          5    1    3    3  501    0  0.11471734396E+02  0.34836676159E+02  0.72976157794E+01  0.37690050304E+02  0.47000000000E+01 0. -1.
        -13    1    4    4    0    0  0.28361175985E+01  0.92302882235E+01 -0.44842589065E+02  0.45870465201E+02  0.00000000000E+00 0.  1.
         14    1    4    4    0    0 -0.16446424682E+03  0.55942778302E+02 -0.18754920153E+03  0.25564190955E+03  0.00000000000E+00 0. -1.
         -5    1    5    5    0  502  0.14163346013E+03 -0.58233991974E+02  0.78443357743E+02  0.17212404023E+03  0.47000000000E+01 0.  1.
         13    1    6    6    0    0  0.17489581691E+01 -0.15303206380E+02  0.39611360699E+02  0.42500669132E+02  0.00000000000E+00 0. -1.
        -14    1    6    6    0    0  0.67739765234E+01 -0.26472544331E+02 -0.37289699909E+02  0.46229904614E+02  0.00000000000E+00 0.  1.
</event>
<event>
12    1  0.8798177E-003  0.3047838E+03  0.7818608E-02  0.1083270E+00
         21   -1    0    0  501  502  0.00000000000E+00  0.00000000000E+00  0.36295663752E+03  0.36295663752E+03  0.00000000000E+00 0. -1.
         21   -1    0    0  502  503 -0.00000000000E+00 -0.00000000000E+00 -0.25780135657E+03  0.25780135657E+03  0.00000000000E+00 0.  1.
          6    2    1    2  501    0  0.24489426475E+03  0.32241985132E+02  0.11010046625E+02  0.30176509065E+03  0.17299769448E+03 0.  0.
         24    2    3    3    0    0  0.21250557334E+03  0.57190560000E+02  0.52381274642E+02  0.24341162266E+03  0.89866797302E+02 0.  0.
         -6    2    1    2    0  503 -0.24489426475E+03 -0.32241985132E+02  0.94145234322E+02  0.31899290344E+03  0.17855083532E+03 0.  0.
        -24    2    5    5    0    0 -0.24631709944E+03  0.45956593843E+01  0.10708062213E+03  0.27964254424E+03  0.77720392125E+02 0.  0.
          5    1    3    3  501    0  0.32388691404E+02 -0.24948574868E+02 -0.41371228017E+02  0.58353467990E+02  0.47000000000E+01 0. -1.
        -13    1    4    4    0    0  0.18814381501E+03  0.24595269063E+02  0.18841658746E+02  0.19067781856E+03  0.00000000000E+00 0.  1.
         14    1    4    4    0    0  0.24361758336E+02  0.32595290937E+02  0.33539615896E+02  0.52733804101E+02  0.00000000000E+00 0. -1.
         -5    1    5    5    0  503  0.14228346931E+01 -0.36837644517E+02 -0.12935387803E+02  0.39350359207E+02  0.47000000000E+01 0.  1.
         11    1    6    6    0    0 -0.15274736875E+03  0.26856789248E+01  0.24290592002E+02  0.15469002680E+03  0.00000000000E+00 0. -1.
        -12    1    6    6    0    0 -0.93569730690E+02  0.19099804596E+01  0.82790030123E+02  0.12495251744E+03  0.00000000000E+00 0.  1.
</event>
<event>
12    1  0.8798177E-003  0.2235073E+03  0.7818608E-02  0.1131834E+00
         21   -1    0    0  503  502  0.00000000000E+00  0.00000000000E+00  0.57583487480E+02  0.57583487480E+02  0.00000000000E+00 0. -1.
         21   -1    0    0  501  503 -0.00000000000E+00 -0.00000000000E+00 -0.91421318920E+03  0.91421318920E+03  0.00000000000E+00 0. -1.
          6    2    1    2  501    0 -0.26824865740E+02  0.13678893257E+03 -0.55337393643E+03  0.59680670824E+03  0.17471333087E+03 0.  0.
         24    2    3    3    0    0 -0.51908664836E+01  0.13010043484E+02 -0.33607389084E+03  0.34574766515E+03  0.79997384465E+02 0.  0.
         -6    2    1    2    0  502  0.26824865740E+02 -0.13678893257E+03 -0.30325576529E+03  0.37498996844E+03  0.17094628324E+03 0.  0.
        -24    2    5    5    0    0  0.33911976845E+02 -0.15375705876E+03 -0.18632565818E+03  0.25652949234E+03  0.79365447453E+02 0.  0.
          5    1    3    3  501    0 -0.21633999256E+02  0.12377888909E+03 -0.21730004559E+03  0.25105904310E+03  0.47000000000E+01 0. -1.
        -13    1    4    4    0    0 -0.22948680164E+02 -0.12089420983E+02 -0.28467816824E+03  0.28585740412E+03  0.00000000000E+00 0.  1.
         14    1    4    4    0    0  0.17757813680E+02  0.25099464467E+02 -0.51395722605E+02  0.59890261022E+02  0.00000000000E+00 0. -1.
         -5    1    5    5    0  502 -0.70871111054E+01  0.16968126191E+02 -0.11693010711E+03  0.11846047610E+03  0.47000000000E+01 0.  1.
         11    1    6    6    0    0  0.38758267050E+02 -0.13651604809E+03 -0.11402982071E+03  0.18204844043E+03  0.00000000000E+00 0. -1.
        -12    1    6    6    0    0 -0.48462902047E+01 -0.17241010669E+02 -0.72295837470E+02  0.74481051907E+02  0.00000000000E+00 0.  1.
</event>
<event>
12    1  0.8798177E-003  0.1767017E+03  0.7818608E-02  0.1171361E+00
         21   -1    0    0  501  502  0.00000000000E+00  0.00000000000E+00  0.57081127046E+03  0.57081127046E+03  0.00000000000E+00 0.  1.
         21   -1    0    0  502  503 -0.00000000000E+00 -0.00000000000E+00 -0.15729470584E+03  0.15729470584E+03  0.00000000000E+00 0.  1.
          6    2    1    2  501    0  0.34897539569E+02  0.85211876967E+01  0.50108784600E+03  0.53089483377E+03  0.17166783686E+03 0.  0.
         24    2    3    3    0    0  0.59325980062E+02  0.49750275318E+02  0.23808859501E+03  0.26352377626E+03  0.82243174674E+02 0.  0.
         -6    2    1    2    0  503 -0.34897539569E+02 -0.85211876967E+01 -0.87571281376E+02  0.19721114252E+03  0.17301172361E+03 0.  0.
        -24    2    5    5    0    0 -0.93044235138E+01 -0.15175236258E+02  0.18565565243E+02  0.87728704835E+02  0.83873627242E+02 0.  0.
          5    1    3    3  501    0 -0.24428440493E+02 -0.41229087621E+02  0.26299925099E+03  0.26737105751E+03  0.47000000000E+01 0. -1.
        -13    1    4    4    0    0  0.50517559886E+02 -0.10869727330E+02  0.11163212513E+03  0.12301181321E+03  0.00000000000E+00 0.  1.
         14    1    4    4    0    0  0.88084201762E+01  0.60620002648E+02  0.12645646988E+03  0.14051196305E+03  0.00000000000E+00 0. -1.
         -5    1    5    5    0  503 -0.25593116055E+02  0.66540485610E+01 -0.10613684662E+03  0.10948243769E+03  0.47000000000E+01 0.  1.
         11    1    6    6    0    0  0.26674163500E+01 -0.47688207490E+02  0.22614329395E+02  0.52845890452E+02  0.00000000000E+00 0. -1.
        -12    1    6    6    0    0 -0.11971839864E+02  0.32512971233E+02 -0.40487641524E+01  0.34882814383E+02  0.00000000000E+00 0.  1.
</event>
<event>
12    1  0.8798177E-003  0.2236528E+03  0.7818608E-02  0.1131883E+00
         21   -1    0    0  503  502  0.00000000000E+00  0.00000000000E+00  0.25080274468E+03  0.25080274468E+03  0.00000000000E+00 0.  1.
         21   -1    0    0  501  503 -0.00000000000E+00 -0.00000000000E+00 -0.20524773692E+03  0.20524773692E+03  0.00000000000E+00 0. -1.
          6    2    1    2  501    0 -0.10246448935E+03 -0.89645076868E+02 -0.25193397622E+02  0.22506730468E+03  0.17744118172E+03 0.  0.
         24    2    3    3    0    0 -0.68893249758E+02 -0.19081874487E+02 -0.76025546460E+02  0.13172818634E+03  0.80386774815E+02 0.  0.
         -6    2    1    2    0  502  0.10246448935E+03  0.89645076868E+02  0.70748405379E+02  0.23098317692E+03  0.17266348708E+03 0.  0.
        -24    2    5    5    0    0  0.10977758305E+03  0.50591431458E+02  0.10429998690E+03  0.17876759321E+03  0.80428567309E+02 0.  0.
          5    1    3    3  501    0 -0.33571239592E+02 -0.70563202381E+02  0.50832148837E+02  0.93339118345E+02  0.47000000000E+01 0. -1.
        -13    1    4    4    0    0 -0.81929085396E+02 -0.26944394216E+02 -0.45255813965E+02  0.97398481052E+02  0.00000000000E+00 0.  1.
         14    1    4    4    0    0  0.13035835638E+02  0.78625197284E+01 -0.30769732494E+02  0.34329705286E+02  0.00000000000E+00 0. -1.
         -5    1    5    5    0  502 -0.73130936979E+01  0.39053645410E+02 -0.33551581517E+02  0.52215583704E+02  0.47000000000E+01 0.  1.
         11    1    6    6    0    0  0.17539676763E+02 -0.18251379221E+01 -0.12013572544E+02  0.21337697033E+02  0.00000000000E+00 0. -1.
        -12    1    6    6    0    0  0.92237906285E+02  0.52416569380E+02  0.11631355944E+03  0.15742989618E+03  0.00000000000E+00 0.  1.
</event>
<event>
12    1  0.8798177E-003  0.1861054E+03  0.7818608E-02  0.1162078E+00
         21   -1    0    0  503  502  0.00000000000E+00  0.00000000000E+00  0.85240175205E+02  0.85240175205E+02  0.00000000000E+00 0. -1.
         21   -1    0    0  501  503 -0.00000000000E+00 -0.00000000000E+00 -0.44858314740E+03  0.44858314740E+03  0.00000000000E+00 0.  1.
          6    2    1    2  501    0  0.60901056330E+02 -0.34081973271E+02 -0.26420827848E+03  0.32317366980E+03  0.17252445296E+03 0.  0.
         24    2    3    3    0    0  0.11326003999E+02  0.27064420851E+02 -0.21113544015E+03  0.22811903553E+03  0.81236439116E+02 0.  0.
         -6    2    1    2    0  502 -0.60901056330E+02  0.34081973271E+02 -0.99134693717E+02  0.21064965281E+03  0.17226453252E+03 0.  0.
        -24    2    5    5    0    0 -0.24871998167E+02 -0.46479536735E+02 -0.34176526445E+02  0.10096873641E+03  0.79042312368E+02 0.  0.
          5    1    3    3  501    0  0.49575052331E+02 -0.61146394122E+02 -0.53072838328E+02  0.95054634269E+02  0.47000000000E+01 0. -1.
        -11    1    4    4    0    0 -0.10250361023E+02 -0.70844143370E+01 -0.17003710504E+03  0.17049303774E+03  0.00000000000E+00 0.  1.
         12    1    4    4    0    0  0.21576365022E+02  0.34148835188E+02 -0.41098335113E+02  0.57625997791E+02  0.00000000000E+00 0. -1.
         -5    1    5    5    0  502 -0.36029058163E+02  0.80561510007E+02 -0.64958167272E+02  0.10968091640E+03  0.47000000000E+01 0.  1.
         13    1    6    6    0    0 -0.46332808899E+02 -0.49653920450E+02 -0.39588272307E+02  0.78609619645E+02  0.00000000000E+00 0. -1.
        -14    1    6    6    0    0  0.21460810732E+02  0.31743837143E+01  0.54117458619E+01  0.22359116765E+02  0.00000000000E+00 0.  1.
</event>
<event>
12    1  0.8798177E-003  0.2045725E+03  0.7818608E-02  0.1146017E+00
         21   -1    0    0  501  502  0.00000000000E+00  0.00000000000E+00  0.31829968257E+03  0.31829968257E+03  0.00000000000E+00 0. -1.
         21   -1    0    0  502  503 -0.00000000000E+00 -0.00000000000E+00 -0.14314026532E+03  0.14314026532E+03  0.00000000000E+00 0. -1.
          6    2    1    2  501    0 -0.10880471145E+03  0.17604851307E+02  0.20957392457E+02  0.20526001610E+03  0.17188387326E+03 0.  0.
         24    2    3    3    0    0 -0.26990539660E+02 -0.39064638719E+02  0.44130333054E+02  0.10296600366E+03  0.79999852403E+02 0.  0.
         -6    2    1    2    0  503  0.10880471145E+03 -0.17604851307E+02  0.15420202480E+03  0.25617993179E+03  0.17234122251E+03 0.  0.
        -24    2    5    5    0    0 -0.18575168895E+01 -0.17050667107E+02  0.17369177508E+02  0.80135181797E+02  0.76326819772E+02 0.  0.
          5    1    3    3  501    0 -0.81814171791E+02  0.56669490026E+02 -0.23172940597E+02  0.10229401244E+03  0.47000000000E+01 0. -1.
        -11    1    4    4    0    0 -0.37089871528E+02 -0.14187886958E+02  0.59870893452E+02  0.71843431078E+02  0.00000000000E+00 0.  1.
         12    1    4    4    0    0  0.10099331868E+02 -0.24876751761E+02 -0.15740560398E+02  0.31122572580E+02  0.00000000000E+00 0. -1.
         -5    1    5    5    0  503  0.11066222834E+03 -0.55418420018E+00  0.13683284729E+03  0.17604474999E+03  0.47000000000E+01 0.  1.
         13    1    6    6    0    0  0.32459415507E+02 -0.27301645975E+02  0.92992546977E+01  0.43421995187E+02  0.00000000000E+00 0. -1.
        -14    1    6    6    0    0 -0.34316932397E+02  0.10250978869E+02  0.80699228103E+01  0.36713186610E+02  0.00000000000E+00 0.  1.
</event>
<event>
12    1  0.8798177E-003  0.1874207E+03  0.7818608E-02  0.1161124E+00
         21   -1    0    0  503  502  0.00000000000E+00  0.00000000000E+00  0.20068908568E+03  0.20068908568E+03  0.00000000000E+00 0.  1.
         21   -1    0    0  501  503 -0.00000000000E+00 -0.00000000000E+00 -0.17486419359E+03  0.17486419359E+03  0.00000000000E+00 0.  1.
          6    2    1    2  501    0  0.23986864088E+02 -0.67208784813E+02 -0.20952168335E+01  0.18606440145E+03  0.17182311006E+03 0.  0.
         24    2    3    3    0    0  0.39558637359E+02 -0.94297451719E+02  0.37457779333E+02  0.13544024217E+03  0.80523777702E+02 0.  0.
         -6    2    1    2    0  502 -0.23986864088E+02  0.67208784813E+02  0.27920108932E+02  0.18948887782E+03  0.17330352544E+03 0.  0.
        -24    2    5    5    0    0 -0.38004207263E+01  0.40492655873E+02 -0.50422109847E+02  0.10416105537E+03  0.81566156685E+02 0.  0.
          5    1    3    3  501    0 -0.15571773271E+02  0.27088666906E+02 -0.39552996167E+02  0.50624159285E+02  0.47000000000E+01 0. -1.
        -11    1    4    4    0    0  0.44586482175E+02 -0.71495032675E+02 -0.76929668334E+01  0.84608958324E+02  0.00000000000E+00 0.  1.
         12    1    4    4    0    0 -0.50278448165E+01 -0.22802419044E+02  0.45150746167E+02  0.50831283843E+02  0.00000000000E+00 0. -1.
         -5    1    5    5    0  502 -0.20186443361E+02  0.26716128939E+02  0.78342218779E+02  0.85327822451E+02  0.47000000000E+01 0.  1.
         11    1    6    6    0    0  0.26853120418E+02  0.42427154189E+02 -0.65942606327E+01  0.50642252735E+02  0.00000000000E+00 0. -1.
        -12    1    6    6    0    0 -0.30653541144E+02 -0.19344983161E+01 -0.43827849214E+02  0.53518802632E+02  0.00000000000E+00 0.  1.
</event>
<event>
12    1  0.8798177E-003  0.2505143E+03  0.7818608E-02  0.1113233E+00
         21   -1    0    0  501  502  0.00000000000E+00  0.00000000000E+00  0.41316915419E+02  0.41316915419E+02  0.00000000000E+00 0. -1.
         21   -1    0    0  502  503 -0.00000000000E+00 -0.00000000000E+00 -0.15621296014E+04  0.15621296014E+04  0.00000000000E+00 0. -1.
          6    2    1    2  501    0 -0.10261841479E+02 -0.17946382071E+03 -0.90556135114E+03  0.93914866745E+03  0.17218098203E+03 0.  0.
         24    2    3    3    0    0 -0.60891690851E+02 -0.91642849485E+02 -0.36351957828E+03  0.38768944125E+03  0.77784376283E+02 0.  0.
         -6    2    1    2    0  503  0.10261841479E+02  0.17946382071E+03 -0.61525133489E+03  0.66429784941E+03  0.17448455323E+03 0.  0.
        -24    2    5    5    0    0 -0.40671884146E+02  0.16098736396E+03 -0.38892260561E+03  0.43152670094E+03  0.85926520706E+02 0.  0.
          5    1    3    3  501    0  0.50629849372E+02 -0.87820971223E+02 -0.54204177286E+03  0.55145922620E+03  0.47000000000E+01 0. -1.
        -11    1    4    4    0    0 -0.35386041542E+02 -0.63041568794E+00 -0.58618719123E+02  0.68474254954E+02  0.00000000000E+00 0.  1.
         12    1    4    4    0    0 -0.25505649309E+02 -0.91012433797E+02 -0.30490085915E+03  0.31921518630E+03  0.00000000000E+00 0. -1.
         -5    1    5    5    0  503  0.50933725625E+02  0.18476456748E+02 -0.22632872928E+03  0.23277114847E+03  0.47000000000E+01 0.  1.
         13    1    6    6    0    0  0.30266644338E+01  0.10568214318E+02 -0.11854367292E+03  0.11905230045E+03  0.00000000000E+00 0. -1.
        -14    1    6    6    0    0 -0.43698548580E+02  0.15041914964E+03 -0.27037893268E+03  0.31247440050E+03  0.00000000000E+00 0.  1.
</event>
<event>
12    1  0.8798177E-003  0.1961564E+03  0.7818608E-02  0.1153365E+00
         21   -1    0    0  501  502  0.00000000000E+00  0.00000000000E+00  0.32120394623E+02  0.32120394623E+02  0.00000000000E+00 0.  1.
         21   -1    0    0  502  503 -0.00000000000E+00 -0.00000000000E+00 -0.15839398898E+04  0.15839398898E+04  0.00000000000E+00 0.  1.
          6    2    1    2  501    0  0.45707684756E+02  0.82601820788E+02 -0.11820802027E+04  0.11982449364E+04  0.17194495851E+03 0.  0.
         24    2    3    3    0    0  0.95657441148E+02  0.48229400493E+02 -0.87913271258E+03  0.88925349120E+03  0.80131293262E+02 0.  0.
         -6    2    1    2    0  503 -0.45707684756E+02 -0.82601820788E+02 -0.36973929251E+03  0.41781534805E+03  0.17014778106E+03 0.  0.
        -24    2    5    5    0    0 -0.18607004583E+02  0.10307096696E+02 -0.25362192485E+03  0.26658093766E+03  0.79302324669E+02 0.  0.
          5    1    3    3  501    0 -0.49949756392E+02  0.34372420296E+02 -0.30294749013E+03  0.30899144522E+03  0.47000000000E+01 0. -1.
        -13    1    4    4    0    0  0.46191534867E+02 -0.68202490780E+01 -0.54629577684E+03  0.54828756094E+03  0.00000000000E+00 0.  1.
         14    1    4    4    0    0  0.49465906281E+02  0.55049649571E+02 -0.33283693575E+03  0.34096593026E+03  0.00000000000E+00 0. -1.
         -5    1    5    5    0  503 -0.27100680173E+02 -0.92908917484E+02 -0.11611736766E+03  0.15123441039E+03  0.47000000000E+01 0.  1.
         11    1    6    6    0    0 -0.38687634925E+02  0.85472461026E+00 -0.58124871700E+02  0.69828105805E+02  0.00000000000E+00 0. -1.
        -12    1    6    6    0    0  0.20080630342E+02  0.94523720855E+01 -0.19549705315E+03  0.19675283185E+03  0.00000000000E+00 0.  1.
</event>
<event>
12    1  0.8798177E-003  0.1739145E+03  0.7818608E-02  0.1173859E+00
         21   -1    0    0  501  502  0.00000000000E+00  0.00000000000E+00  0.15989356802E+03  0.15989356802E+03  0.00000000000E+00 0.  1.
         21   -1    0    0  502  503 -0.00000000000E+00 -0.00000000000E+00 -0.19192801732E+03  0.19192801732E+03  0.00000000000E+00 0.  1.
          6    2    1    2  501    0 -0.24518001819E+02 -0.73667712160E+01 -0.37662138610E+02  0.17794570659E+03  0.17201987117E+03 0.  0.
         24    2    3    3    0    0 -0.36780310317E+02 -0.24457481116E+01  0.44616306213E+02  0.94480665044E+02  0.74680709533E+02 0.  0.
         -6    2    1    2    0  503  0.24518001819E+02  0.73667712160E+01  0.56276893095E+01  0.17387587875E+03  0.17188876808E+03 0.  0.
        -24    2    5    5    0    0  0.49903170649E+02  0.61937642565E+02  0.84838879899E+01  0.11343884815E+03  0.80435053973E+02 0.  0.
          5    1    3    3  501    0  0.12262308498E+02 -0.49210231043E+01 -0.82278444823E+02  0.83465041548E+02  0.47000000000E+01 0. -1.
        -13    1    4    4    0    0 -0.13957914267E+02  0.12643805410E+02 -0.18059889358E+02  0.26093079342E+02  0.00000000000E+00 0.  1.
         14    1    4    4    0    0 -0.22822396050E+02 -0.15089553522E+02  0.62676195571E+02  0.68387585702E+02  0.00000000000E+00 0. -1.
         -5    1    5    5    0  503 -0.25385168830E+02 -0.54570871349E+02 -0.28561986804E+01  0.60437030596E+02  0.47000000000E+01 0.  1.
         11    1    6    6    0    0 -0.11251124536E+02  0.51529125938E+01  0.25431626120E+02  0.28282643417E+02  0.00000000000E+00 0. -1.
        -12    1    6    6    0    0  0.61154295185E+02  0.56784729971E+02 -0.16947738130E+02  0.85156204737E+02  0.00000000000E+00 0.  1.
</event>
<event>
12    1  0.8798177E-003  0.2696004E+03  0.7818608E-02  0.1101656E+00
         21   -1    0    0  501  502  0.00000000000E+00  0.00000000000E+00  0.63892759480E+03  0.63892759480E+03  0.00000000000E+00 0.  1.
         21   -1    0    0  502  503 -0.00000000000E+00 -0.00000000000E+00 -0.19399191875E+03  0.19399191875E+03  0.00000000000E+00 0. -1.
          6    2    1    2  501    0 -0.15852658116E+03  0.13386196080E+03  0.49076725673E+03  0.55945121872E+03  0.17053874741E+03 0.  0.
         24    2    3    3    0    0 -0.81840280747E+02  0.72506215932E+02  0.40612798943E+03  0.42971605899E+03  0.88096337386E+02 0.  0.
         -6    2    1    2    0  503  0.15852658116E+03 -0.13386196080E+03 -0.45831580670E+02  0.27346829483E+03  0.17214724223E+03 0.  0.
        -24    2    5    5    0    0  0.16054687190E+03 -0.10768611311E+03 -0.84919741821E+02  0.22614778216E+03  0.80992961380E+02 0.  0.
          5    1    3    3  501    0 -0.76686300415E+02  0.61355744870E+02  0.84639267300E+02  0.12973515973E+03  0.47000000000E+01 0. -1.
        -11    1    4    4    0    0 -0.45411311329E+02 -0.69508353360E+01  0.21039429680E+03  0.21535148347E+03  0.00000000000E+00 0.  1.
         12    1    4    4    0    0 -0.36428969419E+02  0.79457051268E+02  0.19573369263E+03  0.21436457552E+03  0.00000000000E+00 0. -1.
         -5    1    5    5    0  503 -0.20202907342E+01 -0.26175847695E+02  0.39088161151E+02  0.47320512670E+02  0.47000000000E+01 0.  1.
         13    1    6    6    0    0  0.48736422490E+02  0.72078324270E+01 -0.18907078708E+02  0.52769966370E+02  0.00000000000E+00 0. -1.
        -14    1    6    6    0    0  0.11181044941E+03 -0.11489394553E+03 -0.66012663113E+02  0.17337781579E+03  0.00000000000E+00 0.  1.
</event>
<event>
12    1  0.8798177E-003  0.1835715E+03  0.7818608E-02  0.1164527E+00
         21   -1    0    0  501  502  0.00000000000E+00  0.00000000000E+00  0.26949144667E+03  0.26949144667E+03  0.00000000000E+00 0. -1.
         21   -1    0    0  502  503 -0.00000000000E+00 -0.00000000000E+00 -0.14263137557E+03  0.14263137557E+03  0.00000000000E+00 0. -1.
          6    2    1    2  501    0  0.50080498860E+02  0.35024517700E+02  0.13667703435E+03  0.22886481721E+03  0.17310031667E+03 0.  0.
         24    2    3    3    0    0 -0.15181058536E+02 -0.28228029348E+02  0.94619029123E+02  0.12861053359E+03  0.80997669706E+02 0.  0.
         -6    2    1    2    0  503 -0.50080498860E+02 -0.35024517700E+02 -0.98169632576E+01  0.18325800503E+03  0.17248869653E+03 0.  0.
        -24    2    5    5    0    0  0.44196930402E+01 -0.73348742649E+02  0.18352394260E+02  0.11076924839E+03  0.80829723987E+02 0.  0.
          5    1    3    3  501    0  0.65261557396E+02  0.63252547048E+02  0.42058005228E+02  0.10025428363E+03  0.47000000000E+01 0. -1.
        -11    1    4    4    0    0  0.35092019831E+01 -0.27096797907E+02  0.10409757081E+03  0.10762367400E+03  0.00000000000E+00 0.  1.
         12    1    4    4    0    0 -0.18690260519E+02 -0.11312314401E+01 -0.94785416896E+01  0.20986859589E+02  0.00000000000E+00 0. -1.
         -5    1    5    5    0  503 -0.54500191900E+02  0.38324224949E+02 -0.28169357518E+02  0.72488756632E+02  0.47000000000E+01 0.  1.
         11    1    6    6    0    0 -0.34187785252E+02 -0.16301050260E+02  0.17880926444E+02  0.41883844505E+02  0.00000000000E+00 0. -1.
        -12    1    6    6    0    0  0.38607478292E+02 -0.57047692389E+02  0.47146781607E+00  0.68885403889E+02  0.00000000000E+00 0.  1.
</event>
<event>
12    1  0.8798177E-003  0.1812601E+03  0.7818608E-02  0.1168382E+00
         21   -1    0    0  503  502  0.00000000000E+00  0.00000000000E+00  0.13354121605E+03  0.13354121605E+03  0.00000000000E+00 0.  1.
         21   -1    0    0  501  503 -0.00000000000E+00 -0.00000000000E+00 -0.24720178123E+03  0.24720178123E+03  0.00000000000E+00 0.  1.
          6    2    1    2  501    0 -0.12259094130E+02 -0.57379707940E+02 -0.98102415865E+02  0.20610512084E+03  0.17150078882E+03 0.  0.
         24    2    3    3    0    0  0.29787620960E+01 -0.10213674937E+03 -0.89832122723E+02  0.15787781769E+03  0.80092486854E+02 0.  0.
         -6    2    1    2    0  502  0.12259094130E+02  0.57379707940E+02 -0.15558149308E+02  0.17463787645E+03  0.16374863544E+03 0.  0.
        -24    2    5    5    0    0 -0.23728998544E+02 -0.59928019942E+01  0.28454986097E+02  0.89370861030E+02  0.81107863489E+02 0.  0.
          5    1    3    3  501    0 -0.15237856226E+02  0.44757041430E+02 -0.82702931416E+01  0.48227303145E+02  0.47000000000E+01 0. -1.
        -13    1    4    4    0    0 -0.37020161097E+02 -0.42350904219E+02 -0.27119208541E+02  0.62446320049E+02  0.00000000000E+00 0.  1.
         14    1    4    4    0    0  0.39998923193E+02 -0.59785845152E+02 -0.62712914182E+02  0.95431497642E+02  0.00000000000E+00 0. -1.
         -5    1    5    5    0  502  0.35988092674E+02  0.63372509935E+02 -0.44013135405E+02  0.85267015416E+02  0.47000000000E+01 0.  1.
         11    1    6    6    0    0 -0.13282549154E+02  0.11585055101E+02 -0.25882354980E+02  0.31313510072E+02  0.00000000000E+00 0. -1.
        -12    1    6    6    0    0 -0.10446449391E+02 -0.17577857095E+02  0.54337341077E+02  0.58057350958E+02  0.00000000000E+00 0.  1.
</event>
<event>
12    1  0.8798177E-003  0.1849373E+03  0.7818608E-02  0.1163932E+00
         21   -1    0    0  503  502  0.00000000000E+00  0.00000000000E+00  0.18584498567E+03  0.18584498567E+03  0.00000000000E+00 0.  1.
         21   -1    0    0  501  503 -0.00000000000E+00 -0.00000000000E+00 -0.20206774250E+03  0.20206774250E+03  0.00000000000E+00 0.  1.
          6    2    1    2  501    0 -0.30781780001E+02 -0.56507879564E+02 -0.71428456819E+02  0.19825195959E+03  0.17338153478E+03 0.  0.
         24    2    3    3    0    0 -0.50479719386E+02  0.69866006981E+01 -0.86449335899E+02  0.12993450466E+03  0.82537707532E+02 0.  0.
         -6    2    1    2    0  502  0.30781780001E+02  0.56507879564E+02  0.55205699989E+02  0.18966076859E+03  0.16965517793E+03 0.  0.
        -24    2    5    5    0    0  0.28899093769E+02 -0.29224850806E+02  0.10510592306E+01  0.88130178720E+02  0.77952383867E+02 0.  0.
          5    1    3    3  501    0  0.19697939385E+02 -0.63494480262E+02  0.15020879080E+02  0.68317454930E+02  0.47000000000E+01 0. -1.
        -13    1    4    4    0    0 -0.16954004092E+02 -0.36405817630E+02 -0.49818493745E+02  0.63989875224E+02  0.00000000000E+00 0.  1.
         14    1    4    4    0    0 -0.33525715294E+02  0.43392418328E+02 -0.36630842153E+02  0.65944629434E+02  0.00000000000E+00 0. -1.
         -5    1    5    5    0  502  0.18826862321E+01  0.85732730369E+02  0.54154640758E+02  0.10153058987E+03  0.47000000000E+01 0.  1.
         13    1    6    6    0    0  0.46836146042E+02 -0.25172052111E+02  0.24321833792E+02  0.58470577067E+02  0.00000000000E+00 0. -1.
        -14    1    6    6    0    0 -0.17937052273E+02 -0.40527986941E+01 -0.23270774562E+02  0.29659601653E+02  0.00000000000E+00 0.  1.
</event>
<event>
12    1  0.8798177E-003  0.1779496E+03  0.7818608E-02  0.1170377E+00
         21   -1    0    0  503  502  0.00000000000E+00  0.00000000000E+00  0.46970685314E+02  0.46970685314E+02  0.00000000000E+00 0.  1.
         21   -1    0    0  501  503 -0.00000000000E+00 -0.00000000000E+00 -0.68301555431E+03  0.68301555431E+03  0.00000000000E+00 0.  1.
          6    2    1    2  501    0  0.22087009076E+02  0.41458100677E+02 -0.37460594652E+03  0.41373259293E+03  0.16922893726E+03 0.  0.
         24    2    3    3    0    0  0.63869860059E+02  0.68619867626E+01 -0.32688397243E+03  0.34132973010E+03  0.74339809917E+02 0.  0.
         -6    2    1    2    0  502 -0.22087009076E+02 -0.41458100677E+02 -0.26143892248E+03  0.31625364670E+03  0.17163755061E+03 0.  0.
        -24    2    5    5    0    0 -0.66870413852E+02 -0.51690534308E+02 -0.11832799266E+03  0.16587717155E+03  0.79813273397E+02 0.  0.
          5    1    3    3  501    0 -0.41782850983E+02  0.34596113915E+02 -0.47721974093E+02  0.72402862827E+02  0.47000000000E+01 0. -1.
        -13    1    4    4    0    0  0.12117783301E+02  0.12813105705E+02 -0.23535446333E+03  0.23601427872E+03  0.00000000000E+00 0.  1.
         14    1    4    4    0    0  0.51752076758E+02 -0.59511189424E+01 -0.91529509098E+02  0.10531545139E+03  0.00000000000E+00 0. -1.
         -5    1    5    5    0  502  0.44783404776E+02  0.10232433631E+02 -0.14311092982E+03  0.15037647514E+03  0.47000000000E+01 0.  1.
         11    1    6    6    0    0  0.14214228390E+01 -0.46758934819E+02 -0.58876069424E+02  0.75198470590E+02  0.00000000000E+00 0. -1.
        -12    1    6    6    0    0 -0.68291836691E+02 -0.49315994892E+01 -0.59451923235E+02  0.90678700964E+02  0.00000000000E+00 0.  1.
</event>
<event>
12    1  0.8798177E-003  0.2473388E+03  0.7818608E-02  0.1115741E+00
         21   -1    0    0  503  502  0.00000000000E+00  0.00000000000E+00  0.83985036400E+02  0.83985036400E+02  0.00000000000E+00 0. -1.
         21   -1    0    0  501  503 -0.00000000000E+00 -0.00000000000E+00 -0.81830129997E+03  0.81830129997E+03  0.00000000000E+00 0. -1.
          6    2    1    2  501    0 -0.76016528168E+01  0.17118156379E+03 -0.52446559970E+03  0.57791961423E+03  0.17194767327E+03 0.  0.
         24    2    3    3    0    0 -0.44574038194E+02  0.88511292851E+02 -0.17321972696E+03  0.21515649029E+03  0.80412360139E+02 0.  0.
         -6    2    1    2    0  502  0.76016528168E+01 -0.17118156379E+03 -0.20985066387E+03  0.32436672214E+03  0.17836915763E+03 0.  0.
        -24    2    5    5    0    0 -0.66217167638E+02 -0.10886339074E+03 -0.13903911056E+03  0.20449537849E+03  0.79060321419E+02 0.  0.
          5    1    3    3  501    0  0.36972385377E+02  0.82670270942E+02 -0.35124587274E+03  0.36276312395E+03  0.47000000000E+01 0. -1.
        -13    1    4    4    0    0  0.22870614765E+02  0.15417063800E+02 -0.29564514104E+02  0.40432800672E+02  0.00000000000E+00 0.  1.
         14    1    4    4    0    0 -0.67444652959E+02  0.73094229051E+02 -0.14365521285E+03  0.17472368962E+03  0.00000000000E+00 0. -1.
         -5    1    5    5    0  502  0.73818820455E+02 -0.62318173050E+02 -0.70811553313E+02  0.11987134365E+03  0.47000000000E+01 0.  1.
         13    1    6    6    0    0 -0.40556425351E+02 -0.60068136510E+02 -0.23023403737E+02  0.76046576390E+02  0.00000000000E+00 0. -1.
        -14    1    6    6    0    0 -0.25660742287E+02 -0.48795254233E+02 -0.11601570682E+03  0.12844880210E+03  0.00000000000E+00 0.  1.
</event>
<event>
12    1  0.8798177E-003  0.2045241E+03  0.7818608E-02  0.1145994E+00
         21   -1    0    0  501  502  0.00000000000E+00  0.00000000000E+00  0.31618895697E+04  0.31618895697E+04  0.00000000000E+00 0. -1.
         21   -1    0    0  502  503 -0.00000000000E+00 -0.00000000000E+00 -0.15206807642E+02  0.15206807642E+02  0.00000000000E+00 0.  1.
          6    2    1    2  501    0 -0.95985478216E+02  0.54156224088E+02  0.21466696435E+04  0.21563827382E+04  0.17219130782E+03 0.  0.
         24    2    3    3    0    0 -0.47284824316E+02 -0.19546481509E+02  0.15922533567E+04  0.15949529994E+04  0.77371821829E+02 0.  0.
         -6    2    1    2    0  503  0.95985478216E+02 -0.54156224088E+02  0.10000131186E+04  0.10207136392E+04  0.17229041552E+03 0.  0.
        -24    2    5    5    0    0 -0.16028881381E+02 -0.18717733916E+02  0.34963082005E+03  0.35978828216E+03  0.81231884420E+02 0.  0.
          5    1    3    3  501    0 -0.48700653901E+02  0.73702705597E+02  0.55441628681E+03  0.56142973878E+03  0.47000000000E+01 0. -1.
        -13    1    4    4    0    0 -0.37927777298E+02 -0.27440085986E+02  0.41435916661E+03  0.41699519609E+03  0.00000000000E+00 0.  1.
         14    1    4    4    0    0 -0.93570470178E+01  0.78936044768E+01  0.11778941901E+04  0.11779578033E+04  0.00000000000E+00 0. -1.
         -5    1    5    5    0  503  0.11201435960E+03 -0.35438490172E+02  0.65038229851E+03  0.66092535703E+03  0.47000000000E+01 0.  1.
         11    1    6    6    0    0  0.15032223904E+01 -0.10415096108E+02  0.33579781295E+03  0.33596265430E+03  0.00000000000E+00 0. -1.
        -12    1    6    6    0    0 -0.17532103772E+02 -0.83026378087E+01  0.13833007106E+02  0.23825627858E+02  0.00000000000E+00 0.  1.
</event>
<event>
12    1  0.8798177E-003  0.2374466E+03  0.7818608E-02  0.1122184E+00
         21   -1    0    0  501  502  0.00000000000E+00  0.00000000000E+00  0.41125519863E+02  0.41125519863E+02  0.00000000000E+00 0. -1.
         21   -1    0    0  502  503 -0.00000000000E+00 -0.00000000000E+00 -0.13545220745E+04  0.13545220745E+04  0.00000000000E+00 0. -1.
          6    2    1    2  501    0 -0.12541726094E+03 -0.95757918800E+02 -0.60297254047E+03  0.64659274277E+03  0.17206749285E+03 0.  0.
         24    2    3    3    0    0 -0.63005413332E+02  0.16171279063E+02 -0.24063946689E+03  0.26223518754E+03  0.81417124635E+02 0.  0.
         -6    2    1    2    0  503  0.12541726094E+03  0.95757918800E+02 -0.71042401416E+03  0.74905485158E+03  0.17743117660E+03 0.  0.
        -24    2    5    5    0    0  0.81903336400E+02  0.25650893075E+02 -0.20259504857E+03  0.23454459418E+03  0.81242157298E+02 0.  0.
          5    1    3    3  501    0 -0.62411847604E+02 -0.11192919786E+03 -0.36233307358E+03  0.38435755523E+03  0.47000000000E+01 0. -1.
        -13    1    4    4    0    0  0.14305325616E+02  0.17232941619E+02 -0.27266734539E+02  0.35285853118E+02  0.00000000000E+00 0.  1.
         14    1    4    4    0    0 -0.77310738948E+02 -0.10616625557E+01 -0.21337273235E+03  0.22694933442E+03  0.00000000000E+00 0. -1.
         -5    1    5    5    0  503  0.43513924536E+02  0.70107025725E+02 -0.50782896559E+03  0.51451025740E+03  0.47000000000E+01 0.  1.
         13    1    6    6    0    0  0.86049720816E+02 -0.50917777791E+01 -0.16139072551E+03  0.18296843153E+03  0.00000000000E+00 0. -1.
        -14    1    6    6    0    0 -0.41463844164E+01  0.30742670854E+02 -0.41204323058E+02  0.51576162649E+02  0.00000000000E+00 0.  1.
</event>
<event>
12    1  0.8798177E-003  0.1772839E+03  0.7818608E-02  0.1170525E+00
         21   -1    0    0  503  502  0.00000000000E+00  0.00000000000E+00  0.14787262314E+02  0.14787262314E+02  0.00000000000E+00 0.  1.
         21   -1    0    0  501  503 -0.00000000000E+00 -0.00000000000E+00 -0.21567080823E+04  0.21567080823E+04  0.00000000000E+00 0.  1.
          6    2    1    2  501    0 -0.33945123180E+02  0.28151677160E+02 -0.12075099711E+04  0.12204153157E+04  0.17143052297E+03 0.  0.
         24    2    3    3    0    0  0.23364555988E+02  0.55482061694E+02 -0.48010848420E+03  0.49023289851E+03  0.78739929746E+02 0.  0.
         -6    2    1    2    0  502  0.33945123180E+02 -0.28151677160E+02 -0.93441084887E+03  0.95108002889E+03  0.17171138152E+03 0.  0.
        -24    2    5    5    0    0 -0.18063329415E+02 -0.43246844242E+02 -0.32507618434E+03  0.33932553024E+03  0.85268496196E+02 0.  0.
          5    1    3    3  501    0 -0.57309679168E+02 -0.27330384534E+02 -0.72740148691E+03  0.73018241721E+03  0.47000000000E+01 0. -1.
        -11    1    4    4    0    0 -0.22473681271E+01  0.52928507856E+02 -0.43566593914E+03  0.43887502564E+03  0.00000000000E+00 0.  1.
         12    1    4    4    0    0  0.25611924115E+02  0.25535538375E+01 -0.44442545057E+02  0.51357872865E+02  0.00000000000E+00 0. -1.
         -5    1    5    5    0  502  0.52008452596E+02  0.15095167082E+02 -0.60933466453E+03  0.61175449865E+03  0.47000000000E+01 0.  1.
         13    1    6    6    0    0  0.17017605260E+02 -0.38102818950E+02 -0.27393727629E+03  0.27709755510E+03  0.00000000000E+00 0. -1.
        -14    1    6    6    0    0 -0.35080934676E+02 -0.51440252923E+01 -0.51138908045E+02  0.62227975140E+02  0.00000000000E+00 0.  1.
</event>
<event>
12    1  0.8798177E-003  0.1920336E+03  0.7818608E-02  0.1157312E+00
         21   -1    0    0  503  502  0.00000000000E+00  0.00000000000E+00  0.52757475638E+02  0.52757475638E+02  0.00000000000E+00 0.  1.
         21   -1    0    0  501  503 -0.00000000000E+00 -0.00000000000E+00 -0.78826660630E+03  0.78826660630E+03  0.00000000000E+00 0.  1.
          6    2    1    2  501    0 -0.54863756084E+02 -0.61030157233E+02 -0.21534737991E+03  0.28654670498E+03  0.17029330074E+03 0.  0.
         24    2    3    3    0    0 -0.27381825018E+02 -0.96844498697E+02 -0.20130816612E+03  0.23903762044E+03  0.80531887911E+02 0.  0.
         -6    2    1    2    0  502  0.54863756084E+02  0.61030157233E+02 -0.52016175075E+03  0.55447737696E+03  0.17361509955E+03 0.  0.
        -24    2    5    5    0    0 -0.26109087114E+02  0.16223888860E+02 -0.35465797137E+03  0.36479924429E+03  0.79695125214E+02 0.  0.
          5    1    3    3  501    0 -0.27481931066E+02  0.35814341464E+02 -0.14039213792E+02  0.47509084537E+02  0.47000000000E+01 0. -1.
        -13    1    4    4    0    0 -0.49704251056E+02 -0.48454318224E+02 -0.14894710589E+03  0.16432764187E+03  0.00000000000E+00 0.  1.
         14    1    4    4    0    0  0.22322426038E+02 -0.48390180473E+02 -0.52361060222E+02  0.74709978570E+02  0.00000000000E+00 0. -1.
         -5    1    5    5    0  502  0.80972843199E+02  0.44806268373E+02 -0.16550377938E+03  0.18967813266E+03  0.47000000000E+01 0.  1.
         11    1    6    6    0    0  0.17837825900E+02 -0.18620588494E+02 -0.16567799816E+03  0.16767263767E+03  0.00000000000E+00 0. -1.
        -12    1    6    6    0    0 -0.43946913014E+02  0.34844477354E+02 -0.18897997320E+03  0.19712660662E+03  0.00000000000E+00 0.  1.
</event>
<event>
12    1  0.8798177E-003  0.2855549E+03  0.7818608E-02  0.1092704E+00
         21   -1    0    0  503  502  0.00000000000E+00  0.00000000000E+00  0.32240700016E+03  0.32240700016E+03  0.00000000000E+00 0. -1.
         21   -1    0    0  501  503 -0.00000000000E+00 -0.00000000000E+00 -0.31648662803E+03  0.31648662803E+03  0.00000000000E+00 0. -1.
          6    2    1    2  501    0  0.17974986583E+03  0.14012202759E+03 -0.14029442390E+03  0.31808161004E+03  0.17189877367E+03 0.  0.
         24    2    3    3    0    0  0.23627312138E+02  0.85930187734E+02 -0.65790818228E+02  0.13674246773E+03  0.80173709369E+02 0.  0.
         -6    2    1    2    0  502 -0.17974986583E+03 -0.14012202759E+03  0.14621479603E+03  0.32081201814E+03  0.17203891281E+03 0.  0.
        -24    2    5    5    0    0 -0.19582353792E+03 -0.11806762362E+03  0.15917309246E+03  0.29023805674E+03  0.81334091647E+02 0.  0.
          5    1    3    3  501    0  0.15612255369E+03  0.54191839856E+02 -0.74503605673E+02  0.18133914232E+03  0.47000000000E+01 0. -1.
        -13    1    4    4    0    0 -0.23159096198E+00  0.77090322256E+02 -0.13053394946E+02  0.78187994856E+02  0.00000000000E+00 0.  1.
         14    1    4    4    0    0  0.23858903100E+02  0.88398654779E+01 -0.52737423282E+02  0.58554472871E+02  0.00000000000E+00 0. -1.
         -5    1    5    5    0  502  0.16073672096E+02 -0.22054403968E+02 -0.12958296432E+02  0.30573961396E+02  0.47000000000E+01 0.  1.
         13    1    6    6    0    0 -0.53616322481E+02 -0.57252409245E+02  0.17223378627E+02  0.80306868773E+02  0.00000000000E+00 0. -1.
        -14    1    6    6    0    0 -0.14220721544E+03 -0.60815214377E+02  0.14194971384E+03  0.20993118797E+03  0.00000000000E+00 0.  1.
</event>
<event>
12    1  0.8798177E-003  0.2200976E+03  0.7818608E-02  0.1134134E+00
         21   -1    0    0  503  502  0.00000000000E+00  0.00000000000E+00  0.86897603496E+02  0.86897603496E+02  0.00000000000E+00 0. -1.
         21   -1    0    0  501  503 -0.00000000000E+00 -0.00000000000E+00 -0.56508346205E+03  0.56508346205E+03  0.00000000000E+00 0.  1.
          6    2    1    2  501    0 -0.10760124862E+03 -0.85832950845E+02 -0.28747988954E+03  0.36206024830E+03  0.17174868952E+03 0.  0.
         24    2    3    3    0    0 -0.13811853032E+03 -0.74375135159E+02 -0.27543300678E+03  0.32699169534E+03  0.80323336880E+02 0.  0.
         -6    2    1    2    0  502  0.10760124862E+03  0.85832950845E+02 -0.19070596902E+03  0.28992081725E+03  0.16952872766E+03 0.  0.
        -24    2    5    5    0    0  0.33308865056E+02  0.10948834851E+03 -0.11452811743E+03  0.18081494588E+03  0.80499540504E+02 0.  0.
          5    1    3    3  501    0  0.30517281697E+02 -0.11457815686E+02 -0.12046882759E+02  0.35068552960E+02  0.47000000000E+01 0. -1.
        -11    1    4    4    0    0 -0.12570652500E+03 -0.30768145856E+02 -0.22146482632E+03  0.25650629334E+03  0.00000000000E+00 0.  1.
         12    1    4    4    0    0 -0.12412005319E+02 -0.43606989303E+02 -0.53968180460E+02  0.70485401994E+02  0.00000000000E+00 0. -1.
         -5    1    5    5    0  502  0.74292383568E+02 -0.23655397666E+02 -0.76177851583E+02  0.10910587137E+03  0.47000000000E+01 0.  1.
         11    1    6    6    0    0  0.41055863272E+02  0.10031386395E+03 -0.12459649712E+03  0.16514461028E+03  0.00000000000E+00 0. -1.
        -12    1    6    6    0    0 -0.77469982169E+01  0.91744845649E+01  0.10068379690E+02  0.15670335605E+02  0.00000000000E+00 0.  1.
</event>
<event>
12    1  0.8798177E-003  0.2147841E+03  0.7818608E-02  0.1138587E+00
         21   -1    0    0  503  502  0.00000000000E+00  0.00000000000E+00  0.71561132719E+02  0.71561132719E+02  0.00000000000E+00 0.  1.
         21   -1    0    0  501  503 -0.00000000000E+00 -0.00000000000E+00 -0.63724738245E+03  0.63724738245E+03  0.00000000000E+00 0.  1.
          6    2    1    2  501    0 -0.52144769314E+02 -0.11733315721E+03 -0.25663776457E+03  0.33465674986E+03  0.17218028713E+03 0.  0.
         24    2    3    3    0    0  0.70204572721E+01 -0.88723957872E+01 -0.54984157382E+02  0.98118110104E+02  0.80472975215E+02 0.  0.
         -6    2    1    2    0  502  0.52144769314E+02  0.11733315721E+03 -0.30904848516E+03  0.37415176531E+03  0.16730938574E+03 0.  0.
        -24    2    5    5    0    0  0.43880658868E+02  0.77339024726E+02 -0.31111984915E+03  0.33299102305E+03  0.78616944256E+02 0.  0.
          5    1    3    3  501    0 -0.59165226586E+02 -0.10846076142E+03 -0.20165360718E+03  0.23653863975E+03  0.47000000000E+01 0. -1.
        -13    1    4    4    0    0  0.34162922886E+02 -0.29036061740E+02 -0.43335946764E+02  0.62355452556E+02  0.00000000000E+00 0.  1.
         14    1    4    4    0    0 -0.27142465614E+02  0.20163665953E+02 -0.11648210618E+02  0.35762657548E+02  0.00000000000E+00 0. -1.
         -5    1    5    5    0  502  0.82641104457E+01  0.39994132486E+02  0.20713639932E+01  0.41160742262E+02  0.47000000000E+01 0.  1.
         11    1    6    6    0    0  0.39624561788E+02 -0.74158483349E+00 -0.86433351794E+02  0.95086172220E+02  0.00000000000E+00 0. -1.
        -12    1    6    6    0    0  0.42560970802E+01  0.78080609559E+02 -0.22468649736E+03  0.23790485083E+03  0.00000000000E+00 0.  1.
</event>
<event>
12    1  0.8798177E-003  0.2320735E+03  0.7818608E-02  0.1125848E+00
         21   -1    0    0  503  502  0.00000000000E+00  0.00000000000E+00  0.72650012545E+02  0.72650012545E+02  0.00000000000E+00 0.  1.
         21   -1    0    0  501  503 -0.00000000000E+00 -0.00000000000E+00 -0.73680381927E+03  0.73680381927E+03  0.00000000000E+00 0. -1.
          6    2    1    2  501    0  0.40604093816E+02 -0.15119393547E+03 -0.36999938706E+03  0.43477408818E+03  0.16619465326E+03 0.  0.
         24    2    3    3    0    0  0.34210813983E+02 -0.16963015088E+03 -0.25690964634E+03  0.31991701386E+03  0.79997259286E+02 0.  0.
         -6    2    1    2    0  502 -0.40604093816E+02  0.15119393547E+03 -0.29415441967E+03  0.37467974364E+03  0.17131780154E+03 0.  0.
        -24    2    5    5    0    0 -0.22660420919E+02  0.95943520347E+01 -0.90164408205E+02  0.12566883584E+03  0.84008865766E+02 0.  0.
          5    1    3    3  501    0  0.63932798335E+01  0.18436215408E+02 -0.11308974072E+03  0.11485707432E+03  0.47000000000E+01 0. -1.
        -13    1    4    4    0    0  0.19011120395E+02 -0.13442189087E+02 -0.61149214855E+01  0.24072960161E+02  0.00000000000E+00 0.  1.
         14    1    4    4    0    0  0.15199693588E+02 -0.15618796179E+03 -0.25079472485E+03  0.29584405369E+03  0.00000000000E+00 0. -1.
         -5    1    5    5    0  502 -0.17943672898E+02  0.14159958343E+03 -0.20399001146E+03  0.24901090780E+03  0.47000000000E+01 0.  1.
         13    1    6    6    0    0  0.18177244881E+02  0.19204875012E+02 -0.24535308719E+00  0.26444274500E+02  0.00000000000E+00 0. -1.
        -14    1    6    6    0    0 -0.40837665800E+02 -0.96105229769E+01 -0.89919055118E+02  0.99224561340E+02  0.00000000000E+00 0.  1.
</event>
<event>
12    1  0.8798177E-003  0.3593370E+03  0.7818608E-02  0.1058900E+00
         21   -1    0    0  501  502  0.00000000000E+00  0.00000000000E+00  0.23204545082E+03  0.23204545082E+03  0.00000000000E+00 0. -1.
         21   -1    0    0  502  503 -0.00000000000E+00 -0.00000000000E+00 -0.55569174123E+03  0.55569174123E+03  0.00000000000E+00 0. -1.
          6    2    1    2  501    0 -0.24856771864E+03 -0.19427023853E+03 -0.15772992062E+03  0.39243061413E+03  0.17203552749E+03 0.  0.
         24    2    3    3    0    0 -0.18147148815E+03 -0.11681420280E+03 -0.17438176786E+03  0.28850412264E+03  0.79045359331E+02 0.  0.
         -6    2    1    2    0  503  0.24856771864E+03  0.19427023853E+03 -0.16591636980E+03  0.39530657792E+03  0.17091580516E+03 0.  0.
        -24    2    5    5    0    0  0.16144487499E+03  0.75585238491E+02 -0.15194726682E+03  0.24734122739E+03  0.79448945476E+02 0.  0.
          5    1    3    3  501    0 -0.67096230491E+02 -0.77456035723E+02  0.16651847241E+02  0.10392649149E+03  0.47000000000E+01 0. -1.
        -11    1    4    4    0    0 -0.25779381892E+02  0.11547533196E+01 -0.51849196567E+02  0.57915880125E+02  0.00000000000E+00 0.  1.
         12    1    4    4    0    0 -0.15569210626E+03 -0.11796895612E+03 -0.12253257129E+03  0.23058824252E+03  0.00000000000E+00 0. -1.
         -5    1    5    5    0  503  0.87122843654E+02  0.11868500003E+03 -0.13969102980E+02  0.14796535053E+03  0.47000000000E+01 0.  1.
         13    1    6    6    0    0  0.62406444800E+02  0.16147854275E+02 -0.11468532516E+02  0.65474000858E+02  0.00000000000E+00 0. -1.
        -14    1    6    6    0    0  0.99038430185E+02  0.59437384217E+02 -0.14047873430E+03  0.18186722653E+03  0.00000000000E+00 0.  1.
</event>
<event>
12    1  0.8798177E-003  0.2037224E+03  0.7818608E-02  0.1146879E+00
         21   -1    0    0  501  502  0.00000000000E+00  0.00000000000E+00  0.21253145098E+02  0.21253145098E+02  0.00000000000E+00 0.  1.
         21   -1    0    0  502  503 -0.00000000000E+00 -0.00000000000E+00 -0.33965939306E+04  0.33965939306E+04  0.00000000000E+00 0.  1.
          6    2    1    2  501    0 -0.15275016627E+02 -0.10573910768E+03 -0.56636423223E+03  0.60149268007E+03  0.17207822522E+03 0.  0.
         24    2    3    3    0    0 -0.10810081794E+01  0.14485851992E+02 -0.19047590177E+03  0.20656276504E+03  0.78588155978E+02 0.  0.
         -6    2    1    2    0  503  0.15275016627E+02  0.10573910768E+03 -0.28089765533E+04  0.28163543956E+04  0.17346100410E+03 0.  0.
        -24    2    5    5    0    0  0.61872312046E+02  0.19547348374E+02 -0.13292255519E+04  0.13333555947E+04  0.82378956302E+02 0.  0.
          5    1    3    3  501    0 -0.14194008447E+02 -0.12022495967E+03 -0.37588833046E+03  0.39492991503E+03  0.47000000000E+01 0. -1.
        -13    1    4    4    0    0 -0.37770509730E+02 -0.43145305378E+01 -0.10485281414E+03  0.11153178565E+03  0.00000000000E+00 0.  1.
         14    1    4    4    0    0  0.36689501551E+02  0.18800382530E+02 -0.85623087631E+02  0.95030979385E+02  0.00000000000E+00 0. -1.
         -5    1    5    5    0  503 -0.46597295419E+02  0.86191759309E+02 -0.14797510014E+04  0.14829988009E+04  0.47000000000E+01 0.  1.
         11    1    6    6    0    0  0.48202379766E+02  0.14304282645E+02 -0.31206017975E+03  0.31608485839E+03  0.00000000000E+00 0. -1.
        -12    1    6    6    0    0  0.13669932280E+02  0.52430657285E+01 -0.10171653721E+04  0.10172707363E+04  0.00000000000E+00 0.  1.
</event>
<event>
12    1  0.8798177E-003  0.2227719E+03  0.7818608E-02  0.1131892E+00
         21   -1    0    0  501  502  0.00000000000E+00  0.00000000000E+00  0.11827703714E+03  0.11827703714E+03  0.00000000000E+00 0.  1.
         21   -1    0    0  502  503 -0.00000000000E+00 -0.00000000000E+00 -0.44760662429E+03  0.44760662429E+03  0.00000000000E+00 0. -1.
          6    2    1    2  501    0 -0.79111206708E+02  0.11740351500E+03 -0.23632483513E+03  0.32477183330E+03  0.17200333614E+03 0.  0.
         24    2    3    3    0    0 -0.98658631763E+02  0.13910625526E+03 -0.22370145530E+03  0.29260740451E+03  0.80577144385E+02 0.  0.
         -6    2    1    2    0  503  0.79111206708E+02 -0.11740351500E+03 -0.93004752017E+02  0.24111182813E+03  0.17158922286E+03 0.  0.
        -24    2    5    5    0    0 -0.21505251313E+02 -0.79445027524E+02 -0.48822363478E+02  0.12475594365E+03  0.80040202819E+02 0.  0.
          5    1    3    3  501    0  0.19547425055E+02 -0.21702740257E+02 -0.12623379835E+02  0.32164428791E+02  0.47000000000E+01 0. -1.
        -11    1    4    4    0    0  0.11606668850E+02  0.35362069947E+02 -0.43598627916E+02  0.57323913936E+02  0.00000000000E+00 0.  1.
         12    1    4    4    0    0 -0.11026530061E+03  0.10374418531E+03 -0.18010282738E+03  0.23528349057E+03  0.00000000000E+00 0. -1.
         -5    1    5    5    0  503  0.10061645802E+03 -0.37958487479E+02 -0.44182388540E+02  0.11635588448E+03  0.47000000000E+01 0.  1.
         13    1    6    6    0    0 -0.94502209702E+01 -0.27802704579E+02 -0.63304253888E+02  0.69783419368E+02  0.00000000000E+00 0. -1.
        -14    1    6    6    0    0 -0.12055030342E+02 -0.51642322945E+02  0.14481890411E+02  0.54972524279E+02  0.00000000000E+00 0.  1.
</event>
<event>
12    1  0.8798177E-003  0.2052468E+03  0.7818608E-02  0.1145560E+00
         21   -1    0    0  501  502  0.00000000000E+00  0.00000000000E+00  0.10239871774E+03  0.10239871774E+03  0.00000000000E+00 0.  1.
         21   -1    0    0  502  503 -0.00000000000E+00 -0.00000000000E+00 -0.45415017911E+03  0.45415017911E+03  0.00000000000E+00 0.  1.
          6    2    1    2  501    0 -0.98008513919E+02  0.51968595837E+02 -0.88485758574E+02  0.22272997081E+03  0.17167558555E+03 0.  0.
         24    2    3    3    0    0 -0.69804445751E+02  0.94187265524E+02 -0.54112658870E+02  0.16123618645E+03  0.96566175953E+02 0.  0.
         -6    2    1    2    0  503  0.98008513919E+02 -0.51968595837E+02 -0.26326570280E+03  0.33381892604E+03  0.17268422440E+03 0.  0.
        -24    2    5    5    0    0  0.12451883683E+03 -0.16878327771E+02 -0.23977736374E+03  0.28373982655E+03  0.85001684295E+02 0.  0.
          5    1    3    3  501    0 -0.28204068169E+02 -0.42218669686E+02 -0.34373099704E+02  0.61493784357E+02  0.47000000000E+01 0. -1.
        -13    1    4    4    0    0 -0.50576507736E+02  0.58916431229E+02  0.17068966420E+02  0.79501437837E+02  0.00000000000E+00 0.  1.
         14    1    4    4    0    0 -0.19227938015E+02  0.35270834295E+02 -0.71181625291E+02  0.81734748615E+02  0.00000000000E+00 0. -1.
         -5    1    5    5    0  503 -0.26510322914E+02 -0.35090268066E+02 -0.23488339063E+02  0.50079099491E+02  0.47000000000E+01 0.  1.
         13    1    6    6    0    0  0.19282208983E+02 -0.36011829218E+02 -0.40230957842E+02  0.57333981161E+02  0.00000000000E+00 0. -1.
        -14    1    6    6    0    0  0.10523662785E+03  0.19133501446E+02 -0.19954640589E+03  0.22640584539E+03  0.00000000000E+00 0.  1.
</event>
<event>
12    1  0.8798177E-003  0.2031312E+03  0.7818608E-02  0.1148669E+00
         21   -1    0    0  503  502  0.00000000000E+00  0.00000000000E+00  0.21718097453E+03  0.21718097453E+03  0.00000000000E+00 0. -1.
         21   -1    0    0  501  503 -0.00000000000E+00 -0.00000000000E+00 -0.25677298382E+03  0.25677298382E+03  0.00000000000E+00 0. -1.
          6    2    1    2  501    0  0.10347581131E+03 -0.32947500250E+02 -0.14637516656E+03  0.24446553831E+03  0.16292614503E+03 0.  0.
         24    2    3    3    0    0  0.13402948143E+03 -0.19164841878E+02 -0.93852190948E+02  0.18198160919E+03  0.77316746455E+02 0.  0.
         -6    2    1    2    0  502 -0.10347581131E+03  0.32947500250E+02  0.10678315728E+03  0.22948842004E+03  0.17166686039E+03 0.  0.
        -24    2    5    5    0    0  0.63446698129E+01 -0.90548950972E+00  0.37844503810E+02  0.95394456974E+02  0.87331673558E+02 0.  0.
          5    1    3    3  501    0 -0.30553670123E+02 -0.13782658372E+02 -0.52522975616E+02  0.62483929113E+02  0.47000000000E+01 0. -1.
        -11    1    4    4    0    0  0.81130585670E+01 -0.17850132570E+02  0.68231546321E+01  0.20760645250E+02  0.00000000000E+00 0.  1.
         12    1    4    4    0    0  0.12591642286E+03 -0.13147093078E+01 -0.10067534558E+03  0.16122096394E+03  0.00000000000E+00 0. -1.
         -5    1    5    5    0  502 -0.10982048112E+03  0.33852989759E+02  0.68938653469E+02  0.13409396307E+03  0.47000000000E+01 0.  1.
         13    1    6    6    0    0 -0.22109944445E+02  0.35145253473E+02  0.15503113897E+02  0.44321383389E+02  0.00000000000E+00 0. -1.
        -14    1    6    6    0    0  0.28454614258E+02 -0.36050742983E+02  0.22341389913E+02  0.51073073585E+02  0.00000000000E+00 0.  1.
</event>
<event>
12    1  0.8798177E-003  0.2645049E+03  0.7818608E-02  0.1104677E+00
         21   -1    0    0  501  502  0.00000000000E+00  0.00000000000E+00  0.83374070481E+03  0.83374070481E+03  0.00000000000E+00 0.  1.
         21   -1    0    0  502  503 -0.00000000000E+00 -0.00000000000E+00 -0.26705026534E+03  0.26705026534E+03  0.00000000000E+00 0. -1.
          6    2    1    2  501    0 -0.19846350263E+03 -0.78675560862E+01  0.73945835517E+03  0.78486126308E+03  0.17250763155E+03 0.  0.
         24    2    3    3    0    0 -0.11606343559E+03  0.56152837105E+02  0.51090433632E+03  0.53356977631E+03  0.83961914730E+02 0.  0.
         -6    2    1    2    0  503  0.19846350263E+03  0.78675560862E+01 -0.17276791570E+03  0.31592970707E+03  0.17468018433E+03 0.  0.
        -24    2    5    5    0    0  0.13149000727E+03 -0.48267377540E+02 -0.58662336189E+02  0.17212861830E+03  0.81040914396E+02 0.  0.
          5    1    3    3  501    0 -0.82400067044E+02 -0.64020393191E+02  0.22855401885E+03  0.25129148677E+03  0.47000000000E+01 0. -1.
        -13    1    4    4    0    0 -0.10846635716E+03  0.13008005853E+02  0.38825864257E+03  0.40333476465E+03  0.00000000000E+00 0.  1.
         14    1    4    4    0    0 -0.75970784281E+01  0.43144831252E+02  0.12264569375E+03  0.13023501166E+03  0.00000000000E+00 0. -1.
         -5    1    5    5    0  503  0.66973495365E+02  0.56134933627E+02 -0.11410557951E+03  0.14380108877E+03  0.47000000000E+01 0.  1.
         11    1    6    6    0    0  0.82237027131E+02 -0.13743606137E+02 -0.72408534398E+02  0.11043011906E+03  0.00000000000E+00 0. -1.
        -12    1    6    6    0    0  0.49252980134E+02 -0.34523771403E+02  0.13746198209E+02  0.61698499246E+02  0.00000000000E+00 0.  1.
</event>
<event>
12    1  0.8798177E-003  0.1798100E+03  0.7818608E-02  0.1168108E+00
         21   -1    0    0  503  502  0.00000000000E+00  0.00000000000E+00  0.19191643826E+04  0.19191643826E+04  0.00000000000E+00 0. -1.
         21   -1    0    0  501  503 -0.00000000000E+00 -0.00000000000E+00 -0.16886218326E+02  0.16886218326E+02  0.00000000000E+00 0. -1.
          6    2    1    2  501    0 -0.41775519161E+02  0.26754998862E+02  0.88069033483E+03  0.89875925237E+03  0.17231280829E+03 0.  0.
         24    2    3    3    0    0 -0.81558743995E+02  0.51370217119E+02  0.50338649028E+03  0.51853708698E+03  0.78689415079E+02 0.  0.
         -6    2    1    2    0  502  0.41775519161E+02 -0.26754998862E+02  0.10215878294E+04  0.10372913485E+04  0.17283120246E+03 0.  0.
        -24    2    5    5    0    0  0.94606070140E+02 -0.25011766113E+02  0.68460728550E+03  0.69615782194E+03  0.79829072053E+02 0.  0.
          5    1    3    3  501    0  0.39783224834E+02 -0.24615218257E+02  0.37730384455E+03  0.38022216540E+03  0.47000000000E+01 0. -1.
        -11    1    4    4    0    0 -0.29692256911E+02  0.19509775378E+01  0.32415836481E+03  0.32552124648E+03  0.00000000000E+00 0.  1.
         12    1    4    4    0    0 -0.51866487084E+02  0.49419239581E+02  0.17922812547E+03  0.19301584050E+03  0.00000000000E+00 0. -1.
         -5    1    5    5    0  502 -0.52830550980E+02 -0.17432327490E+01  0.33698054393E+03  0.34113352659E+03  0.47000000000E+01 0.  1.
         11    1    6    6    0    0  0.44245369652E+02  0.23226901983E+02  0.40104407715E+03  0.40414538662E+03  0.00000000000E+00 0. -1.
        -12    1    6    6    0    0  0.50360700488E+02 -0.48238668096E+02  0.28356320835E+03  0.29201243532E+03  0.00000000000E+00 0.  1.
</event>
<event>
12    1  0.8798177E-003  0.2190429E+03  0.7818608E-02  0.1135991E+00
         21   -1    0    0  501  502  0.00000000000E+00  0.00000000000E+00  0.56696517583E+03  0.56696517583E+03  0.00000000000E+00 0.  1.
         21   -1    0    0  502  503 -0.00000000000E+00 -0.00000000000E+00 -0.91457904685E+02  0.91457904685E+02  0.00000000000E+00 0.  1.
          6    2    1    2  501    0  0.11951670216E+03 -0.26401483748E+02  0.12735731317E+03  0.24709816097E+03  0.17278985936E+03 0.  0.
         24    2    3    3    0    0  0.12643450826E+03 -0.57725572646E+02  0.13926026593E+03  0.21256086416E+03  0.80441113194E+02 0.  0.
         -6    2    1    2    0  503 -0.11951670216E+03  0.26401483748E+02  0.34814995797E+03  0.41132491954E+03  0.18165493596E+03 0.  0.
        -24    2    5    5    0    0 -0.44818617390E+02  0.64264468637E+02  0.10295568482E+03  0.15218069120E+03  0.80127768871E+02 0.  0.
          5    1    3    3  501    0 -0.69178060935E+01  0.31324088898E+02 -0.11902952760E+02  0.34537296809E+02  0.47000000000E+01 0. -1.
        -13    1    4    4    0    0  0.61694533367E+02 -0.25533680849E+02  0.14441601622E+02  0.68313572315E+02  0.00000000000E+00 0.  1.
         14    1    4    4    0    0  0.64739974889E+02 -0.32191891797E+02  0.12481866431E+03  0.14424729185E+03  0.00000000000E+00 0. -1.
         -5    1    5    5    0  503 -0.74698084773E+02 -0.37862984888E+02  0.24519427316E+03  0.25914422834E+03  0.47000000000E+01 0.  1.
         11    1    6    6    0    0 -0.30992083243E+02  0.45653740545E+02  0.96240334786E+01  0.56012456382E+02  0.00000000000E+00 0. -1.
        -12    1    6    6    0    0 -0.13826534146E+02  0.18610728091E+02  0.93331651338E+02  0.96168234818E+02  0.00000000000E+00 0.  1.
</event>
<event>
12    1  0.8798177E-003  0.1747282E+03  0.7818608E-02  0.1173135E+00
         21   -1    0    0  503  502  0.00000000000E+00  0.00000000000E+00  0.28567813641E+03  0.28567813641E+03  0.00000000000E+00 0.  1.
         21   -1    0    0  501  503 -0.00000000000E+00 -0.00000000000E+00 -0.11512435482E+03  0.11512435482E+03  0.00000000000E+00 0.  1.
          6    2    1    2  501    0 -0.16046063383E+02  0.54994155664E+01  0.14007950608E+03  0.22394687230E+03  0.17390288632E+03 0.  0.
         24    2    3    3    0    0 -0.68265707310E+02  0.48024659817E+02  0.73218296819E+02  0.12893214232E+03  0.65543905811E+02 0.  0.
         -6    2    1    2    0  502  0.16046063383E+02 -0.54994155664E+01  0.30474275518E+02  0.17685561892E+03  0.17338255032E+03 0.  0.
        -24    2    5    5    0    0 -0.14977465587E+01 -0.27126542783E+02  0.81144781288E+02  0.11884606752E+03  0.82473145124E+02 0.  0.
          5    1    3    3  501    0  0.52219643927E+02 -0.42525244250E+02  0.66861209259E+02  0.95014729984E+02  0.47000000000E+01 0. -1.
        -11    1    4    4    0    0 -0.57655475442E+01  0.11798764992E+02 -0.11598556971E+02  0.17520813841E+02  0.00000000000E+00 0.  1.
         12    1    4    4    0    0 -0.62500159766E+02  0.36225894824E+02  0.84816853790E+02  0.11141132848E+03  0.00000000000E+00 0. -1.
         -5    1    5    5    0  502  0.17543809942E+02  0.21627127217E+02 -0.50670505770E+02  0.58009551402E+02  0.47000000000E+01 0.  1.
         11    1    6    6    0    0 -0.21650473088E+02  0.11755191148E+02 -0.21608143515E+01  0.24730479625E+02  0.00000000000E+00 0. -1.
        -12    1    6    6    0    0  0.20152726529E+02 -0.38881733930E+02  0.83305595639E+02  0.94115587895E+02  0.00000000000E+00 0.  1.
</event>
<event>
12    1  0.8798177E-003  0.1761030E+03  0.7818608E-02  0.1171714E+00
         21   -1    0    0  503  502  0.00000000000E+00  0.00000000000E+00  0.22116033508E+03  0.22116033508E+03  0.00000000000E+00 0.  1.
         21   -1    0    0  501  503 -0.00000000000E+00 -0.00000000000E+00 -0.14299900955E+03  0.14299900955E+03  0.00000000000E+00 0.  1.
          6    2    1    2  501    0 -0.23795650242E+02  0.34443594693E+02  0.12466448620E+02  0.17620169738E+03  0.17070158650E+03 0.  0.
         24    2    3    3    0    0 -0.25883393001E+02  0.48187425243E+02  0.69315712136E+02  0.11748900446E+03  0.77504969096E+02 0.  0.
         -6    2    1    2    0  502  0.23795650242E+02 -0.34443594693E+02  0.65694876903E+02  0.18795764725E+03  0.17105457060E+03 0.  0.
        -24    2    5    5    0    0  0.65213279332E+00 -0.71329636969E+02 -0.26582376193E+01  0.10677611745E+03  0.79408630791E+02 0.  0.
          5    1    3    3  501    0  0.20877427586E+01 -0.13743830550E+02 -0.56849263517E+02  0.58712692924E+02  0.47000000000E+01 0. -1.
        -11    1    4    4    0    0  0.20349748653E+02  0.42963041319E+02  0.27426353651E+02  0.54882966977E+02  0.00000000000E+00 0.  1.
         12    1    4    4    0    0 -0.46233141654E+02  0.52243839238E+01  0.41889358486E+02  0.62606037480E+02  0.00000000000E+00 0. -1.
         -5    1    5    5    0  502  0.23143517449E+02  0.36886042276E+02  0.68353114522E+02  0.81181529793E+02  0.47000000000E+01 0.  1.
         13    1    6    6    0    0  0.29020940068E+02 -0.45967576093E+01  0.13733691245E+02  0.32433923878E+02  0.00000000000E+00 0. -1.
        -14    1    6    6    0    0 -0.28368807274E+02 -0.66732879359E+02 -0.16391928864E+02  0.74342193576E+02  0.00000000000E+00 0.  1.
</event>
<event>
12    1  0.8798177E-003  0.1897238E+03  0.7818608E-02  0.1158713E+00
         21   -1    0    0  503  502  0.00000000000E+00  0.00000000000E+00  0.39906306888E+03  0.39906306888E+03  0.00000000000E+00 0. -1.
         21   -1    0    0  501  503 -0.00000000000E+00 -0.00000000000E+00 -0.95104464453E+02  0.95104464453E+02  0.00000000000E+00 0. -1.
          6    2    1    2  501    0 -0.58607240707E+02  0.55290591343E+02  0.20812734337E+03  0.28162405045E+03  0.17176512038E+03 0.  0.
         24    2    3    3    0    0 -0.35804413503E+02  0.93964971349E+02  0.95417009205E+02  0.16020994079E+03  0.80320903968E+02 0.  0.
         -6    2    1    2    0  502  0.58607240707E+02 -0.55290591343E+02  0.95831261051E+02  0.21254348288E+03  0.17175343771E+03 0.  0.
        -24    2    5    5    0    0  0.93875713500E+02 -0.24672587246E+01  0.83768800616E+02  0.14772247862E+03  0.77369126794E+02 0.  0.
          5    1    3    3  501    0 -0.22802827204E+02 -0.38674380005E+02  0.11271033417E+03  0.12141410966E+03  0.47000000000E+01 0. -1.
        -13    1    4    4    0    0 -0.42792938266E+02  0.11955940415E+02  0.20576292397E+02  0.48964925053E+02  0.00000000000E+00 0.  1.
         14    1    4    4    0    0  0.69885247632E+01  0.82009030934E+02  0.74840716808E+02  0.11124501573E+03  0.00000000000E+00 0. -1.
         -5    1    5    5    0  502 -0.35268472793E+02 -0.52823332619E+02  0.12062460435E+02  0.64821004264E+02  0.47000000000E+01 0.  1.
         11    1    6    6    0    0  0.51656530461E+02 -0.38848349515E+02  0.34141953575E+02  0.73097636031E+02  0.00000000000E+00 0. -1.
        -12    1    6    6    0    0  0.42219183039E+02  0.36381090790E+02  0.49626847041E+02  0.74624842584E+02  0.00000000000E+00 0.  1.
</event>
<event>
12    1  0.8798177E-003  0.1803348E+03  0.7818608E-02  0.1170848E+00
         21   -1    0    0  503  502  0.00000000000E+00  0.00000000000E+00  0.18100249953E+03  0.18100249953E+03  0.00000000000E+00 0.  1.
         21   -1    0    0  501  503 -0.00000000000E+00 -0.00000000000E+00 -0.16698259511E+03  0.16698259511E+03  0.00000000000E+00 0.  1.
          6    2    1    2  501    0  0.13546071012E+02 -0.52730774787E+02 -0.18594683647E+01  0.16695248628E+03  0.15781522234E+03 0.  0.
         24    2    3    3    0    0 -0.37376013971E+01 -0.87236645332E+02  0.23477110715E+02  0.12054760858E+03  0.79726716068E+02 0.  0.
         -6    2    1    2    0  502 -0.13546071012E+02  0.52730774787E+02  0.15879372789E+02  0.18103260836E+03  0.17192038902E+03 0.  0.
        -24    2    5    5    0    0  0.37158490417E+02  0.75862312510E+02  0.30854387248E+02  0.12313302593E+03  0.84106509816E+02 0.  0.
          5    1    3    3  501    0  0.17283672409E+02  0.34505870545E+02 -0.25336579080E+02  0.46404877691E+02  0.47000000000E+01 0. -1.
        -11    1    4    4    0    0 -0.96349565503E+01 -0.36381380195E+02 -0.28789672432E+02  0.47384411480E+02  0.00000000000E+00 0.  1.
         12    1    4    4    0    0  0.58973551532E+01 -0.50855265137E+02  0.52266783147E+02  0.73163197104E+02  0.00000000000E+00 0. -1.
         -5    1    5    5    0  502 -0.50704561430E+02 -0.23131537723E+02 -0.14975014459E+02  0.57899582427E+02  0.47000000000E+01 0.  1.
         11    1    6    6    0    0  0.18649293515E+01  0.19610910719E+02 -0.28110483695E+02  0.34325865965E+02  0.00000000000E+00 0. -1.
        -12    1    6    6    0    0  0.35293561066E+02  0.56251401790E+02  0.58964870942E+02  0.88807159967E+02  0.00000000000E+00 0.  1.
</event>
<event>
12    1  0.8798177E-003  0.2797052E+03  0.7818608E-02  0.1095967E+00
         21   -1    0    0  503  502  0.00000000000E+00  0.00000000000E+00  0.16669294171E+03  0.16669294171E+03  0.00000000000E+00 0.  1.
         21   -1    0    0  501  503 -0.00000000000E+00 -0.00000000000E+00 -0.50109744089E+03  0.50109744089E+03  0.00000000000E+00 0.  1.
          6    2    1    2  501    0  0.30542795959E+02  0.21753523970E+03 -0.25290385311E+03  0.37645316019E+03  0.17176198649E+03 0.  0.
         24    2    3    3    0    0  0.24781732166E+02  0.24035160346E+03 -0.22571260250E+03  0.34018705451E+03  0.79987659007E+02 0.  0.
         -6    2    1    2    0  502 -0.30542795959E+02 -0.21753523970E+03 -0.81500646064E+02  0.29133722241E+03  0.17314900796E+03 0.  0.
        -24    2    5    5    0    0  0.48145593765E+02 -0.13603826307E+03 -0.53823801345E+02  0.17462510817E+03  0.82295319395E+02 0.  0.
          5    1    3    3  501    0  0.57610637926E+01 -0.22816363762E+02 -0.27191250613E+02  0.36266105681E+02  0.47000000000E+01 0. -1.
        -13    1    4    4    0    0 -0.22706733457E+01  0.55525263737E+02 -0.12949834082E+02  0.57060573720E+02  0.00000000000E+00 0.  1.
         14    1    4    4    0    0  0.27052405512E+02  0.18482633972E+03 -0.21276276842E+03  0.28312648079E+03  0.00000000000E+00 0. -1.
         -5    1    5    5    0  502 -0.78688389723E+02 -0.81496976629E+02 -0.27676844719E+02  0.11671211424E+03  0.47000000000E+01 0.  1.
         13    1    6    6    0    0 -0.11295661176E+02 -0.13792804422E+02  0.14042379662E+02  0.22694092663E+02  0.00000000000E+00 0. -1.
        -14    1    6    6    0    0  0.59441254940E+02 -0.12224545865E+03 -0.67866181006E+02  0.15193101551E+03  0.00000000000E+00 0.  1.
</event>
<event>
12    1  0.8798177E-003  0.2392519E+03  0.7818608E-02  0.1121925E+00
         21   -1    0    0  501  502  0.00000000000E+00  0.00000000000E+00  0.40079142193E+03  0.40079142193E+03  0.00000000000E+00 0.  1.
         21   -1    0    0  502  503 -0.00000000000E+00 -0.00000000000E+00 -0.16565260910E+03  0.16565260910E+03  0.00000000000E+00 0.  1.
          6    2    1    2  501    0  0.10326504521E+03 -0.13104743228E+03  0.23299653624E+03  0.32718250680E+03  0.15787307492E+03 0.  0.
         24    2    3    3    0    0  0.13510922528E+02 -0.11155791816E+03  0.13248799040E+03  0.19094851146E+03  0.79249935620E+02 0.  0.
         -6    2    1    2    0  503 -0.10326504521E+03  0.13104743228E+03  0.21422765855E+01  0.23926152423E+03  0.17147707882E+03 0.  0.
        -24    2    5    5    0    0 -0.94552786466E+02  0.25647364133E+02  0.32053943003E+02  0.12925299908E+03  0.77979906352E+02 0.  0.
          5    1    3    3  501    0  0.89754122682E+02 -0.19489514116E+02  0.10050854585E+03  0.13623399535E+03  0.47000000000E+01 0. -1.
        -11    1    4    4    0    0  0.13135297534E+02 -0.63306251916E+02  0.12683756877E+03  0.14236567854E+03  0.00000000000E+00 0.  1.
         12    1    4    4    0    0  0.37562499352E+00 -0.48251666249E+02  0.56504216206E+01  0.48582832919E+02  0.00000000000E+00 0. -1.
         -5    1    5    5    0  503 -0.87122587445E+01  0.10540006815E+03 -0.29911666417E+02  0.11000852515E+03  0.47000000000E+01 0.  1.
         13    1    6    6    0    0 -0.91637958682E+02  0.44672962539E+02  0.38470457572E+02  0.10896405444E+03  0.00000000000E+00 0. -1.
        -14    1    6    6    0    0 -0.29148277840E+01 -0.19025598406E+02 -0.64165145689E+01  0.20288944648E+02  0.00000000000E+00 0.  1.
</event>
<event>
12    1  0.8798177E-003  0.1910320E+03  0.7818608E-02  0.1157772E+00
         21   -1    0    0  501  502  0.00000000000E+00  0.00000000000E+00  0.67010842277E+02  0.67010842277E+02  0.00000000000E+00 0.  1.
         21   -1    0    0  502  503 -0.00000000000E+00 -0.00000000000E+00 -0.60288965634E+03  0.60288965634E+03  0.00000000000E+00 0. -1.
          6    2    1    2  501    0  0.51248777387E+02  0.65525713264E+02 -0.37542882582E+03  0.42123630098E+03  0.17196849050E+03 0.  0.
         24    2    3    3    0    0  0.75501807166E+02  0.32555994691E+00 -0.29306803947E+03  0.31332588177E+03  0.81139408150E+02 0.  0.
         -6    2    1    2    0  503 -0.51248777387E+02 -0.65525713264E+02 -0.16044998824E+03  0.24866419763E+03  0.17079118296E+03 0.  0.
        -24    2    5    5    0    0 -0.66444659465E+02 -0.17331578255E+02 -0.15824059587E+03  0.19786497622E+03  0.96928768985E+02 0.  0.
          5    1    3    3  501    0 -0.24253029779E+02  0.65200153317E+02 -0.82360786356E+02  0.10791041921E+03  0.47000000000E+01 0. -1.
        -13    1    4    4    0    0 -0.15299263015E+02  0.79945129175E+01 -0.26624781549E+02  0.31731036512E+02  0.00000000000E+00 0.  1.
         14    1    4    4    0    0  0.90801070180E+02 -0.76689529706E+01 -0.26644325792E+03  0.28159484526E+03  0.00000000000E+00 0. -1.
         -5    1    5    5    0  503  0.15195882078E+02 -0.48194135009E+02 -0.22093923696E+01  0.50799221412E+02  0.47000000000E+01 0.  1.
         11    1    6    6    0    0 -0.36628078476E+01 -0.45381280597E+02 -0.90669541876E+02  0.10145857585E+03  0.00000000000E+00 0. -1.
        -12    1    6    6    0    0 -0.62781851617E+02  0.28049702342E+02 -0.67571053995E+02  0.96406400368E+02  0.00000000000E+00 0.  1.
</event>
<event>
12    1  0.8798177E-003  0.1919056E+03  0.7818608E-02  0.1156974E+00
         21   -1    0    0  501  502  0.00000000000E+00  0.00000000000E+00  0.56695079414E+03  0.56695079414E+03  0.00000000000E+00 0.  1.
         21   -1    0    0  502  503 -0.00000000000E+00 -0.00000000000E+00 -0.66126514042E+02  0.66126514042E+02  0.00000000000E+00 0.  1.
          6    2    1    2  501    0  0.73425112891E+02 -0.45782833457E+02  0.20207044685E+03  0.27799756064E+03  0.17018479130E+03 0.  0.
         24    2    3    3    0    0  0.24074407031E+01 -0.68795336966E+02  0.16027503412E+03  0.19231190486E+03  0.80976465914E+02 0.  0.
         -6    2    1    2    0  503 -0.73425112891E+02  0.45782833457E+02  0.29875383326E+03  0.35507974755E+03  0.17129056947E+03 0.  0.
        -24    2    5    5    0    0 -0.41099614606E+02 -0.15535439312E+02  0.26150908477E+03  0.27624999616E+03  0.77437269856E+02 0.  0.
          5    1    3    3  501    0  0.71017672188E+02  0.23012503509E+02  0.41795412730E+02  0.85685655778E+02  0.47000000000E+01 0. -1.
        -11    1    4    4    0    0  0.24320010350E+02 -0.22021342144E+02  0.12628962425E+03  0.13048169070E+03  0.00000000000E+00 0.  1.
         12    1    4    4    0    0 -0.21912569647E+02 -0.46773994822E+02  0.33985409862E+02  0.61830214165E+02  0.00000000000E+00 0. -1.
         -5    1    5    5    0  503 -0.32325498285E+02  0.61318272768E+02  0.37244748486E+02  0.78829751392E+02  0.47000000000E+01 0.  1.
         13    1    6    6    0    0  0.11000361042E+02  0.19824132313E+01  0.16348534874E+03  0.16386701059E+03  0.00000000000E+00 0. -1.
        -14    1    6    6    0    0 -0.52099975648E+02 -0.17517852543E+02  0.98023736027E+02  0.11238298557E+03  0.00000000000E+00 0.  1.
</event>
<event>
12    1  0.8798177E-003  0.1791806E+03  0.7818608E-02  0.1168706E+00
         21   -1    0    0  501  502  0.00000000000E+00  0.00000000000E+00  0.15798370656E+03  0.15798370656E+03  0.00000000000E+00 0.  1.
         21   -1    0    0  502  503 -0.00000000000E+00 -0.00000000000E+00 -0.20453274873E+03  0.20453274873E+03  0.00000000000E+00 0.  1.
          6    2    1    2  501    0  0.40728107339E+02 -0.36822715155E+02 -0.40313458470E+02  0.18322739231E+03  0.17009530058E+03 0.  0.
         24    2    3    3    0    0 -0.18061528609E+02  0.10826149146E+02 -0.62145377334E+02  0.10432645286E+03  0.81108177895E+02 0.  0.
         -6    2    1    2    0  503 -0.40728107339E+02  0.36822715155E+02 -0.62355837069E+01  0.17928906298E+03  0.17056082353E+03 0.  0.
        -24    2    5    5    0    0 -0.74521277357E+02  0.26547168239E+02  0.42397635828E+02  0.11899938520E+03  0.78135275228E+02 0.  0.
          5    1    3    3  501    0  0.58789635949E+02 -0.47648864301E+02  0.21831918864E+02  0.78900939446E+02  0.47000000000E+01 0. -1.
        -11    1    4    4    0    0  0.23960695933E+02 -0.18849987147E+02 -0.34073155791E+02  0.45721077313E+02  0.00000000000E+00 0.  1.
         12    1    4    4    0    0 -0.42022224543E+02  0.29676136293E+02 -0.28072221543E+02  0.58605375548E+02  0.00000000000E+00 0. -1.
         -5    1    5    5    0  503  0.33793170017E+02  0.10275546916E+02 -0.48633219535E+02  0.60289677778E+02  0.47000000000E+01 0.  1.
         11    1    6    6    0    0 -0.35331185488E+02 -0.74935119579E+01 -0.17167012619E+02  0.39989394991E+02  0.00000000000E+00 0. -1.
        -12    1    6    6    0    0 -0.39190091868E+02  0.34040680197E+02  0.59564648447E+02  0.79009990214E+02  0.00000000000E+00 0.  1.
</event>
<event>
12    1  0.8798177E-003  0.2248681E+03  0.7818608E-02  0.1130446E+00
         21   -1    0    0  501  502  0.00000000000E+00  0.00000000000E+00  0.10345962909E+03  0.10345962909E+03  0.00000000000E+00 0. -1.
         21   -1    0    0  502  503 -0.00000000000E+00 -0.00000000000E+00 -0.54165744911E+03  0.54165744911E+03  0.00000000000E+00 0.  1.
          6    2    1    2  501    0 -0.93284061200E+02 -0.11036987706E+03 -0.11634282027E+03  0.25248964421E+03  0.17126570808E+03 0.  0.
         24    2    3    3    0    0 -0.92495362725E+02 -0.10555618809E+02 -0.52977151950E+02  0.13416464212E+03  0.80788361498E+02 0.  0.
         -6    2    1    2    0  503  0.93284061200E+02  0.11036987706E+03 -0.32185499974E+03  0.39262743400E+03  0.17228533087E+03 0.  0.
        -24    2    5    5    0    0  0.95274180282E+02  0.11101260369E+03 -0.33737921255E+03  0.37627308122E+03  0.79722838539E+02 0.  0.
          5    1    3    3  501    0 -0.78869847496E+00 -0.99814258250E+02 -0.63365668323E+02  0.11832500208E+03  0.47000000000E+01 0. -1.
        -11    1    4    4    0    0 -0.12156303658E+02  0.70639095336E+01 -0.49917009605E+02  0.51859255532E+02  0.00000000000E+00 0.  1.
         12    1    4    4    0    0 -0.80339059068E+02 -0.17619528343E+02 -0.30601423457E+01  0.82305386592E+02  0.00000000000E+00 0. -1.
         -5    1    5    5    0  503 -0.19901190811E+01 -0.64272663141E+00  0.15524212807E+02  0.16354352777E+02  0.47000000000E+01 0.  1.
         13    1    6    6    0    0  0.46522940109E+01 -0.10379331738E+02 -0.51461474393E+02  0.52703488629E+02  0.00000000000E+00 0. -1.
        -14    1    6    6    0    0  0.90621886271E+02  0.12139193543E+03 -0.28591773816E+03  0.32356959259E+03  0.00000000000E+00 0.  1.
</event>
<event>
12    1  0.8798177E-003  0.1802021E+03  0.7818608E-02  0.1167626E+00
         21   -1    0    0  503  502  0.00000000000E+00  0.00000000000E+00  0.40715581007E+02  0.40715581007E+02  0.00000000000E+00 0.  1.
         21   -1    0    0  501  503 -0.00000000000E+00 -0.00000000000E+00 -0.79921743394E+03  0.79921743394E+03  0.00000000000E+00 0.  1.
          6    2    1    2  501    0  0.51982953834E+02  0.12093422782E+02 -0.35815487164E+03  0.40089942700E+03  0.17203767065E+03 0.  0.
         24    2    3    3    0    0 -0.10263978158E+02 -0.36171223542E+02 -0.26161103455E+03  0.27621198133E+03  0.80243495510E+02 0.  0.
         -6    2    1    2    0  502 -0.51982953834E+02 -0.12093422782E+02 -0.40034698130E+03  0.43903358795E+03  0.17211713324E+03 0.  0.
        -24    2    5    5    0    0  0.20912151353E+02 -0.38830395515E+02 -0.13312242161E+03  0.16071790861E+03  0.78508275494E+02 0.  0.
          5    1    3    3  501    0  0.62246931991E+02  0.48264646324E+02 -0.96543837087E+02  0.12468744567E+03  0.47000000000E+01 0. -1.
        -13    1    4    4    0    0 -0.13519127933E+02  0.21376855232E+02 -0.13142158789E+03  0.13383336850E+03  0.00000000000E+00 0.  1.
         14    1    4    4    0    0  0.32551497751E+01 -0.57548078774E+02 -0.13018944666E+03  0.14237861284E+03  0.00000000000E+00 0. -1.
         -5    1    5    5    0  502 -0.72895105187E+02  0.26736972734E+02 -0.26722455968E+03  0.27831567934E+03  0.47000000000E+01 0.  1.
         13    1    6    6    0    0  0.81405568851E+01  0.18399968643E+02 -0.76873427756E+02  0.79462893273E+02  0.00000000000E+00 0. -1.
        -14    1    6    6    0    0  0.12771594468E+02 -0.57230364159E+02 -0.56248993858E+02  0.81255015335E+02  0.00000000000E+00 0.  1.
</event>
<event>
12    1  0.8798177E-003  0.2439247E+03  0.7818608E-02  0.1117850E+00
         21   -1    0    0  501  502  0.00000000000E+00  0.00000000000E+00  0.39714973452E+02  0.39714973452E+02  0.00000000000E+00 0. -1.
         21   -1    0    0  502  503 -0.00000000000E+00 -0.00000000000E+00 -0.20235683214E+04  0.20235683214E+04  0.00000000000E+00 0.  1.
          6    2    1    2  501    0 -0.32348882001E+02  0.16978666827E+03 -0.46025323470E+03  0.52089567211E+03  0.17212001126E+03 0.  0.
         24    2    3    3    0    0  0.46918770997E+02  0.11849000977E+03 -0.29150677753E+03  0.32747342728E+03  0.77597620722E+02 0.  0.
         -6    2    1    2    0  503  0.32348882001E+02 -0.16978666827E+03 -0.15236001132E+04  0.15423876227E+04  0.16651819969E+03 0.  0.
        -24    2    5    5    0    0 -0.23333085920E+02 -0.14791694284E+03 -0.82572802353E+03  0.84194040129E+03  0.67919184349E+02 0.  0.
          5    1    3    3  501    0 -0.79267652998E+02  0.51296658497E+02 -0.16874645718E+03  0.19342224483E+03  0.47000000000E+01 0. -1.
        -11    1    4    4    0    0  0.33670612452E+02  0.12233780238E+03 -0.28550004883E+03  0.31242683290E+03  0.00000000000E+00 0.  1.
         12    1    4    4    0    0  0.13248158544E+02 -0.38477926103E+01 -0.60067287015E+01  0.15046594381E+02  0.00000000000E+00 0. -1.
         -5    1    5    5    0  503  0.55681967921E+02 -0.21869725428E+02 -0.69787208971E+03  0.70044722145E+03  0.47000000000E+01 0.  1.
         11    1    6    6    0    0  0.13028561045E+02 -0.11343660620E+03 -0.55783927752E+03  0.56940518664E+03  0.00000000000E+00 0. -1.
        -12    1    6    6    0    0 -0.36361646965E+02 -0.34480336640E+02 -0.26788874601E+03  0.27253521465E+03  0.00000000000E+00 0.  1.
</event>
<event>
12    1  0.8798177E-003  0.1832277E+03  0.7818608E-02  0.1164927E+00
         21   -1    0    0  503  502  0.00000000000E+00  0.00000000000E+00  0.50670489069E+02  0.50670489069E+02  0.00000000000E+00 0. -1.
         21   -1    0    0  501  503 -0.00000000000E+00 -0.00000000000E+00 -0.11462731073E+04  0.11462731073E+04  0.00000000000E+00 0. -1.
          6    2    1    2  501    0  0.45670693065E+02 -0.41313808246E+02 -0.93709489326E+03  0.95466875669E+03  0.17161862679E+03 0.  0.
         24    2    3    3    0    0  0.73381680522E+02 -0.76329486276E+02 -0.57991746052E+03  0.59468013882E+03  0.78288856041E+02 0.  0.
         -6    2    1    2    0  502 -0.45670693065E+02  0.41313808246E+02 -0.15850772501E+03  0.24227483972E+03  0.17256812023E+03 0.  0.
        -24    2    5    5    0    0 -0.85881124875E+02  0.62629728238E+02 -0.92585350355E+02  0.16203085707E+03  0.79899318360E+02 0.  0.
          5    1    3    3  501    0 -0.27710987457E+02  0.35015678030E+02 -0.35717743274E+03  0.35998861787E+03  0.47000000000E+01 0. -1.
        -13    1    4    4    0    0  0.62181664007E+02 -0.19343407859E+02 -0.19961364327E+03  0.20996745783E+03  0.00000000000E+00 0.  1.
         14    1    4    4    0    0  0.11200016515E+02 -0.56986078416E+02 -0.38030381725E+03  0.38471268099E+03  0.00000000000E+00 0. -1.
         -5    1    5    5    0  502  0.40210431810E+02 -0.21315919993E+02 -0.65922374656E+02  0.80243982652E+02  0.47000000000E+01 0.  1.
         13    1    6    6    0    0 -0.60162070010E+01  0.75716356811E+01  0.14571629992E+02  0.17488762512E+02  0.00000000000E+00 0. -1.
        -14    1    6    6    0    0 -0.79864917874E+02  0.55058092557E+02 -0.10715698035E+03  0.14454209456E+03  0.00000000000E+00 0.  1.
</event>
<event>
12    1  0.8798177E-003  0.1997153E+03  0.7818608E-02  0.1154366E+00
         21   -1    0    0  503  502  0.00000000000E+00  0.00000000000E+00  0.49906863104E+03  0.49906863104E+03  0.00000000000E+00 0. -1.
         21   -1    0    0  501  503 -0.00000000000E+00 -0.00000000000E+00 -0.74281750802E+02  0.74281750802E+02  0.00000000000E+00 0. -1.
          6    2    1    2  501    0 -0.52999141096E+01 -0.50789226424E+02  0.15440641484E+03  0.23720785748E+03  0.17268060719E+03 0.  0.
         24    2    3    3    0    0 -0.41915061254E+02  0.20408984838E+01  0.27881314760E+02  0.95213554614E+02  0.80791185428E+02 0.  0.
         -6    2    1    2    0  502  0.52999141096E+01  0.50789226424E+02  0.27038046540E+03  0.33614252436E+03  0.19307658067E+03 0.  0.
        -24    2    5    5    0    0  0.61171931257E+02 -0.15020814310E+02  0.20640360184E+03  0.22858894314E+03  0.75384534475E+02 0.  0.
          5    1    3    3  501    0  0.36615147144E+02 -0.52830124908E+02  0.12652510008E+03  0.14199430287E+03  0.47000000000E+01 0. -1.
        -13    1    4    4    0    0 -0.54721946179E+02  0.14758429804E+02  0.43420052224E+02  0.71397504011E+02  0.00000000000E+00 0.  1.
         14    1    4    4    0    0  0.12806884924E+02 -0.12717531320E+02 -0.15538737464E+02  0.23816050603E+02  0.00000000000E+00 0. -1.
         -5    1    5    5    0  502 -0.55872017147E+02  0.65810040734E+02  0.63976863561E+02  0.10755358122E+03  0.47000000000E+01 0.  1.
         13    1    6    6    0    0  0.35015239548E+02 -0.40265499804E+02  0.16538501575E+03  0.17378026616E+03  0.00000000000E+00 0. -1.
        -14    1    6    6    0    0  0.26156691708E+02  0.25244685495E+02  0.41018586096E+02  0.54808676979E+02  0.00000000000E+00 0.  1.
</event>
<event>
12    1  0.8798177E-003  0.4793395E+03  0.7818608E-02  0.1019317E+00
         21   -1    0    0  503  502  0.00000000000E+00  0.00000000000E+00  0.75089615182E+03  0.75089615182E+03  0.00000000000E+00 0.  1.
         21   -1    0    0  501  503 -0.00000000000E+00 -0.00000000000E+00 -0.31194647905E+03  0.31194647905E+03  0.00000000000E+00 0.  1.
          6    2    1    2  501    0 -0.55501955135E+02 -0.44377261165E+03  0.29291649066E+03  0.56175296629E+03  0.17248688866E+03 0.  0.
         24    2    3    3    0    0 -0.86239145785E+02 -0.42076211390E+03  0.24766096984E+03  0.50221801806E+03  0.80056448349E+02 0.  0.
         -6    2    1    2    0  502  0.55501955135E+02  0.44377261165E+03  0.14603318211E+03  0.50108966459E+03  0.17248351749E+03 0.  0.
        -24    2    5    5    0    0  0.68711829329E+02  0.25346090081E+03  0.28209708645E+02  0.27681860324E+03  0.82879477009E+02 0.  0.
          5    1    3    3  501    0  0.30737190650E+02 -0.23010497746E+02  0.45255520823E+02  0.59534948228E+02  0.47000000000E+01 0. -1.
        -11    1    4    4    0    0 -0.88907351793E+02 -0.24037678967E+03  0.13767619078E+03  0.29092997736E+03  0.00000000000E+00 0.  1.
         12    1    4    4    0    0  0.26682060080E+01 -0.18038532423E+03  0.10998477906E+03  0.21128804070E+03  0.00000000000E+00 0. -1.
         -5    1    5    5    0  502 -0.13209874194E+02  0.19031171084E+03  0.11782347346E+03  0.22427106135E+03  0.47000000000E+01 0.  1.
         13    1    6    6    0    0  0.82548524935E+02  0.18021811829E+03  0.37381486027E+02  0.20171813163E+03  0.00000000000E+00 0. -1.
        -14    1    6    6    0    0 -0.13836695606E+02  0.73242782514E+02 -0.91717773823E+01  0.75100471610E+02  0.00000000000E+00 0.  1.
</event>
<event>
12    1  0.8798177E-003  0.1997180E+03  0.7818608E-02  0.1150825E+00
         21   -1    0    0  501  502  0.00000000000E+00  0.00000000000E+00  0.96241122190E+02  0.96241122190E+02  0.00000000000E+00 0.  1.
         21   -1    0    0  502  503 -0.00000000000E+00 -0.00000000000E+00 -0.42084119061E+03  0.42084119061E+03  0.00000000000E+00 0. -1.
          6    2    1    2  501    0 -0.53714741598E+02 -0.77386475100E+02 -0.11260266190E+03  0.22582613004E+03  0.17159295309E+03 0.  0.
         24    2    3    3    0    0 -0.59793110800E+02 -0.50220729749E+02 -0.14536086689E+03  0.18258131201E+03  0.78158915516E+02 0.  0.
         -6    2    1    2    0  503  0.53714741598E+02  0.77386475100E+02 -0.21199740652E+03  0.29125618275E+03  0.17610600112E+03 0.  0.
        -24    2    5    5    0    0  0.37461938207E+02  0.11295909761E+03 -0.11903172320E+03  0.19028948842E+03  0.88760259839E+02 0.  0.
          5    1    3    3  501    0  0.60783692025E+01 -0.27165745351E+02  0.32758204993E+02  0.43244818036E+02  0.47000000000E+01 0. -1.
        -11    1    4    4    0    0 -0.22913787306E+02 -0.46955809264E+02 -0.27502877697E+02  0.59044880845E+02  0.00000000000E+00 0.  1.
         12    1    4    4    0    0 -0.36879323494E+02 -0.32649204854E+01 -0.11785798920E+03  0.12353643116E+03  0.00000000000E+00 0. -1.
         -5    1    5    5    0  503  0.16252803391E+02 -0.35572622512E+02 -0.92965683317E+02  0.10096669434E+03  0.47000000000E+01 0.  1.
         13    1    6    6    0    0  0.60572361608E+02  0.10922269997E+03 -0.10336825118E+03  0.16212219013E+03  0.00000000000E+00 0. -1.
        -14    1    6    6    0    0 -0.23110423402E+02  0.37363976375E+01 -0.15663472022E+02  0.28167298289E+02  0.00000000000E+00 0.  1.
</event>
<event>
12    1  0.8798177E-003  0.1835581E+03  0.7818608E-02  0.1165822E+00
         21   -1    0    0  501  502  0.00000000000E+00  0.00000000000E+00  0.65377946827E+02  0.65377946827E+02  0.00000000000E+00 0.  1.
         21   -1    0    0  502  503 -0.00000000000E+00 -0.00000000000E+00 -0.49898335635E+03  0.49898335635E+03  0.00000000000E+00 0.  1.
          6    2    1    2  501    0 -0.42794322311E+02  0.58617798757E+01 -0.21686272861E+03  0.28411798353E+03  0.17840367434E+03 0.  0.
         24    2    3    3    0    0 -0.86360379521E+02 -0.12688216898E+02 -0.20288198789E+03  0.23452307621E+03  0.78872468357E+02 0.  0.
         -6    2    1    2    0  503  0.42794322311E+02 -0.58617798757E+01 -0.21674268092E+03  0.28024331965E+03  0.17231719007E+03 0.  0.
        -24    2    5    5    0    0 -0.37650843712E+02 -0.28605875384E+01 -0.15235665050E+03  0.17705377171E+03  0.81912881356E+02 0.  0.
          5    1    3    3  501    0  0.43566057210E+02  0.18549996773E+02 -0.13980740721E+02  0.49594907322E+02  0.47000000000E+01 0. -1.
        -11    1    4    4    0    0 -0.56964784636E+01  0.16163753390E+02 -0.34671811569E+01  0.17485369190E+02  0.00000000000E+00 0.  1.
         12    1    4    4    0    0 -0.80663901057E+02 -0.28851970287E+02 -0.19941480673E+03  0.21703770702E+03  0.00000000000E+00 0. -1.
         -5    1    5    5    0  503  0.80445166023E+02 -0.30011923373E+01 -0.64386030420E+02  0.10318954795E+03  0.47000000000E+01 0.  1.
         13    1    6    6    0    0  0.16357377808E+02  0.27340871768E+01 -0.14166532141E+01  0.16644697287E+02  0.00000000000E+00 0. -1.
        -14    1    6    6    0    0 -0.54008221520E+02 -0.55946747152E+01 -0.15093999728E+03  0.16040907442E+03  0.00000000000E+00 0.  1.
</event>
<event>
12    1  0.8798177E-003  0.2001014E+03  0.7818608E-02  0.1149929E+00
         21   -1    0    0  501  502  0.00000000000E+00  0.00000000000E+00  0.52798475962E+02  0.52798475962E+02  0.00000000000E+00 0. -1.
         21   -1    0    0  502  503 -0.00000000000E+00 -0.00000000000E+00 -0.91812379582E+03  0.91812379582E+03  0.00000000000E+00 0.  1.
          6    2    1    2  501    0 -0.64633803485E+02  0.77051076140E+02 -0.22821766431E+03  0.30351911573E+03  0.17299177560E+03 0.  0.
         24    2    3    3    0    0  0.71100007230E+01  0.86328647366E+02 -0.18285887764E+03  0.21800446027E+03  0.81150404198E+02 0.  0.
         -6    2    1    2    0  503  0.64633803485E+02 -0.77051076140E+02 -0.63710765555E+03  0.66740315605E+03  0.17148297600E+03 0.  0.
        -24    2    5    5    0    0  0.18495098174E+02 -0.96604731990E+02 -0.56794884519E+03  0.58186862130E+03  0.79565437200E+02 0.  0.
          5    1    3    3  501    0 -0.71743804208E+02 -0.92775712262E+01 -0.45358786670E+02  0.85514655459E+02  0.47000000000E+01 0. -1.
        -13    1    4    4    0    0 -0.20655726086E+01  0.92131141002E+02 -0.18523395862E+03  0.20689135593E+03  0.00000000000E+00 0.  1.
         14    1    4    4    0    0  0.91755733315E+01 -0.58024936358E+01  0.23750809865E+01  0.11113104339E+02  0.00000000000E+00 0. -1.
         -5    1    5    5    0  503  0.46138705312E+02  0.19553655850E+02 -0.69158810355E+02  0.85534534749E+02  0.47000000000E+01 0.  1.
         13    1    6    6    0    0 -0.89048245182E+01 -0.98006971909E+02 -0.41778570024E+03  0.42921970338E+03  0.00000000000E+00 0. -1.
        -14    1    6    6    0    0  0.27399922692E+02  0.14022399199E+01 -0.15016314495E+03  0.15264891792E+03  0.00000000000E+00 0.  1.
</event>
<event>
12    1  0.8798177E-003  0.2886051E+03  0.7818608E-02  0.1091098E+00
         21   -1    0    0  501  502  0.00000000000E+00  0.00000000000E+00  0.12994126133E+03  0.12994126133E+03  0.00000000000E+00 0. -1.
         21   -1    0    0  502  503 -0.00000000000E+00 -0.00000000000E+00 -0.65191491955E+03  0.65191491955E+03  0.00000000000E+00 0.  1.
          6    2    1    2  501    0 -0.15344602490E+03  0.17412775327E+03 -0.20963860846E+03  0.35659612618E+03  0.17130760061E+03 0.  0.
         24    2    3    3    0    0 -0.16370638279E+03  0.16838291958E+03 -0.22980589437E+03  0.33278252756E+03  0.52733994652E+02 0.  0.
         -6    2    1    2    0  503  0.15344602490E+03 -0.17412775327E+03 -0.31233504977E+03  0.42526005470E+03  0.17154233820E+03 0.  0.
        -24    2    5    5    0    0  0.16148200966E+03 -0.12550355572E+03 -0.18222407713E+03  0.28604854354E+03  0.82404933322E+02 0.  0.
          5    1    3    3  501    0  0.10260357889E+02  0.57448336997E+01  0.20167285907E+02  0.23813598617E+02  0.47000000000E+01 0. -1.
        -11    1    4    4    0    0 -0.60947234222E+02  0.87422952629E+02 -0.13081480343E+03  0.16873011231E+03  0.00000000000E+00 0.  1.
         12    1    4    4    0    0 -0.10275914857E+03  0.80959966946E+02 -0.98991090938E+02  0.16405241524E+03  0.00000000000E+00 0. -1.
         -5    1    5    5    0  503 -0.80359847555E+01 -0.48624197559E+02 -0.13011097264E+03  0.13921151116E+03  0.47000000000E+01 0.  1.
         11    1    6    6    0    0  0.13210426985E+03 -0.62120331872E+02 -0.14933482864E+03  0.20883334214E+03  0.00000000000E+00 0. -1.
        -12    1    6    6    0    0  0.29377739804E+02 -0.63383223844E+02 -0.32889248490E+02  0.77215201399E+02  0.00000000000E+00 0.  1.
</event>
<event>
12    1  0.8798177E-003  0.3571285E+03  0.7818608E-02  0.1060315E+00
         21   -1    0    0  503  502  0.00000000000E+00  0.00000000000E+00  0.27812935540E+03  0.27812935540E+03  0.00000000000E+00 0.  1.
         21   -1    0    0  501  503 -0.00000000000E+00 -0.00000000000E+00 -0.50975950590E+03  0.50975950590E+03  0.00000000000E+00 0. -1.
          6    2    1    2  501    0 -0.30345765150E+03  0.67564545215E+02 -0.25027724744E+03  0.43609567703E+03  0.17575330697E+03 0.  0.
         24    2    3    3    0    0 -0.18558018165E+03  0.11527317692E+03 -0.17007108873E+03  0.28567516868E+03  0.70414612387E+02 0.  0.
         -6    2    1    2    0  502  0.30345765150E+03 -0.67564545215E+02  0.18647096941E+02  0.35179318428E+03  0.16358244482E+03 0.  0.
        -24    2    5    5    0    0  0.15945064281E+03  0.41713993580E+01  0.54778418928E+02  0.18683371433E+03  0.80400581874E+02 0.  0.
          5    1    3    3  501    0 -0.11787746985E+03 -0.47708631706E+02 -0.80206158712E+02  0.15042050835E+03  0.47000000000E+01 0. -1.
        -11    1    4    4    0    0 -0.79362120754E+02  0.10093785036E+02 -0.56437559306E+02  0.97905203168E+02  0.00000000000E+00 0.  1.
         12    1    4    4    0    0 -0.10621806090E+03  0.10517939188E+03 -0.11363352942E+03  0.18776996551E+03  0.00000000000E+00 0. -1.
         -5    1    5    5    0  502  0.14400700870E+03 -0.71735944573E+02 -0.36131321987E+02  0.16495946995E+03  0.47000000000E+01 0.  1.
         11    1    6    6    0    0  0.13407767563E+03 -0.27910362526E+02  0.49351567953E+02  0.14557262345E+03  0.00000000000E+00 0. -1.
        -12    1    6    6    0    0  0.25372967174E+02  0.32081761884E+02  0.54268509751E+01  0.41261090876E+02  0.00000000000E+00 0.  1.
</event>
<event>
12    1  0.8798177E-003  0.2456781E+03  0.7818608E-02  0.1117229E+00
         21   -1    0    0  503  502  0.00000000000E+00  0.00000000000E+00  0.23780921531E+03  0.23780921531E+03  0.00000000000E+00 0. -1.
         21   -1    0    0  501  503 -0.00000000000E+00 -0.00000000000E+00 -0.33292500035E+03  0.33292500035E+03  0.00000000000E+00 0. -1.
          6    2    1    2  501    0 -0.11155389473E+03 -0.11882900985E+03 -0.19341576265E+03  0.31267776899E+03  0.18382906453E+03 0.  0.
         24    2    3    3    0    0 -0.82510070800E+02 -0.63127963909E+02 -0.20982164104E+03  0.24758250746E+03  0.80491771864E+02 0.  0.
         -6    2    1    2    0  502  0.11155389473E+03  0.11882900985E+03  0.98299977607E+02  0.25805644667E+03  0.17425739313E+03 0.  0.
        -24    2    5    5    0    0  0.14260494172E+03  0.11423408107E+03  0.59795867501E+02  0.20815717429E+03  0.79801433297E+02 0.  0.
          5    1    3    3  501    0 -0.29043823933E+02 -0.55701045941E+02  0.16405878394E+02  0.65095261528E+02  0.47000000000E+01 0. -1.
        -11    1    4    4    0    0 -0.54294262786E+02 -0.93383891777E+01 -0.42508117418E+02  0.69584571066E+02  0.00000000000E+00 0.  1.
         12    1    4    4    0    0 -0.28215808014E+02 -0.53789574732E+02 -0.16731352363E+03  0.17799793639E+03  0.00000000000E+00 0. -1.
         -5    1    5    5    0  502 -0.31051046987E+02  0.45949287792E+01  0.38504110107E+02  0.49899272386E+02  0.47000000000E+01 0.  1.
         11    1    6    6    0    0  0.54705652768E+02  0.12294562778E+02 -0.93311200276E+01  0.56841309975E+02  0.00000000000E+00 0. -1.
        -12    1    6    6    0    0  0.87899288953E+02  0.10193951829E+03  0.69126987528E+02  0.15131586431E+03  0.00000000000E+00 0.  1.
</event>
<event>
12    1  0.8798177E-003  0.2070241E+03  0.7818608E-02  0.1143995E+00
         21   -1    0    0  503  502  0.00000000000E+00  0.00000000000E+00  0.89204572018E+02  0.89204572018E+02  0.00000000000E+00 0.  1.
         21   -1    0    0  501  503 -0.00000000000E+00 -0.00000000000E+00 -0.47987294467E+03  0.47987294467E+03  0.00000000000E+00 0.  1.
          6    2    1    2  501    0  0.46161155040E+01 -0.11521501069E+03 -0.19556063673E+03  0.28460252058E+03  0.17163573309E+03 0.  0.
         24    2    3    3    0    0  0.48704165779E+02 -0.12117055684E+03 -0.18193830542E+03  0.23783840382E+03  0.80069718004E+02 0.  0.
         -6    2    1    2    0  502 -0.46161155040E+01  0.11521501069E+03 -0.19510773592E+03  0.28447499610E+03  0.17193948813E+03 0.  0.
        -24    2    5    5    0    0 -0.53023655874E+02  0.12131466197E+03 -0.12470751877E+03  0.19869168604E+03  0.79985408500E+02 0.  0.
          5    1    3    3  501    0 -0.44088050275E+02  0.59555461426E+01 -0.13622331306E+02  0.46764116768E+02  0.47000000000E+01 0. -1.
        -13    1    4    4    0    0  0.97316226930E+01 -0.11035615279E+03 -0.11538269166E+03  0.15995733954E+03  0.00000000000E+00 0.  1.
         14    1    4    4    0    0  0.38972543086E+02 -0.10814404051E+02 -0.66555613760E+02  0.77881064275E+02  0.00000000000E+00 0. -1.
         -5    1    5    5    0  502  0.48407540370E+02 -0.60996512738E+01 -0.70400217151E+02  0.85783310062E+02  0.47000000000E+01 0.  1.
         11    1    6    6    0    0 -0.37323568236E+00  0.71012950455E+02 -0.25127600530E+02  0.75328445793E+02  0.00000000000E+00 0. -1.
        -12    1    6    6    0    0 -0.52650420192E+02  0.50301711513E+02 -0.99579918241E+02  0.12336324025E+03  0.00000000000E+00 0.  1.
</event>
<event>
12    1  0.8798177E-003  0.2259244E+03  0.7818608E-02  0.1129652E+00
         21   -1    0    0  501  502  0.00000000000E+00  0.00000000000E+00  0.21611967819E+03  0.21611967819E+03  0.00000000000E+00 0.  1.
         21   -1    0    0  502  503 -0.00000000000E+00 -0.00000000000E+00 -0.28324545266E+03  0.28324545266E+03  0.00000000000E+00 0.  1.
          6    2    1    2  501    0  0.14624215850E+03 -0.15375449006E+00  0.68876122928E+02  0.23619005560E+03  0.17220635729E+03 0.  0.
         24    2    3    3    0    0  0.70426077988E+02 -0.55712834341E+02  0.24988226249E+01  0.12102528055E+03  0.81099457739E+02 0.  0.
         -6    2    1    2    0  503 -0.14624215850E+03  0.15375449006E+00 -0.13600189739E+03  0.26317507525E+03  0.17139956702E+03 0.  0.
        -24    2    5    5    0    0 -0.11746240149E+03 -0.69274561566E+01 -0.19956739955E+02  0.14331271033E+03  0.79340128946E+02 0.  0.
          5    1    3    3  501    0  0.75816080513E+02  0.55559079851E+02  0.66377300303E+02  0.11516477506E+03  0.47000000000E+01 0. -1.
        -13    1    4    4    0    0  0.74565847727E+02 -0.11031750113E+02  0.80702540460E+01  0.75808272360E+02  0.00000000000E+00 0.  1.
         14    1    4    4    0    0 -0.41397697391E+01 -0.44681084227E+02 -0.55714314211E+01  0.45217008186E+02  0.00000000000E+00 0. -1.
         -5    1    5    5    0  503 -0.28779757010E+02  0.70812106466E+01 -0.11604515744E+03  0.11986236491E+03  0.47000000000E+01 0.  1.
         13    1    6    6    0    0 -0.95849353415E+02  0.25196818079E+02 -0.29561994867E+02  0.10342093469E+03  0.00000000000E+00 0. -1.
        -14    1    6    6    0    0 -0.21613048075E+02 -0.32124274235E+02  0.96052549123E+01  0.39891775646E+02  0.00000000000E+00 0.  1.
</event>
<event>
12    1  0.8798177E-003  0.2088909E+03  0.7818608E-02  0.1142567E+00
         21   -1    0    0  501  502  0.00000000000E+00  0.00000000000E+00  0.12681888317E+04  0.12681888317E+04  0.00000000000E+00 0.  1.
         21   -1    0    0  502  503 -0.00000000000E+00 -0.00000000000E+00 -0.36734608140E+02  0.36734608140E+02  0.00000000000E+00 0. -1.
          6    2    1    2  501    0 -0.96091004372E+02 -0.70963792768E+02  0.44724206044E+03  0.49336684303E+03  0.17063422918E+03 0.  0.
         24    2    3    3    0    0 -0.63131210041E+02 -0.79758181010E+02  0.16692732079E+03  0.21094493777E+03  0.79285050446E+02 0.  0.
         -6    2    1    2    0  503  0.96091004372E+02  0.70963792768E+02  0.78421216310E+03  0.81155659679E+03  0.17136525913E+03 0.  0.
        -24    2    5    5    0    0  0.90060519984E+02 -0.16382819831E+02  0.46568921116E+03  0.48118595889E+03  0.79335941398E+02 0.  0.
          5    1    3    3  501    0 -0.32959794331E+02  0.87943882415E+01  0.28031473965E+03  0.28242190526E+03  0.47000000000E+01 0. -1.
        -11    1    4    4    0    0  0.12622706174E+02  0.56917873003E+01  0.26924330084E+02  0.30276206901E+02  0.00000000000E+00 0.  1.
         12    1    4    4    0    0 -0.75753916215E+02 -0.85449968310E+02  0.14000299071E+03  0.18066873087E+03  0.00000000000E+00 0. -1.
         -5    1    5    5    0  503  0.60304843879E+01  0.87346612599E+02  0.31852295194E+03  0.33037063790E+03  0.47000000000E+01 0.  1.
         13    1    6    6    0    0  0.13743302042E+02 -0.87648143213E+01  0.10077572146E+02  0.19163970921E+02  0.00000000000E+00 0. -1.
        -14    1    6    6    0    0  0.76317217942E+02 -0.76180055093E+01  0.45561163902E+03  0.46202198797E+03  0.00000000000E+00 0.  1.
</event>
<event>
12    1  0.8798177E-003  0.1847866E+03  0.7818608E-02  0.1163298E+00
         21   -1    0    0  501  502  0.00000000000E+00  0.00000000000E+00  0.56890802816E+02  0.56890802816E+02  0.00000000000E+00 0. -1.
         21   -1    0    0  502  503 -0.00000000000E+00 -0.00000000000E+00 -0.77410810872E+03  0.77410810872E+03  0.00000000000E+00 0. -1.
          6    2    1    2  501    0 -0.44933134670E+02 -0.50645163527E+02 -0.16113534295E+03  0.24501833312E+03  0.17171332400E+03 0.  0.
         24    2    3    3    0    0 -0.63370952953E+02 -0.92286687487E+02 -0.11404641660E+03  0.17934165046E+03  0.81388771241E+02 0.  0.
         -6    2    1    2    0  503  0.44933134670E+02  0.50645163527E+02 -0.55608196296E+03  0.58598057842E+03  0.17193652776E+03 0.  0.
        -24    2    5    5    0    0 -0.30291590439E+02 -0.90200447431E+01 -0.31633171761E+03  0.32767655892E+03  0.79418071244E+02 0.  0.
          5    1    3    3  501    0  0.18437818284E+02  0.41641523961E+02 -0.47088926348E+02  0.65676682662E+02  0.47000000000E+01 0. -1.
        -11    1    4    4    0    0  0.19234290732E+02 -0.17572914443E+02 -0.30476888373E+02  0.40094962114E+02  0.00000000000E+00 0.  1.
         12    1    4    4    0    0 -0.82605243686E+02 -0.74713773044E+02 -0.83569528228E+02  0.13924668835E+03  0.00000000000E+00 0. -1.
         -5    1    5    5    0  503  0.75224725109E+02  0.59665208270E+02 -0.23975024534E+03  0.25830401949E+03  0.47000000000E+01 0.  1.
         11    1    6    6    0    0  0.14526411660E+02 -0.16096842120E+02 -0.22139654042E+03  0.22245573284E+03  0.00000000000E+00 0. -1.
        -12    1    6    6    0    0 -0.44818002099E+02  0.70767973772E+01 -0.94935177193E+02  0.10522082608E+03  0.00000000000E+00 0.  1.
</event>
<event>
12    1  0.8798177E-003  0.1755913E+03  0.7818608E-02  0.1172429E+00
         21   -1    0    0  503  502  0.00000000000E+00  0.00000000000E+00  0.11347078562E+04  0.11347078562E+04  0.00000000000E+00 0.  1.
         21   -1    0    0  501  503 -0.00000000000E+00 -0.00000000000E+00 -0.30255831744E+02  0.30255831744E+02  0.00000000000E+00 0.  1.
          6    2    1    2  501    0 -0.16179595008E+01 -0.32092069755E+02  0.36258937998E+03  0.40286889913E+03  0.17262610659E+03 0.  0.
         24    2    3    3    0    0  0.21311748189E+01  0.30660826680E+02  0.10259911330E+03  0.13534504825E+03  0.82747059392E+02 0.  0.
         -6    2    1    2    0  502  0.16179595008E+01  0.32092069755E+02  0.74186264448E+03  0.76209478881E+03  0.17145193243E+03 0.  0.
        -24    2    5    5    0    0 -0.29090777355E+02 -0.38049471385E+02  0.42129342888E+03  0.43247444008E+03  0.85158396557E+02 0.  0.
          5    1    3    3  501    0 -0.37491343197E+01 -0.62752896435E+02  0.25999026668E+03  0.26752385088E+03  0.47000000000E+01 0. -1.
        -13    1    4    4    0    0  0.22767488022E+02  0.25209659946E+02  0.37010068312E+01  0.34169912452E+02  0.00000000000E+00 0.  1.
         14    1    4    4    0    0 -0.20636313203E+02  0.54511667343E+01  0.98898106468E+02  0.10117513580E+03  0.00000000000E+00 0. -1.
         -5    1    5    5    0  502  0.30708736856E+02  0.70141541140E+02  0.32056921560E+03  0.32962034874E+03  0.47000000000E+01 0.  1.
         13    1    6    6    0    0 -0.22768658801E+02  0.22203956571E+02  0.84735879695E+02  0.90507440681E+02  0.00000000000E+00 0. -1.
        -14    1    6    6    0    0 -0.63221185542E+01 -0.60253427956E+02  0.33655754918E+03  0.34196699939E+03  0.00000000000E+00 0.  1.
</event>
<event>
12    1  0.8798177E-003  0.4056065E+03  0.7818608E-02  0.1041878E+00
         21   -1    0    0  503  502  0.00000000000E+00  0.00000000000E+00  0.98932988438E+03  0.98932988438E+03  0.00000000000E+00 0.  1.
         21   -1    0    0  501  503 -0.00000000000E+00 -0.00000000000E+00 -0.17502795253E+03  0.17502795253E+03  0.00000000000E+00 0.  1.
          6    2    1    2  501    0  0.27971975663E+03 -0.23806840785E+03  0.27615811463E+03  0.49047695752E+03  0.17141946363E+03 0.  0.
         24    2    3    3    0    0  0.18062519861E+03 -0.23031750393E+03  0.18003869813E+03  0.35212653226E+03  0.76860567964E+02 0.  0.
         -6    2    1    2    0  502 -0.27971975663E+03  0.23806840785E+03  0.53814381721E+03  0.67388087939E+03  0.17203767764E+03 0.  0.
        -24    2    5    5    0    0 -0.47659932061E+02  0.79059717601E+02  0.20079861454E+03  0.23460943538E+03  0.78737510087E+02 0.  0.
          5    1    3    3  501    0  0.99094558020E+02 -0.77509039261E+01  0.96119416498E+02  0.13835042526E+03  0.47000000000E+01 0. -1.
        -11    1    4    4    0    0  0.84914403817E+02 -0.10653396882E+03  0.12879677954E+03  0.18747947330E+03  0.00000000000E+00 0.  1.
         12    1    4    4    0    0  0.95710794797E+02 -0.12378353511E+03  0.51241918592E+02  0.16464705896E+03  0.00000000000E+00 0. -1.
         -5    1    5    5    0  502 -0.23205982457E+03  0.15900869025E+03  0.33734520267E+03  0.43927144401E+03  0.47000000000E+01 0.  1.
         13    1    6    6    0    0  0.54209028804E+01  0.16483075481E+02 -0.36278545276E+00  0.17355390478E+02  0.00000000000E+00 0. -1.
        -14    1    6    6    0    0 -0.53080834941E+02  0.62576642120E+02  0.20116139999E+03  0.21725404490E+03  0.00000000000E+00 0.  1.
</event>
<event>
12    1  0.8798177E-003  0.3746680E+03  0.7818608E-02  0.1053034E+00
         21   -1    0    0  501  502  0.00000000000E+00  0.00000000000E+00  0.75998801710E+03  0.75998801710E+03  0.00000000000E+00 0.  1.
         21   -1    0    0  502  503 -0.00000000000E+00 -0.00000000000E+00 -0.36560692911E+03  0.36560692911E+03  0.00000000000E+00 0. -1.
          6    2    1    2  501    0 -0.24644294978E+03 -0.22198256640E+03  0.59386435608E+03  0.70217591276E+03  0.17425771649E+03 0.  0.
         24    2    3    3    0    0 -0.14791227894E+03 -0.20825768963E+03  0.47016319581E+03  0.54336554663E+03  0.94569440204E+02 0.  0.
         -6    2    1    2    0  503  0.24644294978E+03  0.22198256640E+03 -0.19948326809E+03  0.42341903345E+03  0.17169658226E+03 0.  0.
        -24    2    5    5    0    0  0.20352442964E+03  0.16542709440E+03 -0.21505566121E+03  0.35058284593E+03  0.88719092786E+02 0.  0.
          5    1    3    3  501    0 -0.98530670835E+02 -0.13724876770E+02  0.12370116027E+03  0.15881036613E+03  0.47000000000E+01 0. -1.
        -11    1    4    4    0    0 -0.21808930427E+02  0.54354031430E+01  0.24234779128E+02  0.33052951049E+02  0.00000000000E+00 0.  1.
         12    1    4    4    0    0 -0.12610334852E+03 -0.21369309278E+03  0.44592841668E+03  0.51031259558E+03  0.00000000000E+00 0. -1.
         -5    1    5    5    0  503  0.42918520144E+02  0.56555472007E+02  0.15572393120E+02  0.72836187522E+02  0.47000000000E+01 0.  1.
         13    1    6    6    0    0  0.17747110222E+03  0.17210681799E+03 -0.20719300300E+03  0.32256114058E+03  0.00000000000E+00 0. -1.
        -14    1    6    6    0    0  0.26053327418E+02 -0.66797235887E+01 -0.78626582083E+01  0.28021705353E+02  0.00000000000E+00 0.  1.
</event>
<event>
12    1  0.8798177E-003  0.2312988E+03  0.7818608E-02  0.1125887E+00
         21   -1    0    0  503  502  0.00000000000E+00  0.00000000000E+00  0.27795285425E+03  0.27795285425E+03  0.00000000000E+00 0.  1.
         21   -1    0    0  501  503 -0.00000000000E+00 -0.00000000000E+00 -0.19306536768E+03  0.19306536768E+03  0.00000000000E+00 0.  1.
          6    2    1    2  501    0 -0.83977234365E+02 -0.12842798976E+03  0.22901673769E+02  0.23242986393E+03  0.17307001629E+03 0.  0.
         24    2    3    3    0    0 -0.53187333226E+02 -0.12103177011E+03 -0.43842510445E+02  0.15840555574E+03  0.75449138998E+02 0.  0.
         -6    2    1    2    0  502  0.83977234365E+02  0.12842798976E+03  0.61985812798E+02  0.23858835800E+03  0.17186110421E+03 0.  0.
        -24    2    5    5    0    0  0.57007115747E+02  0.75049825263E+02 -0.32284439345E+02  0.12684943827E+03  0.78525202634E+02 0.  0.
          5    1    3    3  501    0 -0.30789901138E+02 -0.73962196544E+01  0.66744184213E+02  0.74024308194E+02  0.47000000000E+01 0. -1.
        -11    1    4    4    0    0 -0.61878013480E+02 -0.55383560536E+02 -0.39726984942E+02  0.92056833872E+02  0.00000000000E+00 0.  1.
         12    1    4    4    0    0  0.86906802539E+01 -0.65648209569E+02 -0.41155255024E+01  0.66348721865E+02  0.00000000000E+00 0. -1.
         -5    1    5    5    0  502  0.26970118617E+02  0.53378164497E+02  0.94270252143E+02  0.11173891973E+03  0.47000000000E+01 0.  1.
         13    1    6    6    0    0  0.56847387379E+02  0.20221440342E+02  0.50017822714E+01  0.60543785208E+02  0.00000000000E+00 0. -1.
        -14    1    6    6    0    0  0.15972836817E+00  0.54828384920E+02 -0.37286221616E+02  0.66305653066E+02  0.00000000000E+00 0.  1.
</event>
<event>
12    1  0.8798177E-003  0.1863309E+03  0.7818608E-02  0.1163474E+00
         21   -1    0    0  503  502  0.00000000000E+00  0.00000000000E+00  0.73757811714E+02  0.73757811714E+02  0.00000000000E+00 0. -1.
         21   -1    0    0  501  503 -0.00000000000E+00 -0.00000000000E+00 -0.50248621397E+03  0.50248621397E+03  0.00000000000E+00 0. -1.
          6    2    1    2  501    0 -0.47010717727E+02 -0.14712113260E+02 -0.12778161838E+03  0.22593660172E+03  0.17970184236E+03 0.  0.
         24    2    3    3    0    0 -0.23218774230E+02 -0.31802818542E+02  0.73554727196E+01  0.87581001287E+02  0.77883233520E+02 0.  0.
         -6    2    1    2    0  502  0.47010717727E+02  0.14712113260E+02 -0.30094678388E+03  0.35030742396E+03  0.17239452049E+03 0.  0.
        -24    2    5    5    0    0  0.55787198720E+02 -0.23250526129E+02 -0.29398790165E+03  0.31044886591E+03  0.79352463859E+02 0.  0.
          5    1    3    3  501    0 -0.23791943497E+02  0.17090705282E+02 -0.13513709110E+03  0.13835560044E+03  0.47000000000E+01 0. -1.
        -13    1    4    4    0    0  0.84013629997E+01  0.53778107311E+01 -0.26410436814E+02  0.28231452694E+02  0.00000000000E+00 0.  1.
         14    1    4    4    0    0 -0.31620137230E+02 -0.37180629273E+02  0.33765909533E+02  0.59349548593E+02  0.00000000000E+00 0. -1.
         -5    1    5    5    0  502 -0.87764809929E+01  0.37962639389E+02 -0.69588822285E+01  0.39858558051E+02  0.47000000000E+01 0.  1.
         13    1    6    6    0    0  0.66172153804E+02 -0.37646552192E+02 -0.27049066565E+03  0.28100038618E+03  0.00000000000E+00 0. -1.
        -14    1    6    6    0    0 -0.10384955083E+02  0.14396026063E+02 -0.23497236003E+02  0.29448479728E+02  0.00000000000E+00 0.  1.
</event>
<event>
12    1  0.8798177E-003  0.1818454E+03  0.7818608E-02  0.1166429E+00
         21   -1    0    0  503  502  0.00000000000E+00  0.00000000000E+00  0.42500529738E+03  0.42500529738E+03  0.00000000000E+00 0.  1.
         21   -1    0    0  501  503 -0.00000000000E+00 -0.00000000000E+00 -0.93921429086E+02  0.93921429086E+02  0.00000000000E+00 0.  1.
          6    2    1    2  501    0  0.58796982057E+02 -0.33636595999E+00  0.55088642691E+02  0.18841027561E+03  0.17031287432E+03 0.  0.
         24    2    3    3    0    0  0.20098966448E+01 -0.56587545107E+02  0.45011190286E+02  0.10770951184E+03  0.79806902865E+02 0.  0.
         -6    2    1    2    0  502 -0.58796982057E+02  0.33636595999E+00  0.27599522560E+03  0.33051645086E+03  0.17207719631E+03 0.  0.
        -24    2    5    5    0    0  0.15061488697E+02  0.21558109686E+02  0.21846797716E+03  0.23440760412E+03  0.80790267277E+02 0.  0.
          5    1    3    3  501    0  0.56787085413E+02  0.56251179147E+02  0.10077452405E+02  0.80700763764E+02  0.47000000000E+01 0. -1.
        -13    1    4    4    0    0  0.37719106067E+02 -0.47616314956E+02  0.23981910990E+02  0.65308318515E+02  0.00000000000E+00 0.  1.
         14    1    4    4    0    0 -0.35709209422E+02 -0.89712301510E+01  0.21029279296E+02  0.42401193329E+02  0.00000000000E+00 0. -1.
         -5    1    5    5    0  502 -0.73858470755E+02 -0.21221743726E+02  0.57527248441E+02  0.96108846743E+02  0.47000000000E+01 0.  1.
         11    1    6    6    0    0 -0.14377657951E+02 -0.20186784530E+02  0.28868226529E+02  0.38047310296E+02  0.00000000000E+00 0. -1.
        -12    1    6    6    0    0  0.29439146648E+02  0.41744894217E+02  0.18959975063E+03  0.19636029382E+03  0.00000000000E+00 0.  1.
</event>
<event>
12    1  0.8798177E-003  0.2070669E+03  0.7818608E-02  0.1143958E+00
         21   -1    0    0  503  502  0.00000000000E+00  0.00000000000E+00  0.12068771239E+03  0.12068771239E+03  0.00000000000E+00 0. -1.
         21   -1    0    0  501  503 -0.00000000000E+00 -0.00000000000E+00 -0.42326551200E+03  0.42326551200E+03  0.00000000000E+00 0.  1.
          6    2    1    2  501    0  0.65714851432E+02  0.95260925117E+02 -0.26055330336E+03  0.33266492178E+03  0.17142007099E+03 0.  0.
         24    2    3    3    0    0  0.47026566497E+02  0.13413845634E+03 -0.21707901386E+03  0.27124165034E+03  0.79019688633E+02 0.  0.
         -6    2    1    2    0  502 -0.65714851432E+02 -0.95260925117E+02 -0.42024496248E+02  0.21128830260E+03  0.17170790016E+03 0.  0.
        -24    2    5    5    0    0  0.94527705274E+01 -0.10893112646E+03 -0.90534159013E+00  0.12439802308E+03  0.59318659131E+02 0.  0.
          5    1    3    3  501    0  0.18688284935E+02 -0.38877531223E+02 -0.43474289497E+02  0.61423271446E+02  0.47000000000E+01 0. -1.
        -11    1    4    4    0    0 -0.15363615845E+02  0.52094161985E+02 -0.44449691425E+02  0.70182743410E+02  0.00000000000E+00 0.  1.
         12    1    4    4    0    0  0.62390182342E+02  0.82044294355E+02 -0.17262932244E+03  0.20105890693E+03  0.00000000000E+00 0. -1.
         -5    1    5    5    0  502 -0.75167621959E+02  0.13670201340E+02 -0.41119154658E+02  0.86890279522E+02  0.47000000000E+01 0.  1.
         11    1    6    6    0    0 -0.17721513766E+02 -0.54163183041E+02  0.19044474768E+02  0.60086558118E+02  0.00000000000E+00 0. -1.
        -12    1    6    6    0    0  0.27174284293E+02 -0.54767943416E+02 -0.19949816358E+02  0.64311464962E+02  0.00000000000E+00 0.  1.
</event>
<event>
12    1  0.8798177E-003  0.2708923E+03  0.7818608E-02  0.1100796E+00
         21   -1    0    0  501  502  0.00000000000E+00  0.00000000000E+00  0.54692296528E+03  0.54692296528E+03  0.00000000000E+00 0. -1.
         21   -1    0    0  502  503 -0.00000000000E+00 -0.00000000000E+00 -0.17887779163E+03  0.17887779163E+03  0.00000000000E+00 0.  1.
          6    2    1    2  501    0  0.20874533948E+03  0.11895098004E+02  0.36567013279E+03  0.45507945569E+03  0.17223981789E+03 0.  0.
         24    2    3    3    0    0  0.16307634842E+03 -0.52169087651E+02  0.29069398722E+03  0.34629807386E+03  0.78127156827E+02 0.  0.
         -6    2    1    2    0  503 -0.20874533948E+03 -0.11895098004E+02  0.23750408605E+01  0.27072130122E+03  0.17195427300E+03 0.  0.
        -24    2    5    5    0    0 -0.93631888788E+02  0.46837145172E+02  0.35770007390E+02  0.13716271217E+03  0.81076922835E+02 0.  0.
          5    1    3    3  501    0  0.45668991053E+02  0.64064185655E+02  0.74976145573E+02  0.10878138183E+03  0.47000000000E+01 0. -1.
        -11    1    4    4    0    0  0.20683282164E+02 -0.15420022692E+02  0.11170066881E+03  0.11464124334E+03  0.00000000000E+00 0.  1.
         12    1    4    4    0    0  0.14239306626E+03 -0.36749064959E+02  0.17899331841E+03  0.23165683052E+03  0.00000000000E+00 0. -1.
         -5    1    5    5    0  503 -0.11511345069E+03 -0.58732243176E+02 -0.33394966529E+02  0.13355858904E+03  0.47000000000E+01 0.  1.
         13    1    6    6    0    0 -0.14816355246E+02  0.47811210268E+02 -0.12733670340E+01  0.50070526996E+02  0.00000000000E+00 0. -1.
        -14    1    6    6    0    0 -0.78815533542E+02 -0.97406509615E+00  0.37043374424E+02  0.87092185178E+02  0.00000000000E+00 0.  1.
</event>
<event>
12    1  0.8798177E-003  0.2501117E+03  0.7818608E-02  0.1113296E+00
         21   -1    0    0  503  502  0.00000000000E+00  0.00000000000E+00  0.90565446834E+03  0.90565446834E+03  0.00000000000E+00 0. -1.
         21   -1    0    0  501  503 -0.00000000000E+00 -0.00000000000E+00 -0.14688606051E+03  0.14688606051E+03  0.00000000000E+00 0.  1.
          6    2    1    2  501    0  0.75815014397E+02  0.16505225784E+03 -0.40594432017E+01  0.24975650626E+03  0.17138164753E+03 0.  0.
         24    2    3    3    0    0  0.71019260559E+01  0.39036520731E+02 -0.45027047639E+02  0.10041833591E+03  0.80511613220E+02 0.  0.
         -6    2    1    2    0  502 -0.75815014397E+02 -0.16505225784E+03  0.76282785103E+03  0.80278402260E+03  0.17194677202E+03 0.  0.
        -24    2    5    5    0    0 -0.63858323789E+02 -0.19154491261E+03  0.62134462615E+03  0.65826960765E+03  0.80513308480E+02 0.  0.
          5    1    3    3  501    0  0.68713088341E+02  0.12601573711E+03  0.40967604437E+02  0.14933817035E+03  0.47000000000E+01 0. -1.
        -13    1    4    4    0    0  0.28347927017E+01  0.55953081798E+02 -0.43924789813E+01  0.56196772896E+02  0.00000000000E+00 0.  1.
         14    1    4    4    0    0  0.42671333542E+01 -0.16916561067E+02 -0.40634568658E+02  0.44221563014E+02  0.00000000000E+00 0. -1.
         -5    1    5    5    0  502 -0.11956690607E+02  0.26492654768E+02  0.14148322488E+03  0.14451441495E+03  0.47000000000E+01 0.  1.
         13    1    6    6    0    0 -0.12396408010E+01 -0.80247958865E+02  0.15231733722E+03  0.17216806565E+03  0.00000000000E+00 0. -1.
        -14    1    6    6    0    0 -0.62618682988E+02 -0.11129695374E+03  0.46902728894E+03  0.48610154200E+03  0.00000000000E+00 0.  1.
</event>
<event>
12    1  0.8798177E-003  0.1857192E+03  0.7818608E-02  0.1162825E+00
         21   -1    0    0  501  502  0.00000000000E+00  0.00000000000E+00  0.10793316542E+03  0.10793316542E+03  0.00000000000E+00 0.  1.
         21   -1    0    0  502  503 -0.00000000000E+00 -0.00000000000E+00 -0.31688588286E+03  0.31688588286E+03  0.00000000000E+00 0.  1.
          6    2    1    2  501    0 -0.67599736304E+01  0.68423048628E+02 -0.94791018583E+02  0.20681787088E+03  0.17047253059E+03 0.  0.
         24    2    3    3    0    0  0.16718122253E+02 -0.24809093255E+02 -0.33512160372E+02  0.92709844304E+02  0.81099097518E+02 0.  0.
         -6    2    1    2    0  503  0.67599736304E+01 -0.68423048628E+02 -0.11416169886E+03  0.21800117740E+03  0.17252306812E+03 0.  0.
        -24    2    5    5    0    0 -0.41513685988E+02 -0.22293209826E+02 -0.11820834639E+03  0.15094319058E+03  0.81180418184E+02 0.  0.
          5    1    3    3  501    0 -0.23478095883E+02  0.93232141884E+02 -0.61278858211E+02  0.11410802658E+03  0.47000000000E+01 0. -1.
        -13    1    4    4    0    0  0.36615129683E+01 -0.12750748629E+02  0.26762186009E+02  0.29869765111E+02  0.00000000000E+00 0.  1.
         14    1    4    4    0    0  0.13056609284E+02 -0.12058344626E+02 -0.60274346382E+02  0.62840079192E+02  0.00000000000E+00 0. -1.
         -5    1    5    5    0  503  0.48273659618E+02 -0.46129838802E+02  0.40466475262E+01  0.67057986825E+02  0.47000000000E+01 0.  1.
         13    1    6    6    0    0 -0.29136741411E+02  0.27863812512E+02 -0.67053728046E+02  0.78240297754E+02  0.00000000000E+00 0. -1.
        -14    1    6    6    0    0 -0.12376944577E+02 -0.50157022338E+02 -0.51154618342E+02  0.72702892821E+02  0.00000000000E+00 0.  1.
</event>
<event>
12    1  0.8798177E-003  0.1882513E+03  0.7818608E-02  0.1160168E+00
         21   -1    0    0  503  502  0.00000000000E+00  0.00000000000E+00  0.72065436464E+02  0.72065436464E+02  0.00000000000E+00 0.  1.
         21   -1    0    0  501  503 -0.00000000000E+00 -0.00000000000E+00 -0.49734122601E+03  0.49734122601E+03  0.00000000000E+00 0.  1.
          6    2    1    2  501    0 -0.70884460166E+02 -0.27908499523E+02 -0.24600809148E+03  0.30945387181E+03  0.17157571701E+03 0.  0.
         24    2    3    3    0    0 -0.10556377920E+03 -0.61031807737E+02 -0.17837428710E+03  0.22641032775E+03  0.67643604126E+02 0.  0.
         -6    2    1    2    0  502  0.70884460166E+02  0.27908499523E+02 -0.17926769807E+03  0.25995279067E+03  0.17214835104E+03 0.  0.
        -24    2    5    5    0    0  0.41477992941E+01  0.38831257548E+01 -0.18128337350E+02  0.83830719187E+02  0.81649678258E+02 0.  0.
          5    1    3    3  501    0  0.34679319032E+02  0.33123308214E+02 -0.67633804374E+02  0.83043544058E+02  0.47000000000E+01 0. -1.
        -13    1    4    4    0    0 -0.16063439509E+02 -0.99430756666E+01  0.16626076128E+01  0.18964785964E+02  0.00000000000E+00 0.  1.
         14    1    4    4    0    0 -0.89500339688E+02 -0.51088732070E+02 -0.18003689472E+03  0.20744554179E+03  0.00000000000E+00 0. -1.
         -5    1    5    5    0  502  0.66736660871E+02  0.24025373768E+02 -0.16113936072E+03  0.17612207148E+03  0.47000000000E+01 0.  1.
         11    1    6    6    0    0 -0.37056363434E+01 -0.36535083749E+02 -0.21440841679E+02  0.42523567315E+02  0.00000000000E+00 0. -1.
        -12    1    6    6    0    0  0.78534356376E+01  0.40418209504E+02  0.33125043289E+01  0.41307151872E+02  0.00000000000E+00 0.  1.
</event>
<event>
12    1  0.8798177E-003  0.2107908E+03  0.7818608E-02  0.1141148E+00
         21   -1    0    0  503  502  0.00000000000E+00  0.00000000000E+00  0.43109930141E+03  0.43109930141E+03  0.00000000000E+00 0. -1.
         21   -1    0    0  501  503 -0.00000000000E+00 -0.00000000000E+00 -0.16334479409E+03  0.16334479409E+03  0.00000000000E+00 0. -1.
          6    2    1    2  501    0  0.72221042590E+02  0.98210011006E+02 -0.47228514758E+02  0.21601692648E+03  0.17196422496E+03 0.  0.
         24    2    3    3    0    0  0.28876989818E+02  0.13130500151E+03 -0.25359319435E+02  0.15707341954E+03  0.77162685804E+02 0.  0.
         -6    2    1    2    0  502 -0.72221042590E+02 -0.98210011006E+02  0.31498302208E+03  0.37842716902E+03  0.17068020623E+03 0.  0.
        -24    2    5    5    0    0 -0.91535544152E+02 -0.11732244477E+03  0.30501107379E+03  0.34910371684E+03  0.81843375354E+02 0.  0.
          5    1    3    3  501    0  0.43344052772E+02 -0.33094990503E+02 -0.21869195322E+02  0.58943506947E+02  0.47000000000E+01 0. -1.
        -11    1    4    4    0    0 -0.48670409278E+01 -0.89476625115E+01  0.16304934745E+01  0.10315389512E+02  0.00000000000E+00 0.  1.
         12    1    4    4    0    0  0.33744030745E+02  0.14025266402E+03 -0.26989812910E+02  0.14675803002E+03  0.00000000000E+00 0. -1.
         -5    1    5    5    0  502  0.19314501563E+02  0.19112433763E+02  0.99719482907E+01  0.29323452178E+02  0.47000000000E+01 0.  1.
         13    1    6    6    0    0 -0.17303512926E+02 -0.81226702909E+01  0.12167679128E+03  0.12316911491E+03  0.00000000000E+00 0. -1.
        -14    1    6    6    0    0 -0.74232031227E+02 -0.10919977448E+03  0.18333428251E+03  0.22593460193E+03  0.00000000000E+00 0.  1.
</event>
<event>
12    1  0.8798177E-003  0.1823956E+03  0.7818608E-02  0.1165619E+00
         21   -1    0    0  503  502  0.00000000000E+00  0.00000000000E+00  0.13416029539E+03  0.13416029539E+03  0.00000000000E+00 0. -1.
         21   -1    0    0  501  503 -0.00000000000E+00 -0.00000000000E+00 -0.52970322984E+03  0.52970322984E+03  0.00000000000E+00 0. -1.
          6    2    1    2  501    0 -0.23770923962E+02  0.54684852910E+02 -0.44000479950E+03  0.47612692821E+03  0.17186371990E+03 0.  0.
         24    2    3    3    0    0 -0.36556552548E+02 -0.30074169316E+02 -0.26401759114E+03  0.28031796096E+03  0.81437298657E+02 0.  0.
         -6    2    1    2    0  502  0.23770923962E+02 -0.54684852910E+02  0.44461865051E+02  0.18773659702E+03  0.17237367099E+03 0.  0.
        -24    2    5    5    0    0 -0.41739922668E+02  0.78545973116E+01  0.17301576346E+02  0.93065454937E+02  0.80980976255E+02 0.  0.
          5    1    3    3  501    0  0.12785628587E+02  0.84759022225E+02 -0.17598720836E+03  0.19580896725E+03  0.47000000000E+01 0. -1.
        -11    1    4    4    0    0 -0.58051294937E+02 -0.36653614143E+02 -0.16372047464E+03  0.17753262824E+03  0.00000000000E+00 0.  1.
         12    1    4    4    0    0  0.21494742388E+02  0.65794448277E+01 -0.10029711650E+03  0.10278533272E+03  0.00000000000E+00 0. -1.
         -5    1    5    5    0  502  0.65510846630E+02 -0.62539450221E+02  0.27160288705E+02  0.94671142080E+02  0.47000000000E+01 0.  1.
         13    1    6    6    0    0 -0.13688975309E+02 -0.45463748067E+00  0.48440263681E+02  0.50339387022E+02  0.00000000000E+00 0. -1.
        -14    1    6    6    0    0 -0.28050947359E+02  0.83092347923E+01 -0.31138687334E+02  0.42726067915E+02  0.00000000000E+00 0.  1.
</event>
<event>
12    1  0.8798177E-003  0.2116823E+03  0.7818608E-02  0.1141411E+00
         21   -1    0    0  501  502  0.00000000000E+00  0.00000000000E+00  0.11490177726E+04  0.11490177726E+04  0.00000000000E+00 0. -1.
         21   -1    0    0  502  503 -0.00000000000E+00 -0.00000000000E+00 -0.59738559365E+02  0.59738559365E+02  0.00000000000E+00 0. -1.
          6    2    1    2  501    0  0.16896422059E+02 -0.11164659704E+03  0.90498484388E+03  0.92808962848E+03  0.17205330316E+03 0.  0.
         24    2    3    3    0    0  0.97585391849E+01 -0.14733492833E+03  0.74500828675E+03  0.76395798865E+03  0.82411473114E+02 0.  0.
         -6    2    1    2    0  503 -0.16896422059E+02  0.11164659704E+03  0.18429436937E+03  0.28066670350E+03  0.17905008284E+03 0.  0.
        -24    2    5    5    0    0 -0.15360835037E+01  0.11909186869E+03  0.54728891533E+02  0.14989715385E+03  0.72723259156E+02 0.  0.
          5    1    3    3  501    0  0.71378828738E+01  0.35688331289E+02  0.15997655713E+03  0.16413163983E+03  0.47000000000E+01 0. -1.
        -13    1    4    4    0    0 -0.19292552925E+02 -0.13386606686E+03  0.55307329351E+03  0.56937017348E+03  0.00000000000E+00 0.  1.
         14    1    4    4    0    0  0.29051092110E+02 -0.13468861472E+02  0.19193499324E+03  0.19458781517E+03  0.00000000000E+00 0. -1.
         -5    1    5    5    0  503 -0.15360338555E+02 -0.74452716508E+01  0.12956547784E+03  0.13076954966E+03  0.47000000000E+01 0.  1.
         13    1    6    6    0    0 -0.29714049333E+02  0.67517202489E+02  0.53480817267E+02  0.91113638799E+02  0.00000000000E+00 0. -1.
        -14    1    6    6    0    0  0.28177965829E+02  0.51574666200E+02  0.12480742660E+01  0.58783515046E+02  0.00000000000E+00 0.  1.
</event>
<event>
12    1  0.8798177E-003  0.2097811E+03  0.7818608E-02  0.1141864E+00
         21   -1    0    0  503  502  0.00000000000E+00  0.00000000000E+00  0.59114562361E+03  0.59114562361E+03  0.00000000000E+00 0.  1.
         21   -1    0    0  501  503 -0.00000000000E+00 -0.00000000000E+00 -0.86800120028E+02  0.86800120028E+02  0.00000000000E+00 0.  1.
          6    2    1    2  501    0 -0.47710425104E+02 -0.10869883426E+03  0.12281599048E+03  0.24254608460E+03  0.17220079676E+03 0.  0.
         24    2    3    3    0    0 -0.15207400478E+02 -0.13847462678E+03  0.74124698203E+02  0.17669795347E+03  0.79506028623E+02 0.  0.
         -6    2    1    2    0  502  0.47710425104E+02  0.10869883426E+03  0.38152951310E+03  0.43539965903E+03  0.17296350044E+03 0.  0.
        -24    2    5    5    0    0  0.96662855817E+02  0.96998442925E+02  0.30160243114E+03  0.34082869065E+03  0.80297971804E+02 0.  0.
          5    1    3    3  501    0 -0.32503024626E+02  0.29775792516E+02  0.48691292275E+02  0.65848131129E+02  0.47000000000E+01 0. -1.
        -13    1    4    4    0    0 -0.41445938249E+02 -0.42252167928E+02  0.39350750545E+02  0.71073856378E+02  0.00000000000E+00 0.  1.
         14    1    4    4    0    0  0.26238537771E+02 -0.96222458849E+02  0.34773947657E+02  0.10562409709E+03  0.00000000000E+00 0. -1.
         -5    1    5    5    0  502 -0.48952430713E+02  0.11700391336E+02  0.79927081961E+02  0.94570968384E+02  0.47000000000E+01 0.  1.
         11    1    6    6    0    0  0.11915440704E+02  0.86263341691E+01  0.12540994255E+03  0.12626973136E+03  0.00000000000E+00 0. -1.
        -12    1    6    6    0    0  0.84747415113E+02  0.88372108755E+02  0.17619248859E+03  0.21455895929E+03  0.00000000000E+00 0.  1.
</event>
<event>
12    1  0.8798177E-003  0.2322417E+03  0.7818608E-02  0.1125275E+00
         21   -1    0    0  503  502  0.00000000000E+00  0.00000000000E+00  0.42873194924E+03  0.42873194924E+03  0.00000000000E+00 0.  1.
         21   -1    0    0  501  503 -0.00000000000E+00 -0.00000000000E+00 -0.12641267484E+03  0.12641267484E+03  0.00000000000E+00 0. -1.
          6    2    1    2  501    0  0.13284226226E+03 -0.82942118746E+02  0.17825800033E+03  0.29184364251E+03  0.16991272845E+03 0.  0.
         24    2    3    3    0    0  0.90060406474E+02  0.11448024327E+02  0.13653251383E+03  0.18002730866E+03  0.74342252145E+02 0.  0.
         -6    2    1    2    0  502 -0.13284226226E+03  0.82942118746E+02  0.12406127408E+03  0.26330098156E+03  0.17149269799E+03 0.  0.
        -24    2    5    5    0    0 -0.15584195274E+03  0.42069160467E+02  0.73847818767E+02  0.19443106379E+03  0.79331013694E+02 0.  0.
          5    1    3    3  501    0  0.42781855785E+02 -0.94390143072E+02  0.41725486496E+02  0.11181633386E+03  0.47000000000E+01 0. -1.
        -13    1    4    4    0    0  0.48186997925E+02 -0.30709642090E+02  0.56589498419E+02  0.80420396776E+02  0.00000000000E+00 0.  1.
         14    1    4    4    0    0  0.41873408549E+02  0.42157666417E+02  0.79943015410E+02  0.99606911879E+02  0.00000000000E+00 0. -1.
         -5    1    5    5    0  502  0.22999690477E+02  0.40872958279E+02  0.50213455310E+02  0.68869917777E+02  0.47000000000E+01 0.  1.
         13    1    6    6    0    0 -0.76736676678E+01  0.20249309709E+02 -0.87993015527E+01  0.23374075960E+02  0.00000000000E+00 0. -1.
        -14    1    6    6    0    0 -0.14816828507E+03  0.21819850758E+02  0.82647120319E+02  0.17105698783E+03  0.00000000000E+00 0.  1.
</event>
<event>
12    1  0.8798177E-003  0.1862761E+03  0.7818608E-02  0.1162205E+00
         21   -1    0    0  501  502  0.00000000000E+00  0.00000000000E+00  0.96362464716E+02  0.96362464716E+02  0.00000000000E+00 0. -1.
         21   -1    0    0  502  503 -0.00000000000E+00 -0.00000000000E+00 -0.37836713465E+03  0.37836713465E+03  0.00000000000E+00 0. -1.
          6    2    1    2  501    0  0.10857185425E+02 -0.71813986444E+02 -0.85453686828E+02  0.20494174381E+03  0.17153325812E+03 0.  0.
         24    2    3    3    0    0 -0.12792610005E+02  0.60957642665E+01  0.62395483407E+01  0.82226702130E+02  0.80755738911E+02 0.  0.
         -6    2    1    2    0  503 -0.10857185425E+02  0.71813986444E+02 -0.19655098311E+03  0.26978785555E+03  0.16993549046E+03 0.  0.
        -24    2    5    5    0    0  0.42172099079E+02  0.87131898830E+01 -0.44109638905E+02  0.96426184576E+02  0.74148116691E+02 0.  0.
          5    1    3    3  501    0  0.23649795429E+02 -0.77909750711E+02 -0.91693235169E+02  0.12271504168E+03  0.47000000000E+01 0. -1.
        -13    1    4    4    0    0 -0.45209529482E+02 -0.82134802898E+01  0.84629230461E+01  0.46722413047E+02  0.00000000000E+00 0.  1.
         14    1    4    4    0    0  0.32416919478E+02  0.14309244556E+02 -0.22233747054E+01  0.35504289083E+02  0.00000000000E+00 0. -1.
         -5    1    5    5    0  503 -0.53029284504E+02  0.63100796561E+02 -0.15244134420E+03  0.17336167098E+03  0.47000000000E+01 0.  1.
         13    1    6    6    0    0 -0.10960064996E+02  0.20460383722E+02  0.42859821781E+01  0.23603388952E+02  0.00000000000E+00 0. -1.
        -14    1    6    6    0    0  0.53132164076E+02 -0.11747193839E+02 -0.48395621083E+02  0.72822795624E+02  0.00000000000E+00 0.  1.
</event>
<event>
12    1  0.8798177E-003  0.1819509E+03  0.7818608E-02  0.1166264E+00
         21   -1    0    0  501  502  0.00000000000E+00  0.00000000000E+00  0.75582636052E+02  0.75582636052E+02  0.00000000000E+00 0. -1.
         21   -1    0    0  502  503 -0.00000000000E+00 -0.00000000000E+00 -0.45039081073E+03  0.45039081073E+03  0.00000000000E+00 0. -1.
          6    2    1    2  501    0 -0.19085480497E+01 -0.54688273176E+02 -0.13752817662E+03  0.22696184932E+03  0.17205589761E+03 0.  0.
         24    2    3    3    0    0 -0.16247201007E+02 -0.96490440797E+02 -0.13334745388E+03  0.18232345072E+03  0.76719753138E+02 0.  0.
         -6    2    1    2    0  503  0.19085480497E+01  0.54688273176E+02 -0.23727999806E+03  0.29901159746E+03  0.17352719718E+03 0.  0.
        -24    2    5    5    0    0 -0.32229925433E+02  0.10540625689E+02 -0.22599119792E+03  0.24188036993E+03  0.79273065671E+02 0.  0.
          5    1    3    3  501    0  0.14338652958E+02  0.41802167621E+02 -0.41807227366E+01  0.44638398594E+02  0.47000000000E+01 0. -1.
        -13    1    4    4    0    0  0.98700417969E+01 -0.83133214154E+02 -0.12731732031E+03  0.15237535586E+03  0.00000000000E+00 0.  1.
         14    1    4    4    0    0 -0.26117242804E+02 -0.13357226642E+02 -0.60301335662E+01  0.29948094866E+02  0.00000000000E+00 0. -1.
         -5    1    5    5    0  503  0.34138473483E+02  0.44147647487E+02 -0.11288800144E+02  0.57131227530E+02  0.47000000000E+01 0.  1.
         13    1    6    6    0    0  0.23659166320E+02  0.15731434901E+02 -0.54883563761E+02  0.61801616209E+02  0.00000000000E+00 0. -1.
        -14    1    6    6    0    0 -0.55889091753E+02 -0.51908092114E+01 -0.17110763415E+03  0.18007875372E+03  0.00000000000E+00 0.  1.
</event>
<event>
12    1  0.8798177E-003  0.1733337E+03  0.7818608E-02  0.1174696E+00
         21   -1    0    0  503  502  0.00000000000E+00  0.00000000000E+00  0.47348542577E+02  0.47348542577E+02  0.00000000000E+00 0. -1.
         21   -1    0    0  501  503 -0.00000000000E+00 -0.00000000000E+00 -0.64580105247E+03  0.64580105247E+03  0.00000000000E+00 0. -1.
          6    2    1    2  501    0 -0.18056763424E+01 -0.20430935692E+02 -0.35161031289E+03  0.39152792018E+03  0.17100765057E+03 0.  0.
         24    2    3    3    0    0 -0.40868450107E+02  0.40264565718E+02 -0.23416468417E+03  0.25359529210E+03  0.78651175422E+02 0.  0.
         -6    2    1    2    0  502  0.18056763424E+01  0.20430935692E+02 -0.24684219700E+03  0.30162167486E+03  0.17211589388E+03 0.  0.
        -24    2    5    5    0    0  0.31199351995E+02  0.72050422022E+02 -0.15454418572E+03  0.19176006909E+03  0.81996072327E+02 0.  0.
          5    1    3    3  501    0  0.39062773764E+02 -0.60695501410E+02 -0.11744562872E+03  0.13793262809E+03  0.47000000000E+01 0. -1.
        -13    1    4    4    0    0 -0.96120298736E+01  0.20018635734E+02 -0.20524900776E+03  0.20644682628E+03  0.00000000000E+00 0.  1.
         14    1    4    4    0    0 -0.31256420233E+02  0.20245929984E+02 -0.28915676411E+02  0.47148465818E+02  0.00000000000E+00 0. -1.
         -5    1    5    5    0  502 -0.29393675652E+02 -0.51619486330E+02 -0.92298011279E+02  0.10986160577E+03  0.47000000000E+01 0.  1.
         13    1    6    6    0    0 -0.25692925401E+02  0.39281848849E+02 -0.76735185381E+02  0.89952647210E+02  0.00000000000E+00 0. -1.
        -14    1    6    6    0    0  0.56892277395E+02  0.32768573172E+02 -0.77809000343E+02  0.10180742188E+03  0.00000000000E+00 0.  1.
</event>
<event>
12    1  0.8798177E-003  0.1979111E+03  0.7818608E-02  0.1151533E+00
         21   -1    0    0  501  502  0.00000000000E+00  0.00000000000E+00  0.11694386287E+03  0.11694386287E+03  0.00000000000E+00 0. -1.
         21   -1    0    0  502  503 -0.00000000000E+00 -0.00000000000E+00 -0.53781546272E+03  0.53781546272E+03  0.00000000000E+00 0. -1.
          6    2    1    2  501    0 -0.16198787903E+02  0.97125515458E+02 -0.93158839295E+01  0.19813023305E+03  0.17167713031E+03 0.  0.
         24    2    3    3    0    0  0.43281106707E+02  0.82879092001E+02  0.28712278748E+02  0.12595648712E+03  0.79362734386E+02 0.  0.
         -6    2    1    2    0  503  0.16198787903E+02 -0.97125515458E+02 -0.41155571592E+03  0.45662909254E+03  0.17156996932E+03 0.  0.
        -24    2    5    5    0    0  0.14736701599E+02 -0.12758648483E+03 -0.25084885582E+03  0.29298682040E+03  0.80128939694E+02 0.  0.
          5    1    3    3  501    0 -0.59479894610E+02  0.14246423458E+02 -0.38028162677E+02  0.72173745924E+02  0.47000000000E+01 0. -1.
        -11    1    4    4    0    0  0.41706459259E+02  0.51243807169E+02 -0.18945028831E+02  0.68733329867E+02  0.00000000000E+00 0.  1.
         12    1    4    4    0    0  0.15746474476E+01  0.31635284831E+02  0.47657307579E+02  0.57223157258E+02  0.00000000000E+00 0. -1.
         -5    1    5    5    0  503  0.14620863038E+01  0.30460969368E+02 -0.16070686009E+03  0.16364227214E+03  0.47000000000E+01 0.  1.
         11    1    6    6    0    0 -0.24354222593E+02 -0.70559802551E+02 -0.17555357648E+03  0.19076391721E+03  0.00000000000E+00 0. -1.
        -12    1    6    6    0    0  0.39090924192E+02 -0.57026682276E+02 -0.75295279342E+02  0.10222290319E+03  0.00000000000E+00 0.  1.
</event>
<event>
12    1  0.8798177E-003  0.2126407E+03  0.7818608E-02  0.1139757E+00
         21   -1    0    0  503  502  0.00000000000E+00  0.00000000000E+00  0.31304398312E+02  0.31304398312E+02  0.00000000000E+00 0.  1.
         21   -1    0    0  501  503 -0.00000000000E+00 -0.00000000000E+00 -0.14383988728E+04  0.14383988728E+04  0.00000000000E+00 0. -1.
          6    2    1    2  501    0 -0.47273102141E+02  0.11476244698E+03 -0.74037261766E+03  0.77030362020E+03  0.17265830095E+03 0.  0.
         24    2    3    3    0    0  0.18125077257E+01  0.54665346102E+02 -0.61674104541E+03  0.62426282355E+03  0.79642768168E+02 0.  0.
         -6    2    1    2    0  502  0.47273102141E+02 -0.11476244698E+03 -0.66672185681E+03  0.69939965090E+03  0.17098734428E+03 0.  0.
        -24    2    5    5    0    0  0.56441721188E+02 -0.13317451871E+03 -0.65417495056E+03  0.67485208855E+03  0.80989846005E+02 0.  0.
          5    1    3    3  501    0 -0.49085609867E+02  0.60097100875E+02 -0.12363157225E+03  0.14604079665E+03  0.47000000000E+01 0. -1.
        -11    1    4    4    0    0  0.39309593902E+02  0.40350981085E+02 -0.34309376632E+03  0.34768775983E+03  0.00000000000E+00 0.  1.
         12    1    4    4    0    0 -0.37497086176E+02  0.14314365017E+02 -0.27364727909E+03  0.27657506372E+03  0.00000000000E+00 0. -1.
         -5    1    5    5    0  502 -0.91686190471E+01  0.18412071731E+02 -0.12546906248E+02  0.24547562345E+02  0.47000000000E+01 0.  1.
         13    1    6    6    0    0  0.48049986812E+02 -0.38839417423E+02 -0.37486112110E+03  0.37991862510E+03  0.00000000000E+00 0. -1.
        -14    1    6    6    0    0  0.83917343763E+01 -0.94335101285E+02 -0.27931382946E+03  0.29493346346E+03  0.00000000000E+00 0.  1.
</event>
<event>
12    1  0.8798177E-003  0.2336769E+03  0.7818608E-02  0.1124238E+00
         21   -1    0    0  501  502  0.00000000000E+00  0.00000000000E+00  0.86382468346E+03  0.86382468346E+03  0.00000000000E+00 0. -1.
         21   -1    0    0  502  503 -0.00000000000E+00 -0.00000000000E+00 -0.79235868367E+02  0.79235868367E+02  0.00000000000E+00 0.  1.
          6    2    1    2  501    0 -0.12677984394E+03 -0.92362284071E+02  0.60660683673E+03  0.65005903922E+03  0.17320790904E+03 0.  0.
         24    2    3    3    0    0 -0.80262623280E+02 -0.74655457650E+01  0.45897491635E+03  0.47345614596E+03  0.83695431414E+02 0.  0.
         -6    2    1    2    0  503  0.12677984394E+03  0.92362284071E+02  0.17798197836E+03  0.29300151261E+03  0.17195459116E+03 0.  0.
        -24    2    5    5    0    0  0.26817865023E+01  0.16591684671E+02  0.97380054089E+02  0.12668773751E+03  0.79274408992E+02 0.  0.
          5    1    3    3  501    0 -0.46517220656E+02 -0.84896738306E+02  0.14763192039E+03  0.17660289326E+03  0.47000000000E+01 0. -1.
        -13    1    4    4    0    0  0.15316583860E+02 -0.11368134487E+02  0.10836222919E+03  0.11002820064E+03  0.00000000000E+00 0.  1.
         14    1    4    4    0    0 -0.95579207139E+02  0.39025887220E+01  0.35061268716E+03  0.36342794531E+03  0.00000000000E+00 0. -1.
         -5    1    5    5    0  503  0.12409805743E+03  0.75770599400E+02  0.80601924275E+02  0.16631377510E+03  0.47000000000E+01 0.  1.
         11    1    6    6    0    0  0.17478874724E+02  0.17951590137E+02  0.10639642374E+03  0.10930676848E+03  0.00000000000E+00 0. -1.
        -12    1    6    6    0    0 -0.14797088222E+02 -0.13599054660E+01 -0.90163696517E+01  0.17380969030E+02  0.00000000000E+00 0.  1.
</event>
<event>
12    1  0.8798177E-003  0.2022441E+03  0.7818608E-02  0.1147895E+00
         21   -1    0    0  501  502  0.00000000000E+00  0.00000000000E+00  0.73086675661E+02  0.73086675661E+02  0.00000000000E+00 0. -1.
         21   -1    0    0  502  503 -0.00000000000E+00 -0.00000000000E+00 -0.12246932310E+04  0.12246932310E+04  0.00000000000E+00 0. -1.
          6    2    1    2  501    0  0.30072723822E+02 -0.10023766854E+03 -0.97353345340E+02  0.22430307590E+03  0.17286479427E+03 0.  0.
         24    2    3    3    0    0 -0.11826867461E+02 -0.11724895886E+03 -0.33637063105E+02  0.14602910596E+03  0.79409411439E+02 0.  0.
         -6    2    1    2    0  503 -0.30072723822E+02  0.10023766854E+03 -0.10542532100E+04  0.10734768308E+04  0.17306275299E+03 0.  0.
        -24    2    5    5    0    0  0.33746927578E+02  0.10342015889E+03 -0.79525535202E+03  0.80667155235E+03  0.80332646349E+02 0.  0.
          5    1    3    3  501    0  0.41899591283E+02  0.17011290325E+02 -0.63716282235E+02  0.78273969940E+02  0.47000000000E+01 0. -1.
        -11    1    4    4    0    0  0.14672049184E+02 -0.11416719832E+02 -0.31893125601E+02  0.36915877067E+02  0.00000000000E+00 0.  1.
         12    1    4    4    0    0 -0.26498916646E+02 -0.10583223903E+03 -0.17439375032E+01  0.10911322889E+03  0.00000000000E+00 0. -1.
         -5    1    5    5    0  503 -0.63819651400E+02 -0.31824903515E+01 -0.25899785802E+03  0.26680527845E+03  0.47000000000E+01 0.  1.
         13    1    6    6    0    0  0.19751216682E+02  0.89000086981E+02 -0.76460673687E+03  0.77002245948E+03  0.00000000000E+00 0. -1.
        -14    1    6    6    0    0  0.13995710896E+02  0.14420071909E+02 -0.30648615152E+02  0.36649092868E+02  0.00000000000E+00 0.  1.
</event>
<event>
12    1  0.8798177E-003  0.1894516E+03  0.7818608E-02  0.1158962E+00
         21   -1    0    0  503  502  0.00000000000E+00  0.00000000000E+00  0.35422378912E+03  0.35422378912E+03  0.00000000000E+00 0. -1.
         21   -1    0    0  501  503 -0.00000000000E+00 -0.00000000000E+00 -0.10986362587E+03  0.10986362587E+03  0.00000000000E+00 0. -1.
          6    2    1    2  501    0 -0.78712890116E+02 -0.34292313655E+01  0.57451177742E+02  0.19797108636E+03  0.17229171341E+03 0.  0.
         24    2    3    3    0    0 -0.19200738857E+02  0.46287464900E+02 -0.95130240029E+01  0.95405300879E+02  0.80625529646E+02 0.  0.
         -6    2    1    2    0  502  0.78712890116E+02  0.34292313655E+01  0.18690898551E+03  0.26611632863E+03  0.17226564602E+03 0.  0.
        -24    2    5    5    0    0  0.67091119316E+02  0.52501685211E+02  0.18009381174E+03  0.21501145727E+03  0.80860994853E+02 0.  0.
          5    1    3    3  501    0 -0.59512151259E+02 -0.49716696265E+02  0.66964201745E+02  0.10256578548E+03  0.47000000000E+01 0. -1.
        -13    1    4    4    0    0  0.25929242485E+02  0.31221222931E+01 -0.18921975163E+02  0.32250804758E+02  0.00000000000E+00 0.  1.
         14    1    4    4    0    0 -0.45129981343E+02  0.43165342607E+02  0.94089511606E+01  0.63154496121E+02  0.00000000000E+00 0. -1.
         -5    1    5    5    0  502  0.11621770800E+02 -0.49072453846E+02  0.68151737681E+01  0.51104871358E+02  0.47000000000E+01 0.  1.
         11    1    6    6    0    0  0.18123063936E+02 -0.10486818753E+01 -0.26892078368E+01  0.18351485468E+02  0.00000000000E+00 0. -1.
        -12    1    6    6    0    0  0.48968055381E+02  0.53550367087E+02  0.18278301958E+03  0.19665997180E+03  0.00000000000E+00 0.  1.
</event>
<event>
12    1  0.8798177E-003  0.2566482E+03  0.7818608E-02  0.1109275E+00
         21   -1    0    0  503  502  0.00000000000E+00  0.00000000000E+00  0.19361797093E+03  0.19361797093E+03  0.00000000000E+00 0.  1.
         21   -1    0    0  501  503 -0.00000000000E+00 -0.00000000000E+00 -0.37477603411E+03  0.37477603411E+03  0.00000000000E+00 0. -1.
          6    2    1    2  501    0  0.18208434571E+03  0.54187341641E+02 -0.30592968188E+01  0.25600407695E+03  0.17157433134E+03 0.  0.
         24    2    3    3    0    0  0.17867305525E+03 -0.17450682723E+01  0.16272393324E+02  0.19654084777E+03  0.80227228048E+02 0.  0.
         -6    2    1    2    0  502 -0.18208434571E+03 -0.54187341641E+02 -0.17809876636E+03  0.31238992809E+03  0.17256106064E+03 0.  0.
        -24    2    5    5    0    0 -0.83947388998E+02 -0.68544390949E+02 -0.16530978966E+03  0.21227681676E+03  0.77386192071E+02 0.  0.
          5    1    3    3  501    0  0.34112904546E+01  0.55932409913E+02 -0.19331690143E+02  0.59463229185E+02  0.47000000000E+01 0. -1.
        -13    1    4    4    0    0  0.12086262603E+03 -0.16638934910E+01 -0.27579157465E+02  0.12398045346E+03  0.00000000000E+00 0.  1.
         14    1    4    4    0    0  0.57810429220E+02 -0.81174781261E-01  0.43851550788E+02  0.72560394310E+02  0.00000000000E+00 0. -1.
         -5    1    5    5    0  502 -0.98136956709E+02  0.14357049308E+02 -0.12788976695E+02  0.10011311134E+03  0.47000000000E+01 0.  1.
         11    1    6    6    0    0 -0.66142458827E+02 -0.88447998510E+01 -0.11156616012E+03  0.13000024395E+03  0.00000000000E+00 0. -1.
        -12    1    6    6    0    0 -0.17804930171E+02 -0.59699591098E+02 -0.53743629547E+02  0.82276572805E+02  0.00000000000E+00 0.  1.
</event>
<event>
12    1  0.8798177E-003  0.1899425E+03  0.7818608E-02  0.1158905E+00
         21   -1    0    0  503  502  0.00000000000E+00  0.00000000000E+00  0.17947971513E+03  0.17947971513E+03  0.00000000000E+00 0. -1.
         21   -1    0    0  501  503 -0.00000000000E+00 -0.00000000000E+00 -0.20681970837E+03  0.20681970837E+03  0.00000000000E+00 0. -1.
          6    2    1    2  501    0 -0.76114695914E+02 -0.82849567448E+01 -0.50825250301E+02  0.19662488951E+03  0.17382765506E+03 0.  0.
         24    2    3    3    0    0 -0.71605424984E+02 -0.27943479499E+01 -0.10012914213E+03  0.14659046078E+03  0.79547299260E+02 0.  0.
         -6    2    1    2    0  502  0.76114695914E+02  0.82849567448E+01  0.23485257059E+02  0.18967453399E+03  0.17193831482E+03 0.  0.
        -24    2    5    5    0    0  0.92956258476E+02  0.44577794172E+02  0.51178067958E+02  0.14078905503E+03  0.81082166060E+02 0.  0.
          5    1    3    3  501    0 -0.45092709302E+01 -0.54906087949E+01  0.49303891826E+02  0.50034428731E+02  0.47000000000E+01 0. -1.
        -11    1    4    4    0    0 -0.61457061110E+01 -0.33542875676E+02 -0.24813166330E+02  0.42173302403E+02  0.00000000000E+00 0.  1.
         12    1    4    4    0    0 -0.65459718873E+02  0.30748527727E+02 -0.75315975797E+02  0.10441715837E+03  0.00000000000E+00 0. -1.
         -5    1    5    5    0  502 -0.16841562563E+02 -0.36292837427E+02 -0.27692810900E+02  0.48885478964E+02  0.47000000000E+01 0.  1.
         11    1    6    6    0    0  0.86499056844E+02  0.37833777722E+02  0.59404536768E+01  0.94597941635E+02  0.00000000000E+00 0. -1.
        -12    1    6    6    0    0  0.64572016326E+01  0.67440164494E+01  0.45237614281E+02  0.46191113395E+02  0.00000000000E+00 0.  1.
</event>
<event>
12    1  0.8798177E-003  0.2553506E+03  0.7818608E-02  0.1110794E+00
         21   -1    0    0  503  502  0.00000000000E+00  0.00000000000E+00  0.11613453336E+03  0.11613453336E+03  0.00000000000E+00 0.  1.
         21   -1    0    0  501  503 -0.00000000000E+00 -0.00000000000E+00 -0.60380585896E+03  0.60380585896E+03  0.00000000000E+00 0. -1.
          6    2    1    2  501    0 -0.66800051587E+02  0.17632425445E+03 -0.35376612032E+03  0.43629621559E+03  0.17219590662E+03 0.  0.
         24    2    3    3    0    0 -0.62778484363E+02  0.72324217344E+02 -0.92759986712E+02  0.15526512745E+03  0.79567041889E+02 0.  0.
         -6    2    1    2    0  502  0.66800051587E+02 -0.17632425445E+03 -0.13390520528E+03  0.28364417673E+03  0.16422827221E+03 0.  0.
        -24    2    5    5    0    0  0.10389264566E+03 -0.13398138988E+03 -0.12729455757E+03  0.22677090201E+03  0.80476350271E+02 0.  0.
          5    1    3    3  501    0 -0.40215672240E+01  0.10400003710E+03 -0.26100613360E+03  0.28103108814E+03  0.47000000000E+01 0. -1.
        -13    1    4    4    0    0 -0.84283694269E+01  0.41240831576E+02  0.14835386975E+01  0.42119407490E+02  0.00000000000E+00 0.  1.
         14    1    4    4    0    0 -0.54350114936E+02  0.31083385768E+02 -0.94243525409E+02  0.11314571996E+03  0.00000000000E+00 0. -1.
         -5    1    5    5    0  502 -0.37092594073E+02 -0.42342864564E+02 -0.66106477053E+01  0.56873274722E+02  0.47000000000E+01 0.  1.
         11    1    6    6    0    0  0.70053049329E+02 -0.12928846212E+03 -0.77047432527E+02  0.16600976783E+03  0.00000000000E+00 0. -1.
        -12    1    6    6    0    0  0.33839596331E+02 -0.46929277656E+01 -0.50247125047E+02  0.60761134175E+02  0.00000000000E+00 0.  1.
</event>
<event>
12    1  0.8798177E-003  0.2417508E+03  0.7818608E-02  0.1118743E+00
         21   -1    0    0  501  502  0.00000000000E+00  0.00000000000E+00  0.30744783567E+04  0.30744783567E+04  0.00000000000E+00 0.  1.
         21   -1    0    0  502  503 -0.00000000000E+00 -0.00000000000E+00 -0.24964180730E+02  0.24964180730E+02  0.00000000000E+00 0.  1.
          6    2    1    2  501    0 -0.12895552686E+03  0.10815875569E+03  0.76290908953E+03  0.80009343823E+03  0.17260181536E+03 0.  0.
         24    2    3    3    0    0 -0.19791569479E+02 -0.16436307038E+01  0.30774577752E+03  0.31929299704E+03  0.82741444453E+02 0.  0.
         -6    2    1    2    0  503  0.12895552686E+03 -0.10815875569E+03  0.22866050864E+04  0.22993490992E+04  0.17353850967E+03 0.  0.
        -24    2    5    5    0    0  0.14174651847E+03 -0.13420031646E+03  0.19120247242E+04  0.19236173995E+04  0.79771883759E+02 0.  0.
          5    1    3    3  501    0 -0.10916395738E+03  0.10980238639E+03  0.45516331201E+03  0.48080044119E+03  0.47000000000E+01 0. -1.
        -13    1    4    4    0    0 -0.42213080347E+01  0.29987459078E+02  0.45301222330E+02  0.54490989054E+02  0.00000000000E+00 0.  1.
         14    1    4    4    0    0 -0.15570261444E+02 -0.31631089782E+02  0.26244455519E+03  0.26480200799E+03  0.00000000000E+00 0. -1.
         -5    1    5    5    0  503 -0.12790991612E+02  0.26041560771E+02  0.37458036227E+03  0.37573169969E+03  0.47000000000E+01 0.  1.
         11    1    6    6    0    0  0.39408146787E+02 -0.87837450436E+02  0.10234579846E+04  0.10279760046E+04  0.00000000000E+00 0. -1.
        -12    1    6    6    0    0  0.10233837169E+03 -0.46362866021E+02  0.88856673958E+03  0.89564139495E+03  0.00000000000E+00 0.  1.
</event>
<event>
12    1  0.8798177E-003  0.2076175E+03  0.7818608E-02  0.1143578E+00
         21   -1    0    0  501  502  0.00000000000E+00  0.00000000000E+00  0.77877788528E+03  0.77877788528E+03  0.00000000000E+00 0.  1.
         21   -1    0    0  502  503 -0.00000000000E+00 -0.00000000000E+00 -0.63229277603E+02  0.63229277603E+02  0.00000000000E+00 0.  1.
          6    2    1    2  501    0  0.40516586174E+01  0.11744355253E+03  0.50818989263E+03  0.54896446039E+03  0.17115959755E+03 0.  0.
         24    2    3    3    0    0  0.30814558938E+02  0.43659605836E+02  0.13197541040E+03  0.16462118900E+03  0.82625230371E+02 0.  0.
         -6    2    1    2    0  503 -0.40516586174E+01 -0.11744355253E+03  0.20735871505E+03  0.29304270249E+03  0.17049042439E+03 0.  0.
        -24    2    5    5    0    0  0.14265385874E+01 -0.34510998591E+02  0.18874991031E+03  0.20774207669E+03  0.79606518262E+02 0.  0.
          5    1    3    3  501    0 -0.26762900320E+02  0.73783946698E+02  0.37621448222E+03  0.38434327139E+03  0.47000000000E+01 0. -1.
        -11    1    4    4    0    0  0.35786601961E+02  0.32902651172E+02  0.14137234798E+03  0.14949717759E+03  0.00000000000E+00 0.  1.
         12    1    4    4    0    0 -0.49720430229E+01  0.10756954664E+02 -0.93969375764E+01  0.15124011415E+02  0.00000000000E+00 0. -1.
         -5    1    5    5    0  503 -0.54781972048E+01 -0.82932553944E+02  0.18608804739E+02  0.85300625801E+02  0.47000000000E+01 0.  1.
         13    1    6    6    0    0  0.49646929659E+01  0.13085629601E+02  0.10120314400E+01  0.14032322899E+02  0.00000000000E+00 0. -1.
        -14    1    6    6    0    0 -0.35381543785E+01 -0.47596628192E+02  0.18773787887E+03  0.19370975379E+03  0.00000000000E+00 0.  1.
</event>
<event>
12    1  0.8798177E-003  0.2611986E+03  0.7818608E-02  0.1106435E+00
         21   -1    0    0  501  502  0.00000000000E+00  0.00000000000E+00  0.67485674797E+02  0.67485674797E+02  0.00000000000E+00 0. -1.
         21   -1    0    0  502  503 -0.00000000000E+00 -0.00000000000E+00 -0.11089599882E+04  0.11089599882E+04  0.00000000000E+00 0.  1.
          6    2    1    2  501    0  0.17380487025E+03 -0.91972871691E+02 -0.69589364005E+03  0.74329850886E+03  0.17192316007E+03 0.  0.
         24    2    3    3    0    0  0.37281650178E+02 -0.52398472463E+02 -0.43682716399E+03  0.44776128327E+03  0.74408831742E+02 0.  0.
         -6    2    1    2    0  503 -0.17380487025E+03  0.91972871691E+02 -0.34558067334E+03  0.43314715412E+03  0.17182349457E+03 0.  0.
        -24    2    5    5    0    0 -0.22442124302E+02  0.86062675122E+01 -0.78257644609E+02  0.11480085959E+03  0.80481436606E+02 0.  0.
          5    1    3    3  501    0  0.13652322007E+03 -0.39574399228E+02 -0.25906647606E+03  0.29553722559E+03  0.47000000000E+01 0. -1.
        -13    1    4    4    0    0  0.34547794331E+02 -0.70899366080E+02 -0.32876400647E+03  0.33809176588E+03  0.00000000000E+00 0.  1.
         14    1    4    4    0    0  0.27338558469E+01  0.18500893617E+02 -0.10806315751E+03  0.10966951739E+03  0.00000000000E+00 0. -1.
         -5    1    5    5    0  503 -0.15136274595E+03  0.83366604179E+02 -0.26732302873E+03  0.31834629453E+03  0.47000000000E+01 0.  1.
         11    1    6    6    0    0  0.10391962536E-01  0.39154557957E+02 -0.16835502710E+02  0.42620577991E+02  0.00000000000E+00 0. -1.
        -12    1    6    6    0    0 -0.22452516264E+02 -0.30548290444E+02 -0.61422141898E+02  0.72180281594E+02  0.00000000000E+00 0.  1.
</event>
<event>
12    1  0.8798177E-003  0.1717570E+03  0.7818608E-02  0.1176445E+00
         21   -1    0    0  503  502  0.00000000000E+00  0.00000000000E+00  0.78929179440E+02  0.78929179440E+02  0.00000000000E+00 0.  1.
         21   -1    0    0  501  503 -0.00000000000E+00 -0.00000000000E+00 -0.46268516625E+03  0.46268516625E+03  0.00000000000E+00 0.  1.
          6    2    1    2  501    0 -0.16773522181E+02  0.16124086140E+02 -0.31218982678E+03  0.35554393516E+03  0.16854573468E+03 0.  0.
         24    2    3    3    0    0 -0.85742292608E+01 -0.56155364196E+02 -0.21226241906E+03  0.23185430681E+03  0.73987449664E+02 0.  0.
         -6    2    1    2    0  502  0.16773522181E+02 -0.16124086140E+02 -0.71566160025E+02  0.18607041053E+03  0.17017386760E+03 0.  0.
        -24    2    5    5    0    0 -0.19735098000E+02  0.31359545642E+02 -0.87548909684E+02  0.12390037819E+03  0.79458145791E+02 0.  0.
          5    1    3    3  501    0 -0.81992929204E+01  0.72279450337E+02 -0.99927407725E+02  0.12368962834E+03  0.47000000000E+01 0. -1.
        -13    1    4    4    0    0 -0.17325420354E+02  0.11732726602E+02 -0.82883795493E+02  0.85484212691E+02  0.00000000000E+00 0.  1.
         14    1    4    4    0    0  0.87511910934E+01 -0.67888090798E+02 -0.12937862357E+03  0.14637009412E+03  0.00000000000E+00 0. -1.
         -5    1    5    5    0  502  0.36508620181E+02 -0.47483631783E+02  0.15982749659E+02  0.62170032343E+02  0.47000000000E+01 0.  1.
         13    1    6    6    0    0 -0.10321414071E+02  0.38699205551E+01 -0.93577738291E+02  0.94224736546E+02  0.00000000000E+00 0. -1.
        -14    1    6    6    0    0 -0.94136839294E+01  0.27489625087E+02  0.60288286064E+01  0.29675641643E+02  0.00000000000E+00 0.  1.
</event>
<event>
12    1  0.8798177E-003  0.2921061E+03  0.7818608E-02  0.1089300E+00
         21   -1    0    0  503  502  0.00000000000E+00  0.00000000000E+00  0.19283826595E+03  0.19283826595E+03  0.00000000000E+00 0. -1.
         21   -1    0    0  501  503 -0.00000000000E+00 -0.00000000000E+00 -0.46289941349E+03  0.46289941349E+03  0.00000000000E+00 0. -1.
          6    2    1    2  501    0  0.11904793038E+03  0.20380351051E+03 -0.20471015365E+03  0.35641057755E+03  0.17150502081E+03 0.  0.
         24    2    3    3    0    0  0.17638662464E+02  0.63212722005E+02 -0.25004415111E+02  0.10667901789E+03  0.80300818458E+02 0.  0.
         -6    2    1    2    0  502 -0.11904793038E+03 -0.20380351051E+03 -0.65350993890E+02  0.29932710189E+03  0.17209788176E+03 0.  0.
        -24    2    5    5    0    0 -0.38208253752E+02 -0.97087872746E+02  0.29670928838E+02  0.13508783601E+03  0.80513562402E+02 0.  0.
          5    1    3    3  501    0  0.10140926791E+03  0.14059078850E+03 -0.17970573854E+03  0.24973155967E+03  0.47000000000E+01 0. -1.
        -11    1    4    4    0    0 -0.29364065997E+02  0.42556815774E+02 -0.18561664720E+02  0.54935110247E+02  0.00000000000E+00 0.  1.
         12    1    4    4    0    0  0.47002728461E+02  0.20655906231E+02 -0.64427503907E+01  0.51743907638E+02  0.00000000000E+00 0. -1.
         -5    1    5    5    0  502 -0.80839676624E+02 -0.10671563776E+03 -0.95021922728E+02  0.16423926588E+03  0.47000000000E+01 0.  1.
         11    1    6    6    0    0 -0.24261129260E+02 -0.79804952841E+02 -0.15419829308E+02  0.84824548492E+02  0.00000000000E+00 0. -1.
        -12    1    6    6    0    0 -0.13947124491E+02 -0.17282919905E+02  0.45090758146E+02  0.50263287519E+02  0.00000000000E+00 0.  1.
</event>
<event>
12    1  0.8798177E-003  0.1869562E+03  0.7818608E-02  0.1161711E+00
         21   -1    0    0  501  502  0.00000000000E+00  0.00000000000E+00  0.17488746814E+03  0.17488746814E+03  0.00000000000E+00 0. -1.
         21   -1    0    0  502  503 -0.00000000000E+00 -0.00000000000E+00 -0.20032037504E+03  0.20032037504E+03  0.00000000000E+00 0. -1.
          6    2    1    2  501    0  0.23823486781E+02 -0.62940218375E+02  0.87992585950E+01  0.18716318445E+03  0.17442362526E+03 0.  0.
         24    2    3    3    0    0 -0.29457478603E+01 -0.25564737526E+02 -0.60726367588E+02  0.10368012516E+03  0.79997771205E+02 0.  0.
         -6    2    1    2    0  503 -0.23823486781E+02  0.62940218375E+02 -0.34232165488E+02  0.18804465873E+03  0.17222056472E+03 0.  0.
        -24    2    5    5    0    0 -0.38136333479E+02 -0.22860227044E+02 -0.41582337250E+02  0.10062218428E+03  0.80117184711E+02 0.  0.
          5    1    3    3  501    0  0.26769234642E+02 -0.37375480849E+02  0.69525626183E+02  0.83483059288E+02  0.47000000000E+01 0. -1.
        -11    1    4    4    0    0  0.97399152132E+01 -0.11726694307E+02 -0.77208232417E+02  0.78698744975E+02  0.00000000000E+00 0.  1.
         12    1    4    4    0    0 -0.12685663073E+02 -0.13838043219E+02  0.16481864829E+02  0.24981380186E+02  0.00000000000E+00 0. -1.
         -5    1    5    5    0  503  0.14312846698E+02  0.85800445419E+02  0.73501717613E+01  0.87422474454E+02  0.47000000000E+01 0.  1.
         13    1    6    6    0    0 -0.46743198455E+02  0.14172598480E+02 -0.39018748728E+02  0.62516013163E+02  0.00000000000E+00 0. -1.
        -14    1    6    6    0    0  0.86068649756E+01 -0.37032825524E+02 -0.25635885213E+01  0.38106171116E+02  0.00000000000E+00 0.  1.
</event>
<event>
12    1  0.8798177E-003  0.2029207E+03  0.7818608E-02  0.1147397E+00
         21   -1    0    0  503  502  0.00000000000E+00  0.00000000000E+00  0.39318395497E+03  0.39318395497E+03  0.00000000000E+00 0.  1.
         21   -1    0    0  501  503 -0.00000000000E+00 -0.00000000000E+00 -0.12711212577E+03  0.12711212577E+03  0.00000000000E+00 0.  1.
          6    2    1    2  501    0 -0.10478449088E+03 -0.22925446649E+02  0.23393027417E+02  0.20426461879E+03  0.17225398436E+03 0.  0.
         24    2    3    3    0    0 -0.69810214091E+02 -0.34102113855E+01 -0.47055223038E+02  0.12309140624E+03  0.89734077927E+02 0.  0.
         -6    2    1    2    0  502  0.10478449088E+03  0.22925446649E+02  0.24267880178E+03  0.31603146195E+03  0.17169018166E+03 0.  0.
        -24    2    5    5    0    0  0.95482968250E+02  0.55219050499E+02  0.24624571517E+03  0.28191096893E+03  0.81674361941E+02 0.  0.
          5    1    3    3  501    0 -0.34974276789E+02 -0.19515235264E+02  0.70448250456E+02  0.81173212556E+02  0.47000000000E+01 0. -1.
        -11    1    4    4    0    0 -0.59206848319E+02  0.87266728368E+00  0.14105988300E+02  0.60870282914E+02  0.00000000000E+00 0.  1.
         12    1    4    4    0    0 -0.10603365772E+02 -0.42828786692E+01 -0.61161211339E+02  0.62221123325E+02  0.00000000000E+00 0. -1.
         -5    1    5    5    0  502  0.93015226308E+01 -0.32293603849E+02 -0.35669133940E+01  0.34120493021E+02  0.47000000000E+01 0.  1.
         11    1    6    6    0    0  0.21097732810E+02  0.27146888424E+02  0.16382143265E+03  0.16739035120E+03  0.00000000000E+00 0. -1.
        -12    1    6    6    0    0  0.74385235440E+02  0.28072162075E+02  0.82424282524E+02  0.11452061773E+03  0.00000000000E+00 0.  1.
</event>
<event>
12    1  0.8798177E-003  0.1925882E+03  0.7818608E-02  0.1156274E+00
         21   -1    0    0  501  502  0.00000000000E+00  0.00000000000E+00  0.40755944076E+02  0.40755944076E+02  0.00000000000E+00 0.  1.
         21   -1    0    0  502  503 -0.00000000000E+00 -0.00000000000E+00 -0.91681079575E+03  0.91681079575E+03  0.00000000000E+00 0. -1.
          6    2    1    2  501    0  0.86823538585E+02 -0.35566147147E+01 -0.38880175361E+03  0.43363371827E+03  0.17123206959E+03 0.  0.
         24    2    3    3    0    0  0.91944508925E+02  0.49585891838E+02 -0.32044146488E+03  0.34676848118E+03  0.81566498864E+02 0.  0.
         -6    2    1    2    0  503 -0.86823538585E+02  0.35566147147E+01 -0.48725309806E+03  0.52393302155E+03  0.17186987269E+03 0.  0.
        -24    2    5    5    0    0  0.24088118387E+02  0.11010158951E+02 -0.23622561183E+03  0.24935363445E+03  0.75320875479E+02 0.  0.
          5    1    3    3  501    0 -0.51209703399E+01 -0.53142506553E+02 -0.68360288732E+02  0.86865237095E+02  0.47000000000E+01 0. -1.
        -13    1    4    4    0    0  0.24644698292E+02  0.55623438056E+02 -0.10946196574E+03  0.12523278309E+03  0.00000000000E+00 0.  1.
         14    1    4    4    0    0  0.67299810633E+02 -0.60375462178E+01 -0.21097949913E+03  0.22153569809E+03  0.00000000000E+00 0. -1.
         -5    1    5    5    0  503 -0.11091165697E+03 -0.74535442366E+01 -0.25102748623E+03  0.27457938709E+03  0.47000000000E+01 0.  1.
         13    1    6    6    0    0 -0.73538163358E+01  0.31668362599E+02 -0.17093860810E+03  0.17400279177E+03  0.00000000000E+00 0. -1.
        -14    1    6    6    0    0  0.31441934722E+02 -0.20658203648E+02 -0.65287003730E+02  0.75350842684E+02  0.00000000000E+00 0.  1.
</event>
<event>
12    1  0.8798177E-003  0.2716755E+03  0.7818608E-02  0.1101821E+00
         21   -1    0    0  501  502  0.00000000000E+00  0.00000000000E+00  0.14651461131E+04  0.14651461131E+04  0.00000000000E+00 0.  1.
         21   -1    0    0  502  503 -0.00000000000E+00 -0.00000000000E+00 -0.54201566654E+02  0.54201566654E+02  0.00000000000E+00 0.  1.
          6    2    1    2  501    0 -0.19757222293E+03 -0.72768220667E+02  0.96449322128E+03  0.10020253229E+04  0.17169035126E+03 0.  0.
         24    2    3    3    0    0 -0.16087463445E+03 -0.85681358557E+02  0.92625635836E+03  0.94727489083E+03  0.78466134006E+02 0.  0.
         -6    2    1    2    0  503  0.19757222293E+03  0.72768220667E+02  0.44645132519E+03  0.51732235684E+03  0.15483422717E+03 0.  0.
        -24    2    5    5    0    0  0.87083246394E+02  0.49579689877E+02  0.33507304281E+03  0.35866318224E+03  0.79521675204E+02 0.  0.
          5    1    3    3  501    0 -0.36697588482E+02  0.12913137891E+02  0.38236862917E+02  0.54750432111E+02  0.47000000000E+01 0. -1.
        -13    1    4    4    0    0 -0.75307143270E+02 -0.19640517439E+01  0.27625947581E+03  0.28634650565E+03  0.00000000000E+00 0.  1.
         14    1    4    4    0    0 -0.85567491180E+02 -0.83717306813E+02  0.64999688255E+03  0.66092838518E+03  0.00000000000E+00 0. -1.
         -5    1    5    5    0  503  0.11048897654E+03  0.23188530790E+02  0.11137828239E+03  0.15865917460E+03  0.47000000000E+01 0.  1.
         13    1    6    6    0    0  0.12992352172E+02 -0.16199605507E+02  0.21850605418E+02  0.30144276251E+02  0.00000000000E+00 0. -1.
        -14    1    6    6    0    0  0.74090894221E+02  0.65779295384E+02  0.31322243739E+03  0.32851890599E+03  0.00000000000E+00 0.  1.
</event>
<event>
12    1  0.8798177E-003  0.1898166E+03  0.7818608E-02  0.1158909E+00
         21   -1    0    0  501  502  0.00000000000E+00  0.00000000000E+00  0.16109941206E+03  0.16109941206E+03  0.00000000000E+00 0.  1.
         21   -1    0    0  502  503 -0.00000000000E+00 -0.00000000000E+00 -0.24458531169E+03  0.24458531169E+03  0.00000000000E+00 0.  1.
          6    2    1    2  501    0 -0.75131937864E+02 -0.24850857222E+02  0.19766455485E+02  0.18960285281E+03  0.17116119841E+03 0.  0.
         24    2    3    3    0    0 -0.88776435146E+02  0.38965113873E+02  0.21161507719E+02  0.12416061383E+03  0.74622470346E+02 0.  0.
         -6    2    1    2    0  503  0.75131937864E+02  0.24850857222E+02 -0.10325235512E+03  0.21608187094E+03  0.17253391817E+03 0.  0.
        -24    2    5    5    0    0 -0.52091729371E+01  0.19420466564E+02 -0.10589493931E+03  0.13537712214E+03  0.81908101084E+02 0.  0.
          5    1    3    3  501    0  0.13644497282E+02 -0.63815971095E+02 -0.13950522344E+01  0.65442238987E+02  0.47000000000E+01 0. -1.
        -13    1    4    4    0    0 -0.15309122453E+02  0.43729170658E+02 -0.36385199402E+01  0.46474169428E+02  0.00000000000E+00 0.  1.
         14    1    4    4    0    0 -0.73467312693E+02 -0.47640567849E+01  0.24800027659E+02  0.77686444398E+02  0.00000000000E+00 0. -1.
         -5    1    5    5    0  503  0.80341110801E+02  0.54303906582E+01  0.26425841893E+01  0.80704748798E+02  0.47000000000E+01 0.  1.
         11    1    6    6    0    0 -0.19624170664E+02  0.14626344036E+02  0.36833205234E+01  0.24750855827E+02  0.00000000000E+00 0. -1.
        -12    1    6    6    0    0  0.14414997727E+02  0.47941225278E+01 -0.10957825983E+03  0.11062626631E+03  0.00000000000E+00 0.  1.
</event>
<event>
12    1  0.8798177E-003  0.1720219E+03  0.7818608E-02  0.1175766E+00
         21   -1    0    0  501  502  0.00000000000E+00  0.00000000000E+00  0.42080538336E+03  0.42080538336E+03  0.00000000000E+00 0. -1.
         21   -1    0    0  502  503 -0.00000000000E+00 -0.00000000000E+00 -0.74400985994E+02  0.74400985994E+02  0.00000000000E+00 0. -1.
          6    2    1    2  501    0  0.11590385745E+02  0.85951085130E+01  0.11512193710E+03  0.20698937598E+03  0.17141565983E+03 0.  0.
         24    2    3    3    0    0  0.73373001557E+02 -0.18132580159E+01  0.77379747661E+02  0.13369552512E+03  0.80622470979E+02 0.  0.
         -6    2    1    2    0  503 -0.11590385745E+02 -0.85951085130E+01  0.23128246026E+03  0.28821699337E+03  0.17137457778E+03 0.  0.
        -24    2    5    5    0    0  0.37698398934E+02 -0.29881894399E+02  0.21055633782E+03  0.23047468912E+03  0.80439505421E+02 0.  0.
          5    1    3    3  501    0 -0.61782615813E+02  0.10408366529E+02  0.37742189443E+02  0.73293850863E+02  0.47000000000E+01 0. -1.
        -13    1    4    4    0    0  0.49323667082E+02 -0.34304158491E+02  0.19633068464E+02  0.63206461707E+02  0.00000000000E+00 0.  1.
         14    1    4    4    0    0  0.24049334475E+02  0.32490900476E+02  0.57746679198E+02  0.70489063412E+02  0.00000000000E+00 0. -1.
         -5    1    5    5    0  503 -0.49288784679E+02  0.21286785886E+02  0.20726122433E+02  0.57742304246E+02  0.47000000000E+01 0.  1.
         13    1    6    6    0    0  0.13109959754E+02 -0.30980758335E+02  0.21724145961E+02  0.40045186346E+02  0.00000000000E+00 0. -1.
        -14    1    6    6    0    0  0.24588439180E+02  0.10988639364E+01  0.18883219186E+03  0.19042950277E+03  0.00000000000E+00 0.  1.
</event>
<event>
12    1  0.8798177E-003  0.1783915E+03  0.7818608E-02  0.1169490E+00
         21   -1    0    0  503  502  0.00000000000E+00  0.00000000000E+00  0.29114702893E+03  0.29114702893E+03  0.00000000000E+00 0. -1.
         21   -1    0    0  501  503 -0.00000000000E+00 -0.00000000000E+00 -0.46551719808E+03  0.46551719808E+03  0.00000000000E+00 0. -1.
          6    2    1    2  501    0  0.47654494646E+02  0.73099264950E+01 -0.41830168766E+03  0.45475250179E+03  0.17175316620E+03 0.  0.
         24    2    3    3    0    0 -0.43199371023E+02  0.12157065656E+02 -0.21196329031E+03  0.22919642476E+03  0.74756837681E+02 0.  0.
         -6    2    1    2    0  502 -0.47654494646E+02 -0.73099264950E+01  0.24393151851E+03  0.30191172522E+03  0.17124169533E+03 0.  0.
        -24    2    5    5    0    0 -0.79676325688E+02  0.30596627229E+02  0.21368854810E+03  0.24361050965E+03  0.79992589329E+02 0.  0.
          5    1    3    3  501    0  0.90853865669E+02 -0.48471391612E+01 -0.20633839735E+03  0.22555607703E+03  0.47000000000E+01 0. -1.
        -13    1    4    4    0    0 -0.85439001687E+01 -0.16484169091E+02 -0.15742372231E+03  0.15851483970E+03  0.00000000000E+00 0.  1.
         14    1    4    4    0    0 -0.34655470854E+02  0.28641234747E+02 -0.54539568005E+02  0.70681585057E+02  0.00000000000E+00 0. -1.
         -5    1    5    5    0  502  0.32021831041E+02 -0.37906553724E+02  0.30242970406E+02  0.58301215574E+02  0.47000000000E+01 0.  1.
         11    1    6    6    0    0 -0.10548547067E+02  0.16039690123E+02  0.14080968589E+03  0.14211231876E+03  0.00000000000E+00 0. -1.
        -12    1    6    6    0    0 -0.69127778621E+02  0.14556937105E+02  0.72878862214E+02  0.10149819088E+03  0.00000000000E+00 0.  1.
</event>
<event>
12    1  0.8798177E-003  0.2137211E+03  0.7818608E-02  0.1138677E+00
         21   -1    0    0  503  502  0.00000000000E+00  0.00000000000E+00  0.43647885571E+03  0.43647885571E+03  0.00000000000E+00 0.  1.
         21   -1    0    0  501  503 -0.00000000000E+00 -0.00000000000E+00 -0.11090465223E+03  0.11090465223E+03  0.00000000000E+00 0.  1.
          6    2    1    2  501    0 -0.85975593756E+02  0.93239956929E+02  0.97511296823E+02  0.23491523186E+03  0.17202098960E+03 0.  0.
         24    2    3    3    0    0 -0.28338879025E+02  0.48603522039E+02 -0.15373105497E+02  0.10045564502E+03  0.81790035002E+02 0.  0.
         -6    2    1    2    0  502  0.85975593756E+02 -0.93239956929E+02  0.22806290666E+03  0.31246827608E+03  0.17186693072E+03 0.  0.
        -24    2    5    5    0    0  0.16167242953E+02 -0.10902454351E+03  0.97954511565E+02  0.16389962700E+03  0.71556065866E+02 0.  0.
          5    1    3    3  501    0 -0.57636714731E+02  0.44636434890E+02  0.11288440232E+03  0.13445958684E+03  0.47000000000E+01 0. -1.
        -11    1    4    4    0    0 -0.28299199485E+02  0.71202216307E+02 -0.13254269613E+02  0.77757803220E+02  0.00000000000E+00 0.  1.
         12    1    4    4    0    0 -0.39679539309E-01 -0.22598694268E+02 -0.21188358839E+01  0.22697841805E+02  0.00000000000E+00 0. -1.
         -5    1    5    5    0  502  0.69808350802E+02  0.15784586585E+02  0.13010839510E+03  0.14856864908E+03  0.47000000000E+01 0.  1.
         13    1    6    6    0    0  0.14997595313E+02 -0.23275776051E+01 -0.46446487527E+01  0.15871932608E+02  0.00000000000E+00 0. -1.
        -14    1    6    6    0    0  0.11696476409E+01 -0.10669696591E+03  0.10259916032E+03  0.14802769439E+03  0.00000000000E+00 0.  1.
</event>
<event>
12    1  0.8798177E-003  0.1803242E+03  0.7818608E-02  0.1167850E+00
         21   -1    0    0  503  502  0.00000000000E+00  0.00000000000E+00  0.30972037888E+03  0.30972037888E+03  0.00000000000E+00 0. -1.
         21   -1    0    0  501  503 -0.00000000000E+00 -0.00000000000E+00 -0.21335386877E+03  0.21335386877E+03  0.00000000000E+00 0. -1.
          6    2    1    2  501    0  0.12035099354E+02 -0.51440138372E+02 -0.13904703048E+03  0.22653360206E+03  0.17085802505E+03 0.  0.
         24    2    3    3    0    0 -0.16436508477E+02 -0.95065679889E+02 -0.10117417879E+03  0.16195602684E+03  0.81767339896E+02 0.  0.
         -6    2    1    2    0  502 -0.12035099354E+02  0.51440138372E+02  0.23541354058E+03  0.29654064560E+03  0.17241197159E+03 0.  0.
        -24    2    5    5    0    0 -0.55642252351E+02  0.33799831640E+02  0.10289819122E+03  0.15584532929E+03  0.97268905819E+02 0.  0.
          5    1    3    3  501    0  0.28471607830E+02  0.43625541516E+02 -0.37872851691E+02  0.64577575212E+02  0.47000000000E+01 0. -1.
        -13    1    4    4    0    0 -0.20578276294E+02 -0.13766014775E+02  0.77777996215E+01  0.25951161534E+02  0.00000000000E+00 0.  1.
         14    1    4    4    0    0  0.41417678171E+01 -0.81299665114E+02 -0.10895197841E+03  0.13600486531E+03  0.00000000000E+00 0. -1.
         -5    1    5    5    0  502  0.43607152998E+02  0.17640306733E+02  0.13251534936E+03  0.14069531631E+03  0.47000000000E+01 0.  1.
         13    1    6    6    0    0  0.36435128149E+01  0.54219582211E+02  0.47643723190E+02  0.72270067387E+02  0.00000000000E+00 0. -1.
        -14    1    6    6    0    0 -0.59285765166E+02 -0.20419750571E+02  0.55254468032E+02  0.83575261903E+02  0.00000000000E+00 0.  1.
</event>
<event>
12    1  0.8798177E-003  0.2273497E+03  0.7818608E-02  0.1129492E+00
         21   -1    0    0  501  502  0.00000000000E+00  0.00000000000E+00  0.32861371776E+03  0.32861371776E+03  0.00000000000E+00 0.  1.
         21   -1    0    0  502  503 -0.00000000000E+00 -0.00000000000E+00 -0.15641648690E+03  0.15641648690E+03  0.00000000000E+00 0.  1.
          6    2    1    2  501    0 -0.13918959344E+03 -0.29429874470E+02  0.11766736907E+03  0.25123243949E+03  0.17038858081E+03 0.  0.
         24    2    3    3    0    0 -0.48792193739E+02 -0.75872590614E+02  0.58194493570E+02  0.13338623175E+03  0.79170446275E+02 0.  0.
         -6    2    1    2    0  503  0.13918959344E+03  0.29429874470E+02  0.54529861781E+02  0.23379776517E+03  0.17733592061E+03 0.  0.
        -24    2    5    5    0    0  0.21584455429E+02 -0.13034902059E+02  0.70352211704E+02  0.10767614732E+03  0.77517234353E+02 0.  0.
          5    1    3    3  501    0 -0.90397399705E+02  0.46442716144E+02  0.59472875504E+02  0.11784620773E+03  0.47000000000E+01 0. -1.
        -13    1    4    4    0    0 -0.57863891835E+01 -0.40958882201E+02  0.65545429509E+02  0.77506874923E+02  0.00000000000E+00 0.  1.
         14    1    4    4    0    0 -0.43005804556E+02 -0.34913708413E+02 -0.73509359388E+01  0.55879356831E+02  0.00000000000E+00 0. -1.
         -5    1    5    5    0  503  0.11760513802E+03  0.42464776529E+02 -0.15822349924E+02  0.12612161786E+03  0.47000000000E+01 0.  1.
         11    1    6    6    0    0 -0.10740895871E+01  0.96154873573E+01  0.74717978118E+02  0.75341804595E+02  0.00000000000E+00 0. -1.
        -12    1    6    6    0    0  0.22658545016E+02 -0.22650389417E+02 -0.43657664135E+01  0.32334342723E+02  0.00000000000E+00 0.  1.
</event>
<event>
12    1  0.8798177E-003  0.2406659E+03  0.7818608E-02  0.1119423E+00
         21   -1    0    0  501  502  0.00000000000E+00  0.00000000000E+00  0.90704801890E+02  0.90704801890E+02  0.00000000000E+00 0. -1.
         21   -1    0    0  502  503 -0.00000000000E+00 -0.00000000000E+00 -0.76567891606E+03  0.76567891606E+03  0.00000000000E+00 0. -1.
          6    2    1    2  501    0  0.41334484791E+02  0.16370245952E+03 -0.16247337632E+03  0.29037503534E+03  0.17150226893E+03 0.  0.
         24    2    3    3    0    0  0.68466454054E+02  0.47252250708E+02 -0.50263189099E+02  0.12633232442E+03  0.80703392045E+02 0.  0.
         -6    2    1    2    0  503 -0.41334484791E+02 -0.16370245952E+03 -0.51250073786E+03  0.56600868262E+03  0.17088530543E+03 0.  0.
        -24    2    5    5    0    0 -0.17573154381E+02 -0.18557638788E+03 -0.47372211362E+03  0.51532395847E+03  0.79992060522E+02 0.  0.
          5    1    3    3  501    0 -0.27131969263E+02  0.11645020881E+03 -0.11221018722E+03  0.16404271091E+03  0.47000000000E+01 0. -1.
        -13    1    4    4    0    0 -0.16585467151E+02 -0.19609832408E+01 -0.18909837548E+01  0.16807706430E+02  0.00000000000E+00 0.  1.
         14    1    4    4    0    0  0.85051921204E+02  0.49213233949E+02 -0.48372205344E+02  0.10952461799E+03  0.00000000000E+00 0. -1.
         -5    1    5    5    0  503 -0.23761330410E+02  0.21873928356E+02 -0.38778624238E+02  0.50684724152E+02  0.47000000000E+01 0.  1.
         13    1    6    6    0    0 -0.15813321068E+02 -0.36635704643E+02 -0.39018260348E+02  0.55809144578E+02  0.00000000000E+00 0. -1.
        -14    1    6    6    0    0 -0.17598333130E+01 -0.14894068323E+03 -0.43470385327E+03  0.45951481389E+03  0.00000000000E+00 0.  1.
</event>
<event>
12    1  0.8798177E-003  0.2679309E+03  0.7818608E-02  0.1102569E+00
         21   -1    0    0  501  502  0.00000000000E+00  0.00000000000E+00  0.96618489039E+03  0.96618489039E+03  0.00000000000E+00 0. -1.
         21   -1    0    0  502  503 -0.00000000000E+00 -0.00000000000E+00 -0.75091380987E+02  0.75091380987E+02  0.00000000000E+00 0. -1.
          6    2    1    2  501    0 -0.14670065962E+03  0.14407681086E+03  0.38546628179E+03  0.46904739713E+03  0.17071026740E+03 0.  0.
         24    2    3    3    0    0 -0.58295813026E+01  0.60051204584E+02  0.18631290827E+03  0.21099872071E+03  0.78535528028E+02 0.  0.
         -6    2    1    2    0  503  0.14670065962E+03 -0.14407681086E+03  0.50562722762E+03  0.57222887425E+03  0.17177828808E+03 0.  0.
        -24    2    5    5    0    0  0.12754337580E+03 -0.12230773585E+03  0.25771095956E+03  0.32257819807E+03  0.80095319669E+02 0.  0.
          5    1    3    3  501    0 -0.14087107832E+03  0.84025606278E+02  0.19915337351E+03  0.25804867641E+03  0.47000000000E+01 0. -1.
        -13    1    4    4    0    0 -0.32869096707E+02  0.18500730621E+02  0.13279824513E+03  0.13805081841E+03  0.00000000000E+00 0.  1.
         14    1    4    4    0    0  0.27039515405E+02  0.41550473963E+02  0.53514663138E+02  0.72947902305E+02  0.00000000000E+00 0. -1.
         -5    1    5    5    0  503  0.19157283825E+02 -0.21769075011E+02  0.24791626806E+03  0.24965067618E+03  0.47000000000E+01 0.  1.
         13    1    6    6    0    0  0.11954023634E+03 -0.67888026460E+02  0.16484958600E+03  0.21464863904E+03  0.00000000000E+00 0. -1.
        -14    1    6    6    0    0  0.80031394626E+01 -0.54419709391E+02  0.92861373559E+02  0.10792955902E+03  0.00000000000E+00 0.  1.
</event>
<event>
12    1  0.8798177E-003  0.2387359E+03  0.7818608E-02  0.1120795E+00
         21   -1    0    0  501  502  0.00000000000E+00  0.00000000000E+00  0.96133629118E+02  0.96133629118E+02  0.00000000000E+00 0.  1.
         21   -1    0    0  502  503 -0.00000000000E+00 -0.00000000000E+00 -0.62685371125E+03  0.62685371125E+03  0.00000000000E+00 0.  1.
          6    2    1    2  501    0 -0.76554218369E+02  0.14568387277E+03 -0.17886033766E+03  0.29830497704E+03  0.17294652296E+03 0.  0.
         24    2    3    3    0    0 -0.33540441967E+02  0.12707923168E+03 -0.18881636622E+03  0.25016424444E+03  0.98267169857E+02 0.  0.
         -6    2    1    2    0  503  0.76554218369E+02 -0.14568387277E+03 -0.35185974447E+03  0.42468236333E+03  0.17165515082E+03 0.  0.
        -24    2    5    5    0    0  0.70081718310E+02 -0.15065336031E+03 -0.36465132675E+03  0.40879829456E+03  0.80855261570E+02 0.  0.
          5    1    3    3  501    0 -0.43013776402E+02  0.18604641097E+02  0.99560285645E+01  0.48140732602E+02  0.47000000000E+01 0. -1.
        -11    1    4    4    0    0 -0.51084424131E+02  0.38708108678E+02 -0.38072543782E+02  0.74548337716E+02  0.00000000000E+00 0.  1.
         12    1    4    4    0    0  0.17543982164E+02  0.88371122998E+02 -0.15074382244E+03  0.17561590673E+03  0.00000000000E+00 0. -1.
         -5    1    5    5    0  503  0.64725000596E+01  0.49694875366E+01  0.12791582276E+02  0.15884068765E+02  0.47000000000E+01 0.  1.
         13    1    6    6    0    0  0.13746138987E+02 -0.80067548824E+01 -0.11285726275E+03  0.11397291879E+03  0.00000000000E+00 0. -1.
        -14    1    6    6    0    0  0.56335579323E+02 -0.14264660543E+03 -0.25179406400E+03  0.29482537578E+03  0.00000000000E+00 0.  1.
</event>
<event>
12    1  0.8798177E-003  0.1794629E+03  0.7818608E-02  0.1168636E+00
         21   -1    0    0  503  502  0.00000000000E+00  0.00000000000E+00  0.82958915687E+02  0.82958915687E+02  0.00000000000E+00 0.  1.
         21   -1    0    0  501  503 -0.00000000000E+00 -0.00000000000E+00 -0.44624439226E+03  0.44624439226E+03  0.00000000000E+00 0.  1.
          6    2    1    2  501    0  0.23550424580E+02 -0.41124329796E+02 -0.84550181353E+02  0.19838261092E+03  0.17309273280E+03 0.  0.
         24    2    3    3    0    0  0.51776101692E+02 -0.68339886428E+02 -0.14322934159E+02  0.11781381038E+03  0.79522592329E+02 0.  0.
         -6    2    1    2    0  502 -0.23550424580E+02  0.41124329796E+02 -0.27873529522E+03  0.33082069703E+03  0.17176476875E+03 0.  0.
        -24    2    5    5    0    0  0.33285656338E+02 -0.20892675623E+02 -0.18141793252E+03  0.20209926082E+03  0.79919998590E+02 0.  0.
          5    1    3    3  501    0 -0.28225677111E+02  0.27215556633E+02 -0.70227247194E+02  0.80568800535E+02  0.47000000000E+01 0. -1.
        -13    1    4    4    0    0  0.30222335939E+02  0.17678872972E+01 -0.30207891784E+02  0.42767180655E+02  0.00000000000E+00 0.  1.
         14    1    4    4    0    0  0.21553765753E+02 -0.70107773725E+02  0.15884957625E+02  0.75046629728E+02  0.00000000000E+00 0. -1.
         -5    1    5    5    0  502 -0.56836080919E+02  0.62017005418E+02 -0.97317362709E+02  0.12872143621E+03  0.47000000000E+01 0.  1.
         13    1    6    6    0    0 -0.20418437696E+02 -0.12517024389E+02 -0.10873232169E+03  0.11133870071E+03  0.00000000000E+00 0. -1.
        -14    1    6    6    0    0  0.53704094034E+02 -0.83756512333E+01 -0.72685610829E+02  0.90760560109E+02  0.00000000000E+00 0.  1.
</event>
<event>
12    1  0.8798177E-003  0.2221004E+03  0.7818608E-02  0.1132378E+00
         21   -1    0    0  501  502  0.00000000000E+00  0.00000000000E+00  0.11132337915E+04  0.11132337915E+04  0.00000000000E+00 0. -1.
         21   -1    0    0  502  503 -0.00000000000E+00 -0.00000000000E+00 -0.59655595713E+02  0.59655595713E+02  0.00000000000E+00 0. -1.
          6    2    1    2  501    0 -0.84963783617E+02 -0.11213325519E+03  0.82498981011E+03  0.85436336530E+03  0.17186000622E+03 0.  0.
         24    2    3    3    0    0 -0.20851642569E+02 -0.12541565079E+03  0.65704238641E+03  0.67404360546E+03  0.80412735689E+02 0.  0.
         -6    2    1    2    0  503  0.84963783617E+02  0.11213325519E+03  0.22858838567E+03  0.31852602190E+03  0.17150354258E+03 0.  0.
        -24    2    5    5    0    0  0.29214169583E+02 -0.22681633236E+01  0.52488315645E+02  0.10120361467E+03  0.81415822008E+02 0.  0.
          5    1    3    3  501    0 -0.64112141048E+02  0.13282395592E+02  0.16794742370E+03  0.18031975985E+03  0.47000000000E+01 0. -1.
        -11    1    4    4    0    0  0.64200847583E+00 -0.24093144268E+02  0.29894950734E+02  0.38400518942E+02  0.00000000000E+00 0.  1.
         12    1    4    4    0    0 -0.21493651045E+02 -0.10132250652E+03  0.62714743567E+03  0.63564308652E+03  0.00000000000E+00 0. -1.
         -5    1    5    5    0  503  0.55749614034E+02  0.11440141852E+03  0.17610007002E+03  0.21732240723E+03  0.47000000000E+01 0.  1.
         13    1    6    6    0    0  0.13036349277E+02  0.39047168013E+02  0.32921118740E+02  0.52710793879E+02  0.00000000000E+00 0. -1.
        -14    1    6    6    0    0  0.16177820306E+02 -0.41315331336E+02  0.19567196905E+02  0.48492820788E+02  0.00000000000E+00 0.  1.
</event>
<event>
12    1  0.8798177E-003  0.2288249E+03  0.7818608E-02  0.1130539E+00
         21   -1    0    0  503  502  0.00000000000E+00  0.00000000000E+00  0.36216751208E+03  0.36216751208E+03  0.00000000000E+00 0.  1.
         21   -1    0    0  501  503 -0.00000000000E+00 -0.00000000000E+00 -0.14897807590E+03  0.14897807590E+03  0.00000000000E+00 0.  1.
          6    2    1    2  501    0 -0.99373403899E+02 -0.11081842883E+03  0.29919138892E+02  0.23077259932E+03  0.17379597278E+03 0.  0.
         24    2    3    3    0    0 -0.13530235855E+03 -0.90214675538E+02  0.78264006714E+01  0.18359650882E+03  0.84858762610E+02 0.  0.
         -6    2    1    2    0  502  0.99373403899E+02  0.11081842883E+03  0.18327029729E+03  0.28037298866E+03  0.15121247743E+03 0.  0.
        -24    2    5    5    0    0  0.12285025288E+03  0.96951889029E+02  0.12531944902E+03  0.21615590231E+03  0.80787105289E+02 0.  0.
          5    1    3    3  501    0  0.35928954655E+02 -0.20603753297E+02  0.22092738221E+02  0.47176090497E+02  0.47000000000E+01 0. -1.
        -11    1    4    4    0    0 -0.20263334429E+02 -0.60220873657E+02 -0.64153239326E+01  0.63861668686E+02  0.00000000000E+00 0.  1.
         12    1    4    4    0    0 -0.11503902413E+03 -0.29993801881E+02  0.14241724604E+02  0.11973484014E+03  0.00000000000E+00 0. -1.
         -5    1    5    5    0  502 -0.23476848983E+02  0.13866539806E+02  0.57950848269E+02  0.64217086351E+02  0.47000000000E+01 0.  1.
         11    1    6    6    0    0 -0.67172282055E+01 -0.26460779408E+01  0.21166624959E+02  0.22364008929E+02  0.00000000000E+00 0. -1.
        -12    1    6    6    0    0  0.12956748109E+03  0.99597966970E+02  0.10415282406E+03  0.19379189338E+03  0.00000000000E+00 0.  1.
</event>
<event>
12    1  0.8798177E-003  0.2231251E+03  0.7818608E-02  0.1131716E+00
         21   -1    0    0  501  502  0.00000000000E+00  0.00000000000E+00  0.43954946184E+02  0.43954946184E+02  0.00000000000E+00 0. -1.
         21   -1    0    0  502  503 -0.00000000000E+00 -0.00000000000E+00 -0.11527715955E+04  0.11527715955E+04  0.00000000000E+00 0. -1.
          6    2    1    2  501    0 -0.24872226214E+01 -0.14110420321E+03 -0.46700537214E+03  0.51723663675E+03  0.17182298551E+03 0.  0.
         24    2    3    3    0    0 -0.39207954548E+02 -0.20582574583E+02 -0.15462048969E+03  0.18036829466E+03  0.81635285326E+02 0.  0.
         -6    2    1    2    0  503  0.24872226214E+01  0.14110420321E+03 -0.64181127716E+03  0.67948990492E+03  0.17282428346E+03 0.  0.
        -24    2    5    5    0    0  0.27084680524E+02  0.72242834964E+01 -0.19523366494E+03  0.21260392143E+03  0.79362921389E+02 0.  0.
          5    1    3    3  501    0  0.36720731926E+02 -0.12052162863E+03 -0.31238488245E+03  0.33686834209E+03  0.47000000000E+01 0. -1.
        -13    1    4    4    0    0  0.13419857045E+02  0.26463320104E+01  0.17144677916E+01  0.13785319583E+02  0.00000000000E+00 0.  1.
         14    1    4    4    0    0 -0.52627811592E+02 -0.23228906594E+02 -0.15633495748E+03  0.16658297508E+03  0.00000000000E+00 0. -1.
         -5    1    5    5    0  503 -0.24597457902E+02  0.13387991971E+03 -0.44657761222E+03  0.46688598349E+03  0.47000000000E+01 0.  1.
         13    1    6    6    0    0  0.43142129552E+02  0.31409017538E+02 -0.10446554974E+03  0.11730652500E+03  0.00000000000E+00 0. -1.
        -14    1    6    6    0    0 -0.16057449028E+02 -0.24184734042E+02 -0.90768115193E+02  0.95297396427E+02  0.00000000000E+00 0.  1.
</event>
<event>
12    1  0.8798177E-003  0.2134536E+03  0.7818608E-02  0.1139012E+00
         21   -1    0    0  503  502  0.00000000000E+00  0.00000000000E+00  0.82578505550E+03  0.82578505550E+03  0.00000000000E+00 0.  1.
         21   -1    0    0  501  503 -0.00000000000E+00 -0.00000000000E+00 -0.55102433607E+02  0.55102433607E+02  0.00000000000E+00 0.  1.
          6    2    1    2  501    0  0.29595710746E+02  0.12144426867E+03  0.40601252263E+03  0.45833958022E+03  0.17205925076E+03 0.  0.
         24    2    3    3    0    0  0.57206791316E+02  0.20645530788E+02  0.12687606604E+03  0.16024226603E+03  0.76688935145E+02 0.  0.
         -6    2    1    2    0  502 -0.29595710746E+02 -0.12144426867E+03  0.36467009927E+03  0.42254790889E+03  0.17302554009E+03 0.  0.
        -24    2    5    5    0    0  0.97993692321E+01  0.27303350328E+01  0.18783216356E+03  0.20285482745E+03  0.75932055046E+02 0.  0.
          5    1    3    3  501    0 -0.27611080569E+02  0.10079873788E+03  0.27913645659E+03  0.29809731419E+03  0.47000000000E+01 0. -1.
        -11    1    4    4    0    0 -0.10527932811E+02  0.16285125214E+02  0.39026291801E+01  0.19780626558E+02  0.00000000000E+00 0.  1.
         12    1    4    4    0    0  0.67734724126E+02  0.43604055741E+01  0.12297343686E+03  0.14046163947E+03  0.00000000000E+00 0. -1.
         -5    1    5    5    0  502 -0.39395079978E+02 -0.12417460370E+03  0.17683793570E+03  0.21969308145E+03  0.47000000000E+01 0.  1.
         13    1    6    6    0    0  0.18413398335E+02 -0.22391210202E+02  0.26262193505E+02  0.39116778244E+02  0.00000000000E+00 0. -1.
        -14    1    6    6    0    0 -0.86140291026E+01  0.25121545235E+02  0.16156997006E+03  0.16373804920E+03  0.00000000000E+00 0.  1.
</event>
<event>
12    1  0.8798177E-003  0.2925700E+03  0.7818608E-02  0.1089206E+00
         21   -1    0    0  501  502  0.00000000000E+00  0.00000000000E+00  0.20331378449E+04  0.20331378449E+04  0.00000000000E+00 0. -1.
         21   -1    0    0  502  503 -0.00000000000E+00 -0.00000000000E+00 -0.45536634663E+02  0.45536634663E+02  0.00000000000E+00 0.  1.
          6    2    1    2  501    0  0.13672352084E+03  0.19224130850E+03  0.12902994183E+04  0.13230532053E+04  0.17305245901E+03 0.  0.
         24    2    3    3    0    0  0.82875806906E+02  0.47217358956E+02  0.78230706888E+03  0.79200721933E+03  0.78569759378E+02 0.  0.
         -6    2    1    2    0  503 -0.13672352084E+03 -0.19224130850E+03  0.69730179202E+03  0.75562127426E+03  0.17053937701E+03 0.  0.
        -24    2    5    5    0    0 -0.11490495511E+03 -0.67959806984E+02  0.47697410434E+03  0.50167576556E+03  0.79703158431E+02 0.  0.
          5    1    3    3  501    0  0.53847713939E+02  0.14502394955E+03  0.50799234937E+03  0.53104598601E+03  0.47000000000E+01 0. -1.
        -13    1    4    4    0    0 -0.11486846267E+01  0.28176597342E+02  0.88827249598E+02  0.93196139326E+02  0.00000000000E+00 0.  1.
         14    1    4    4    0    0  0.84024491532E+02  0.19040761614E+02  0.69347981928E+03  0.69881108000E+03  0.00000000000E+00 0. -1.
         -5    1    5    5    0  503 -0.21818565738E+02 -0.12428150152E+03  0.22032768768E+03  0.25394550870E+03  0.47000000000E+01 0.  1.
         13    1    6    6    0    0 -0.57842302824E+01  0.16127689065E+02  0.67890993598E+02  0.70019616439E+02  0.00000000000E+00 0. -1.
        -14    1    6    6    0    0 -0.10912072482E+03 -0.84087496049E+02  0.40908311074E+03  0.43165614912E+03  0.00000000000E+00 0.  1.
</event>
<event>
12    1  0.8798177E-003  0.2900247E+03  0.7818608E-02  0.1090392E+00
         21   -1    0    0  501  502  0.00000000000E+00  0.00000000000E+00  0.15842485546E+04  0.15842485546E+04  0.00000000000E+00 0.  1.
         21   -1    0    0  502  503 -0.00000000000E+00 -0.00000000000E+00 -0.75053509863E+02  0.75053509863E+02  0.00000000000E+00 0. -1.
          6    2    1    2  501    0 -0.24957285240E+02  0.23207207416E+03  0.12045476447E+04  0.12389710917E+04  0.17214535742E+03 0.  0.
         24    2    3    3    0    0  0.41358294204E+02  0.15258579786E+03  0.90176997644E+03  0.91895198199E+03  0.79314062989E+02 0.  0.
         -6    2    1    2    0  503  0.24957285240E+02 -0.23207207416E+03  0.30464739998E+03  0.42033097269E+03  0.17142862828E+03 0.  0.
        -24    2    5    5    0    0 -0.47149846202E+02 -0.13112388368E+03  0.13441275847E+03  0.20963712195E+03  0.80401196469E+02 0.  0.
          5    1    3    3  501    0 -0.66315579445E+02  0.79486276299E+02  0.30277766828E+03  0.32001910975E+03  0.47000000000E+01 0. -1.
        -11    1    4    4    0    0  0.24084517592E+02  0.14862662725E+03  0.67973464418E+03  0.69621054633E+03  0.00000000000E+00 0.  1.
         12    1    4    4    0    0  0.17273776612E+02  0.39591706057E+01  0.22203533226E+03  0.22274143566E+03  0.00000000000E+00 0. -1.
         -5    1    5    5    0  503  0.72107131443E+02 -0.10094819047E+03  0.17023464151E+03  0.21069385073E+03  0.47000000000E+01 0.  1.
         13    1    6    6    0    0 -0.11628902087E+02 -0.12006800259E+03  0.84047696148E+02  0.14702235149E+03  0.00000000000E+00 0. -1.
        -14    1    6    6    0    0 -0.35520944115E+02 -0.11055881088E+02  0.50365062319E+02  0.62614770461E+02  0.00000000000E+00 0.  1.
</event>
<event>
12    1  0.8798177E-003  0.1762697E+03  0.7818608E-02  0.1171559E+00
         21   -1    0    0  503  502  0.00000000000E+00  0.00000000000E+00  0.51639460823E+02  0.51639460823E+02  0.00000000000E+00 0. -1.
         21   -1    0    0  501  503 -0.00000000000E+00 -0.00000000000E+00 -0.73585560657E+03  0.73585560657E+03  0.00000000000E+00 0. -1.
          6    2    1    2  501    0  0.30129290699E+02  0.18797810174E+02 -0.51136462742E+03  0.54089259830E+03  0.17265540503E+03 0.  0.
         24    2    3    3    0    0 -0.18932265684E+02 -0.18311052039E+02 -0.14392714149E+03  0.16831173454E+03  0.83187094041E+02 0.  0.
         -6    2    1    2    0  502 -0.30129290699E+02 -0.18797810174E+02 -0.17285151833E+03  0.24660246910E+03  0.17226142503E+03 0.  0.
        -24    2    5    5    0    0 -0.28699491301E+01  0.34768489434E+01 -0.11839439764E+02  0.81720051648E+02  0.80732084210E+02 0.  0.
          5    1    3    3  501    0  0.49061556382E+02  0.37108862212E+02 -0.36743748593E+03  0.37258086376E+03  0.47000000000E+01 0. -1.
        -11    1    4    4    0    0 -0.29645585286E+02  0.27324109850E+02 -0.63337924417E+02  0.75081025402E+02  0.00000000000E+00 0.  1.
         12    1    4    4    0    0  0.10713319602E+02 -0.45635161888E+02 -0.80589217074E+02  0.93230709136E+02  0.00000000000E+00 0. -1.
         -5    1    5    5    0  502 -0.27259341568E+02 -0.22274659117E+02 -0.16101207856E+03  0.16488241745E+03  0.47000000000E+01 0.  1.
         11    1    6    6    0    0  0.28544562908E+02 -0.15293132625E+02  0.15634463034E+02  0.35959816622E+02  0.00000000000E+00 0. -1.
        -12    1    6    6    0    0 -0.31414512038E+02  0.18769981569E+02 -0.27473902798E+02  0.45760235026E+02  0.00000000000E+00 0.  1.
</event>
<event>
12    1  0.8798177E-003  0.2841711E+03  0.7818608E-02  0.1093489E+00
         21   -1    0    0  503  502  0.00000000000E+00  0.00000000000E+00  0.56375993983E+03  0.56375993983E+03  0.00000000000E+00 0. -1.
         21   -1    0    0  501  503 -0.00000000000E+00 -0.00000000000E+00 -0.14623461996E+03  0.14623461996E+03  0.00000000000E+00 0. -1.
          6    2    1    2  501    0  0.30551823490E+02 -0.22401871787E+03  0.26117856929E+03  0.38565287943E+03  0.17145290456E+03 0.  0.
         24    2    3    3    0    0 -0.18898162627E+02 -0.19962052691E+03  0.24807295894E+03  0.32878091910E+03  0.79694444544E+02 0.  0.
         -6    2    1    2    0  502 -0.30551823490E+02  0.22401871787E+03  0.15634675058E+03  0.32434168036E+03  0.17214940989E+03 0.  0.
        -24    2    5    5    0    0  0.13980436783E+02  0.22017878031E+03  0.10130412894E+03  0.25328080840E+03  0.72211449601E+02 0.  0.
          5    1    3    3  501    0  0.49449986117E+02 -0.24398190956E+02  0.13105610348E+02  0.56871960328E+02  0.47000000000E+01 0. -1.
        -13    1    4    4    0    0  0.20608363839E+02 -0.14552637779E+03  0.18935408225E+03  0.23970314924E+03  0.00000000000E+00 0.  1.
         14    1    4    4    0    0 -0.39506526467E+02 -0.54094149124E+02  0.58718876693E+02  0.89077769859E+02  0.00000000000E+00 0. -1.
         -5    1    5    5    0  502 -0.44532260273E+02  0.38399375577E+01  0.55042621647E+02  0.71060871957E+02  0.47000000000E+01 0.  1.
         13    1    6    6    0    0  0.65780768648E+01  0.16445631267E+03  0.10771868497E+03  0.19670400343E+03  0.00000000000E+00 0. -1.
        -14    1    6    6    0    0  0.74023599181E+01  0.55722467637E+02 -0.64145560318E+01  0.56576804973E+02  0.00000000000E+00 0.  1.
</event>
<event>
12    1  0.8798177E-003  0.2207413E+03  0.7818608E-02  0.1133521E+00
         21   -1    0    0  503  502  0.00000000000E+00  0.00000000000E+00  0.36156473449E+03  0.36156473449E+03  0.00000000000E+00 0. -1.
         21   -1    0    0  501  503 -0.00000000000E+00 -0.00000000000E+00 -0.15336825885E+03  0.15336825885E+03  0.00000000000E+00 0.  1.
          6    2    1    2  501    0 -0.12116301062E+03  0.63247238323E+02  0.13160680438E+02  0.22113325445E+03  0.17333789089E+03 0.  0.
         24    2    3    3    0    0 -0.12004068533E+03  0.89240048833E+01 -0.34189523329E+02  0.14890856960E+03  0.80718242036E+02 0.  0.
         -6    2    1    2    0  502  0.12116301062E+03 -0.63247238323E+02  0.19503579521E+03  0.29379973889E+03  0.17204254376E+03 0.  0.
        -24    2    5    5    0    0  0.12265414900E+03  0.90873140828E+01  0.14124976858E+03  0.20352494935E+03  0.79651041068E+02 0.  0.
          5    1    3    3  501    0 -0.11223252931E+01  0.54323233440E+02  0.47350203766E+02  0.72224684853E+02  0.47000000000E+01 0. -1.
        -11    1    4    4    0    0 -0.41884301240E+02  0.23301664122E+01 -0.53643366469E+02  0.68097981849E+02  0.00000000000E+00 0.  1.
         12    1    4    4    0    0 -0.78156384087E+02  0.65938384711E+01  0.19453843140E+02  0.80810587749E+02  0.00000000000E+00 0. -1.
         -5    1    5    5    0  502 -0.14911383774E+01 -0.72334552406E+02  0.53786026630E+02  0.90274789538E+02  0.47000000000E+01 0.  1.
         13    1    6    6    0    0 -0.89837359413E+01  0.90440273790E+01  0.24298465216E+02  0.27439339543E+02  0.00000000000E+00 0. -1.
        -14    1    6    6    0    0  0.13163788494E+03  0.43286703757E-01  0.11695130336E+03  0.17608560981E+03  0.00000000000E+00 0.  1.
</event>
<event>
12    1  0.8798177E-003  0.4318317E+03  0.7818608E-02  0.1033316E+00
         21   -1    0    0  503  502  0.00000000000E+00  0.00000000000E+00  0.20339843957E+04  0.20339843957E+04  0.00000000000E+00 0.  1.
         21   -1    0    0  501  503 -0.00000000000E+00 -0.00000000000E+00 -0.21972912546E+03  0.21972912546E+03  0.00000000000E+00 0. -1.
          6    2    1    2  501    0 -0.31698777065E+02  0.39444826453E+03  0.46791090853E+02  0.43435934436E+03  0.17287101547E+03 0.  0.
         24    2    3    3    0    0 -0.73998719365E+02  0.23428306093E+03  0.67554866245E+02  0.26734017800E+03  0.80887253094E+02 0.  0.
         -6    2    1    2    0  502  0.31698777065E+02 -0.39444826453E+03  0.17674641794E+04  0.18193541768E+04  0.17183058323E+03 0.  0.
        -24    2    5    5    0    0  0.63856095657E+01 -0.13614799718E+03  0.90588099871E+03  0.91951671826E+03  0.79457901929E+02 0.  0.
          5    1    3    3  501    0  0.42299942300E+02  0.16016520360E+03 -0.20763775392E+02  0.16701916636E+03  0.47000000000E+01 0. -1.
        -11    1    4    4    0    0 -0.52493674334E+02  0.12416804717E+03  0.76126829281E+02  0.15481790568E+03  0.00000000000E+00 0.  1.
         12    1    4    4    0    0 -0.21505045031E+02  0.11011501377E+03 -0.85719630362E+01  0.11252227232E+03  0.00000000000E+00 0. -1.
         -5    1    5    5    0  502  0.25313167499E+02 -0.25830026735E+03  0.86158318070E+03  0.89983745856E+03  0.47000000000E+01 0.  1.
         13    1    6    6    0    0  0.38073387749E+02 -0.68993415562E+02  0.35413836195E+03  0.36279974318E+03  0.00000000000E+00 0. -1.
        -14    1    6    6    0    0 -0.31687778184E+02 -0.67154581619E+02  0.55174263676E+03  0.55671697508E+03  0.00000000000E+00 0.  1.
</event>
<event>
12    1  0.8798177E-003  0.1734815E+03  0.7818608E-02  0.1174484E+00
         21   -1    0    0  503  502  0.00000000000E+00  0.00000000000E+00  0.59725464648E+03  0.59725464648E+03  0.00000000000E+00 0.  1.
         21   -1    0    0  501  503 -0.00000000000E+00 -0.00000000000E+00 -0.59382834176E+02  0.59382834176E+02  0.00000000000E+00 0.  1.
          6    2    1    2  501    0  0.34052753798E+00 -0.23543376841E+02  0.13884928766E+03  0.22153427412E+03  0.17100848919E+03 0.  0.
         24    2    3    3    0    0  0.33054479352E+01 -0.48874963538E+02  0.13837725699E+02  0.93861016699E+02  0.78858859720E+02 0.  0.
         -6    2    1    2    0  502 -0.34052753798E+00  0.23543376841E+02  0.39902252464E+03  0.43510320653E+03  0.17187617232E+03 0.  0.
        -24    2    5    5    0    0  0.67568080301E+02  0.20583240625E+02  0.22881749972E+03  0.25176695279E+03  0.77717662546E+02 0.  0.
          5    1    3    3  501    0 -0.29649203972E+01  0.25331586697E+02  0.12501156196E+03  0.12767325742E+03  0.47000000000E+01 0. -1.
        -11    1    4    4    0    0  0.66295040265E+01  0.10983969763E+02 -0.20936355349E+02  0.24554610375E+02  0.00000000000E+00 0.  1.
         12    1    4    4    0    0 -0.33240560913E+01 -0.59858933301E+02  0.34774081048E+02  0.69306406324E+02  0.00000000000E+00 0. -1.
         -5    1    5    5    0  502 -0.67908607839E+02  0.29601362164E+01  0.17020502493E+03  0.18333625374E+03  0.47000000000E+01 0.  1.
         11    1    6    6    0    0  0.30770156121E+02 -0.48588738325E+01  0.17427531886E+02  0.35694958051E+02  0.00000000000E+00 0. -1.
        -12    1    6    6    0    0  0.36797924180E+02  0.25442114457E+02  0.21138996783E+03  0.21607199474E+03  0.00000000000E+00 0.  1.
</event>
<event>
12    1  0.8798177E-003  0.2355902E+03  0.7818608E-02  0.1123871E+00
         21   -1    0    0  501  502  0.00000000000E+00  0.00000000000E+00  0.81523136358E+02  0.81523136358E+02  0.00000000000E+00 0.  1.
         21   -1    0    0  502  503 -0.00000000000E+00 -0.00000000000E+00 -0.95696817962E+03  0.95696817962E+03  0.00000000000E+00 0.  1.
          6    2    1    2  501    0 -0.10275089589E+03 -0.12497692160E+03 -0.14554967235E+03  0.27151674228E+03  0.16235657265E+03 0.  0.
         24    2    3    3    0    0 -0.23641387283E+02 -0.12513616824E+03 -0.77575573172E+02  0.16710932937E+03  0.75429322003E+02 0.  0.
         -6    2    1    2    0  503  0.10275089589E+03  0.12497692160E+03 -0.72989537091E+03  0.76697457369E+03  0.17124767642E+03 0.  0.
        -24    2    5    5    0    0  0.64597044927E+01  0.13916306643E+02 -0.37646762362E+03  0.38416951065E+03  0.74986331489E+02 0.  0.
          5    1    3    3  501    0 -0.79109508604E+02  0.15924663891E+00 -0.67974099180E+02  0.10440741291E+03  0.47000000000E+01 0. -1.
        -11    1    4    4    0    0 -0.15582763950E+02 -0.51654734690E+02  0.74237367457E+01  0.54462335751E+02  0.00000000000E+00 0.  1.
         12    1    4    4    0    0 -0.80586233325E+01 -0.73481433545E+02 -0.84999309918E+02  0.11264699362E+03  0.00000000000E+00 0. -1.
         -5    1    5    5    0  503  0.96291191394E+02  0.11106061495E+03 -0.35342774729E+03  0.38280506304E+03  0.47000000000E+01 0.  1.
         13    1    6    6    0    0  0.51079695073E+01  0.42116817185E+02 -0.29301622512E+03  0.29607165658E+03  0.00000000000E+00 0. -1.
        -14    1    6    6    0    0  0.13517349854E+01 -0.28200510541E+02 -0.83451398495E+02  0.88097854077E+02  0.00000000000E+00 0.  1.
</event>
<event>
12    1  0.8798177E-003  0.1736414E+03  0.7818608E-02  0.1174294E+00
         21   -1    0    0  503  502  0.00000000000E+00  0.00000000000E+00  0.47509887541E+03  0.47509887541E+03  0.00000000000E+00 0. -1.
         21   -1    0    0  501  503 -0.00000000000E+00 -0.00000000000E+00 -0.63304338702E+02  0.63304338702E+02  0.00000000000E+00 0. -1.
          6    2    1    2  501    0  0.88449918756E+01 -0.16142718891E+02  0.19481940018E+03  0.26097114113E+03  0.17266301445E+03 0.  0.
         24    2    3    3    0    0  0.12502200236E+02  0.41385576359E+02  0.17924674141E+03  0.20107558513E+03  0.80205521550E+02 0.  0.
         -6    2    1    2    0  502 -0.88449918756E+01  0.16142718891E+02  0.21697513652E+03  0.27743207298E+03  0.17190556709E+03 0.  0.
        -24    2    5    5    0    0  0.10993144943E+02  0.73302312265E+02  0.11676869662E+03  0.16028177898E+03  0.81001493461E+02 0.  0.
          5    1    3    3  501    0 -0.36572083605E+01 -0.57528295250E+02  0.15572658774E+02  0.59895556001E+02  0.47000000000E+01 0. -1.
        -13    1    4    4    0    0  0.10769971861E+02 -0.29469575941E+01 -0.45073859253E+01  0.12041319730E+02  0.00000000000E+00 0.  1.
         14    1    4    4    0    0  0.17322283747E+01  0.44332533954E+02  0.18375412733E+03  0.18903426540E+03  0.00000000000E+00 0. -1.
         -5    1    5    5    0  502 -0.19838136818E+02 -0.57159593374E+02  0.10020643990E+03  0.11715029401E+03  0.47000000000E+01 0.  1.
         13    1    6    6    0    0  0.42182000110E+02  0.25161829173E+02  0.73634709579E+02  0.88512763121E+02  0.00000000000E+00 0. -1.
        -14    1    6    6    0    0 -0.31188855168E+02  0.48140483092E+02  0.43133987041E+02  0.71769015857E+02  0.00000000000E+00 0.  1.
</event>
<event>
12    1  0.8798177E-003  0.2876234E+03  0.7818608E-02  0.1091614E+00
         21   -1    0    0  501  502  0.00000000000E+00  0.00000000000E+00  0.71926119335E+02  0.71926119335E+02  0.00000000000E+00 0.  1.
         21   -1    0    0  502  503 -0.00000000000E+00 -0.00000000000E+00 -0.12322400049E+04  0.12322400049E+04  0.00000000000E+00 0. -1.
          6    2    1    2  501    0 -0.45455951877E+02  0.22592397779E+03 -0.41119912125E+03  0.50173224475E+03  0.17187972772E+03 0.  0.
         24    2    3    3    0    0 -0.61673648193E+02  0.11848347151E+03 -0.33136837640E+03  0.36681925839E+03  0.83122773942E+02 0.  0.
         -6    2    1    2    0  503  0.45455951877E+02 -0.22592397779E+03 -0.74911476436E+03  0.80243387953E+03  0.17210262501E+03 0.  0.
        -24    2    5    5    0    0  0.66540694405E+02 -0.60031336874E+02 -0.30464698880E+03  0.32752480593E+03  0.80195294719E+02 0.  0.
          5    1    3    3  501    0  0.16217696316E+02  0.10744050628E+03 -0.79830744848E+02  0.13491298635E+03  0.47000000000E+01 0. -1.
        -11    1    4    4    0    0 -0.12244819059E+02  0.20866462581E+02 -0.80659010619E+01  0.25503011869E+02  0.00000000000E+00 0.  1.
         12    1    4    4    0    0 -0.49428829134E+02  0.97617008929E+02 -0.32330247534E+03  0.34131624653E+03  0.00000000000E+00 0. -1.
         -5    1    5    5    0  503 -0.21084742529E+02 -0.16589264092E+03 -0.44446777555E+03  0.47490907360E+03  0.47000000000E+01 0.  1.
         13    1    6    6    0    0  0.31657293320E+02 -0.75263655047E+02 -0.22181270161E+03  0.23636344173E+03  0.00000000000E+00 0. -1.
        -14    1    6    6    0    0  0.34883401085E+02  0.15232318172E+02 -0.82834287188E+02  0.91161364197E+02  0.00000000000E+00 0.  1.
</event>
<event>
12    1  0.8798177E-003  0.2345794E+03  0.7818608E-02  0.1123588E+00
         21   -1    0    0  501  502  0.00000000000E+00  0.00000000000E+00  0.48485245814E+03  0.48485245814E+03  0.00000000000E+00 0.  1.
         21   -1    0    0  502  503 -0.00000000000E+00 -0.00000000000E+00 -0.14283486559E+03  0.14283486559E+03  0.00000000000E+00 0.  1.
          6    2    1    2  501    0  0.11127811981E+03 -0.11338675707E+03  0.31435796215E+03  0.39223515295E+03  0.17259232375E+03 0.  0.
         24    2    3    3    0    0  0.44298720505E+02 -0.75871366330E+02  0.28521282774E+03  0.30998447920E+03  0.83816343071E+02 0.  0.
         -6    2    1    2    0  503 -0.11127811981E+03  0.11338675707E+03  0.27659630401E+02  0.23545217078E+03  0.17156133872E+03 0.  0.
        -24    2    5    5    0    0 -0.62987539455E+02  0.14405339210E+03  0.14730450315E+02  0.17661615839E+03  0.79104180279E+02 0.  0.
          5    1    3    3  501    0  0.66979399308E+02 -0.37515390737E+02  0.29145134403E+02  0.82250673755E+02  0.47000000000E+01 0. -1.
        -13    1    4    4    0    0  0.90718956528E+01 -0.72890471864E+01  0.17552470766E+03  0.17591006935E+03  0.00000000000E+00 0.  1.
         14    1    4    4    0    0  0.35226824852E+02 -0.68582319144E+02  0.10968812009E+03  0.13407440985E+03  0.00000000000E+00 0. -1.
         -5    1    5    5    0  503 -0.48290580358E+02 -0.30666635033E+02  0.12929180086E+02  0.58836012384E+02  0.47000000000E+01 0.  1.
         11    1    6    6    0    0 -0.51164185734E+00 -0.89776160997E+01  0.65428960227E+01  0.11120650007E+02  0.00000000000E+00 0. -1.
        -12    1    6    6    0    0 -0.62475897598E+02  0.15303100820E+03  0.81875542920E+01  0.16549550839E+03  0.00000000000E+00 0.  1.
</event>
<event>
12    1  0.8798177E-003  0.2545102E+03  0.7818608E-02  0.1110747E+00
         21   -1    0    0  503  502  0.00000000000E+00  0.00000000000E+00  0.14794669577E+04  0.14794669577E+04  0.00000000000E+00 0.  1.
         21   -1    0    0  501  503 -0.00000000000E+00 -0.00000000000E+00 -0.67348447181E+02  0.67348447181E+02  0.00000000000E+00 0. -1.
          6    2    1    2  501    0  0.14374913580E+03  0.11697846115E+03  0.24428075473E+03  0.35156628723E+03  0.17198253623E+03 0.  0.
         24    2    3    3    0    0  0.40233207735E+01  0.71377594557E+02  0.95033115939E+02  0.14204375836E+03  0.77680036368E+02 0.  0.
         -6    2    1    2    0  502 -0.14374913580E+03 -0.11697846115E+03  0.11678377558E+04  0.11952491177E+04  0.17443524581E+03 0.  0.
        -24    2    5    5    0    0 -0.13285024232E+03 -0.14034954052E+03  0.81747594761E+03  0.84390814387E+03  0.81036102787E+02 0.  0.
          5    1    3    3  501    0  0.13972581502E+03  0.45600866597E+02  0.14924763879E+03  0.20952252887E+03  0.47000000000E+01 0. -1.
        -13    1    4    4    0    0  0.16998252366E+02  0.56566727534E+02  0.10462125233E+03  0.12014300515E+03  0.00000000000E+00 0.  1.
         14    1    4    4    0    0 -0.12974931593E+02  0.14810867023E+02 -0.95881363916E+01  0.21900753212E+02  0.00000000000E+00 0. -1.
         -5    1    5    5    0  502 -0.10898893476E+02  0.23371079362E+02  0.35036180818E+03  0.35134097378E+03  0.47000000000E+01 0.  1.
         11    1    6    6    0    0 -0.13968262695E+03 -0.10875898339E+03  0.67720568995E+03  0.69996235559E+03  0.00000000000E+00 0. -1.
        -12    1    6    6    0    0  0.68323846264E+01 -0.31590557121E+02  0.14027025766E+03  0.14394578828E+03  0.00000000000E+00 0.  1.
</event>
<event>
12    1  0.8798177E-003  0.1889540E+03  0.7818608E-02  0.1159977E+00
         21   -1    0    0  503  502  0.00000000000E+00  0.00000000000E+00  0.17705100551E+03  0.17705100551E+03  0.00000000000E+00 0.  1.
         21   -1    0    0  501  503 -0.00000000000E+00 -0.00000000000E+00 -0.22610593789E+03  0.22610593789E+03  0.00000000000E+00 0.  1.
          6    2    1    2  501    0  0.57179789459E+02  0.49682973302E+02 -0.94164765645E+02  0.20889288416E+03  0.17038576174E+03 0.  0.
         24    2    3    3    0    0 -0.20919543506E+02 -0.60982539744E+01 -0.71792469677E+02  0.11023356755E+03  0.80761777534E+02 0.  0.
         -6    2    1    2    0  502 -0.57179789459E+02 -0.49682973302E+02  0.45109833263E+02  0.19426405924E+03  0.17310604119E+03 0.  0.
        -24    2    5    5    0    0 -0.64202031248E+02 -0.51079295672E+02  0.92037603505E+02  0.14656115350E+03  0.79235446576E+02 0.  0.
          5    1    3    3  501    0  0.78099332965E+02  0.55781227277E+02 -0.22372295968E+02  0.98659316605E+02  0.47000000000E+01 0. -1.
        -13    1    4    4    0    0  0.67057220513E+00  0.20067539533E+02 -0.73573059786E+02  0.76263693435E+02  0.00000000000E+00 0.  1.
         14    1    4    4    0    0 -0.21590115711E+02 -0.26165793508E+02  0.17805901089E+01  0.33969874116E+02  0.00000000000E+00 0. -1.
         -5    1    5    5    0  502  0.70222417893E+01  0.13963223698E+01 -0.46927770242E+02  0.47702905738E+02  0.47000000000E+01 0.  1.
         13    1    6    6    0    0 -0.69017713013E+01 -0.17923465736E+02 -0.12434319844E+02  0.22880065146E+02  0.00000000000E+00 0. -1.
        -14    1    6    6    0    0 -0.57300259947E+02 -0.33155829936E+02  0.10447192335E+03  0.12368108836E+03  0.00000000000E+00 0.  1.
</event>
<event>
12    1  0.8798177E-003  0.2403736E+03  0.7818608E-02  0.1120797E+00
         21   -1    0    0  503  502  0.00000000000E+00  0.00000000000E+00  0.92051743217E+02  0.92051743217E+02  0.00000000000E+00 0.  1.
         21   -1    0    0  501  503 -0.00000000000E+00 -0.00000000000E+00 -0.72063543408E+03  0.72063543408E+03  0.00000000000E+00 0.  1.
          6    2    1    2  501    0  0.14367773932E+03  0.84779959337E+02 -0.47042730664E+03  0.52494961270E+03  0.16260169360E+03 0.  0.
         24    2    3    3    0    0  0.13363510708E+03  0.90500129040E+02 -0.47766890258E+03  0.51052374997E+03  0.80114315766E+02 0.  0.
         -6    2    1    2    0  502 -0.14367773932E+03 -0.84779959337E+02 -0.15815638422E+03  0.28773756460E+03  0.17305643568E+03 0.  0.
        -24    2    5    5    0    0 -0.28255793028E+02 -0.73350317764E+02 -0.12297748973E+03  0.16644244100E+03  0.80006026201E+02 0.  0.
          5    1    3    3  501    0  0.10042632236E+02 -0.57201697023E+01  0.72415959418E+01  0.14425862728E+02  0.47000000000E+01 0. -1.
        -11    1    4    4    0    0  0.11704729137E+03  0.40046183578E+02 -0.37584906214E+03  0.39568457482E+03  0.00000000000E+00 0.  1.
         12    1    4    4    0    0  0.16587815712E+02  0.50453945462E+02 -0.10181984044E+03  0.11483917515E+03  0.00000000000E+00 0. -1.
         -5    1    5    5    0  502 -0.11542194629E+03 -0.11429641573E+02 -0.35178894490E+02  0.12129512360E+03  0.47000000000E+01 0.  1.
         13    1    6    6    0    0 -0.30582531850E+02 -0.90047185568E+02 -0.10788136738E+03  0.14381299076E+03  0.00000000000E+00 0. -1.
        -14    1    6    6    0    0  0.23267388228E+01  0.16696867804E+02 -0.15096122353E+02  0.22629450239E+02  0.00000000000E+00 0.  1.
</event>
<event>
12    1  0.8798177E-003  0.1834736E+03  0.7818608E-02  0.1165078E+00
         21   -1    0    0  503  502  0.00000000000E+00  0.00000000000E+00  0.11175288132E+04  0.11175288132E+04  0.00000000000E+00 0. -1.
         21   -1    0    0  501  503 -0.00000000000E+00 -0.00000000000E+00 -0.57314394275E+02  0.57314394275E+02  0.00000000000E+00 0. -1.
          6    2    1    2  501    0  0.24738669257E+02  0.49351673599E+02  0.12435275831E+03  0.22164426375E+03  0.17497137397E+03 0.  0.
         24    2    3    3    0    0 -0.53368579157E+02  0.39302573517E+02  0.82722934085E+02  0.13244303655E+03  0.79405142035E+02 0.  0.
         -6    2    1    2    0  502 -0.24738669257E+02 -0.49351673599E+02  0.93586166061E+03  0.95319894373E+03  0.17234729205E+03 0.  0.
        -24    2    5    5    0    0  0.48582719973E+02 -0.55499759253E+02  0.54743588124E+03  0.55783771503E+03  0.77822672054E+02 0.  0.
          5    1    3    3  501    0  0.78107248414E+02  0.10049100082E+02  0.41629824228E+02  0.89201227192E+02  0.47000000000E+01 0. -1.
        -11    1    4    4    0    0 -0.29203942779E+02  0.55919376698E+02  0.25310233895E+02  0.67973928119E+02  0.00000000000E+00 0.  1.
         12    1    4    4    0    0 -0.24164636378E+02 -0.16616803181E+02  0.57412700190E+02  0.64469108434E+02  0.00000000000E+00 0. -1.
         -5    1    5    5    0  502 -0.73321389231E+02  0.61480856539E+01  0.38842577937E+03  0.39536122869E+03  0.47000000000E+01 0.  1.
         13    1    6    6    0    0  0.50549383773E+02 -0.12814033679E+02  0.42441727073E+03  0.42760900289E+03  0.00000000000E+00 0. -1.
        -14    1    6    6    0    0 -0.19666638000E+01 -0.42685725574E+02  0.12301861052E+03  0.13022871215E+03  0.00000000000E+00 0.  1.
</event>
<event>
12    1  0.8798177E-003  0.2790302E+03  0.7818608E-02  0.1096835E+00
         21   -1    0    0  503  502  0.00000000000E+00  0.00000000000E+00  0.12995668702E+04  0.12995668702E+04  0.00000000000E+00 0. -1.
         21   -1    0    0  501  503 -0.00000000000E+00 -0.00000000000E+00 -0.69109916835E+02  0.69109916835E+02  0.00000000000E+00 0.  1.
          6    2    1    2  501    0  0.14120818469E+03  0.16027585437E+03  0.35718424809E+03  0.45325315057E+03  0.17952640614E+03 0.  0.
         24    2    3    3    0    0  0.17055112340E+03  0.11001754810E+03  0.30929634740E+03  0.37773993031E+03  0.76365423166E+02 0.  0.
         -6    2    1    2    0  502 -0.14120818469E+03 -0.16027585437E+03  0.87327270523E+03  0.91542363642E+03  0.17253149130E+03 0.  0.
        -24    2    5    5    0    0 -0.10607346487E+02 -0.15831011280E+02  0.27027685997E+03  0.28174629657E+03  0.77254500687E+02 0.  0.
          5    1    3    3  501    0 -0.29342938711E+02  0.50258306270E+02  0.47887900693E+02  0.75513220260E+02  0.47000000000E+01 0. -1.
        -11    1    4    4    0    0  0.19448037107E+02 -0.52410853092E+01  0.83350231015E+01  0.21798342428E+02  0.00000000000E+00 0.  1.
         12    1    4    4    0    0  0.15110308630E+03  0.11525863341E+03  0.30096132429E+03  0.35594158788E+03  0.00000000000E+00 0. -1.
         -5    1    5    5    0  502 -0.13060083821E+03 -0.14444484309E+03  0.60299584526E+03  0.63367733985E+03  0.47000000000E+01 0.  1.
         11    1    6    6    0    0  0.16007956829E+02 -0.22200481813E+02  0.32896580563E+02  0.42793703828E+02  0.00000000000E+00 0. -1.
        -12    1    6    6    0    0 -0.26615303316E+02  0.63694705328E+01  0.23738027941E+03  0.23895259274E+03  0.00000000000E+00 0.  1.
</event>
<event>
12    1  0.8798177E-003  0.1768968E+03  0.7818608E-02  0.1170936E+00
         21   -1    0    0  503  502  0.00000000000E+00  0.00000000000E+00  0.11443459114E+03  0.11443459114E+03  0.00000000000E+00 0. -1.
         21   -1    0    0  501  503 -0.00000000000E+00 -0.00000000000E+00 -0.33755879409E+03  0.33755879409E+03  0.00000000000E+00 0.  1.
          6    2    1    2  501    0 -0.15707992707E+02  0.39521424741E+02 -0.21060033781E+03  0.27503630767E+03  0.17170842788E+03 0.  0.
         24    2    3    3    0    0  0.56165727880E+02  0.31791128411E+02 -0.13416831362E+03  0.16972945360E+03  0.81496541074E+02 0.  0.
         -6    2    1    2    0  502  0.15707992707E+02 -0.39521424741E+02 -0.12523865142E+02  0.17695707756E+03  0.17131338550E+03 0.  0.
        -24    2    5    5    0    0 -0.10162082927E+01  0.44461996884E+00 -0.68998698081E+02  0.10562349231E+03  0.79964188386E+02 0.  0.
          5    1    3    3  501    0 -0.71873720587E+02  0.77302963294E+01 -0.76432024191E+02  0.10530685407E+03  0.47000000000E+01 0. -1.
        -13    1    4    4    0    0  0.10656173453E+02  0.37756379482E+01 -0.11084535254E+03  0.11142038258E+03  0.00000000000E+00 0.  1.
         14    1    4    4    0    0  0.45509554428E+02  0.28015490463E+02 -0.23322961079E+02  0.58309071023E+02  0.00000000000E+00 0. -1.
         -5    1    5    5    0  502  0.16724201000E+02 -0.39966044710E+02  0.56474832939E+02  0.71333585248E+02  0.47000000000E+01 0.  1.
         11    1    6    6    0    0 -0.23131723434E+02 -0.11262890783E+02  0.61206215555E+01  0.26446008131E+02  0.00000000000E+00 0. -1.
        -12    1    6    6    0    0  0.22115515141E+02  0.11707510752E+02 -0.75119319636E+02  0.79177484177E+02  0.00000000000E+00 0.  1.
</event>
<event>
12    1  0.8798177E-003  0.2466081E+03  0.7818608E-02  0.1115675E+00
         21   -1    0    0  503  502  0.00000000000E+00  0.00000000000E+00  0.10026950369E+03  0.10026950369E+03  0.00000000000E+00 0. -1.
         21   -1    0    0  501  503 -0.00000000000E+00 -0.00000000000E+00 -0.61577202040E+03  0.61577202040E+03  0.00000000000E+00 0. -1.
          6    2    1    2  501    0  0.20641159821E+02  0.17461982572E+03 -0.20758332822E+03  0.32234518386E+03  0.17290875741E+03 0.  0.
         24    2    3    3    0    0 -0.36953518443E+02  0.12840624319E+03 -0.77923940385E+02  0.17305858356E+03  0.77610611671E+02 0.  0.
         -6    2    1    2    0  502 -0.20641159821E+02 -0.17461982572E+03 -0.30791918849E+03  0.39369634024E+03  0.17106852621E+03 0.  0.
        -24    2    5    5    0    0 -0.52650878397E+02 -0.77441233307E+02 -0.24465324007E+03  0.27330958375E+03  0.77933696706E+02 0.  0.
          5    1    3    3  501    0  0.57594678264E+02  0.46213582534E+02 -0.12965938783E+03  0.14928660030E+03  0.47000000000E+01 0. -1.
        -13    1    4    4    0    0 -0.11760181118E+02  0.33936732778E+02 -0.65233199161E+02  0.74467267738E+02  0.00000000000E+00 0.  1.
         14    1    4    4    0    0 -0.25193337326E+02  0.94469510412E+02 -0.12690741223E+02  0.98591315824E+02  0.00000000000E+00 0. -1.
         -5    1    5    5    0  502  0.32009718577E+02 -0.97178592417E+02 -0.63265948421E+02  0.12038675649E+03  0.47000000000E+01 0.  1.
         13    1    6    6    0    0  0.79197627194E+01 -0.44263621364E+02 -0.52513579724E+02  0.69135134868E+02  0.00000000000E+00 0. -1.
        -14    1    6    6    0    0 -0.60570641117E+02 -0.33177611943E+02 -0.19213966034E+03  0.20417444888E+03  0.00000000000E+00 0.  1.
</event>
<event>
12    1  0.8798177E-003  0.1949175E+03  0.7818608E-02  0.1154205E+00
         21   -1    0    0  503  502  0.00000000000E+00  0.00000000000E+00  0.30403487751E+03  0.30403487751E+03  0.00000000000E+00 0. -1.
         21   -1    0    0  501  503 -0.00000000000E+00 -0.00000000000E+00 -0.14871299040E+03  0.14871299040E+03  0.00000000000E+00 0. -1.
          6    2    1    2  501    0  0.90950102482E+02  0.25460793968E+01 -0.13476420439E+02  0.19489964989E+03  0.17183089349E+03 0.  0.
         24    2    3    3    0    0  0.99570875097E+02  0.54471917799E+02 -0.26117833365E+02  0.14056268517E+03  0.78703101885E+02 0.  0.
         -6    2    1    2    0  502 -0.90950102482E+02 -0.25460793968E+01  0.16879830755E+03  0.25784821803E+03  0.17237874361E+03 0.  0.
        -24    2    5    5    0    0 -0.75523592256E+02  0.36914657839E+02  0.39547889815E+02  0.12174940288E+03  0.78691654969E+02 0.  0.
          5    1    3    3  501    0 -0.86207726151E+01 -0.51925838402E+02  0.12641412926E+02  0.54336964720E+02  0.47000000000E+01 0. -1.
        -11    1    4    4    0    0  0.42360369353E+02  0.19990296388E+01  0.23448011191E+02  0.48458293821E+02  0.00000000000E+00 0.  1.
         12    1    4    4    0    0  0.57210505744E+02  0.52472888160E+02 -0.49565844556E+02  0.92104391349E+02  0.00000000000E+00 0. -1.
         -5    1    5    5    0  502 -0.15426510225E+02 -0.39460737236E+02  0.12925041773E+03  0.13609881515E+03  0.47000000000E+01 0.  1.
         11    1    6    6    0    0  0.33237206452E+01  0.19797775576E+02  0.35720228528E+02  0.40974794237E+02  0.00000000000E+00 0. -1.
        -12    1    6    6    0    0 -0.78847312902E+02  0.17116882263E+02  0.38276612869E+01  0.80774608641E+02  0.00000000000E+00 0.  1.
</event>
<event>
12    1  0.8798177E-003  0.1987511E+03  0.7818608E-02  0.1151131E+00
         21   -1    0    0  501  502  0.00000000000E+00  0.00000000000E+00  0.19407759633E+03  0.19407759633E+03  0.00000000000E+00 0.  1.
         21   -1    0    0  502  503 -0.00000000000E+00 -0.00000000000E+00 -0.20695422452E+03  0.20695422452E+03  0.00000000000E+00 0. -1.
          6    2    1    2  501    0  0.32902903157E+02 -0.94315551650E+02  0.24808389979E+02  0.19873954309E+03  0.17001154507E+03 0.  0.
         24    2    3    3    0    0  0.84130163859E+02 -0.67792468696E+02 -0.87749002735E+01  0.13182442109E+03  0.75013171101E+02 0.  0.
         -6    2    1    2    0  503 -0.32902903157E+02  0.94315551650E+02 -0.37685018173E+02  0.20229227775E+03  0.17182543678E+03 0.  0.
        -24    2    5    5    0    0 -0.19594432635E+01  0.11317660607E+03 -0.68306439799E+02  0.15461630323E+03  0.80172613322E+02 0.  0.
          5    1    3    3  501    0 -0.51227260702E+02 -0.26523082953E+02  0.33583290253E+02  0.66915122002E+02  0.47000000000E+01 0. -1.
        -11    1    4    4    0    0 -0.21504581918E+01 -0.34771768522E+02  0.12517835360E+02  0.37018867604E+02  0.00000000000E+00 0.  1.
         12    1    4    4    0    0  0.86280622051E+02 -0.33020700174E+02 -0.21292735634E+02  0.94805553489E+02  0.00000000000E+00 0. -1.
         -5    1    5    5    0  503 -0.30943459894E+02 -0.18861054421E+02  0.30621421625E+02  0.47675974520E+02  0.47000000000E+01 0.  1.
         11    1    6    6    0    0  0.56751981819E+01  0.72685078773E+02 -0.83363368220E+02  0.11074646591E+03  0.00000000000E+00 0. -1.
        -12    1    6    6    0    0 -0.76346414454E+01  0.40491527297E+02  0.15056928422E+02  0.43869837319E+02  0.00000000000E+00 0.  1.
</event>
<event>
12    1  0.8798177E-003  0.1845593E+03  0.7818608E-02  0.1164284E+00
         21   -1    0    0  503  502  0.00000000000E+00  0.00000000000E+00  0.18459366786E+02  0.18459366786E+02  0.00000000000E+00 0. -1.
         21   -1    0    0  501  503 -0.00000000000E+00 -0.00000000000E+00 -0.20189305835E+04  0.20189305835E+04  0.00000000000E+00 0.  1.
          6    2    1    2  501    0  0.44365645747E+02  0.36818332587E+02 -0.13188799688E+04  0.13312534390E+04  0.17166084811E+03 0.  0.
         24    2    3    3    0    0  0.76321256534E+02  0.98769605140E+01 -0.12025296619E+04  0.12075340691E+04  0.78348271925E+02 0.  0.
         -6    2    1    2    0  502 -0.44365645747E+02 -0.36818332587E+02 -0.68159124798E+03  0.70613651129E+03  0.17532325321E+03 0.  0.
        -24    2    5    5    0    0 -0.39320555040E+02 -0.54273513665E+02 -0.67939326542E+03  0.68724054839E+03  0.78947082996E+02 0.  0.
          5    1    3    3  501    0 -0.31955610787E+02  0.26941372073E+02 -0.11635030684E+03  0.12371936991E+03  0.47000000000E+01 0. -1.
        -13    1    4    4    0    0  0.58495602728E+00  0.30775579572E+02 -0.29030076051E+03  0.29192809050E+03  0.00000000000E+00 0.  1.
         14    1    4    4    0    0  0.75736300507E+02 -0.20898619058E+02 -0.91222890140E+03  0.91560597860E+03  0.00000000000E+00 0. -1.
         -5    1    5    5    0  502 -0.50450907079E+01  0.17455181078E+02 -0.21979825603E+01  0.18895962903E+02  0.47000000000E+01 0.  1.
         13    1    6    6    0    0 -0.11026574351E+02 -0.49946259062E+02 -0.18274450781E+03  0.18976767183E+03  0.00000000000E+00 0. -1.
        -14    1    6    6    0    0 -0.28293980689E+02 -0.43272546026E+01 -0.49664875761E+03  0.49747287655E+03  0.00000000000E+00 0.  1.
</event>
<event>
12    1  0.8798177E-003  0.1801582E+03  0.7818608E-02  0.1167930E+00
         21   -1    0    0  501  502  0.00000000000E+00  0.00000000000E+00  0.18005618521E+04  0.18005618521E+04  0.00000000000E+00 0. -1.
         21   -1    0    0  502  503 -0.00000000000E+00 -0.00000000000E+00 -0.70961880392E+02  0.70961880392E+02  0.00000000000E+00 0. -1.
          6    2    1    2  501    0 -0.25973104686E+02 -0.44015170913E+02  0.16745971801E+04  0.16842602771E+04  0.17275713539E+03 0.  0.
         24    2    3    3    0    0 -0.53902348265E+02 -0.14622528626E+00  0.14674402131E+04  0.14706236088E+04  0.80296545792E+02 0.  0.
         -6    2    1    2    0  503  0.25973104686E+02  0.44015170913E+02  0.55002791650E+02  0.18726345548E+03  0.17155278264E+03 0.  0.
        -24    2    5    5    0    0  0.70229260501E+02  0.78915375235E+01 -0.22034222785E+01  0.10628095658E+03  0.79349614152E+02 0.  0.
          5    1    3    3  501    0  0.27929243579E+02 -0.43868945627E+02  0.20715696698E+03  0.21363666821E+03  0.47000000000E+01 0. -1.
        -11    1    4    4    0    0 -0.15555012703E+02 -0.26845917878E+02  0.20649786826E+03  0.20881578323E+03  0.00000000000E+00 0.  1.
         12    1    4    4    0    0 -0.38347335562E+02  0.26699692592E+02  0.12609423449E+04  0.12618078256E+04  0.00000000000E+00 0. -1.
         -5    1    5    5    0  503 -0.44256155815E+02  0.36123633390E+02  0.57206213929E+02  0.80982498905E+02  0.47000000000E+01 0.  1.
         13    1    6    6    0    0  0.85827872879E+02  0.70415347088E-01 -0.11357392420E+02  0.86576088407E+02  0.00000000000E+00 0. -1.
        -14    1    6    6    0    0 -0.15598612378E+02  0.78211221764E+01  0.91539701416E+01  0.19704868169E+02  0.00000000000E+00 0.  1.
</event>
<event>
12    1  0.8798177E-003  0.1771349E+03  0.7818608E-02  0.1171798E+00
         21   -1    0    0  503  502  0.00000000000E+00  0.00000000000E+00  0.68444450040E+02  0.68444450040E+02  0.00000000000E+00 0.  1.
         21   -1    0    0  501  503 -0.00000000000E+00 -0.00000000000E+00 -0.51957252963E+03  0.51957252963E+03  0.00000000000E+00 0.  1.
          6    2    1    2  501    0 -0.22477709502E+02 -0.57692822918E+01 -0.33340827470E+03  0.37533239928E+03  0.17080632385E+03 0.  0.
         24    2    3    3    0    0 -0.72984334625E+02 -0.29711279824E+02 -0.27826156195E+03  0.29667244533E+03  0.66148089260E+02 0.  0.
         -6    2    1    2    0  502  0.22477709502E+02  0.57692822918E+01 -0.11771980489E+03  0.21268458039E+03  0.17560821800E+03 0.  0.
        -24    2    5    5    0    0  0.82344005584E+02  0.73287136714E+01 -0.92225624769E+02  0.14742779183E+03  0.79969635747E+02 0.  0.
          5    1    3    3  501    0  0.50506625123E+02  0.23941997532E+02 -0.55146712755E+02  0.78659953946E+02  0.47000000000E+01 0. -1.
        -13    1    4    4    0    0 -0.11054450900E+02  0.20404577840E+02 -0.64471425745E+02  0.68520890385E+02  0.00000000000E+00 0.  1.
         14    1    4    4    0    0 -0.61929883725E+02 -0.50115857664E+02 -0.21379013620E+03  0.22815155495E+03  0.00000000000E+00 0. -1.
         -5    1    5    5    0  502 -0.59866296082E+02 -0.15594313797E+01 -0.25494180117E+02  0.65256788556E+02  0.47000000000E+01 0.  1.
         11    1    6    6    0    0  0.34683832151E+02 -0.35300688612E+02 -0.52504643035E+02  0.72151537540E+02  0.00000000000E+00 0. -1.
        -12    1    6    6    0    0  0.47660173433E+02  0.42629402283E+02 -0.39720981734E+02  0.75276254294E+02  0.00000000000E+00 0.  1.
</event>
<event>
12    1  0.8798177E-003  0.1933433E+03  0.7818608E-02  0.1155590E+00
         21   -1    0    0  503  502  0.00000000000E+00  0.00000000000E+00  0.52920720593E+03  0.52920720593E+03  0.00000000000E+00 0. -1.
         21   -1    0    0  501  503 -0.00000000000E+00 -0.00000000000E+00 -0.86448508012E+02  0.86448508012E+02  0.00000000000E+00 0. -1.
          6    2    1    2  501    0  0.32776688275E+02  0.81943750488E+02  0.88741543976E+02  0.21228271480E+03  0.17146369830E+03 0.  0.
         24    2    3    3    0    0 -0.40896168789E+02  0.13477885943E+02  0.49475039529E+02  0.10421230790E+03  0.80983180659E+02 0.  0.
         -6    2    1    2    0  502 -0.32776688275E+02 -0.81943750488E+02  0.35401715394E+03  0.40337299915E+03  0.17202482849E+03 0.  0.
        -24    2    5    5    0    0  0.98823224650E+01 -0.92195273827E+02  0.14854085460E+03  0.19321238314E+03  0.81664011047E+02 0.  0.
          5    1    3    3  501    0  0.73672857064E+02  0.68465864545E+02  0.39266504446E+02  0.10807040690E+03  0.47000000000E+01 0. -1.
        -13    1    4    4    0    0 -0.35005899668E+02  0.43133504948E+02  0.13403258198E+02  0.57145074950E+02  0.00000000000E+00 0.  1.
         14    1    4    4    0    0 -0.58902691219E+01 -0.29655619006E+02  0.36071781332E+02  0.47067232948E+02  0.00000000000E+00 0. -1.
         -5    1    5    5    0  502 -0.42659010740E+02  0.10251523339E+02  0.20547629935E+03  0.21016061601E+03  0.47000000000E+01 0.  1.
         13    1    6    6    0    0 -0.19925406654E+02 -0.46827518140E+02  0.12321607330E+03  0.13331181119E+03  0.00000000000E+00 0. -1.
        -14    1    6    6    0    0  0.29807729119E+02 -0.45367755687E+02  0.25324781301E+02  0.59900571944E+02  0.00000000000E+00 0.  1.
</event>
<event>
12    1  0.8798177E-003  0.2577135E+03  0.7818608E-02  0.1108759E+00
         21   -1    0    0  501  502  0.00000000000E+00  0.00000000000E+00  0.12434503030E+03  0.12434503030E+03  0.00000000000E+00 0.  1.
         21   -1    0    0  502  503 -0.00000000000E+00 -0.00000000000E+00 -0.56006857721E+03  0.56006857721E+03  0.00000000000E+00 0.  1.
          6    2    1    2  501    0 -0.12109081379E+03  0.14787153194E+03 -0.13921884895E+03  0.29156338801E+03  0.17058237360E+03 0.  0.
         24    2    3    3    0    0 -0.35888424502E+02  0.28803131794E+02 -0.10795861581E+03  0.14177679572E+03  0.79548712515E+02 0.  0.
         -6    2    1    2    0  503  0.12109081379E+03 -0.14787153194E+03 -0.29650469796E+03  0.39285021950E+03  0.17287939120E+03 0.  0.
        -24    2    5    5    0    0  0.14141818865E+03 -0.11855376233E+03 -0.29458873622E+03  0.35681558764E+03  0.80503052333E+02 0.  0.
          5    1    3    3  501    0 -0.85202389290E+02  0.11906840014E+03 -0.31260233138E+02  0.14978659229E+03  0.47000000000E+01 0. -1.
        -11    1    4    4    0    0 -0.14947299927E+02  0.51638066820E+02 -0.39740160968E+02  0.66852016528E+02  0.00000000000E+00 0.  1.
         12    1    4    4    0    0 -0.20941124576E+02 -0.22834935026E+02 -0.68218454841E+02  0.74924779192E+02  0.00000000000E+00 0. -1.
         -5    1    5    5    0  503 -0.20327374857E+02 -0.29317769609E+02 -0.19159617433E+01  0.36034631854E+02  0.47000000000E+01 0.  1.
         13    1    6    6    0    0  0.24510693442E+02 -0.71017703346E+02 -0.10919800576E+03  0.13254619098E+03  0.00000000000E+00 0. -1.
        -14    1    6    6    0    0  0.11690749521E+03 -0.47536058983E+02 -0.18539073045E+03  0.22426939666E+03  0.00000000000E+00 0.  1.
</event>
<event>
12    1  0.8798177E-003  0.1925905E+03  0.7818608E-02  0.1156490E+00
         21   -1    0    0  503  502  0.00000000000E+00  0.00000000000E+00  0.17926034837E+03  0.17926034837E+03  0.00000000000E+00 0.  1.
         21   -1    0    0  501  503 -0.00000000000E+00 -0.00000000000E+00 -0.20547040954E+03  0.20547040954E+03  0.00000000000E+00 0. -1.
          6    2    1    2  501    0 -0.72917881535E+02  0.43094547436E+02 -0.68844985780E+01  0.19271346677E+03  0.17296510193E+03 0.  0.
         24    2    3    3    0    0 -0.29777705065E+02  0.15955130430E+02  0.62490719094E+02  0.10650074376E+03  0.79347593175E+02 0.  0.
         -6    2    1    2    0  502  0.72917881535E+02 -0.43094547436E+02 -0.19325562590E+02  0.19201729115E+03  0.17123961360E+03 0.  0.
        -24    2    5    5    0    0  0.59711272835E+02  0.32500857781E+02 -0.40576172346E+02  0.11225039188E+03  0.79573757331E+02 0.  0.
          5    1    3    3  501    0 -0.43140176470E+02  0.27139417006E+02 -0.69375217672E+02  0.86212723007E+02  0.47000000000E+01 0. -1.
        -11    1    4    4    0    0  0.81620654038E+01  0.38327545518E+02  0.43465880592E+02  0.58522669392E+02  0.00000000000E+00 0.  1.
         12    1    4    4    0    0 -0.37939770469E+02 -0.22372415088E+02  0.19024838502E+02  0.47978074369E+02  0.00000000000E+00 0. -1.
         -5    1    5    5    0  502  0.13206608700E+02 -0.75595405217E+02  0.21250609755E+02  0.79766899265E+02  0.47000000000E+01 0.  1.
         11    1    6    6    0    0  0.56509234590E+01  0.46393205079E+02 -0.29726456506E+02  0.55388849328E+02  0.00000000000E+00 0. -1.
        -12    1    6    6    0    0  0.54060349376E+02 -0.13892347298E+02 -0.10849715839E+02  0.56861542556E+02  0.00000000000E+00 0.  1.
</event>
<event>
12    1  0.8798177E-003  0.2036547E+03  0.7818608E-02  0.1147335E+00
         21   -1    0    0  503  502  0.00000000000E+00  0.00000000000E+00  0.22514032147E+03  0.22514032147E+03  0.00000000000E+00 0.  1.
         21   -1    0    0  501  503 -0.00000000000E+00 -0.00000000000E+00 -0.21466023100E+03  0.21466023100E+03  0.00000000000E+00 0.  1.
          6    2    1    2  501    0 -0.10648684896E+03 -0.11128092268E+02 -0.81311090534E+02  0.21641557835E+03  0.16959046456E+03 0.  0.
         24    2    3    3    0    0 -0.46654076739E+02  0.55684616346E+02 -0.27445158440E+02  0.11168961546E+03  0.80274243100E+02 0.  0.
         -6    2    1    2    0  502  0.10648684896E+03  0.11128092268E+02  0.91791180997E+02  0.22338497412E+03  0.17323955181E+03 0.  0.
        -24    2    5    5    0    0  0.24068342948E+02  0.64627751507E+02  0.51277079115E+02  0.11699650611E+03  0.79390252572E+02 0.  0.
          5    1    3    3  501    0 -0.59832772225E+02 -0.66812708614E+02 -0.53865932094E+02  0.10472596290E+03  0.47000000000E+01 0. -1.
        -11    1    4    4    0    0 -0.46254538221E+02  0.30394642583E+00  0.65336718104E+01  0.46714703861E+02  0.00000000000E+00 0.  1.
         12    1    4    4    0    0 -0.39953851775E+00  0.55380669920E+02 -0.33978830251E+02  0.64974911597E+02  0.00000000000E+00 0. -1.
         -5    1    5    5    0  502  0.82418506016E+02 -0.53499659239E+02  0.40514101882E+02  0.10638846800E+03  0.47000000000E+01 0.  1.
         13    1    6    6    0    0 -0.27424235301E+02  0.38758999648E+02  0.21271045250E+02  0.52026974750E+02  0.00000000000E+00 0. -1.
        -14    1    6    6    0    0  0.51492578249E+02  0.25868751859E+02  0.30006033865E+02  0.64969531365E+02  0.00000000000E+00 0.  1.
</event>
<event>
12    1  0.8798177E-003  0.2388220E+03  0.7818608E-02  0.1120749E+00
         21   -1    0    0  501  502  0.00000000000E+00  0.00000000000E+00  0.38709507340E+03  0.38709507340E+03  0.00000000000E+00 0.  1.
         21   -1    0    0  502  503 -0.00000000000E+00 -0.00000000000E+00 -0.16223123415E+03  0.16223123415E+03  0.00000000000E+00 0.  1.
          6    2    1    2  501    0 -0.13951871257E+03 -0.87029828981E+02  0.27724518392E+02  0.24042586837E+03  0.17319436184E+03 0.  0.
         24    2    3    3    0    0 -0.31381404545E+02 -0.37376886475E+02 -0.43578899328E+02  0.10162615848E+03  0.77762017899E+02 0.  0.
         -6    2    1    2    0  503  0.13951871257E+03  0.87029828981E+02  0.19713932085E+03  0.30890043917E+03  0.17180194180E+03 0.  0.
        -24    2    5    5    0    0  0.52516261262E+02  0.10215470746E+03  0.80849141664E+02  0.16280566083E+03  0.82313774895E+02 0.  0.
          5    1    3    3  501    0 -0.10813730803E+03 -0.49652942506E+02  0.71303417720E+02  0.13879970989E+03  0.47000000000E+01 0. -1.
        -11    1    4    4    0    0 -0.53359962376E+02 -0.24951607352E+02 -0.10212894664E+02  0.59784375146E+02  0.00000000000E+00 0.  1.
         12    1    4    4    0    0  0.21978557831E+02 -0.12425279123E+02 -0.33366004664E+02  0.41841783337E+02  0.00000000000E+00 0. -1.
         -5    1    5    5    0  503  0.87002451313E+02 -0.15124878479E+02  0.11629017919E+03  0.14609477834E+03  0.47000000000E+01 0.  1.
         13    1    6    6    0    0  0.53976769062E+02  0.30299611401E+02  0.11550853103E+02  0.62968089194E+02  0.00000000000E+00 0. -1.
        -14    1    6    6    0    0 -0.14605077999E+01  0.71855096059E+02  0.69298288561E+02  0.99837571636E+02  0.00000000000E+00 0.  1.
</event>
<event>
12    1  0.8798177E-003  0.3826128E+03  0.7818608E-02  0.1050057E+00
         21   -1    0    0  503  502  0.00000000000E+00  0.00000000000E+00  0.45431800733E+03  0.45431800733E+03  0.00000000000E+00 0. -1.
         21   -1    0    0  501  503 -0.00000000000E+00 -0.00000000000E+00 -0.38599580979E+03  0.38599580979E+03  0.00000000000E+00 0.  1.
          6    2    1    2  501    0 -0.23186680163E+03  0.25078774806E+03  0.20594248279E+03  0.43370358211E+03  0.17038128606E+03 0.  0.
         24    2    3    3    0    0 -0.13670267470E+03  0.71242512472E+02  0.12353750448E+03  0.21437421078E+03  0.83256653673E+02 0.  0.
         -6    2    1    2    0  502  0.23186680163E+03 -0.25078774806E+03 -0.13762028525E+03  0.40661023501E+03  0.17244080731E+03 0.  0.
        -24    2    5    5    0    0  0.16288237647E+03 -0.15435893437E+03 -0.15800894183E+03  0.28621441140E+03  0.81206615557E+02 0.  0.
          5    1    3    3  501    0 -0.95164126936E+02  0.17954523559E+03  0.82404978308E+02  0.21932937133E+03  0.47000000000E+01 0. -1.
        -13    1    4    4    0    0 -0.82846662233E+02  0.50999071458E+02  0.25288693834E+02  0.10051861901E+03  0.00000000000E+00 0.  1.
         14    1    4    4    0    0 -0.53856012465E+02  0.20243441015E+02  0.98248810644E+02  0.11385559176E+03  0.00000000000E+00 0. -1.
         -5    1    5    5    0  502  0.68984425162E+02 -0.96428813689E+02  0.20388656586E+02  0.12039582361E+03  0.47000000000E+01 0.  1.
         11    1    6    6    0    0  0.96278570654E+02 -0.61942754804E+02 -0.12066780603E+03  0.16633456481E+03  0.00000000000E+00 0. -1.
        -12    1    6    6    0    0  0.66603805819E+02 -0.92416179566E+02 -0.37341135804E+02  0.11987984659E+03  0.00000000000E+00 0.  1.
</event>
<event>
12    1  0.8798177E-003  0.3747111E+03  0.7818608E-02  0.1053480E+00
         21   -1    0    0  503  502  0.00000000000E+00  0.00000000000E+00  0.84648215599E+03  0.84648215599E+03  0.00000000000E+00 0. -1.
         21   -1    0    0  501  503 -0.00000000000E+00 -0.00000000000E+00 -0.19922840205E+03  0.19922840205E+03  0.00000000000E+00 0.  1.
          6    2    1    2  501    0 -0.29064822060E+03 -0.15115574634E+03  0.10346433962E+03  0.38873289848E+03  0.18188993651E+03 0.  0.
         24    2    3    3    0    0 -0.30915332408E+03 -0.13644869151E+03  0.85450091742E+02  0.35864403937E+03  0.84438176141E+02 0.  0.
         -6    2    1    2    0  502  0.29064822060E+03  0.15115574634E+03  0.54378941432E+03  0.65697765955E+03  0.16908066192E+03 0.  0.
        -24    2    5    5    0    0  0.95130673234E+02  0.10426241410E+03  0.28991766109E+03  0.33309642665E+03  0.83549286368E+02 0.  0.
          5    1    3    3  501    0  0.18505103480E+02 -0.14707054826E+02  0.18014247874E+02  0.30088859117E+02  0.47000000000E+01 0. -1.
        -11    1    4    4    0    0 -0.17825577610E+03 -0.57506551796E+02  0.84664317879E+01  0.18749348170E+03  0.00000000000E+00 0.  1.
         12    1    4    4    0    0 -0.13089754798E+03 -0.78942139714E+02  0.76983659954E+02  0.17115055767E+03  0.00000000000E+00 0. -1.
         -5    1    5    5    0  502  0.19551754737E+03  0.46893332239E+02  0.25387175323E+03  0.32388123290E+03  0.47000000000E+01 0.  1.
         11    1    6    6    0    0  0.72943959822E+02  0.37167923328E+02  0.93093530133E+02  0.12397048500E+03  0.00000000000E+00 0. -1.
        -12    1    6    6    0    0  0.22186713412E+02  0.67094490770E+02  0.19682413096E+03  0.20912594165E+03  0.00000000000E+00 0.  1.
</event>
<event>
12    1  0.8798177E-003  0.3085194E+03  0.7818608E-02  0.1081070E+00
         21   -1    0    0  501  502  0.00000000000E+00  0.00000000000E+00  0.25457803636E+03  0.25457803636E+03  0.00000000000E+00 0. -1.
         21   -1    0    0  502  503 -0.00000000000E+00 -0.00000000000E+00 -0.37379527481E+03  0.37379527481E+03  0.00000000000E+00 0. -1.
          6    2    1    2  501    0  0.39204085746E+02  0.25292240091E+03 -0.62362904896E+02  0.31475920706E+03  0.17227166134E+03 0.  0.
         24    2    3    3    0    0  0.28226269143E+02  0.34298831148E+02 -0.17317913516E+02  0.91224156203E+02  0.77774060319E+02 0.  0.
         -6    2    1    2    0  503 -0.39204085746E+02 -0.25292240091E+03 -0.56854333552E+02  0.31361410411E+03  0.17208919149E+03 0.  0.
        -24    2    5    5    0    0 -0.69627966516E+02 -0.10389399181E+03  0.44140275485E+01  0.14956843573E+03  0.81909816705E+02 0.  0.
          5    1    3    3  501    0  0.10977816603E+02  0.21862356976E+03 -0.45044991380E+02  0.22353505086E+03  0.47000000000E+01 0. -1.
        -13    1    4    4    0    0  0.38215260948E+02  0.18715125457E+02  0.21900441092E+02  0.47856989147E+02  0.00000000000E+00 0.  1.
         14    1    4    4    0    0 -0.99889918043E+01  0.15583705691E+02 -0.39218354608E+02  0.43367167056E+02  0.00000000000E+00 0. -1.
         -5    1    5    5    0  503  0.30423880770E+02 -0.14902840910E+03 -0.61268361100E+02  0.16404566838E+03  0.47000000000E+01 0.  1.
         11    1    6    6    0    0 -0.43336544460E+02 -0.66650522862E+02 -0.37263165109E+02  0.87800294745E+02  0.00000000000E+00 0. -1.
        -12    1    6    6    0    0 -0.26291422057E+02 -0.37243468945E+02  0.41677192658E+02  0.61768140984E+02  0.00000000000E+00 0.  1.
</event>
<event>
12    1  0.8798177E-003  0.3600031E+03  0.7818608E-02  0.1058665E+00
         21   -1    0    0  501  502  0.00000000000E+00  0.00000000000E+00  0.68483552351E+03  0.68483552351E+03  0.00000000000E+00 0. -1.
         21   -1    0    0  502  503 -0.00000000000E+00 -0.00000000000E+00 -0.21284994845E+03  0.21284994845E+03  0.00000000000E+00 0. -1.
          6    2    1    2  501    0  0.27438251944E+03  0.15523900566E+03  0.38707983487E+03  0.52861428733E+03  0.17383138484E+03 0.  0.
         24    2    3    3    0    0  0.46911012514E+02  0.34653985368E+02  0.14250680470E+03  0.17347756624E+03  0.79904535574E+02 0.  0.
         -6    2    1    2    0  503 -0.27438251944E+03 -0.15523900566E+03  0.84905740202E+02  0.36907118463E+03  0.17210356985E+03 0.  0.
        -24    2    5    5    0    0 -0.12643328553E+03 -0.12385006308E+03  0.98374506553E+02  0.21715759341E+03  0.78458033501E+02 0.  0.
          5    1    3    3  501    0  0.22747150692E+03  0.12058502029E+03  0.24457303016E+03  0.35513672109E+03  0.47000000000E+01 0. -1.
        -11    1    4    4    0    0  0.49188424296E+02  0.21726001890E+02  0.14930609416E+03  0.15869413977E+03  0.00000000000E+00 0.  1.
         12    1    4    4    0    0 -0.22774117817E+01  0.12927983478E+02 -0.67992894566E+01  0.14783426475E+02  0.00000000000E+00 0. -1.
         -5    1    5    5    0  503 -0.14794923391E+03 -0.31388942576E+02 -0.13468766351E+02  0.15191359122E+03  0.47000000000E+01 0.  1.
         13    1    6    6    0    0 -0.83711538818E+02 -0.30837708174E+02  0.61536123160E+02  0.10837564500E+03  0.00000000000E+00 0. -1.
        -14    1    6    6    0    0 -0.42721746709E+02 -0.93012354910E+02  0.36838383393E+02  0.10878194840E+03  0.00000000000E+00 0.  1.
</event>
<event>
12    1  0.8798177E-003  0.2330903E+03  0.7818608E-02  0.1124628E+00
         21   -1    0    0  503  502  0.00000000000E+00  0.00000000000E+00  0.79130310300E+02  0.79130310300E+02  0.00000000000E+00 0. -1.
         21   -1    0    0  501  503 -0.00000000000E+00 -0.00000000000E+00 -0.86321119081E+03  0.86321119081E+03  0.00000000000E+00 0.  1.
          6    2    1    2  501    0  0.74939533122E+02  0.13843883369E+03 -0.60718839354E+03  0.65039130051E+03  0.17190071037E+03 0.  0.
         24    2    3    3    0    0 -0.11683623083E+02  0.95764352445E+02 -0.44010897538E+03  0.45735683594E+03  0.78562375954E+02 0.  0.
         -6    2    1    2    0  502 -0.74939533122E+02 -0.13843883369E+03 -0.17689248697E+03  0.29195020061E+03  0.17077096764E+03 0.  0.
        -24    2    5    5    0    0 -0.41125864732E+02 -0.12708965633E+02 -0.11890238891E+03  0.14934478218E+03  0.79455845074E+02 0.  0.
          5    1    3    3  501    0  0.86623156205E+02  0.42674481250E+02 -0.16707941816E+03  0.19303446457E+03  0.47000000000E+01 0. -1.
        -13    1    4    4    0    0 -0.27822747204E+02  0.78020728933E+00 -0.11088221556E+03  0.11432226254E+03  0.00000000000E+00 0.  1.
         14    1    4    4    0    0  0.16139124121E+02  0.94984145155E+02 -0.32922675982E+03  0.34303457339E+03  0.00000000000E+00 0. -1.
         -5    1    5    5    0  502 -0.33813668390E+02 -0.12572986806E+03 -0.57990098056E+02  0.14260541843E+03  0.47000000000E+01 0.  1.
         13    1    6    6    0    0 -0.14573537991E+02  0.54451959581E+01  0.86491262964E+01  0.17800156019E+02  0.00000000000E+00 0. -1.
        -14    1    6    6    0    0 -0.26552326741E+02 -0.18154161592E+02 -0.12755151521E+03  0.13154462616E+03  0.00000000000E+00 0.  1.
</event>
<event>
12    1  0.8798177E-003  0.1925559E+03  0.7818608E-02  0.1157528E+00
         21   -1    0    0  501  502  0.00000000000E+00  0.00000000000E+00  0.95273321707E+03  0.95273321707E+03  0.00000000000E+00 0.  1.
         21   -1    0    0  502  503 -0.00000000000E+00 -0.00000000000E+00 -0.37833549241E+02  0.37833549241E+02  0.00000000000E+00 0.  1.
          6    2    1    2  501    0 -0.57112413153E+02 -0.52026710013E+02  0.47802766236E+03  0.51314145470E+03  0.16980901113E+03 0.  0.
         24    2    3    3    0    0 -0.61689375941E+02 -0.69328707772E+02  0.19792008940E+03  0.23242335742E+03  0.78969655300E+02 0.  0.
         -6    2    1    2    0  503  0.57112413153E+02  0.52026710013E+02  0.43687200547E+03  0.47742531161E+03  0.17637792581E+03 0.  0.
        -24    2    5    5    0    0  0.31648522024E+02  0.10247107163E+03  0.27000183635E+03  0.30118460488E+03  0.79430630822E+02 0.  0.
          5    1    3    3  501    0  0.45769627882E+01  0.17301997759E+02  0.28010757295E+03  0.28071809728E+03  0.47000000000E+01 0. -1.
        -11    1    4    4    0    0 -0.99415817150E+01  0.10018241820E+02  0.79658517900E+02  0.80899194620E+02  0.00000000000E+00 0.  1.
         12    1    4    4    0    0 -0.51747794226E+02 -0.79346949592E+02  0.11826157150E+03  0.15152416280E+03  0.00000000000E+00 0. -1.
         -5    1    5    5    0  503  0.25463891128E+02 -0.50444361613E+02  0.16687016911E+03  0.17624070673E+03  0.47000000000E+01 0.  1.
         11    1    6    6    0    0  0.35733824125E+02  0.19217155513E+02  0.14775503535E+03  0.15322452716E+03  0.00000000000E+00 0. -1.
        -12    1    6    6    0    0 -0.40853021009E+01  0.83253916114E+02  0.12224680101E+03  0.14796007772E+03  0.00000000000E+00 0.  1.
</event>
<event>
12    1  0.8798177E-003  0.2686819E+03  0.7818608E-02  0.1102248E+00
         21   -1    0    0  501  502  0.00000000000E+00  0.00000000000E+00  0.17053506022E+03  0.17053506022E+03  0.00000000000E+00 0.  1.
         21   -1    0    0  502  503 -0.00000000000E+00 -0.00000000000E+00 -0.44842438161E+03  0.44842438161E+03  0.00000000000E+00 0. -1.
          6    2    1    2  501    0 -0.18846324436E+02  0.20635713155E+03 -0.62785894746E+02  0.27592032051E+03  0.17103071362E+03 0.  0.
         24    2    3    3    0    0  0.39231295040E+02  0.54727337952E+02 -0.41855327006E+02  0.11213758986E+03  0.79301920731E+02 0.  0.
         -6    2    1    2    0  503  0.18846324436E+02 -0.20635713155E+03 -0.21510342665E+03  0.34303912133E+03  0.16872434596E+03 0.  0.
        -24    2    5    5    0    0  0.35497027293E+02 -0.21722525442E+03 -0.15794686103E+03  0.28234048054E+03  0.79511545933E+02 0.  0.
          5    1    3    3  501    0 -0.58077619476E+02  0.15162979360E+03 -0.20930567739E+02  0.16378273064E+03  0.47000000000E+01 0. -1.
        -13    1    4    4    0    0  0.24135543902E+02 -0.12371672369E+02  0.67143243897E+01  0.27940381327E+02  0.00000000000E+00 0.  1.
         14    1    4    4    0    0  0.15095751137E+02  0.67099010321E+02 -0.48569651396E+02  0.84197208536E+02  0.00000000000E+00 0. -1.
         -5    1    5    5    0  503 -0.16650702857E+02  0.10868122870E+02 -0.57156565621E+02  0.60698640791E+02  0.47000000000E+01 0.  1.
         11    1    6    6    0    0 -0.11340037871E+02 -0.20608119929E+02 -0.45068796543E+02  0.50837854870E+02  0.00000000000E+00 0. -1.
        -12    1    6    6    0    0  0.46837065164E+02 -0.19661713449E+03 -0.11287806448E+03  0.23150262567E+03  0.00000000000E+00 0.  1.
</event>
<event>
12    1  0.8798177E-003  0.2390481E+03  0.7818608E-02  0.1120630E+00
         21   -1    0    0  503  502  0.00000000000E+00  0.00000000000E+00  0.79413383463E+03  0.79413383463E+03  0.00000000000E+00 0. -1.
         21   -1    0    0  501  503 -0.00000000000E+00 -0.00000000000E+00 -0.11581800979E+03  0.11581800979E+03  0.00000000000E+00 0. -1.
          6    2    1    2  501    0 -0.15696382069E+03  0.50286452684E+02  0.57499210823E+02  0.24470207455E+03  0.17148346192E+03 0.  0.
         24    2    3    3    0    0 -0.29679862853E+02 -0.86136664138E+01 -0.15566692004E+02  0.86489729554E+02  0.79265767582E+02 0.  0.
         -6    2    1    2    0  502  0.15696382069E+03 -0.50286452684E+02  0.62081661401E+03  0.66524976988E+03  0.17314046251E+03 0.  0.
        -24    2    5    5    0    0  0.13599776138E+03 -0.96878228465E+02  0.42850685953E+03  0.46621333884E+03  0.76524286293E+02 0.  0.
          5    1    3    3  501    0 -0.12728395784E+03  0.58900119098E+02  0.73065902827E+02  0.15821234499E+03  0.47000000000E+01 0. -1.
        -11    1    4    4    0    0 -0.30934738654E+02 -0.60270681218E+01 -0.46087863655E+02  0.55833455759E+02  0.00000000000E+00 0.  1.
         12    1    4    4    0    0  0.12548758010E+01 -0.25865982920E+01  0.30521171652E+02  0.30656273795E+02  0.00000000000E+00 0. -1.
         -5    1    5    5    0  502  0.20966059311E+02  0.46591775780E+02  0.19230975448E+03  0.19903643104E+03  0.47000000000E+01 0.  1.
         13    1    6    6    0    0  0.92719307251E+02 -0.19113199964E+02  0.22331060002E+03  0.24254856922E+03  0.00000000000E+00 0. -1.
        -14    1    6    6    0    0  0.43278454128E+02 -0.77765028500E+02  0.20519625952E+03  0.22366476962E+03  0.00000000000E+00 0.  1.
</event>
<event>
12    1  0.8798177E-003  0.1826052E+03  0.7818608E-02  0.1165580E+00
         21   -1    0    0  503  502  0.00000000000E+00  0.00000000000E+00  0.70291785099E+02  0.70291785099E+02  0.00000000000E+00 0. -1.
         21   -1    0    0  501  503 -0.00000000000E+00 -0.00000000000E+00 -0.47249891873E+03  0.47249891873E+03  0.00000000000E+00 0. -1.
          6    2    1    2  501    0  0.33993472251E+02  0.46538452761E+02 -0.18857203770E+03  0.26249584438E+03  0.17327224583E+03 0.  0.
         24    2    3    3    0    0  0.17026538117E+02  0.58266733667E+02 -0.21003446864E+03  0.23236022809E+03  0.78688514604E+02 0.  0.
         -6    2    1    2    0  502 -0.33993472251E+02 -0.46538452761E+02 -0.21363509594E+03  0.28029485945E+03  0.17205775274E+03 0.  0.
        -24    2    5    5    0    0 -0.18071670681E+02 -0.38840243125E+02 -0.62359425801E+02  0.12791643391E+03  0.10314439544E+03 0.  0.
          5    1    3    3  501    0  0.16966934134E+02 -0.11728280907E+02  0.21462430941E+02  0.30135616285E+02  0.47000000000E+01 0. -1.
        -13    1    4    4    0    0 -0.29836191985E+02  0.32937963236E+02 -0.11697218661E+03  0.12513033291E+03  0.00000000000E+00 0.  1.
         14    1    4    4    0    0  0.46862730102E+02  0.25328770432E+02 -0.93062282029E+02  0.10722989518E+03  0.00000000000E+00 0. -1.
         -5    1    5    5    0  502 -0.15921801570E+02 -0.76982096357E+01 -0.15127567014E+03  0.15237842555E+03  0.47000000000E+01 0.  1.
         11    1    6    6    0    0 -0.15570339589E+02 -0.17309771063E+02 -0.89901947803E+02  0.92867776263E+02  0.00000000000E+00 0. -1.
        -12    1    6    6    0    0 -0.25013310921E+01 -0.21530472062E+02  0.27542522002E+02  0.35048657645E+02  0.00000000000E+00 0.  1.
</event>
<event>
12    1  0.8798177E-003  0.1882710E+03  0.7818608E-02  0.1166687E+00
         21   -1    0    0  501  502  0.00000000000E+00  0.00000000000E+00  0.60762608755E+02  0.60762608755E+02  0.00000000000E+00 0.  1.
         21   -1    0    0  502  503 -0.00000000000E+00 -0.00000000000E+00 -0.55567687921E+03  0.55567687921E+03  0.00000000000E+00 0.  1.
          6    2    1    2  501    0  0.19438043720E+01 -0.19026483055E+02 -0.17006657390E+03  0.25370970256E+03  0.18729705866E+03 0.  0.
         24    2    3    3    0    0  0.58241386350E+02 -0.35172229122E+02 -0.43664677769E+02  0.11431948698E+03  0.80828189601E+02 0.  0.
         -6    2    1    2    0  503 -0.19438043720E+01  0.19026483055E+02 -0.32484769656E+03  0.36272978541E+03  0.16025319289E+03 0.  0.
        -24    2    5    5    0    0 -0.17627345429E+01  0.70924823571E+02 -0.18818995293E+03  0.21647350545E+03  0.80074230222E+02 0.  0.
          5    1    3    3  501    0 -0.56297581978E+02  0.16145746067E+02 -0.12640189613E+03  0.13939021557E+03  0.47000000000E+01 0. -1.
        -13    1    4    4    0    0  0.10197338029E+02 -0.33426433040E+02  0.15376553912E+02  0.38180499458E+02  0.00000000000E+00 0.  1.
         14    1    4    4    0    0  0.48044048321E+02 -0.17457960816E+01 -0.59041231680E+02  0.76138987525E+02  0.00000000000E+00 0. -1.
         -5    1    5    5    0  503 -0.18106982905E+00 -0.51898340516E+02 -0.13665774363E+03  0.14625627996E+03  0.47000000000E+01 0.  1.
         11    1    6    6    0    0  0.55388583454E+00 -0.17969907208E+02 -0.28619890196E+02  0.33798261337E+02  0.00000000000E+00 0. -1.
        -12    1    6    6    0    0 -0.23166203775E+01  0.88894730778E+02 -0.15957006274E+03  0.18267524411E+03  0.00000000000E+00 0.  1.
</event>
<event>
12    1  0.8798177E-003  0.3587620E+03  0.7818608E-02  0.1059099E+00
         21   -1    0    0  503  502  0.00000000000E+00  0.00000000000E+00  0.56842067820E+03  0.56842067820E+03  0.00000000000E+00 0.  1.
         21   -1    0    0  501  503 -0.00000000000E+00 -0.00000000000E+00 -0.22629186680E+03  0.22629186680E+03  0.00000000000E+00 0. -1.
          6    2    1    2  501    0 -0.19508624310E+03  0.24754956322E+03  0.16881043742E+03  0.39649358399E+03  0.17137902400E+03 0.  0.
         24    2    3    3    0    0 -0.15541007156E+03  0.12669944148E+03  0.48606627351E+02  0.22142218009E+03  0.80374988621E+02 0.  0.
         -6    2    1    2    0  502  0.19508624310E+03 -0.24754956322E+03  0.17331837398E+03  0.39821896100E+03  0.17087906145E+03 0.  0.
        -24    2    5    5    0    0  0.67873477262E+02 -0.18624132473E+03  0.77069505649E+02  0.22725778835E+03  0.80085914558E+02 0.  0.
          5    1    3    3  501    0 -0.39676171537E+02  0.12085012173E+03  0.12020381007E+03  0.17507140391E+03  0.47000000000E+01 0. -1.
        -11    1    4    4    0    0 -0.37813614009E+02  0.76293976644E+02  0.37356395763E+02  0.92984625509E+02  0.00000000000E+00 0.  1.
         12    1    4    4    0    0 -0.11759645755E+03  0.50405464841E+02  0.11250231587E+02  0.12843755458E+03  0.00000000000E+00 0. -1.
         -5    1    5    5    0  502  0.12721276584E+03 -0.61308238488E+02  0.96248868333E+02  0.17096117265E+03  0.47000000000E+01 0.  1.
         11    1    6    6    0    0  0.68952296309E+02 -0.75493349596E+02  0.27229442868E+02  0.10580693530E+03  0.00000000000E+00 0. -1.
        -12    1    6    6    0    0 -0.10788190474E+01 -0.11074797514E+03  0.49840062781E+02  0.12145085304E+03  0.00000000000E+00 0.  1.
</event>
<event>
12    1  0.8798177E-003  0.2261087E+03  0.7818608E-02  0.1129464E+00
         21   -1    0    0  503  502  0.00000000000E+00  0.00000000000E+00  0.21889134510E+03  0.21889134510E+03  0.00000000000E+00 0. -1.
         21   -1    0    0  501  503 -0.00000000000E+00 -0.00000000000E+00 -0.23771561613E+03  0.23771561613E+03  0.00000000000E+00 0.  1.
          6    2    1    2  501    0  0.14772714307E+03 -0.14494158152E+01  0.21872414081E+02  0.22716415217E+03  0.17117166800E+03 0.  0.
         24    2    3    3    0    0  0.12489766681E+02  0.29372690012E+02  0.25681948310E+01  0.87043157803E+02  0.80939276655E+02 0.  0.
         -6    2    1    2    0  502 -0.14772714307E+03  0.14494158152E+01 -0.40696685115E+02  0.22944280907E+03  0.17076994129E+03 0.  0.
        -24    2    5    5    0    0 -0.15638236467E+03 -0.72044379834E+00  0.12109516886E+02  0.17568217178E+03  0.79130411749E+02 0.  0.
          5    1    3    3  501    0  0.13523737639E+03 -0.30822105827E+02  0.19304219250E+02  0.14012099436E+03  0.47000000000E+01 0. -1.
        -13    1    4    4    0    0  0.55509911691E+01 -0.28087093013E+02 -0.35228755320E+01  0.28846298704E+02  0.00000000000E+00 0.  1.
         14    1    4    4    0    0  0.69387755122E+01  0.57459783025E+02  0.60910703629E+01  0.58196859100E+02  0.00000000000E+00 0. -1.
         -5    1    5    5    0  502  0.86552215977E+01  0.21698596136E+01 -0.52806202001E+02  0.53760637286E+02  0.47000000000E+01 0.  1.
         13    1    6    6    0    0 -0.32586144161E+02  0.26312455663E+02  0.24235868768E+02  0.48389869283E+02  0.00000000000E+00 0. -1.
        -14    1    6    6    0    0 -0.12379622051E+03 -0.27032899461E+02 -0.12126351881E+02  0.12729230250E+03  0.00000000000E+00 0.  1.
</event>
<event>
12    1  0.8798177E-003  0.2974492E+03  0.7818608E-02  0.1086568E+00
         21   -1    0    0  501  502  0.00000000000E+00  0.00000000000E+00  0.55119318814E+02  0.55119318814E+02  0.00000000000E+00 0. -1.
         21   -1    0    0  502  503 -0.00000000000E+00 -0.00000000000E+00 -0.17266257297E+04  0.17266257297E+04  0.00000000000E+00 0.  1.
          6    2    1    2  501    0 -0.78397222141E+02  0.23016003393E+03 -0.59716156258E+03  0.66698369357E+03  0.17072067831E+03 0.  0.
         24    2    3    3    0    0 -0.38683557390E+02  0.43551597813E+02 -0.27918856340E+03  0.29613493490E+03  0.79727576464E+02 0.  0.
         -6    2    1    2    0  503  0.78397222141E+02 -0.23016003393E+03 -0.10743448483E+04  0.11147613550E+04  0.17133668534E+03 0.  0.
        -24    2    5    5    0    0  0.52202723239E+02 -0.24622953232E+03 -0.92808857276E+03  0.96523754852E+03  0.83552494206E+02 0.  0.
          5    1    3    3  501    0 -0.39713664751E+02  0.18660843612E+03 -0.31797299917E+03  0.37084875866E+03  0.47000000000E+01 0. -1.
        -11    1    4    4    0    0 -0.51469534422E+02  0.51658126005E+00 -0.11646927951E+03  0.12733606284E+03  0.00000000000E+00 0.  1.
         12    1    4    4    0    0  0.12785977032E+02  0.43035016553E+02 -0.16271928390E+03  0.16879887206E+03  0.00000000000E+00 0. -1.
         -5    1    5    5    0  503  0.26194498902E+02  0.16069498388E+02 -0.14625627559E+03  0.14952380647E+03  0.47000000000E+01 0.  1.
         11    1    6    6    0    0  0.27800374651E+02 -0.16895389255E+03 -0.47408578581E+03  0.50405913437E+03  0.00000000000E+00 0. -1.
        -12    1    6    6    0    0  0.24402348589E+02 -0.77275639777E+02 -0.45400278694E+03  0.46117841415E+03  0.00000000000E+00 0.  1.
</event>
<event>
12    1  0.8798177E-003  0.1817651E+03  0.7818608E-02  0.1166282E+00
         21   -1    0    0  501  502  0.00000000000E+00  0.00000000000E+00  0.19395153003E+03  0.19395153003E+03  0.00000000000E+00 0.  1.
         21   -1    0    0  502  503 -0.00000000000E+00 -0.00000000000E+00 -0.18358279570E+03  0.18358279570E+03  0.00000000000E+00 0.  1.
          6    2    1    2  501    0 -0.57852503088E+02  0.21846952153E+00 -0.46821238650E+02  0.18698451985E+03  0.17153431852E+03 0.  0.
         24    2    3    3    0    0  0.70750739895E+01  0.31952356071E+02  0.20026875214E+02  0.88427987096E+02  0.79670718841E+02 0.  0.
         -6    2    1    2    0  503  0.57852503088E+02 -0.21846952153E+00  0.57189972976E+02  0.19054980589E+03  0.17231243621E+03 0.  0.
        -24    2    5    5    0    0  0.39689812959E+02 -0.23308637857E+02 -0.32808109955E+02  0.95761704746E+02  0.77300440915E+02 0.  0.
          5    1    3    3  501    0 -0.64927577077E+02 -0.31733886549E+02 -0.66848113864E+02  0.98556532751E+02  0.47000000000E+01 0. -1.
        -11    1    4    4    0    0 -0.23723771846E+02  0.65169002684E+01 -0.20129563027E+02  0.31788152626E+02  0.00000000000E+00 0.  1.
         12    1    4    4    0    0  0.30798845835E+02  0.25435455803E+02  0.40156438241E+02  0.56639834471E+02  0.00000000000E+00 0. -1.
         -5    1    5    5    0  503  0.18162690129E+02  0.23090168335E+02  0.89998082932E+02  0.94788101141E+02  0.47000000000E+01 0.  1.
         11    1    6    6    0    0 -0.20062157551E+02 -0.19275270318E+02 -0.20661560835E+02  0.34654383670E+02  0.00000000000E+00 0. -1.
        -12    1    6    6    0    0  0.59751970510E+02 -0.40333675394E+01 -0.12146549120E+02  0.61107321076E+02  0.00000000000E+00 0.  1.
</event>
<event>
12    1  0.8798177E-003  0.2031292E+03  0.7818608E-02  0.1147831E+00
         21   -1    0    0  501  502  0.00000000000E+00  0.00000000000E+00  0.86472982624E+02  0.86472982624E+02  0.00000000000E+00 0. -1.
         21   -1    0    0  502  503 -0.00000000000E+00 -0.00000000000E+00 -0.54002603710E+03  0.54002603710E+03  0.00000000000E+00 0. -1.
          6    2    1    2  501    0  0.99829289534E+02  0.19263481481E+02 -0.11172080969E+03  0.22886757655E+03  0.17193562607E+03 0.  0.
         24    2    3    3    0    0  0.41634218334E+02  0.70285802972E+02 -0.34453309119E+02  0.11940388282E+03  0.79979712972E+02 0.  0.
         -6    2    1    2    0  503 -0.99829289534E+02 -0.19263481481E+02 -0.34183224478E+03  0.39763144317E+03  0.17585366716E+03 0.  0.
        -24    2    5    5    0    0 -0.30897930929E+02 -0.73344812786E+01 -0.54328146357E+02  0.10170150237E+03  0.79894751687E+02 0.  0.
          5    1    3    3  501    0  0.58195071199E+02 -0.51022321490E+02 -0.77267500569E+02  0.10946369374E+03  0.47000000000E+01 0. -1.
        -13    1    4    4    0    0  0.21292184993E+02 -0.36967650084E+01  0.16593511048E+02  0.27246427696E+02  0.00000000000E+00 0.  1.
         14    1    4    4    0    0  0.20342033342E+02  0.73982567980E+02 -0.51046820168E+02  0.92157455122E+02  0.00000000000E+00 0. -1.
         -5    1    5    5    0  503 -0.68931358605E+02 -0.11929000203E+02 -0.28750409843E+03  0.29592994079E+03  0.47000000000E+01 0.  1.
         11    1    6    6    0    0 -0.21097578197E+02  0.30284704917E+02 -0.50624455036E+02  0.62650671228E+02  0.00000000000E+00 0. -1.
        -12    1    6    6    0    0 -0.98003527320E+01 -0.37619186196E+02 -0.37036913214E+01  0.39050831145E+02  0.00000000000E+00 0.  1.
</event>
<event>
12    1  0.8798177E-003  0.3483395E+03  0.7818608E-02  0.1063521E+00
         21   -1    0    0  501  502  0.00000000000E+00  0.00000000000E+00  0.49724401872E+04  0.49724401872E+04  0.00000000000E+00 0. -1.
         21   -1    0    0  502  503 -0.00000000000E+00 -0.00000000000E+00 -0.24281142761E+02  0.24281142761E+02  0.00000000000E+00 0.  1.
          6    2    1    2  501    0 -0.30103641689E+03 -0.28055305720E+02  0.25523773852E+04  0.25757483504E+04  0.16863933044E+03 0.  0.
         24    2    3    3    0    0 -0.24034311641E+03 -0.25222188086E+02  0.14759693948E+04  0.14976166539E+04  0.77259402325E+02 0.  0.
         -6    2    1    2    0  503  0.30103641689E+03  0.28055305720E+02  0.23957816593E+04  0.24209729796E+04  0.17300400115E+03 0.  0.
        -24    2    5    5    0    0  0.11817778284E+03 -0.21790957847E+02  0.12781455620E+04  0.12873705510E+04  0.96052193215E+02 0.  0.
          5    1    3    3  501    0 -0.60693300484E+02 -0.28331176344E+01  0.10764079904E+04  0.10781316965E+04  0.47000000000E+01 0. -1.
        -13    1    4    4    0    0 -0.14568476190E+03 -0.27237432224E+02  0.10985546647E+04  0.11085072299E+04  0.00000000000E+00 0.  1.
         14    1    4    4    0    0 -0.94658354510E+02  0.20152441381E+01  0.37741473015E+03  0.38910942397E+03  0.00000000000E+00 0. -1.
         -5    1    5    5    0  503  0.18285863405E+03  0.49846263567E+02  0.11176360973E+04  0.11336024285E+04  0.47000000000E+01 0.  1.
         13    1    6    6    0    0  0.11355209251E+03 -0.18590601034E+02  0.12762624074E+04  0.12814388088E+04  0.00000000000E+00 0. -1.
        -14    1    6    6    0    0  0.46256903275E+01 -0.32003568127E+01  0.18831546014E+01  0.59317422388E+01  0.00000000000E+00 0.  1.
</event>
<event>
12    1  0.8798177E-003  0.1912055E+03  0.7818608E-02  0.1158237E+00
         21   -1    0    0  503  502  0.00000000000E+00  0.00000000000E+00  0.10317742058E+03  0.10317742058E+03  0.00000000000E+00 0.  1.
         21   -1    0    0  501  503 -0.00000000000E+00 -0.00000000000E+00 -0.35529427600E+03  0.35529427600E+03  0.00000000000E+00 0.  1.
          6    2    1    2  501    0  0.56981935067E+02 -0.59755467787E+02 -0.16159832034E+03  0.25034689432E+03  0.17245838195E+03 0.  0.
         24    2    3    3    0    0  0.77362400890E+02 -0.87124655726E+02 -0.80540841564E+02  0.16227396601E+03  0.79185643759E+02 0.  0.
         -6    2    1    2    0  502 -0.56981935067E+02  0.59755467787E+02 -0.90518535086E+02  0.20812480226E+03  0.16823992174E+03 0.  0.
        -24    2    5    5    0    0 -0.32141798277E+02  0.48105712394E+00  0.10261567098E+02  0.88503703991E+02  0.81818575204E+02 0.  0.
          5    1    3    3  501    0 -0.20380465823E+02  0.27369187939E+02 -0.81057478776E+02  0.88072928310E+02  0.47000000000E+01 0. -1.
        -13    1    4    4    0    0 -0.94863852346E+01 -0.27775956065E+02  0.70697921932E+00  0.29359752379E+02  0.00000000000E+00 0.  1.
         14    1    4    4    0    0  0.86848786124E+02 -0.59348699661E+02 -0.81247820783E+02  0.13291421363E+03  0.00000000000E+00 0. -1.
         -5    1    5    5    0  502 -0.24840136791E+02  0.59274410664E+02 -0.10078010218E+03  0.11962109827E+03  0.47000000000E+01 0.  1.
         11    1    6    6    0    0 -0.12181027807E+01 -0.12959136219E+01 -0.34238580966E+02  0.34284742862E+02  0.00000000000E+00 0. -1.
        -12    1    6    6    0    0 -0.30923695496E+02  0.17769707459E+01  0.44500148065E+02  0.54218961129E+02  0.00000000000E+00 0.  1.
</event>
<event>
12    1  0.8798177E-003  0.1780594E+03  0.7818608E-02  0.1169729E+00
         21   -1    0    0  501  502  0.00000000000E+00  0.00000000000E+00  0.14290271633E+03  0.14290271633E+03  0.00000000000E+00 0. -1.
         21   -1    0    0  502  503 -0.00000000000E+00 -0.00000000000E+00 -0.23716248368E+03  0.23716248368E+03  0.00000000000E+00 0. -1.
          6    2    1    2  501    0 -0.32404870473E+02 -0.31459647801E+02  0.14219521792E+01  0.17792629465E+03  0.17209287990E+03 0.  0.
         24    2    3    3    0    0 -0.68404843983E+02  0.24093694305E+02  0.23978745714E+02  0.10783299364E+03  0.76113372588E+02 0.  0.
         -6    2    1    2    0  503  0.32404870473E+02  0.31459647801E+02 -0.95681719528E+02  0.20213890536E+03  0.17223635080E+03 0.  0.
        -24    2    5    5    0    0 -0.20241272338E+02  0.33956005182E+02 -0.82474771813E+01  0.99939664229E+02  0.91417701856E+02 0.  0.
          5    1    3    3  501    0  0.35999973510E+02 -0.55553342106E+02 -0.22556793535E+02  0.70093301010E+02  0.47000000000E+01 0. -1.
        -13    1    4    4    0    0 -0.17808305285E+01  0.13891208911E+02 -0.22116286938E+02  0.26177608567E+02  0.00000000000E+00 0.  1.
         14    1    4    4    0    0 -0.66624013454E+02  0.10202485394E+02  0.46095032652E+02  0.81655385077E+02  0.00000000000E+00 0. -1.
         -5    1    5    5    0  503  0.52646142811E+02 -0.24963573805E+01 -0.87434242346E+02  0.10219924113E+03  0.47000000000E+01 0.  1.
         13    1    6    6    0    0  0.28905984361E+02  0.12732295661E+02 -0.28655599865E+02  0.42647516789E+02  0.00000000000E+00 0. -1.
        -14    1    6    6    0    0 -0.49147256699E+02  0.21223709521E+02  0.20408122683E+02  0.57292147440E+02  0.00000000000E+00 0.  1.
</event>
<event>
12    1  0.8798177E-003  0.2623082E+03  0.7818608E-02  0.1105946E+00
         21   -1    0    0  503  502  0.00000000000E+00  0.00000000000E+00  0.16331342144E+03  0.16331342144E+03  0.00000000000E+00 0. -1.
         21   -1    0    0  501  503 -0.00000000000E+00 -0.00000000000E+00 -0.43845533262E+03  0.43845533262E+03  0.00000000000E+00 0. -1.
          6    2    1    2  501    0 -0.18444449680E+03  0.70640341897E+02 -0.20007616833E+03  0.32893096460E+03  0.17074916116E+03 0.  0.
         24    2    3    3    0    0 -0.77061696398E+02 -0.90258385655E+01 -0.14462766688E+03  0.18410557855E+03  0.83413015850E+02 0.  0.
         -6    2    1    2    0  502  0.18444449680E+03 -0.70640341897E+02 -0.75065742848E+02  0.27283778946E+03  0.17261449332E+03 0.  0.
        -24    2    5    5    0    0  0.30799422957E+02  0.18383477175E+01 -0.17833532761E+01  0.87763837251E+02  0.82142113458E+02 0.  0.
          5    1    3    3  501    0 -0.10738280040E+03  0.79666180462E+02 -0.55448501452E+02  0.14482538605E+03  0.47000000000E+01 0. -1.
        -13    1    4    4    0    0 -0.59478889659E+02 -0.87093288754E+00 -0.27763945961E+02  0.65645514200E+02  0.00000000000E+00 0.  1.
         14    1    4    4    0    0 -0.17582806739E+02 -0.81549056779E+01 -0.11686372092E+03  0.11846006435E+03  0.00000000000E+00 0. -1.
         -5    1    5    5    0  502  0.15364507385E+03 -0.72478689614E+02 -0.73282389572E+02  0.18507395221E+03  0.47000000000E+01 0.  1.
         11    1    6    6    0    0  0.57308564758E+02  0.10441106246E+02  0.66882512666E+01  0.58634639926E+02  0.00000000000E+00 0. -1.
        -12    1    6    6    0    0 -0.26509141800E+02 -0.86027585283E+01 -0.84716045426E+01  0.29129197325E+02  0.00000000000E+00 0.  1.
</event>
<event>
12    1  0.8798177E-003  0.3240098E+03  0.7818608E-02  0.1073920E+00
         21   -1    0    0  503  502  0.00000000000E+00  0.00000000000E+00  0.37780009604E+03  0.37780009604E+03  0.00000000000E+00 0. -1.
         21   -1    0    0  501  503 -0.00000000000E+00 -0.00000000000E+00 -0.56715432574E+03  0.56715432574E+03  0.00000000000E+00 0.  1.
          6    2    1    2  501    0  0.25232074333E+03  0.10430549988E+03 -0.43261862915E+03  0.54050090832E+03  0.17446191215E+03 0.  0.
         24    2    3    3    0    0  0.18092855562E+03  0.19548525034E+02 -0.34860547954E+03  0.40135749828E+03  0.80279349703E+02 0.  0.
         -6    2    1    2    0  502 -0.25232074333E+03 -0.10430549988E+03  0.24326439945E+03  0.40445351346E+03  0.17279954192E+03 0.  0.
        -24    2    5    5    0    0 -0.16395420567E+03 -0.94037412534E+02  0.23877063359E+03  0.31525506881E+03  0.81549533625E+02 0.  0.
          5    1    3    3  501    0  0.71392187707E+02  0.84756974846E+02 -0.84013149605E+02  0.13914341004E+03  0.47000000000E+01 0. -1.
        -11    1    4    4    0    0  0.19838980580E+02 -0.54606682229E+01 -0.11296324997E+03  0.11482203574E+03  0.00000000000E+00 0.  1.
         12    1    4    4    0    0  0.16108957504E+03  0.25009193257E+02 -0.23564222957E+03  0.28653546254E+03  0.00000000000E+00 0. -1.
         -5    1    5    5    0  502 -0.88366537661E+02 -0.10268087346E+02  0.44937658653E+01  0.89198444648E+02  0.47000000000E+01 0.  1.
         11    1    6    6    0    0 -0.22912771809E+02  0.21394613736E+01  0.75897169757E+02  0.79309222566E+02  0.00000000000E+00 0. -1.
        -12    1    6    6    0    0 -0.14104143386E+03 -0.96176873908E+02  0.16287346383E+03  0.23594584624E+03  0.00000000000E+00 0.  1.
</event>
<event>
12    1  0.8798177E-003  0.2631459E+03  0.7818608E-02  0.1105272E+00
         21   -1    0    0  503  502  0.00000000000E+00  0.00000000000E+00  0.15585112085E+04  0.15585112085E+04  0.00000000000E+00 0. -1.
         21   -1    0    0  501  503 -0.00000000000E+00 -0.00000000000E+00 -0.65934348492E+02  0.65934348492E+02  0.00000000000E+00 0.  1.
          6    2    1    2  501    0  0.14440534541E+02  0.19848051322E+03  0.28241680549E+03  0.38601170604E+03  0.17217067697E+03 0.  0.
         24    2    3    3    0    0  0.56101202246E+02  0.15547719314E+03  0.13806359695E+03  0.22966326317E+03  0.79769387408E+02 0.  0.
         -6    2    1    2    0  502 -0.14440534541E+02 -0.19848051322E+03  0.12101600545E+04  0.12384338509E+04  0.17212786663E+03 0.  0.
        -24    2    5    5    0    0  0.15122860846E+02 -0.94013669006E+02  0.92542145027E+03  0.93366266032E+03  0.79081172138E+02 0.  0.
          5    1    3    3  501    0 -0.41660667704E+02  0.43003320081E+02  0.14435320854E+03  0.15634844287E+03  0.47000000000E+01 0. -1.
        -13    1    4    4    0    0  0.94572717747E+01  0.48981320524E+02  0.95202553455E+00  0.49895050880E+02  0.00000000000E+00 0.  1.
         14    1    4    4    0    0  0.46643930471E+02  0.10649587261E+03  0.13711157142E+03  0.17976821229E+03  0.00000000000E+00 0. -1.
         -5    1    5    5    0  502 -0.29563395387E+02 -0.10446684421E+03  0.28473860421E+03  0.30477119059E+03  0.47000000000E+01 0.  1.
         13    1    6    6    0    0 -0.15999601351E+02 -0.71774814076E+02  0.38971009202E+03  0.39658740147E+03  0.00000000000E+00 0. -1.
        -14    1    6    6    0    0  0.31122462196E+02 -0.22238854930E+02  0.53571135824E+03  0.53707525885E+03  0.00000000000E+00 0.  1.
</event>
<event>
12    1  0.8798177E-003  0.1910280E+03  0.7818608E-02  0.1157916E+00
         21   -1    0    0  503  502  0.00000000000E+00  0.00000000000E+00  0.23232375063E+03  0.23232375063E+03  0.00000000000E+00 0.  1.
         21   -1    0    0  501  503 -0.00000000000E+00 -0.00000000000E+00 -0.18063760535E+03  0.18063760535E+03  0.00000000000E+00 0.  1.
          6    2    1    2  501    0 -0.22352726633E+02  0.77112493950E+02 -0.50787193039E+02  0.19766389888E+03  0.17333694596E+03 0.  0.
         24    2    3    3    0    0 -0.72504435574E+02  0.79502468014E+02 -0.26273563032E+02  0.14159328321E+03  0.88208968582E+02 0.  0.
         -6    2    1    2    0  502  0.22352726633E+02 -0.77112493950E+02  0.10247333831E+03  0.21529745710E+03  0.17148244475E+03 0.  0.
        -24    2    5    5    0    0  0.54035660515E+02 -0.61244907457E+02  0.12809471133E+03  0.17131867407E+03  0.79189909192E+02 0.  0.
          5    1    3    3  501    0  0.50151708940E+02 -0.23899740640E+01 -0.24513630006E+02  0.56070615671E+02  0.47000000000E+01 0. -1.
        -11    1    4    4    0    0  0.16983863927E+01  0.63117966630E+02 -0.11437962398E+02  0.64168444049E+02  0.00000000000E+00 0.  1.
         12    1    4    4    0    0 -0.74202821966E+02  0.16384501385E+02 -0.14835600634E+02  0.77424839164E+02  0.00000000000E+00 0. -1.
         -5    1    5    5    0  502 -0.31682933882E+02 -0.15867586493E+02 -0.25621373024E+02  0.43978783022E+02  0.47000000000E+01 0.  1.
         11    1    6    6    0    0  0.37328284771E+02  0.82615672531E+01  0.67639029576E+02  0.77696156015E+02  0.00000000000E+00 0. -1.
        -12    1    6    6    0    0  0.16707375744E+02 -0.69506474710E+02  0.60455681757E+02  0.93622518059E+02  0.00000000000E+00 0.  1.
</event>
<event>
12    1  0.8798177E-003  0.1740482E+03  0.7818608E-02  0.1174662E+00
         21   -1    0    0  501  502  0.00000000000E+00  0.00000000000E+00  0.28618111504E+03  0.28618111504E+03  0.00000000000E+00 0.  1.
         21   -1    0    0  502  503 -0.00000000000E+00 -0.00000000000E+00 -0.10358837256E+03  0.10358837256E+03  0.00000000000E+00 0.  1.
          6    2    1    2  501    0  0.73714802136E+01 -0.37353678624E+01  0.86874771572E+02  0.19113743545E+03  0.17005293764E+03 0.  0.
         24    2    3    3    0    0  0.15330930966E+02  0.22113345670E+01 -0.20561941330E+02  0.83139966009E+02  0.79053988336E+02 0.  0.
         -6    2    1    2    0  503 -0.73714802136E+01  0.37353678624E+01  0.95717970914E+02  0.19863205215E+03  0.17385186364E+03 0.  0.
        -24    2    5    5    0    0  0.20476300569E+02 -0.52193588434E+01  0.12914855001E+03  0.15396237963E+03  0.81108234970E+02 0.  0.
          5    1    3    3  501    0 -0.79594507522E+01 -0.59467024294E+01  0.10743671290E+03  0.10799746944E+03  0.47000000000E+01 0. -1.
        -11    1    4    4    0    0 -0.30991295267E+02  0.95733395105E+00 -0.19810902448E+02  0.36794683399E+02  0.00000000000E+00 0.  1.
         12    1    4    4    0    0  0.46322226233E+02  0.12540006159E+01 -0.75103888216E+00  0.46345282609E+02  0.00000000000E+00 0. -1.
         -5    1    5    5    0  503 -0.27847780783E+02  0.89547267058E+01 -0.33430579092E+02  0.44669672523E+02  0.47000000000E+01 0.  1.
         13    1    6    6    0    0 -0.14944014192E+02  0.18297280347E+02  0.70207364989E+01  0.24645583159E+02  0.00000000000E+00 0. -1.
        -14    1    6    6    0    0  0.35420314761E+02 -0.23516639190E+02  0.12212781351E+03  0.12931679647E+03  0.00000000000E+00 0.  1.
</event>
<event>
12    1  0.8798177E-003  0.2134801E+03  0.7818608E-02  0.1139159E+00
         21   -1    0    0  503  502  0.00000000000E+00  0.00000000000E+00  0.16475569991E+03  0.16475569991E+03  0.00000000000E+00 0. -1.
         21   -1    0    0  501  503 -0.00000000000E+00 -0.00000000000E+00 -0.36906975378E+03  0.36906975378E+03  0.00000000000E+00 0. -1.
          6    2    1    2  501    0 -0.18698971909E+02  0.12205248958E+03 -0.23698078055E+03  0.31786047172E+03  0.17213055326E+03 0.  0.
         24    2    3    3    0    0  0.72371949047E+01  0.11491031375E+03 -0.94815642022E+02  0.17309613896E+03  0.87837976727E+02 0.  0.
         -6    2    1    2    0  502  0.18698971909E+02 -0.12205248958E+03  0.32666726681E+02  0.21596498197E+03  0.17414734176E+03 0.  0.
        -24    2    5    5    0    0  0.65970742840E+02 -0.10164317920E+03 -0.15536299147E+02  0.14527706238E+03  0.78616623388E+02 0.  0.
          5    1    3    3  501    0 -0.25936166813E+02  0.71421758366E+01 -0.14216513853E+03  0.14476433275E+03  0.47000000000E+01 0. -1.
        -13    1    4    4    0    0 -0.29289159753E+02  0.43486864428E+02 -0.49967933849E+01  0.52668113702E+02  0.00000000000E+00 0.  1.
         14    1    4    4    0    0  0.36526354657E+02  0.71423449319E+02 -0.89818848638E+02  0.12042802526E+03  0.00000000000E+00 0. -1.
         -5    1    5    5    0  502 -0.47271770931E+02 -0.20409310385E+02  0.48203025827E+02  0.70687919592E+02  0.47000000000E+01 0.  1.
         11    1    6    6    0    0  0.50694063643E+01 -0.71660796630E+02  0.10440959128E+02  0.72594643618E+02  0.00000000000E+00 0. -1.
        -12    1    6    6    0    0  0.60901336476E+02 -0.29982382568E+02 -0.25977258275E+02  0.72682418758E+02  0.00000000000E+00 0.  1.
</event>
<event>
12    1  0.8798177E-003  0.2253485E+03  0.7818608E-02  0.1129984E+00
         21   -1    0    0  503  502  0.00000000000E+00  0.00000000000E+00  0.76345930069E+03  0.76345930069E+03  0.00000000000E+00 0. -1.
         21   -1    0    0  501  503 -0.00000000000E+00 -0.00000000000E+00 -0.66486968909E+02  0.66486968909E+02  0.00000000000E+00 0. -1.
          6    2    1    2  501    0 -0.45557493325E+02  0.13854653283E+03  0.35459053484E+03  0.42005938863E+03  0.17159491723E+03 0.  0.
         24    2    3    3    0    0  0.21890783492E+02  0.11741551361E+03  0.29030699678E+03  0.32440243235E+03  0.81811835920E+02 0.  0.
         -6    2    1    2    0  502  0.45557493325E+02 -0.13854653283E+03  0.34238179694E+03  0.40988688097E+03  0.17178862988E+03 0.  0.
        -24    2    5    5    0    0  0.68203396000E+02 -0.65072091121E+02  0.10907224252E+03  0.16419038389E+03  0.78585290004E+02 0.  0.
          5    1    3    3  501    0 -0.67448276816E+02  0.21131019220E+02  0.64283538057E+02  0.95656956276E+02  0.47000000000E+01 0. -1.
        -11    1    4    4    0    0  0.13278494075E+02 -0.10149348389E+02  0.39378712618E+02  0.42778624161E+02  0.00000000000E+00 0.  1.
         12    1    4    4    0    0  0.86122894165E+01  0.12756486200E+03  0.25092828416E+03  0.28162380819E+03  0.00000000000E+00 0. -1.
         -5    1    5    5    0  502 -0.22645902675E+02 -0.73474441714E+02  0.23330955442E+03  0.24569649708E+03  0.47000000000E+01 0.  1.
         13    1    6    6    0    0 -0.50323589072E+01  0.16481702217E+01 -0.87648091299E+01  0.10240262708E+02  0.00000000000E+00 0. -1.
        -14    1    6    6    0    0  0.73235754907E+02 -0.66720261343E+02  0.11783705165E+03  0.15395012118E+03  0.00000000000E+00 0.  1.
</event>
<event>
12    1  0.8798177E-003  0.2203595E+03  0.7818608E-02  0.1133668E+00
         21   -1    0    0  503  502  0.00000000000E+00  0.00000000000E+00  0.59460569748E+02  0.59460569748E+02  0.00000000000E+00 0.  1.
         21   -1    0    0  501  503 -0.00000000000E+00 -0.00000000000E+00 -0.10231868299E+04  0.10231868299E+04  0.00000000000E+00 0.  1.
          6    2    1    2  501    0 -0.86931465245E+02  0.10724759122E+03 -0.72593420545E+03  0.75864272377E+03  0.17175327132E+03 0.  0.
         24    2    3    3    0    0 -0.12093498400E+03  0.11302038311E+03 -0.57079934660E+03  0.59965065212E+03  0.79813113972E+02 0.  0.
         -6    2    1    2    0  502  0.86931465245E+02 -0.10724759122E+03 -0.23779205470E+03  0.32400467588E+03  0.17139090770E+03 0.  0.
        -24    2    5    5    0    0  0.37270172438E+02 -0.93493138944E+02 -0.24012253923E+03  0.27220747404E+03  0.79423184858E+02 0.  0.
          5    1    3    3  501    0  0.34003518756E+02 -0.57727918914E+01 -0.15513485886E+03  0.15899207165E+03  0.47000000000E+01 0. -1.
        -13    1    4    4    0    0 -0.11609580727E+03  0.71788699512E+02 -0.49200649742E+03  0.51059009719E+03  0.00000000000E+00 0.  1.
         14    1    4    4    0    0 -0.48391767293E+01  0.41231683598E+02 -0.78792849178E+02  0.89060554935E+02  0.00000000000E+00 0. -1.
         -5    1    5    5    0  502  0.49661292808E+02 -0.13754452274E+02  0.23304845278E+01  0.51797201844E+02  0.47000000000E+01 0.  1.
         11    1    6    6    0    0  0.41067566776E+01 -0.31627263353E+02 -0.12922698113E+02  0.34411413283E+02  0.00000000000E+00 0. -1.
        -12    1    6    6    0    0  0.33163415760E+02 -0.61865875591E+02 -0.22719984112E+03  0.23779606075E+03  0.00000000000E+00 0.  1.
</event>
<event>
12    1  0.8798177E-003  0.1887529E+03  0.7818608E-02  0.1160156E+00
         21   -1    0    0  501  502  0.00000000000E+00  0.00000000000E+00  0.32939381441E+03  0.32939381441E+03  0.00000000000E+00 0.  1.
         21   -1    0    0  502  503 -0.00000000000E+00 -0.00000000000E+00 -0.10844891845E+03  0.10844891845E+03  0.00000000000E+00 0.  1.
          6    2    1    2  501    0 -0.61639294937E+02 -0.37326400878E+02  0.13713207866E+03  0.23131849744E+03  0.17178584744E+03 0.  0.
         24    2    3    3    0    0 -0.47864998211E+02 -0.68452951652E+02  0.30984796712E+02  0.11974821073E+03  0.80016946341E+02 0.  0.
         -6    2    1    2    0  503  0.61639294937E+02  0.37326400878E+02  0.83812817299E+02  0.20652423542E+03  0.17445632287E+03 0.  0.
        -24    2    5    5    0    0  0.55675449536E+02  0.17416334955E+02 -0.19062996333E+02  0.10146472273E+03  0.80799800276E+02 0.  0.
          5    1    3    3  501    0 -0.13774296725E+02  0.31126550774E+02  0.10614728194E+03  0.11157028671E+03  0.47000000000E+01 0. -1.
        -13    1    4    4    0    0 -0.15764346888E+02 -0.76506406402E+02  0.36458651233E+02  0.86203121191E+02  0.00000000000E+00 0.  1.
         14    1    4    4    0    0 -0.32100651324E+02  0.80534547495E+01 -0.54738545205E+01  0.33545089538E+02  0.00000000000E+00 0. -1.
         -5    1    5    5    0  503  0.59638454009E+01  0.19910065923E+02  0.10287581363E+03  0.10505951269E+03  0.47000000000E+01 0.  1.
         13    1    6    6    0    0  0.28711152753E+01 -0.29082390162E+02 -0.38099245868E+01  0.29471074731E+02  0.00000000000E+00 0. -1.
        -14    1    6    6    0    0  0.52804334261E+02  0.46498725117E+02 -0.15253071746E+02  0.71993647997E+02  0.00000000000E+00 0.  1.
</event>
<event>
12    1  0.8798177E-003  0.1991556E+03  0.7818608E-02  0.1150667E+00
         21   -1    0    0  501  502  0.00000000000E+00  0.00000000000E+00  0.34412561420E+03  0.34412561420E+03  0.00000000000E+00 0. -1.
         21   -1    0    0  502  503 -0.00000000000E+00 -0.00000000000E+00 -0.11517002104E+03  0.11517002104E+03  0.00000000000E+00 0. -1.
          6    2    1    2  501    0  0.45688911172E+02 -0.84055077140E+02  0.12981263347E+03  0.23772727806E+03  0.17467171015E+03 0.  0.
         24    2    3    3    0    0 -0.57880790348E+01 -0.10914237982E+03  0.11985370008E+03  0.17941326919E+03  0.76672360122E+02 0.  0.
         -6    2    1    2    0  503 -0.45688911172E+02  0.84055077140E+02  0.99142959693E+02  0.22156835719E+03  0.17352370977E+03 0.  0.
        -24    2    5    5    0    0 -0.23022785201E+02  0.12014522854E+03  0.45091746397E+02  0.15257650293E+03  0.79255277902E+02 0.  0.
          5    1    3    3  501    0  0.51476990206E+02  0.25087302678E+02  0.99589333900E+01  0.58314008871E+02  0.47000000000E+01 0. -1.
        -11    1    4    4    0    0  0.28870444467E+02 -0.14536100734E+02  0.35479003293E+02  0.47995421270E+02  0.00000000000E+00 0.  1.
         12    1    4    4    0    0 -0.34658523502E+02 -0.94606279083E+02  0.84374696784E+02  0.13141784792E+03  0.00000000000E+00 0. -1.
         -5    1    5    5    0  503 -0.22666125970E+02 -0.36090151400E+02  0.54051213296E+02  0.68991854254E+02  0.47000000000E+01 0.  1.
         11    1    6    6    0    0 -0.28014987528E+02  0.29159827829E+02  0.46266180619E+02  0.61446680580E+02  0.00000000000E+00 0. -1.
        -12    1    6    6    0    0  0.49922023264E+01  0.90985400711E+02 -0.11744342226E+01  0.91129822355E+02  0.00000000000E+00 0.  1.
</event>
<event>
12    1  0.8798177E-003  0.1779753E+03  0.7818608E-02  0.1170723E+00
         21   -1    0    0  501  502  0.00000000000E+00  0.00000000000E+00  0.15489605310E+03  0.15489605310E+03  0.00000000000E+00 0. -1.
         21   -1    0    0  502  503 -0.00000000000E+00 -0.00000000000E+00 -0.22448840050E+03  0.22448840050E+03  0.00000000000E+00 0. -1.
          6    2    1    2  501    0  0.15585731961E+01  0.26255248799E+02  0.27335701915E+02  0.18006235231E+03  0.17602114328E+03 0.  0.
         24    2    3    3    0    0  0.47849930865E+02  0.17580301444E+02 -0.35918628595E+02  0.10106016984E+03  0.79525638418E+02 0.  0.
         -6    2    1    2    0  503 -0.15585731961E+01 -0.26255248799E+02 -0.96928049312E+02  0.19932210129E+03  0.17216993373E+03 0.  0.
        -24    2    5    5    0    0  0.35571206423E+02  0.23616483078E+02 -0.88500445985E+01  0.91407157521E+02  0.80336144775E+02 0.  0.
          5    1    3    3  501    0 -0.46291357669E+02  0.86749473546E+01  0.63254330510E+02  0.79002182468E+02  0.47000000000E+01 0. -1.
        -11    1    4    4    0    0  0.33160410844E+01  0.15746457590E+02 -0.51412773849E+02  0.53872259744E+02  0.00000000000E+00 0.  1.
         12    1    4    4    0    0  0.44533889781E+02  0.18338438545E+01  0.15494145254E+02  0.47187910098E+02  0.00000000000E+00 0. -1.
         -5    1    5    5    0  503 -0.37129779619E+02 -0.49871731877E+02 -0.88078004714E+02  0.10791494377E+03  0.47000000000E+01 0.  1.
         13    1    6    6    0    0  0.54939718366E+02 -0.27409535468E+01 -0.17227721061E+02  0.57642691240E+02  0.00000000000E+00 0. -1.
        -14    1    6    6    0    0 -0.19368511943E+02  0.26357436625E+02  0.83776764621E+01  0.33764466281E+02  0.00000000000E+00 0.  1.
</event>
<event>
12    1  0.8798177E-003  0.1985735E+03  0.7818608E-02  0.1151597E+00
         21   -1    0    0  501  502  0.00000000000E+00  0.00000000000E+00  0.76364546209E+03  0.76364546209E+03  0.00000000000E+00 0.  1.
         21   -1    0    0  502  503 -0.00000000000E+00 -0.00000000000E+00 -0.68552952534E+02  0.68552952534E+02  0.00000000000E+00 0. -1.
          6    2    1    2  501    0  0.81583537506E+02 -0.46081694030E+02  0.56094855244E+03  0.59505857194E+03  0.17507720993E+03 0.  0.
         24    2    3    3    0    0  0.47266811297E+02 -0.37780732099E+02  0.54880143768E+03  0.55742632428E+03  0.76678248803E+02 0.  0.
         -6    2    1    2    0  503 -0.81583537506E+02  0.46081694030E+02  0.13414395712E+03  0.23713984269E+03  0.17164296560E+03 0.  0.
        -24    2    5    5    0    0  0.15546862298E+02  0.18700726223E+02  0.18988701424E+02  0.83950891133E+02  0.78075343430E+02 0.  0.
          5    1    3    3  501    0  0.34316726209E+02 -0.83009619308E+01  0.12147114767E+02  0.37632247659E+02  0.47000000000E+01 0. -1.
        -11    1    4    4    0    0  0.16666543231E+02 -0.40748361764E+02  0.12527767556E+03  0.13278817207E+03  0.00000000000E+00 0.  1.
         12    1    4    4    0    0  0.30600268066E+02  0.29676296652E+01  0.42352376212E+03  0.42463815221E+03  0.00000000000E+00 0. -1.
         -5    1    5    5    0  503 -0.97130399804E+02  0.27380967807E+02  0.11515525569E+03  0.15318895155E+03  0.47000000000E+01 0.  1.
         13    1    6    6    0    0  0.18861901459E+02 -0.26539702774E+02 -0.44991027057E+01  0.32868968270E+02  0.00000000000E+00 0. -1.
        -14    1    6    6    0    0 -0.33150391613E+01  0.45240428997E+02  0.23487804129E+02  0.51081922862E+02  0.00000000000E+00 0.  1.
</event>
<event>
12    1  0.8798177E-003  0.1979174E+03  0.7818608E-02  0.1151588E+00
         21   -1    0    0  503  502  0.00000000000E+00  0.00000000000E+00  0.21589226218E+03  0.21589226218E+03  0.00000000000E+00 0. -1.
         21   -1    0    0  501  503 -0.00000000000E+00 -0.00000000000E+00 -0.18124955609E+03  0.18124955609E+03  0.00000000000E+00 0. -1.
          6    2    1    2  501    0  0.25264373384E+02 -0.93072521534E+02  0.11578551174E+02  0.19825583173E+03  0.17283092645E+03 0.  0.
         24    2    3    3    0    0  0.43160742051E+02 -0.48860011691E+02 -0.53413222923E+02  0.11750283340E+03  0.81876694351E+02 0.  0.
         -6    2    1    2    0  502 -0.25264373384E+02  0.93072521534E+02  0.23064154909E+02  0.19888598654E+03  0.17240329920E+03 0.  0.
        -24    2    5    5    0    0 -0.47021724567E+01  0.13141197389E+03  0.15760321553E+02  0.15452210827E+03  0.79608271572E+02 0.  0.
          5    1    3    3  501    0 -0.17896368667E+02 -0.44212509843E+02  0.64991774097E+02  0.80752998324E+02  0.47000000000E+01 0. -1.
        -13    1    4    4    0    0 -0.98057165939E+01  0.15493299931E+02 -0.21494631040E+02  0.28252673930E+02  0.00000000000E+00 0.  1.
         14    1    4    4    0    0  0.52966458645E+02 -0.64353311622E+02 -0.31918591883E+02  0.89250159473E+02  0.00000000000E+00 0. -1.
         -5    1    5    5    0  502 -0.20562200927E+02 -0.38339452352E+02  0.73038333556E+01  0.44363878272E+02  0.47000000000E+01 0.  1.
         13    1    6    6    0    0 -0.21931099878E+02  0.40016197539E+02 -0.26057621747E+02  0.52547776913E+02  0.00000000000E+00 0. -1.
        -14    1    6    6    0    0  0.17228927421E+02  0.91395776346E+02  0.41817943300E+02  0.10197433136E+03  0.00000000000E+00 0.  1.
</event>
<event>
12    1  0.8798177E-003  0.3097265E+03  0.7818608E-02  0.1080669E+00
         21   -1    0    0  501  502  0.00000000000E+00  0.00000000000E+00  0.46968610380E+03  0.46968610380E+03  0.00000000000E+00 0. -1.
         21   -1    0    0  502  503 -0.00000000000E+00 -0.00000000000E+00 -0.24605292536E+03  0.24605292536E+03  0.00000000000E+00 0. -1.
          6    2    1    2  501    0 -0.18484566043E+03 -0.17574466941E+03  0.26141306278E+03  0.40529903851E+03  0.17571685811E+03 0.  0.
         24    2    3    3    0    0 -0.21098370774E+02 -0.36393933732E+02  0.48240755659E+02  0.10248502806E+03  0.80039682711E+02 0.  0.
         -6    2    1    2    0  503  0.18484566043E+03  0.17574466941E+03 -0.37779884338E+02  0.31043999065E+03  0.17289176131E+03 0.  0.
        -24    2    5    5    0    0  0.17262594879E+03  0.72242080517E+02 -0.18167712024E+02  0.20428522362E+03  0.79898375700E+02 0.  0.
          5    1    3    3  501    0 -0.16374728966E+03 -0.13935073567E+03  0.21317230712E+03  0.30281401045E+03  0.47000000000E+01 0. -1.
        -11    1    4    4    0    0 -0.45681873198E+02 -0.21086807949E+02  0.51632634335E+01  0.50578120741E+02  0.00000000000E+00 0.  1.
         12    1    4    4    0    0  0.24583502424E+02 -0.15307125783E+02  0.43077492226E+02  0.51906907321E+02  0.00000000000E+00 0. -1.
         -5    1    5    5    0  503  0.12219711645E+02  0.10350258889E+03 -0.19612172315E+02  0.10615476703E+03  0.47000000000E+01 0.  1.
         13    1    6    6    0    0  0.17627814774E+03  0.72025079172E+02 -0.29210484392E+02  0.19265214714E+03  0.00000000000E+00 0. -1.
        -14    1    6    6    0    0 -0.36521989562E+01  0.21700134423E+00  0.11042772368E+02  0.11633076479E+02  0.00000000000E+00 0.  1.
</event>
<event>
12    1  0.8798177E-003  0.1777678E+03  0.7818608E-02  0.1170175E+00
         21   -1    0    0  503  502  0.00000000000E+00  0.00000000000E+00  0.30319915497E+03  0.30319915497E+03  0.00000000000E+00 0.  1.
         21   -1    0    0  501  503 -0.00000000000E+00 -0.00000000000E+00 -0.12100058560E+03  0.12100058560E+03  0.00000000000E+00 0.  1.
          6    2    1    2  501    0  0.34650828729E+02 -0.25975265386E+02  0.10878228651E+02  0.17731506908E+03  0.17160100093E+03 0.  0.
         24    2    3    3    0    0 -0.24079231290E+02 -0.19423057820E+02 -0.44460462685E+02  0.96218755151E+02  0.79525162974E+02 0.  0.
         -6    2    1    2    0  502 -0.34650828729E+02  0.25975265386E+02  0.17132034072E+03  0.24688467149E+03  0.17241226037E+03 0.  0.
        -24    2    5    5    0    0  0.31572848415E+02  0.50672592066E+02  0.11987303937E+03  0.15933783730E+03  0.86339124874E+02 0.  0.
          5    1    3    3  501    0  0.58730060019E+02 -0.65522075663E+01  0.55338691336E+02  0.81096313927E+02  0.47000000000E+01 0. -1.
        -13    1    4    4    0    0 -0.88996476302E+01 -0.49499948147E+02 -0.18136777720E+02  0.53463925226E+02  0.00000000000E+00 0.  1.
         14    1    4    4    0    0 -0.15179583659E+02  0.30076890327E+02 -0.26323684965E+02  0.42754829926E+02  0.00000000000E+00 0. -1.
         -5    1    5    5    0  502 -0.66223677145E+02 -0.24697326680E+02  0.51447301352E+02  0.87546834187E+02  0.47000000000E+01 0.  1.
         11    1    6    6    0    0  0.44530553918E+02  0.22667682299E+02  0.18353066159E+02  0.53231842824E+02  0.00000000000E+00 0. -1.
        -12    1    6    6    0    0 -0.12957705502E+02  0.28004909767E+02  0.10151997321E+03  0.10610599448E+03  0.00000000000E+00 0.  1.
</event>
<event>
12    1  0.8798177E-003  0.3014466E+03  0.7818608E-02  0.1084982E+00
         21   -1    0    0  501  502  0.00000000000E+00  0.00000000000E+00  0.21024495891E+03  0.21024495891E+03  0.00000000000E+00 0.  1.
         21   -1    0    0  502  503 -0.00000000000E+00 -0.00000000000E+00 -0.57141385673E+03  0.57141385673E+03  0.00000000000E+00 0. -1.
          6    2    1    2  501    0  0.17084846385E+03 -0.17334783715E+03  0.16778323369E+02  0.29821888199E+03  0.17150603253E+03 0.  0.
         24    2    3    3    0    0  0.13239493924E+03 -0.10992323385E+03  0.69539710009E+02  0.20707499695E+03  0.91829983225E+02 0.  0.
         -6    2    1    2    0  503 -0.17084846385E+03  0.17334783715E+03 -0.37794722119E+03  0.48343993366E+03  0.17785217796E+03 0.  0.
        -24    2    5    5    0    0 -0.14406520665E+03  0.10526565390E+03 -0.35794495492E+03  0.40744843941E+03  0.77807444160E+02 0.  0.
          5    1    3    3  501    0  0.38453524608E+02 -0.63424603305E+02 -0.52761386640E+02  0.91143885036E+02  0.47000000000E+01 0. -1.
        -11    1    4    4    0    0  0.12854736189E+03 -0.11672167454E+03  0.42263856462E+02  0.17870256607E+03  0.00000000000E+00 0.  1.
         12    1    4    4    0    0  0.38475773469E+01  0.67984406959E+01  0.27275853548E+02  0.28372430881E+02  0.00000000000E+00 0. -1.
         -5    1    5    5    0  503 -0.26783257200E+02  0.68082183249E+02 -0.20002266268E+02  0.75991494248E+02  0.47000000000E+01 0.  1.
         13    1    6    6    0    0 -0.34790046196E+02  0.59806254900E+01 -0.25061631528E+02  0.43292038187E+02  0.00000000000E+00 0. -1.
        -14    1    6    6    0    0 -0.10927516045E+03  0.99285028415E+02 -0.33288332339E+03  0.36415640122E+03  0.00000000000E+00 0.  1.
</event>
<event>
12    1  0.8798177E-003  0.1791131E+03  0.7818608E-02  0.1168853E+00
         21   -1    0    0  501  502  0.00000000000E+00  0.00000000000E+00  0.11147326971E+03  0.11147326971E+03  0.00000000000E+00 0.  1.
         21   -1    0    0  502  503 -0.00000000000E+00 -0.00000000000E+00 -0.29823418860E+03  0.29823418860E+03  0.00000000000E+00 0.  1.
          6    2    1    2  501    0  0.17079859080E+02  0.49048812760E+02 -0.53038350169E+02  0.18680089309E+03  0.17141761710E+03 0.  0.
         24    2    3    3    0    0  0.73037612358E+02  0.31107336722E+02 -0.30731975398E+02  0.12377049511E+03  0.89847214373E+02 0.  0.
         -6    2    1    2    0  503 -0.17079859080E+02 -0.49048812760E+02 -0.13372256872E+03  0.22290656521E+03  0.17061097213E+03 0.  0.
        -24    2    5    5    0    0 -0.30272662238E+02 -0.10410470729E+02 -0.23671077278E+01  0.85271836081E+02  0.78999182590E+02 0.  0.
          5    1    3    3  501    0 -0.55957753278E+02  0.17941476038E+02 -0.22306374771E+02  0.63030397982E+02  0.47000000000E+01 0. -1.
        -13    1    4    4    0    0  0.58571580430E+02 -0.23107640239E+02 -0.90348477834E+01  0.63609917042E+02  0.00000000000E+00 0.  1.
         14    1    4    4    0    0  0.14466031928E+02  0.54214976961E+02 -0.21697127614E+02  0.60160578067E+02  0.00000000000E+00 0. -1.
         -5    1    5    5    0  503  0.13192803157E+02 -0.38638342031E+02 -0.13135546099E+03  0.13763472913E+03  0.47000000000E+01 0.  1.
         13    1    6    6    0    0 -0.43270852792E+01  0.33501324221E+02 -0.52555477257E+01  0.34186008446E+02  0.00000000000E+00 0. -1.
        -14    1    6    6    0    0 -0.25945576958E+02 -0.43911794951E+02  0.28884399980E+01  0.51085827635E+02  0.00000000000E+00 0.  1.
</event>
<event>
12    1  0.8798177E-003  0.1799774E+03  0.7818608E-02  0.1168406E+00
         21   -1    0    0  501  502  0.00000000000E+00  0.00000000000E+00  0.19967453569E+03  0.19967453569E+03  0.00000000000E+00 0. -1.
         21   -1    0    0  502  503 -0.00000000000E+00 -0.00000000000E+00 -0.16637394867E+03  0.16637394867E+03  0.00000000000E+00 0. -1.
          6    2    1    2  501    0  0.40878452576E+02 -0.20300435079E+02 -0.18834969695E+02  0.18096028812E+03  0.17409398107E+03 0.  0.
         24    2    3    3    0    0 -0.46394238160E+02 -0.88786479600E+01  0.12428371905E+02  0.87437743792E+02  0.72523367871E+02 0.  0.
         -6    2    1    2    0  503 -0.40878452576E+02  0.20300435079E+02  0.52135556715E+02  0.18508819623E+03  0.17162857735E+03 0.  0.
        -24    2    5    5    0    0 -0.52319112619E+02 -0.42793204756E+01 -0.27585467312E+02  0.10075205477E+03  0.81451926954E+02 0.  0.
          5    1    3    3  501    0  0.87272690736E+02 -0.11421787119E+02 -0.31263341600E+02  0.93522544326E+02  0.47000000000E+01 0. -1.
        -13    1    4    4    0    0  0.66545670820E+01 -0.13396770836E+02  0.28189929045E+02  0.31912831768E+02  0.00000000000E+00 0.  1.
         14    1    4    4    0    0 -0.53048805241E+02  0.45181228759E+01 -0.15761557140E+02  0.55524912025E+02  0.00000000000E+00 0. -1.
         -5    1    5    5    0  503  0.11440660043E+02  0.24579755554E+02  0.79721024027E+02  0.84336141465E+02  0.47000000000E+01 0.  1.
         11    1    6    6    0    0 -0.83968099737E+01 -0.28932123058E+02  0.16029253413E+02  0.34124934100E+02  0.00000000000E+00 0. -1.
        -12    1    6    6    0    0 -0.43922302645E+02  0.24652802582E+02 -0.43614720725E+02  0.66627120670E+02  0.00000000000E+00 0.  1.
</event>
<event>
12    1  0.8798177E-003  0.2268014E+03  0.7818608E-02  0.1129006E+00
         21   -1    0    0  503  502  0.00000000000E+00  0.00000000000E+00  0.16550659063E+04  0.16550659063E+04  0.00000000000E+00 0.  1.
         21   -1    0    0  501  503 -0.00000000000E+00 -0.00000000000E+00 -0.31428802779E+02  0.31428802779E+02  0.00000000000E+00 0. -1.
          6    2    1    2  501    0  0.94636310697E+02  0.11208129116E+03  0.71325540423E+03  0.74828699494E+03  0.17228438120E+03 0.  0.
         24    2    3    3    0    0 -0.50973266312E+01  0.96622584218E+02  0.39958794694E+03  0.41874923717E+03  0.79488928596E+02 0.  0.
         -6    2    1    2    0  502 -0.94636310697E+02 -0.11208129116E+03  0.91038169930E+03  0.93820771415E+03  0.17297580564E+03 0.  0.
        -24    2    5    5    0    0 -0.96172941079E+02 -0.30562791678E+02  0.37603495868E+03  0.39765599950E+03  0.80899227213E+02 0.  0.
          5    1    3    3  501    0  0.99733637328E+02  0.15458706940E+02  0.31366745729E+03  0.32953775777E+03  0.47000000000E+01 0. -1.
        -13    1    4    4    0    0  0.14611301420E+02  0.11870894719E+02  0.20169048705E+03  0.20256717611E+03  0.00000000000E+00 0.  1.
         14    1    4    4    0    0 -0.19708628051E+02  0.84751689499E+02  0.19789745989E+03  0.21618206106E+03  0.00000000000E+00 0. -1.
         -5    1    5    5    0  502  0.15366303818E+01 -0.81518499480E+02  0.53434674062E+03  0.54055171464E+03  0.47000000000E+01 0.  1.
         13    1    6    6    0    0 -0.65762349146E+02  0.16218903980E+02  0.26324488480E+03  0.27181907362E+03  0.00000000000E+00 0. -1.
        -14    1    6    6    0    0 -0.30410591933E+02 -0.46781695657E+02  0.11279007388E+03  0.12583692588E+03  0.00000000000E+00 0.  1.
</event>
<event>
12    1  0.8798177E-003  0.1991857E+03  0.7818608E-02  0.1151077E+00
         21   -1    0    0  503  502  0.00000000000E+00  0.00000000000E+00  0.68528924160E+02  0.68528924160E+02  0.00000000000E+00 0.  1.
         21   -1    0    0  501  503 -0.00000000000E+00 -0.00000000000E+00 -0.60398897744E+03  0.60398897744E+03  0.00000000000E+00 0.  1.
          6    2    1    2  501    0 -0.48542007753E+02  0.83957945099E+02 -0.34536214560E+03  0.39717779050E+03  0.17049903985E+03 0.  0.
         24    2    3    3    0    0  0.15975356200E+00  0.11051364438E+03 -0.28032934438E+03  0.31157158772E+03  0.79240279138E+02 0.  0.
         -6    2    1    2    0  502  0.48542007753E+02 -0.83957945099E+02 -0.19009790768E+03  0.27534011110E+03  0.17398189335E+03 0.  0.
        -24    2    5    5    0    0  0.64248380149E+02 -0.11973748229E+03 -0.14986663753E+03  0.21905947044E+03  0.84036441659E+02 0.  0.
          5    1    3    3  501    0 -0.48701761315E+02 -0.26555699285E+02 -0.65032801219E+02  0.85606202778E+02  0.47000000000E+01 0. -1.
        -11    1    4    4    0    0 -0.24492137820E+02  0.10639206874E+03 -0.24570896653E+03  0.26887177862E+03  0.00000000000E+00 0.  1.
         12    1    4    4    0    0  0.24651891382E+02  0.41215756394E+01 -0.34620377847E+02  0.42699809094E+02  0.00000000000E+00 0. -1.
         -5    1    5    5    0  502 -0.15706372396E+02  0.35779537193E+02 -0.40231270147E+02  0.56280640661E+02  0.47000000000E+01 0.  1.
         13    1    6    6    0    0  0.63905122871E+02 -0.45086900797E+02 -0.44671896497E+02  0.90068150249E+02  0.00000000000E+00 0. -1.
        -14    1    6    6    0    0  0.34325727773E+00 -0.74650581495E+02 -0.10519474103E+03  0.12899132019E+03  0.00000000000E+00 0.  1.
</event>
<event>
12    1  0.8798177E-003  0.1808733E+03  0.7818608E-02  0.1167275E+00
         21   -1    0    0  501  502  0.00000000000E+00  0.00000000000E+00  0.24929150555E+02  0.24929150555E+02  0.00000000000E+00 0. -1.
         21   -1    0    0  502  503 -0.00000000000E+00 -0.00000000000E+00 -0.16988467111E+04  0.16988467111E+04  0.00000000000E+00 0. -1.
          6    2    1    2  501    0  0.49487850593E+02 -0.26692980504E+02 -0.41853982522E+03  0.45543505219E+03  0.17054013870E+03 0.  0.
         24    2    3    3    0    0 -0.29744046962E+01 -0.81842428386E+01 -0.37727878582E+03  0.38601297377E+03  0.81184387522E+02 0.  0.
         -6    2    1    2    0  503 -0.49487850593E+02  0.26692980504E+02 -0.12553777353E+04  0.12683408094E+04  0.17191157038E+03 0.  0.
        -24    2    5    5    0    0 -0.95607132561E+02  0.17050228863E+02 -0.10561767390E+04  0.10635895024E+04  0.79258383744E+02 0.  0.
          5    1    3    3  501    0  0.52462255289E+02 -0.18508737665E+02 -0.41261039403E+02  0.69422078423E+02  0.47000000000E+01 0. -1.
        -13    1    4    4    0    0  0.21243275918E+02 -0.37153740157E+02 -0.16870909653E+03  0.17405297019E+03  0.00000000000E+00 0.  1.
         14    1    4    4    0    0 -0.24217680614E+02  0.28969497318E+02 -0.20856968929E+03  0.21196000358E+03  0.00000000000E+00 0. -1.
         -5    1    5    5    0  503  0.46119281968E+02  0.96427516408E+01 -0.19920099626E+03  0.20475130705E+03  0.47000000000E+01 0.  1.
         13    1    6    6    0    0  0.32518009589E+01  0.20538875623E+02 -0.33707795987E+03  0.33771877451E+03  0.00000000000E+00 0. -1.
        -14    1    6    6    0    0 -0.98858933520E+02 -0.34886467600E+01 -0.71909877916E+03  0.72587072787E+03  0.00000000000E+00 0.  1.
</event>
<event>
12    1  0.8798177E-003  0.2065268E+03  0.7818608E-02  0.1144347E+00
         21   -1    0    0  503  502  0.00000000000E+00  0.00000000000E+00  0.20032231655E+03  0.20032231655E+03  0.00000000000E+00 0. -1.
         21   -1    0    0  501  503 -0.00000000000E+00 -0.00000000000E+00 -0.26467996049E+03  0.26467996049E+03  0.00000000000E+00 0. -1.
          6    2    1    2  501    0 -0.85682256209E+02 -0.80309408625E+02 -0.13499569549E+03  0.24673297934E+03  0.16988900833E+03 0.  0.
         24    2    3    3    0    0 -0.31048531642E+02  0.12791928202E+02 -0.21452856957E+02  0.89995080416E+02  0.80692283913E+02 0.  0.
         -6    2    1    2    0  502  0.85682256209E+02  0.80309408625E+02  0.70638051549E+02  0.21826929770E+03  0.16988437789E+03 0.  0.
        -24    2    5    5    0    0 -0.44657401129E+01  0.25193653851E+02  0.76782884592E+02  0.11232470540E+03  0.77888157299E+02 0.  0.
          5    1    3    3  501    0 -0.54633724566E+02 -0.93101336827E+02 -0.11354283853E+03  0.15673789893E+03  0.47000000000E+01 0. -1.
        -11    1    4    4    0    0 -0.78578357098E+01 -0.14945329519E+02  0.25593160938E+02  0.30661349339E+02  0.00000000000E+00 0.  1.
         12    1    4    4    0    0 -0.23190695932E+02  0.27737257721E+02 -0.47046017895E+02  0.59333731077E+02  0.00000000000E+00 0. -1.
         -5    1    5    5    0  502  0.90147996322E+02  0.55115754774E+02 -0.61448330438E+01  0.10594459230E+03  0.47000000000E+01 0.  1.
         13    1    6    6    0    0 -0.80286372101E+01  0.53161190398E+02  0.51692637944E+02  0.74583510226E+02  0.00000000000E+00 0. -1.
        -14    1    6    6    0    0  0.35628970972E+01 -0.27967536547E+02  0.25090246648E+02  0.37741195173E+02  0.00000000000E+00 0.  1.
</event>
<event>
12    1  0.8798177E-003  0.1789778E+03  0.7818608E-02  0.1169151E+00
         21   -1    0    0  501  502  0.00000000000E+00  0.00000000000E+00  0.92628079875E+02  0.92628079875E+02  0.00000000000E+00 0.  1.
         21   -1    0    0  502  503 -0.00000000000E+00 -0.00000000000E+00 -0.35120292069E+03  0.35120292069E+03  0.00000000000E+00 0.  1.
          6    2    1    2  501    0 -0.32829536263E+02  0.34220604780E+02 -0.16262609177E+03  0.24075656034E+03  0.17107789857E+03 0.  0.
         24    2    3    3    0    0  0.40601445839E+02  0.41909980887E+02 -0.61534279199E+02  0.11548533377E+03  0.78393053885E+02 0.  0.
         -6    2    1    2    0  503  0.32829536263E+02 -0.34220604780E+02 -0.95948749040E+02  0.20307444022E+03  0.17258110437E+03 0.  0.
        -24    2    5    5    0    0  0.44883414898E+02 -0.28497394870E+02  0.91779553827E+01  0.97000102586E+02  0.80611181541E+02 0.  0.
          5    1    3    3  501    0 -0.73430982102E+02 -0.76893761071E+01 -0.10109181257E+03  0.12527122657E+03  0.47000000000E+01 0. -1.
        -11    1    4    4    0    0  0.59882418252E+01  0.71664685425E+01 -0.65612092412E+02  0.66273403279E+02  0.00000000000E+00 0.  1.
         12    1    4    4    0    0  0.34613204014E+02  0.34743512345E+02  0.40778132126E+01  0.49211930492E+02  0.00000000000E+00 0. -1.
         -5    1    5    5    0  503 -0.12053878635E+02 -0.57232099102E+01 -0.10512670442E+03  0.10607433763E+03  0.47000000000E+01 0.  1.
         13    1    6    6    0    0  0.47204396390E+02 -0.33855840280E+02 -0.24335530427E+02  0.62981671943E+02  0.00000000000E+00 0. -1.
        -14    1    6    6    0    0 -0.23209814916E+01  0.53584454099E+01  0.33513485810E+02  0.34018430643E+02  0.00000000000E+00 0.  1.
</event>
<event>
12    1  0.8798177E-003  0.2164059E+03  0.7818608E-02  0.1137106E+00
         21   -1    0    0  503  502  0.00000000000E+00  0.00000000000E+00  0.12368225139E+04  0.12368225139E+04  0.00000000000E+00 0.  1.
         21   -1    0    0  501  503 -0.00000000000E+00 -0.00000000000E+00 -0.38258419186E+02  0.38258419186E+02  0.00000000000E+00 0.  1.
          6    2    1    2  501    0  0.11920768540E+03  0.57784480176E+02  0.49988982068E+03  0.54365953604E+03  0.16770909307E+03 0.  0.
         24    2    3    3    0    0  0.12395230279E+03  0.78604114219E+02  0.49355150884E+03  0.52089480997E+03  0.78711695718E+02 0.  0.
         -6    2    1    2    0  502 -0.11920768540E+03 -0.57784480176E+02  0.69867427408E+03  0.73142139709E+03  0.17111984239E+03 0.  0.
        -24    2    5    5    0    0 -0.42103189372E+02 -0.84832013491E+01  0.15181633018E+03  0.17693837642E+03  0.80089622815E+02 0.  0.
          5    1    3    3  501    0 -0.47446173883E+01 -0.20819634042E+02  0.63383118416E+01  0.22764726065E+02  0.47000000000E+01 0. -1.
        -11    1    4    4    0    0  0.54319808717E+02  0.38397026771E+02  0.35083886064E+03  0.35708945576E+03  0.00000000000E+00 0.  1.
         12    1    4    4    0    0  0.69632494071E+02  0.40207087448E+02  0.14271264820E+03  0.16380535421E+03  0.00000000000E+00 0. -1.
         -5    1    5    5    0  502 -0.77104496027E+02 -0.49301278827E+02  0.54685794390E+03  0.55448302067E+03  0.47000000000E+01 0.  1.
         11    1    6    6    0    0  0.21146629986E+02 -0.12795404800E+02  0.24982791092E+02  0.35143167110E+02  0.00000000000E+00 0. -1.
        -12    1    6    6    0    0 -0.63249819359E+02  0.43122034510E+01  0.12683353908E+03  0.14179520931E+03  0.00000000000E+00 0.  1.
</event>
<event>
12    1  0.8798177E-003  0.2379809E+03  0.7818608E-02  0.1121484E+00
         21   -1    0    0  503  502  0.00000000000E+00  0.00000000000E+00  0.55388055536E+02  0.55388055536E+02  0.00000000000E+00 0.  1.
         21   -1    0    0  501  503 -0.00000000000E+00 -0.00000000000E+00 -0.15918982570E+04  0.15918982570E+04  0.00000000000E+00 0.  1.
          6    2    1    2  501    0  0.69618740457E+02 -0.14855755365E+03 -0.26990369460E+03  0.35851675732E+03  0.16961764399E+03 0.  0.
         24    2    3    3    0    0  0.89776565001E+02 -0.16914055991E+03 -0.24081679523E+03  0.31730831459E+03  0.77611062453E+02 0.  0.
         -6    2    1    2    0  502 -0.69618740457E+02  0.14855755365E+03 -0.12666065068E+04  0.12887695552E+04  0.17239143668E+03 0.  0.
        -24    2    5    5    0    0 -0.34102788686E+02  0.14647156228E+02 -0.28768289845E+03  0.30008006984E+03  0.76870403114E+02 0.  0.
          5    1    3    3  501    0 -0.20157824544E+02  0.20583006263E+02 -0.29086899368E+02  0.41208442727E+02  0.47000000000E+01 0. -1.
        -11    1    4    4    0    0  0.57928948263E+02 -0.10931697176E+03 -0.93255115687E+02  0.15492733769E+03  0.00000000000E+00 0.  1.
         12    1    4    4    0    0  0.31847616738E+02 -0.59823588151E+02 -0.14756167954E+03  0.16238097690E+03  0.00000000000E+00 0. -1.
         -5    1    5    5    0  502 -0.35515951772E+02  0.13391039742E+03 -0.97892360838E+03  0.98868948533E+03  0.47000000000E+01 0.  1.
         13    1    6    6    0    0 -0.47447424428E+02  0.35746301064E+02 -0.18034858192E+03  0.18988066549E+03  0.00000000000E+00 0. -1.
        -14    1    6    6    0    0  0.13344635742E+02 -0.21099144836E+02 -0.10733431653E+03  0.11019940436E+03  0.00000000000E+00 0.  1.
</event>
<event>
12    1  0.8798177E-003  0.1982199E+03  0.7818608E-02  0.1151251E+00
         21   -1    0    0  503  502  0.00000000000E+00  0.00000000000E+00  0.29788783646E+03  0.29788783646E+03  0.00000000000E+00 0. -1.
         21   -1    0    0  501  503 -0.00000000000E+00 -0.00000000000E+00 -0.13846417450E+03  0.13846417450E+03  0.00000000000E+00 0.  1.
          6    2    1    2  501    0 -0.37568420825E+02  0.90783112633E+02  0.12723962969E+03  0.23554415620E+03  0.17215738839E+03 0.  0.
         24    2    3    3    0    0 -0.11231353750E+02 -0.13587623702E+02  0.24682668892E+02  0.86792981711E+02  0.81320481466E+02 0.  0.
         -6    2    1    2    0  502  0.37568420825E+02 -0.90783112633E+02  0.32184032276E+02  0.20080785476E+03  0.17214825825E+03 0.  0.
        -24    2    5    5    0    0 -0.28857952872E+02 -0.80574674159E+02 -0.15501250312E+02  0.11826906683E+03  0.80138778672E+02 0.  0.
          5    1    3    3  501    0 -0.26337067075E+02  0.10437073634E+03  0.10255696079E+03  0.14875117449E+03  0.47000000000E+01 0. -1.
        -11    1    4    4    0    0 -0.17882460823E+02 -0.41655690530E+01 -0.27657364946E+02  0.33197352400E+02  0.00000000000E+00 0.  1.
         12    1    4    4    0    0  0.66511070730E+01 -0.94220546491E+01  0.52340033838E+02  0.53595629311E+02  0.00000000000E+00 0. -1.
         -5    1    5    5    0  502  0.66426373697E+02 -0.10208438474E+02  0.47685282588E+02  0.82538787937E+02  0.47000000000E+01 0.  1.
         11    1    6    6    0    0 -0.60528265132E+01  0.13878298672E+02  0.95801430532E+01  0.17917115386E+02  0.00000000000E+00 0. -1.
        -12    1    6    6    0    0 -0.22805126359E+02 -0.94452972831E+02 -0.25081393365E+02  0.10035195144E+03  0.00000000000E+00 0.  1.
</event>
<event>
12    1  0.8798177E-003  0.2708638E+03  0.7818608E-02  0.1101582E+00
         21   -1    0    0  503  502  0.00000000000E+00  0.00000000000E+00  0.45705789040E+03  0.45705789040E+03  0.00000000000E+00 0. -1.
         21   -1    0    0  501  503 -0.00000000000E+00 -0.00000000000E+00 -0.15936405509E+03  0.15936405509E+03  0.00000000000E+00 0. -1.
          6    2    1    2  501    0  0.12359747263E+03 -0.15979889296E+03  0.11497812022E+03  0.29425695744E+03  0.18043050586E+03 0.  0.
         24    2    3    3    0    0  0.20390487428E+02 -0.11338847595E+03  0.12449751016E+02  0.14148338285E+03  0.81177785556E+02 0.  0.
         -6    2    1    2    0  502 -0.12359747263E+03  0.15979889296E+03  0.18271571509E+03  0.32216498804E+03  0.17202681637E+03 0.  0.
        -24    2    5    5    0    0 -0.55587100151E+02  0.15233661575E+03  0.17785168705E+03  0.25341293270E+03  0.79312808986E+02 0.  0.
          5    1    3    3  501    0  0.10320698520E+03 -0.46410417007E+02  0.10252836921E+03  0.15277357459E+03  0.47000000000E+01 0. -1.
        -13    1    4    4    0    0  0.43487878448E+02 -0.63265120560E+02 -0.17431075812E+02  0.78724287582E+02  0.00000000000E+00 0.  1.
         14    1    4    4    0    0 -0.23097391020E+02 -0.50123355390E+02  0.29880826828E+02  0.62759095273E+02  0.00000000000E+00 0. -1.
         -5    1    5    5    0  502 -0.68010372478E+02  0.74622772108E+01  0.48640280321E+01  0.68752055347E+02  0.47000000000E+01 0.  1.
         13    1    6    6    0    0 -0.12579299131E+02  0.74203438647E+02  0.13477891834E+03  0.15436886313E+03  0.00000000000E+00 0. -1.
        -14    1    6    6    0    0 -0.43007801020E+02  0.78133177099E+02  0.43072768712E+02  0.99044069568E+02  0.00000000000E+00 0.  1.
</event>
<event>
12    1  0.8798177E-003  0.1840609E+03  0.7818608E-02  0.1163938E+00
         21   -1    0    0  501  502  0.00000000000E+00  0.00000000000E+00  0.33052590545E+03  0.33052590545E+03  0.00000000000E+00 0.  1.
         21   -1    0    0  502  503 -0.00000000000E+00 -0.00000000000E+00 -0.11704459181E+03  0.11704459181E+03  0.00000000000E+00 0.  1.
          6    2    1    2  501    0 -0.65505029242E+02  0.74324819262E+01  0.27806694980E+02  0.18614950711E+03  0.17184957396E+03 0.  0.
         24    2    3    3    0    0  0.12286935963E+01 -0.54236452442E+02  0.16899007096E+02  0.94511551631E+02  0.75523204972E+02 0.  0.
         -6    2    1    2    0  503  0.65505029242E+02 -0.74324819262E+01  0.18567461866E+03  0.26142099015E+03  0.17181303627E+03 0.  0.
        -24    2    5    5    0    0  0.75939409388E+02  0.66938046270E+00  0.45303471254E+02  0.12035127161E+03  0.81638116730E+02 0.  0.
          5    1    3    3  501    0 -0.66733722838E+02  0.61668934369E+02  0.10907687884E+02  0.91637955482E+02  0.47000000000E+01 0. -1.
        -11    1    4    4    0    0  0.24932812367E+02  0.26256107259E+01  0.21093457797E+02  0.32763896686E+02  0.00000000000E+00 0.  1.
         12    1    4    4    0    0 -0.23704118771E+02 -0.56862063168E+02 -0.41944507012E+01  0.61747654944E+02  0.00000000000E+00 0. -1.
         -5    1    5    5    0  503 -0.10434380147E+02 -0.81018623889E+01  0.14037114741E+03  0.14106971853E+03  0.47000000000E+01 0.  1.
         11    1    6    6    0    0 -0.53070877538E+01  0.25155991731E+02  0.17321590436E+02  0.31000428959E+02  0.00000000000E+00 0. -1.
        -12    1    6    6    0    0  0.81246497142E+02 -0.24486611268E+02  0.27981880818E+02  0.89350842656E+02  0.00000000000E+00 0.  1.
</event>
<event>
12    1  0.8798177E-003  0.2056001E+03  0.7818608E-02  0.1145227E+00
         21   -1    0    0  503  502  0.00000000000E+00  0.00000000000E+00  0.27803849673E+02  0.27803849673E+02  0.00000000000E+00 0. -1.
         21   -1    0    0  501  503 -0.00000000000E+00 -0.00000000000E+00 -0.16426068931E+04  0.16426068931E+04  0.00000000000E+00 0.  1.
          6    2    1    2  501    0  0.37889526837E+02  0.10578500429E+03 -0.10407309281E+04  0.10608450780E+04  0.17217819678E+03 0.  0.
         24    2    3    3    0    0  0.71514018922E+02  0.99946863855E+02 -0.61281041091E+03  0.63154011719E+03  0.90568699890E+02 0.  0.
         -6    2    1    2    0  502 -0.37889526837E+02 -0.10578500429E+03 -0.57407211536E+03  0.60956566480E+03  0.17142176843E+03 0.  0.
        -24    2    5    5    0    0 -0.65916569150E+02 -0.11972243083E+03 -0.36743266204E+03  0.40051609980E+03  0.82023963155E+02 0.  0.
          5    1    3    3  501    0 -0.33624492085E+02  0.58381404363E+01 -0.42792051717E+03  0.42930496080E+03  0.47000000000E+01 0. -1.
        -11    1    4    4    0    0  0.75906318871E+02  0.92535790449E+02 -0.61115948946E+03  0.62276846686E+03  0.00000000000E+00 0.  1.
         12    1    4    4    0    0 -0.43922999489E+01  0.74110734068E+01 -0.16509214546E+01  0.87716503311E+01  0.00000000000E+00 0. -1.
         -5    1    5    5    0  502  0.28027042313E+02  0.13937426536E+02 -0.20663945332E+03  0.20904956500E+03  0.47000000000E+01 0.  1.
         13    1    6    6    0    0 -0.68152868104E+02 -0.39303666645E+02 -0.19332319416E+03  0.20871858815E+03  0.00000000000E+00 0. -1.
        -14    1    6    6    0    0  0.22362989547E+01 -0.80418764183E+02 -0.17410946789E+03  0.19179751165E+03  0.00000000000E+00 0.  1.
</event>
<event>
12    1  0.8798177E-003  0.1777494E+03  0.7818608E-02  0.1170205E+00
         21   -1    0    0  503  502  0.00000000000E+00  0.00000000000E+00  0.32471910932E+03  0.32471910932E+03  0.00000000000E+00 0.  1.
         21   -1    0    0  501  503 -0.00000000000E+00 -0.00000000000E+00 -0.10800240300E+03  0.10800240300E+03  0.00000000000E+00 0.  1.
          6    2    1    2  501    0 -0.15816264784E+02  0.42427636629E+02  0.39036907740E+02  0.18198556290E+03  0.17188544545E+03 0.  0.
         24    2    3    3    0    0  0.71202831032E+01 -0.23443821935E+02 -0.28420003481E+02  0.84837947625E+02  0.76088563799E+02 0.  0.
         -6    2    1    2    0  502  0.15816264784E+02 -0.42427636629E+02  0.17767979858E+03  0.25073594942E+03  0.17102089617E+03 0.  0.
        -24    2    5    5    0    0 -0.26333393277E+02 -0.63900781996E+02  0.17241879312E+03  0.20290857415E+03  0.81651036137E+02 0.  0.
          5    1    3    3  501    0 -0.22936547887E+02  0.65871458564E+02  0.67456911220E+02  0.97147615275E+02  0.47000000000E+01 0. -1.
        -13    1    4    4    0    0 -0.20580298979E+02 -0.24750589942E+02  0.13228779055E+02  0.34801451174E+02  0.00000000000E+00 0.  1.
         14    1    4    4    0    0  0.27700582083E+02  0.13067680069E+01 -0.41648782536E+02  0.50036496450E+02  0.00000000000E+00 0. -1.
         -5    1    5    5    0  502  0.42149658060E+02  0.21473145367E+02  0.52610054632E+01  0.47827375268E+02  0.47000000000E+01 0.  1.
         13    1    6    6    0    0 -0.14184368940E+02  0.74960625016E+01  0.15960434930E+00  0.16044087659E+02  0.00000000000E+00 0. -1.
        -14    1    6    6    0    0 -0.12149024337E+02 -0.71396844497E+02  0.17225918877E+03  0.18686448649E+03  0.00000000000E+00 0.  1.
</event>
<event>
12    1  0.8798177E-003  0.1758321E+03  0.7818608E-02  0.1171939E+00
         21   -1    0    0  501  502  0.00000000000E+00  0.00000000000E+00  0.56313927651E+03  0.56313927651E+03  0.00000000000E+00 0. -1.
         21   -1    0    0  502  503 -0.00000000000E+00 -0.00000000000E+00 -0.63546667585E+02  0.63546667585E+02  0.00000000000E+00 0. -1.
          6    2    1    2  501    0  0.33892947007E+02  0.74469843768E+00  0.13398109319E+03  0.22106077634E+03  0.17253303182E+03 0.  0.
         24    2    3    3    0    0 -0.23169719885E+02 -0.28464170340E+02  0.13125268782E+03  0.15672695814E+03  0.77388800458E+02 0.  0.
         -6    2    1    2    0  503 -0.33892947007E+02 -0.74469843768E+00  0.36561151573E+03  0.40562516775E+03  0.17236794902E+03 0.  0.
        -24    2    5    5    0    0  0.56989264971E+01  0.27475945883E+02  0.34069748957E+03  0.35079160219E+03  0.78692842119E+02 0.  0.
          5    1    3    3  501    0  0.57062666892E+02  0.29208868777E+02  0.27284053789E+01  0.64333818199E+02  0.47000000000E+01 0. -1.
        -11    1    4    4    0    0 -0.36100194531E+02 -0.24428060761E+02  0.26309380040E+02  0.50913040332E+02  0.00000000000E+00 0.  1.
         12    1    4    4    0    0  0.12930474645E+02 -0.40361095782E+01  0.10494330778E+03  0.10581391781E+03  0.00000000000E+00 0. -1.
         -5    1    5    5    0  503 -0.39591873504E+02 -0.28220644321E+02  0.24914026160E+02  0.54833565568E+02  0.47000000000E+01 0.  1.
         11    1    6    6    0    0 -0.81731499414E+01 -0.22253122922E+01 -0.50091684590E-01  0.84708266385E+01  0.00000000000E+00 0. -1.
        -12    1    6    6    0    0  0.13872076439E+02  0.29701258175E+02  0.34074758125E+03  0.34232077555E+03  0.00000000000E+00 0.  1.
</event>
<event>
12    1  0.8798177E-003  0.3600885E+03  0.7818608E-02  0.1059634E+00
         21   -1    0    0  501  502  0.00000000000E+00  0.00000000000E+00  0.69827203007E+02  0.69827203007E+02  0.00000000000E+00 0.  1.
         21   -1    0    0  502  503 -0.00000000000E+00 -0.00000000000E+00 -0.20295699389E+04  0.20295699389E+04  0.00000000000E+00 0. -1.
          6    2    1    2  501    0  0.16525396963E+03 -0.25512840348E+03 -0.61497247446E+03  0.70725102606E+03  0.17208571347E+03 0.  0.
         24    2    3    3    0    0  0.13502033425E+03 -0.11664187825E+03 -0.25760475006E+03  0.32276907483E+03  0.77355348829E+02 0.  0.
         -6    2    1    2    0  503 -0.16525396963E+03  0.25512840348E+03 -0.13447702615E+04  0.13921461159E+04  0.19303982777E+03 0.  0.
        -24    2    5    5    0    0 -0.17520357397E+03  0.13632444117E+03 -0.78042088299E+03  0.81532232383E+03  0.80081780356E+02 0.  0.
          5    1    3    3  501    0  0.30233635385E+02 -0.13848652523E+03 -0.35736772440E+03  0.38448195123E+03  0.47000000000E+01 0. -1.
        -11    1    4    4    0    0  0.51599530307E+02 -0.74923980850E+02 -0.75713585107E+02  0.11835819112E+03  0.00000000000E+00 0.  1.
         12    1    4    4    0    0  0.83420803938E+02 -0.41717897396E+02 -0.18189116496E+03  0.20441088372E+03  0.00000000000E+00 0. -1.
         -5    1    5    5    0  503  0.99496043353E+01  0.11880396230E+03 -0.56434937849E+03  0.57682379206E+03  0.47000000000E+01 0.  1.
         13    1    6    6    0    0 -0.32590277611E+02  0.61343545154E+02 -0.32209159406E+03  0.32949681590E+03  0.00000000000E+00 0. -1.
        -14    1    6    6    0    0 -0.14261329635E+03  0.74980896017E+02 -0.45832928893E+03  0.48582550793E+03  0.00000000000E+00 0.  1.
</event>
<event>
12    1  0.8798177E-003  0.1982757E+03  0.7818608E-02  0.1151344E+00
         21   -1    0    0  503  502  0.00000000000E+00  0.00000000000E+00  0.24288270314E+03  0.24288270314E+03  0.00000000000E+00 0.  1.
         21   -1    0    0  501  503 -0.00000000000E+00 -0.00000000000E+00 -0.17671291050E+03  0.17671291050E+03  0.00000000000E+00 0. -1.
          6    2    1    2  501    0 -0.23382985300E+02  0.95658518939E+02  0.95056969630E+02  0.21988425444E+03  0.17209282852E+03 0.  0.
         24    2    3    3    0    0  0.22737087846E+01 -0.13552718829E+01 -0.28162796233E+01  0.79630183270E+02  0.79536332221E+02 0.  0.
         -6    2    1    2    0  502  0.23382985300E+02 -0.95658518939E+02 -0.28887176991E+02  0.19971135920E+03  0.17132671057E+03 0.  0.
        -24    2    5    5    0    0  0.67472377001E+02 -0.10130064328E+03  0.17777817135E+01  0.14550676789E+03  0.79716478888E+02 0.  0.
          5    1    3    3  501    0 -0.25656694085E+02  0.97013790822E+02  0.97873249253E+02  0.14025407117E+03  0.47000000000E+01 0. -1.
        -11    1    4    4    0    0 -0.21873693230E+02  0.25917669092E+02  0.17242378732E+02  0.38045809901E+02  0.00000000000E+00 0.  1.
         12    1    4    4    0    0  0.24147402015E+02 -0.27272940975E+02 -0.20058658355E+02  0.41584373369E+02  0.00000000000E+00 0. -1.
         -5    1    5    5    0  502 -0.44089391701E+02  0.56421243370E+01 -0.30664958705E+02  0.54204591318E+02  0.47000000000E+01 0.  1.
         13    1    6    6    0    0  0.34976720769E+02 -0.30747695092E+02 -0.36254960691E+02  0.59018759085E+02  0.00000000000E+00 0. -1.
        -14    1    6    6    0    0  0.32495656232E+02 -0.70552948184E+02  0.38032742405E+02  0.86488008800E+02  0.00000000000E+00 0.  1.
</event>
<event>
12    1  0.8798177E-003  0.2292427E+03  0.7818608E-02  0.1127318E+00
         21   -1    0    0  503  502  0.00000000000E+00  0.00000000000E+00  0.47886695071E+03  0.47886695071E+03  0.00000000000E+00 0. -1.
         21   -1    0    0  501  503 -0.00000000000E+00 -0.00000000000E+00 -0.11169036084E+03  0.11169036084E+03  0.00000000000E+00 0. -1.
          6    2    1    2  501    0  0.14830822164E+03  0.26707621945E+02  0.22661778092E+03  0.32234738265E+03  0.17275297623E+03 0.  0.
         24    2    3    3    0    0  0.54776829856E+02  0.68345939023E+02  0.16758365574E+03  0.20407232766E+03  0.76743499881E+02 0.  0.
         -6    2    1    2    0  502 -0.14830822164E+03 -0.26707621945E+02  0.14055880895E+03  0.26820992889E+03  0.17167166774E+03 0.  0.
        -24    2    5    5    0    0 -0.12412567168E+03  0.33328158791E+02  0.13953424714E+03  0.20330823077E+03  0.73119641938E+02 0.  0.
          5    1    3    3  501    0  0.93531391788E+02 -0.41638317078E+02  0.59034125178E+02  0.11827505500E+03  0.47000000000E+01 0. -1.
        -13    1    4    4    0    0  0.50771128688E+02  0.41154069126E+02  0.47268784554E+02  0.80657937657E+02  0.00000000000E+00 0.  1.
         14    1    4    4    0    0  0.40057011684E+01  0.27191869897E+02  0.12031487119E+03  0.12341439000E+03  0.00000000000E+00 0. -1.
         -5    1    5    5    0  502 -0.24182549964E+02 -0.60035780737E+02  0.10245618095E+01  0.64901698116E+02  0.47000000000E+01 0.  1.
         13    1    6    6    0    0 -0.91767124007E+02  0.25727557162E+02  0.49624347329E+02  0.10745086363E+03  0.00000000000E+00 0. -1.
        -14    1    6    6    0    0 -0.32358547673E+02  0.76006016297E+01  0.89909899811E+02  0.95857367149E+02  0.00000000000E+00 0.  1.
</event>
<event>
12    1  0.8798177E-003  0.2111352E+03  0.7818608E-02  0.1141467E+00
         21   -1    0    0  503  502  0.00000000000E+00  0.00000000000E+00  0.15530741435E+03  0.15530741435E+03  0.00000000000E+00 0.  1.
         21   -1    0    0  501  503 -0.00000000000E+00 -0.00000000000E+00 -0.30405259859E+03  0.30405259859E+03  0.00000000000E+00 0. -1.
          6    2    1    2  501    0 -0.85008234287E+02 -0.80023110147E+02 -0.13611955147E+03  0.24784763243E+03  0.17108424403E+03 0.  0.
         24    2    3    3    0    0  0.53469661120E+01 -0.85360172900E+02 -0.78949290641E+02  0.14068852082E+03  0.79027338527E+02 0.  0.
         -6    2    1    2    0  502  0.85008234287E+02  0.80023110147E+02 -0.12625632766E+02  0.21151238051E+03  0.17592038668E+03 0.  0.
        -24    2    5    5    0    0  0.78788288539E+02  0.10597812374E+03 -0.45570448578E+02  0.16885325083E+03  0.94846177619E+02 0.  0.
          5    1    3    3  501    0 -0.90355200399E+02  0.53370627536E+01 -0.57170260829E+02  0.10715911161E+03  0.47000000000E+01 0. -1.
        -13    1    4    4    0    0  0.13651166453E+02 -0.14628482014E+02 -0.65141079738E+02  0.68144751089E+02  0.00000000000E+00 0.  1.
         14    1    4    4    0    0 -0.83042003414E+01 -0.70731690886E+02 -0.13808210903E+02  0.72543769734E+02  0.00000000000E+00 0. -1.
         -5    1    5    5    0  502  0.62199457483E+01 -0.25955013596E+02  0.32944815812E+02  0.42659129677E+02  0.47000000000E+01 0.  1.
         11    1    6    6    0    0  0.13063818421E+02  0.10312876085E+02 -0.50004400746E+02  0.52701602052E+02  0.00000000000E+00 0. -1.
        -12    1    6    6    0    0  0.65724470118E+02  0.95665247658E+02  0.44339521678E+01  0.11615164878E+03  0.00000000000E+00 0.  1.
</event>
<event>
12    1  0.8798177E-003  0.2678220E+03  0.7818608E-02  0.1102689E+00
         21   -1    0    0  501  502  0.00000000000E+00  0.00000000000E+00  0.29036892921E+03  0.29036892921E+03  0.00000000000E+00 0.  1.
         21   -1    0    0  502  503 -0.00000000000E+00 -0.00000000000E+00 -0.34561705350E+03  0.34561705350E+03  0.00000000000E+00 0. -1.
          6    2    1    2  501    0  0.84974525073E+02 -0.18589037262E+03  0.14303015286E+03  0.30362188048E+03  0.17306854461E+03 0.  0.
         24    2    3    3    0    0  0.54054770826E+02 -0.19481633904E+03  0.15716539199E+03  0.26815923726E+03  0.79580725568E+02 0.  0.
         -6    2    1    2    0  503 -0.84974525073E+02  0.18589037262E+03 -0.19827827715E+03  0.33236410224E+03  0.17139346756E+03 0.  0.
        -24    2    5    5    0    0 -0.59341185422E+02  0.20908353950E+03 -0.16572490333E+03  0.28464824283E+03  0.79514626242E+02 0.  0.
          5    1    3    3  501    0  0.30919754248E+02  0.89259664199E+01 -0.14135239126E+02  0.35462643224E+02  0.47000000000E+01 0. -1.
        -13    1    4    4    0    0 -0.19289026726E+02 -0.20623429216E+02  0.18876710760E+02  0.33966492221E+02  0.00000000000E+00 0.  1.
         14    1    4    4    0    0  0.73343797552E+02 -0.17419290982E+03  0.13828868123E+03  0.23419274503E+03  0.00000000000E+00 0. -1.
         -5    1    5    5    0  503 -0.25633339652E+02 -0.23193166883E+02 -0.32553373820E+02  0.47715859405E+02  0.47000000000E+01 0.  1.
         13    1    6    6    0    0 -0.56766962206E+01  0.11555003537E+03 -0.48718103493E+02  0.12552883797E+03  0.00000000000E+00 0. -1.
        -14    1    6    6    0    0 -0.53664489201E+02  0.93533504132E+02 -0.11700679984E+03  0.15911940486E+03  0.00000000000E+00 0.  1.
</event>
<event>
12    1  0.8798177E-003  0.2374743E+03  0.7818608E-02  0.1121509E+00
         21   -1    0    0  503  502  0.00000000000E+00  0.00000000000E+00  0.24426758361E+03  0.24426758361E+03  0.00000000000E+00 0.  1.
         21   -1    0    0  501  503 -0.00000000000E+00 -0.00000000000E+00 -0.32847088828E+03  0.32847088828E+03  0.00000000000E+00 0. -1.
          6    2    1    2  501    0 -0.52986439189E+02  0.15461546666E+03 -0.19829611561E+03  0.30927839546E+03  0.17209959665E+03 0.  0.
         24    2    3    3    0    0  0.13896075436E+02  0.26352851496E+02 -0.11070347461E+03  0.14010650073E+03  0.80541905619E+02 0.  0.
         -6    2    1    2    0  502  0.52986439189E+02 -0.15461546666E+03  0.11409281094E+03  0.26346007642E+03  0.17228040251E+03 0.  0.
        -24    2    5    5    0    0  0.93435672743E+02 -0.14456814108E+03  0.67708982138E+02  0.20092497571E+03  0.78461246783E+02 0.  0.
          5    1    3    3  501    0 -0.66882514626E+02  0.12826261516E+03 -0.87592640995E+02  0.16917189473E+03  0.47000000000E+01 0. -1.
        -13    1    4    4    0    0  0.42980064433E+02  0.28379086505E+02 -0.45666212112E+02  0.68833577694E+02  0.00000000000E+00 0.  1.
         14    1    4    4    0    0 -0.29083988997E+02 -0.20262350097E+01 -0.65037262502E+02  0.71272923035E+02  0.00000000000E+00 0. -1.
         -5    1    5    5    0  502 -0.40449233554E+02 -0.10047325585E+02  0.46383828801E+02  0.62535100709E+02  0.47000000000E+01 0.  1.
         11    1    6    6    0    0  0.17745449785E+02 -0.13248138832E+02 -0.16422071957E+02  0.27569886071E+02  0.00000000000E+00 0. -1.
        -12    1    6    6    0    0  0.75690222958E+02 -0.13132000224E+03  0.84131054095E+02  0.17335508964E+03  0.00000000000E+00 0.  1.
</event>
<event>
12    1  0.8798177E-003  0.2252019E+03  0.7818608E-02  0.1131159E+00
         21   -1    0    0  503  502  0.00000000000E+00  0.00000000000E+00  0.11914755184E+03  0.11914755184E+03  0.00000000000E+00 0.  1.
         21   -1    0    0  501  503 -0.00000000000E+00 -0.00000000000E+00 -0.58813428849E+03  0.58813428849E+03  0.00000000000E+00 0. -1.
          6    2    1    2  501    0 -0.92366438988E+02 -0.99886988691E+02 -0.42444514403E+03  0.47771740839E+03  0.17190483540E+03 0.  0.
         24    2    3    3    0    0 -0.98165794253E+02 -0.90263357197E+01 -0.23584704746E+03  0.26824038624E+03  0.81308530423E+02 0.  0.
         -6    2    1    2    0  502  0.92366438988E+02  0.99886988691E+02 -0.44541592629E+02  0.22956443193E+03  0.17946282449E+03 0.  0.
        -24    2    5    5    0    0  0.98346183812E+02  0.17053772879E+02 -0.68027981586E+02  0.14313064539E+03  0.76783932765E+02 0.  0.
          5    1    3    3  501    0  0.57993552649E+01 -0.90860652971E+02 -0.18859809657E+03  0.20947702215E+03  0.47000000000E+01 0. -1.
        -13    1    4    4    0    0 -0.70656643278E+00 -0.69396731355E+01 -0.10418719911E+03  0.10442045182E+03  0.00000000000E+00 0.  1.
         14    1    4    4    0    0 -0.97459227821E+02 -0.20866625842E+01 -0.13165984834E+03  0.16381993442E+03  0.00000000000E+00 0. -1.
         -5    1    5    5    0  502 -0.59797448239E+01  0.82833215812E+02  0.23486388957E+02  0.86433786543E+02  0.47000000000E+01 0.  1.
         11    1    6    6    0    0  0.69766403250E+01  0.23174833270E+02 -0.41070146680E+02  0.47670780942E+02  0.00000000000E+00 0. -1.
        -12    1    6    6    0    0  0.91369543487E+02 -0.61210603906E+01 -0.26957834906E+02  0.95459864447E+02  0.00000000000E+00 0.  1.
</event>
<event>
12    1  0.8798177E-003  0.2430833E+03  0.7818608E-02  0.1118080E+00
         21   -1    0    0  503  502  0.00000000000E+00  0.00000000000E+00  0.72709217256E+02  0.72709217256E+02  0.00000000000E+00 0. -1.
         21   -1    0    0  501  503 -0.00000000000E+00 -0.00000000000E+00 -0.10141673306E+04  0.10141673306E+04  0.00000000000E+00 0.  1.
          6    2    1    2  501    0  0.13832781554E+03 -0.10167738169E+03 -0.71534974298E+03  0.75489087952E+03  0.16929887982E+03 0.  0.
         24    2    3    3    0    0  0.14811289623E+03 -0.40448400346E+02 -0.59334191711E+03  0.61795025176E+03  0.78958089679E+02 0.  0.
         -6    2    1    2    0  502 -0.13832781554E+03  0.10167738169E+03 -0.22610837041E+03  0.33198566838E+03  0.17209478301E+03 0.  0.
        -24    2    5    5    0    0 -0.15766334598E+03  0.10987215482E+03 -0.15827345297E+03  0.26081908164E+03  0.77759156147E+02 0.  0.
          5    1    3    3  501    0 -0.97850806864E+01 -0.61228981340E+02 -0.12200782587E+03  0.13694062776E+03  0.47000000000E+01 0. -1.
        -11    1    4    4    0    0  0.60346218266E+02  0.21461236809E+02 -0.18754529640E+03  0.19818044541E+03  0.00000000000E+00 0.  1.
         12    1    4    4    0    0  0.87766677966E+02 -0.61909637155E+02 -0.40579662072E+03  0.41976980635E+03  0.00000000000E+00 0. -1.
         -5    1    5    5    0  502  0.19335530431E+02 -0.81947731303E+01 -0.67834917440E+02  0.71166586737E+02  0.47000000000E+01 0.  1.
         11    1    6    6    0    0 -0.77075699820E+02  0.96582775143E+02 -0.76993979859E+02  0.14559178854E+03  0.00000000000E+00 0. -1.
        -12    1    6    6    0    0 -0.80587646156E+02  0.13289379673E+02 -0.81279473116E+02  0.11522729310E+03  0.00000000000E+00 0.  1.
</event>
<event>
12    1  0.8798177E-003  0.1917208E+03  0.7818608E-02  0.1156969E+00
         21   -1    0    0  503  502  0.00000000000E+00  0.00000000000E+00  0.22727276007E+03  0.22727276007E+03  0.00000000000E+00 0. -1.
         21   -1    0    0  501  503 -0.00000000000E+00 -0.00000000000E+00 -0.18748153938E+03  0.18748153938E+03  0.00000000000E+00 0. -1.
          6    2    1    2  501    0 -0.62952597040E+02 -0.56173516641E+02 -0.57234806985E+02  0.20008173269E+03  0.17215801805E+03 0.  0.
         24    2    3    3    0    0  0.20428207018E+01 -0.35768915030E+02  0.27010116084E+02  0.91637972350E+02  0.79902335427E+02 0.  0.
         -6    2    1    2    0  502  0.62952597040E+02  0.56173516641E+02  0.97026027679E+02  0.21467256676E+03  0.17190627512E+03 0.  0.
        -24    2    5    5    0    0 -0.19080012340E+01  0.25427606284E+02 -0.11242211683E+02  0.84686760356E+02  0.79970347167E+02 0.  0.
          5    1    3    3  501    0 -0.64995417742E+02 -0.20404601611E+02 -0.84244923068E+02  0.10844376034E+03  0.47000000000E+01 0. -1.
        -11    1    4    4    0    0 -0.38311558067E+02 -0.11954064642E+02  0.17707225774E+02  0.43865943369E+02  0.00000000000E+00 0.  1.
         12    1    4    4    0    0  0.40354378769E+02 -0.23814850388E+02  0.93028903091E+01  0.47772028981E+02  0.00000000000E+00 0. -1.
         -5    1    5    5    0  502  0.64860598274E+02  0.30745910357E+02  0.10826823936E+03  0.12998580640E+03  0.47000000000E+01 0.  1.
         11    1    6    6    0    0  0.33210033897E+02  0.30468512989E+02  0.55967620294E+01  0.45415420073E+02  0.00000000000E+00 0. -1.
        -12    1    6    6    0    0 -0.35118035131E+02 -0.50409067052E+01 -0.16838973712E+02  0.39271340282E+02  0.00000000000E+00 0.  1.
</event>
<event>
12    1  0.8798177E-003  0.1925966E+03  0.7818608E-02  0.1156253E+00
         21   -1    0    0  503  502  0.00000000000E+00  0.00000000000E+00  0.57460386789E+02  0.57460386789E+02  0.00000000000E+00 0.  1.
         21   -1    0    0  501  503 -0.00000000000E+00 -0.00000000000E+00 -0.84343983686E+03  0.84343983686E+03  0.00000000000E+00 0.  1.
          6    2    1    2  501    0 -0.19744831539E+02  0.83869694903E+02 -0.61251870771E+03  0.64208457979E+03  0.17224824009E+03 0.  0.
         24    2    3    3    0    0 -0.68636456810E+02  0.92387240413E+02 -0.49207040693E+03  0.51172805803E+03  0.80535424570E+02 0.  0.
         -6    2    1    2    0  502  0.19744831539E+02 -0.83869694903E+02 -0.17346074236E+03  0.25881564386E+03  0.17167680178E+03 0.  0.
        -24    2    5    5    0    0  0.97343525037E+01 -0.11491037992E+03 -0.17728532343E+03  0.22564259399E+03  0.78646940740E+02 0.  0.
          5    1    3    3  501    0  0.48891625271E+02 -0.85175455095E+01 -0.12044830078E+03  0.13035652176E+03  0.47000000000E+01 0. -1.
        -13    1    4    4    0    0 -0.72189989445E+02  0.10477697955E+03 -0.43543057966E+03  0.45364016547E+03  0.00000000000E+00 0.  1.
         14    1    4    4    0    0  0.35535326351E+01 -0.12389739140E+02 -0.56639827266E+02  0.58087892567E+02  0.00000000000E+00 0. -1.
         -5    1    5    5    0  502  0.10010479035E+02  0.31040685020E+02  0.38245810682E+01  0.33173049865E+02  0.47000000000E+01 0.  1.
         13    1    6    6    0    0  0.13333402876E+02  0.48139745107E+01 -0.45034403834E+02  0.47212832065E+02  0.00000000000E+00 0. -1.
        -14    1    6    6    0    0 -0.35990503725E+01 -0.11972435443E+03 -0.13225091960E+03  0.17842976193E+03  0.00000000000E+00 0.  1.
</event>
<event>
12    1  0.8798177E-003  0.2038011E+03  0.7818608E-02  0.1147322E+00
         21   -1    0    0  501  502  0.00000000000E+00  0.00000000000E+00  0.85836105029E+02  0.85836105029E+02  0.00000000000E+00 0. -1.
         21   -1    0    0  502  503 -0.00000000000E+00 -0.00000000000E+00 -0.60769500918E+03  0.60769500918E+03  0.00000000000E+00 0. -1.
          6    2    1    2  501    0  0.90678576800E+02 -0.47396608062E+02 -0.10093042190E+03  0.22742436155E+03  0.17625506352E+03 0.  0.
         24    2    3    3    0    0  0.27351018179E+02  0.28488015365E+01  0.30786676186E+02  0.72807205984E+02  0.59973960574E+02 0.  0.
         -6    2    1    2    0  503 -0.90678576800E+02  0.47396608062E+02 -0.42092848225E+03  0.46610675266E+03  0.17206299706E+03 0.  0.
        -24    2    5    5    0    0 -0.33177751158E+02  0.91998297914E+02 -0.28475473750E+03  0.31163657934E+03  0.80421682775E+02 0.  0.
          5    1    3    3  501    0  0.63327558621E+02 -0.50245409598E+02 -0.13171709809E+03  0.15461715557E+03  0.47000000000E+01 0. -1.
        -13    1    4    4    0    0 -0.11402626120E+02 -0.14077416640E+02  0.23854807099E+02  0.29954054207E+02  0.00000000000E+00 0.  1.
         14    1    4    4    0    0  0.38753644299E+02  0.16926218177E+02  0.69318690874E+01  0.42853151777E+02  0.00000000000E+00 0. -1.
         -5    1    5    5    0  503 -0.57500825642E+02 -0.44601689852E+02 -0.13617374474E+03  0.15447017332E+03  0.47000000000E+01 0.  1.
         13    1    6    6    0    0 -0.20500994816E+02  0.44471420460E+02 -0.43759079303E+02  0.65672330914E+02  0.00000000000E+00 0. -1.
        -14    1    6    6    0    0 -0.12676756341E+02  0.47526877454E+02 -0.24099565820E+03  0.24596424842E+03  0.00000000000E+00 0.  1.
</event>
<event>
12    1  0.8798177E-003  0.2104648E+03  0.7818608E-02  0.1141635E+00
         21   -1    0    0  503  502  0.00000000000E+00  0.00000000000E+00  0.19077104357E+03  0.19077104357E+03  0.00000000000E+00 0.  1.
         21   -1    0    0  501  503 -0.00000000000E+00 -0.00000000000E+00 -0.23974354166E+03  0.23974354166E+03  0.00000000000E+00 0.  1.
          6    2    1    2  501    0  0.43945000064E+02  0.11218739371E+03 -0.68268642879E+02  0.21916706725E+03  0.16987177938E+03 0.  0.
         24    2    3    3    0    0  0.74301072696E+02  0.10731567708E+03 -0.93977840583E+01  0.15258559245E+03  0.78464901251E+02 0.  0.
         -6    2    1    2    0  502 -0.43945000064E+02 -0.11218739371E+03  0.19296144793E+02  0.21134751798E+03  0.17256377897E+03 0.  0.
        -24    2    5    5    0    0 -0.12770708541E+00 -0.94768116724E+02  0.69878510347E+02  0.14203624848E+03  0.79437254589E+02 0.  0.
          5    1    3    3  501    0 -0.30356072632E+02  0.48717166301E+01 -0.58870858821E+02  0.66581474803E+02  0.47000000000E+01 0. -1.
        -13    1    4    4    0    0  0.30104269787E+02  0.10025984319E+03 -0.20036189172E+02  0.10658213777E+03  0.00000000000E+00 0.  1.
         14    1    4    4    0    0  0.44196802909E+02  0.70558338912E+01  0.10638405113E+02  0.46003454681E+02  0.00000000000E+00 0. -1.
         -5    1    5    5    0  502 -0.43817292978E+02 -0.17419276984E+02 -0.50582365553E+02  0.69311269499E+02  0.47000000000E+01 0.  1.
         11    1    6    6    0    0 -0.25707458794E+02 -0.59273855369E+02  0.73829076972E+02  0.98107063836E+02  0.00000000000E+00 0. -1.
        -12    1    6    6    0    0  0.25579751708E+02 -0.35494261356E+02 -0.39505666251E+01  0.43929184642E+02  0.00000000000E+00 0.  1.
</event>
<event>
12    1  0.8798177E-003  0.3153000E+03  0.7818608E-02  0.1077835E+00
         21   -1    0    0  501  502  0.00000000000E+00  0.00000000000E+00  0.29989152994E+03  0.29989152994E+03  0.00000000000E+00 0. -1.
         21   -1    0    0  502  503 -0.00000000000E+00 -0.00000000000E+00 -0.33362350640E+03  0.33362350640E+03  0.00000000000E+00 0. -1.
          6    2    1    2  501    0 -0.10538693675E+03 -0.24263898871E+03  0.85350416835E+01  0.31541553636E+03  0.17156348202E+03 0.  0.
         24    2    3    3    0    0 -0.52339930525E+02 -0.10158272987E+03  0.65923817624E+02  0.15408849390E+03  0.79616549069E+02 0.  0.
         -6    2    1    2    0  503  0.10538693675E+03  0.24263898871E+03 -0.42267018144E+02  0.31809949998E+03  0.17152465067E+03 0.  0.
        -24    2    5    5    0    0  0.98235492390E+01  0.37543326094E+02 -0.15607724965E+01  0.88152374993E+02  0.79135338202E+02 0.  0.
          5    1    3    3  501    0 -0.53047006223E+02 -0.14105625884E+03 -0.57388775941E+02  0.16132704246E+03  0.47000000000E+01 0. -1.
        -13    1    4    4    0    0  0.41052706826E+01 -0.47091753449E+02  0.58603528146E+02  0.75291832235E+02  0.00000000000E+00 0.  1.
         14    1    4    4    0    0 -0.56445201207E+02 -0.54490976422E+02  0.73202894783E+01  0.78796661660E+02  0.00000000000E+00 0. -1.
         -5    1    5    5    0  503  0.95563387508E+02  0.20509566261E+03 -0.40706245647E+02  0.22994712498E+03  0.47000000000E+01 0.  1.
         13    1    6    6    0    0 -0.28340202613E+02  0.40971578735E+02 -0.12482400912E+01  0.49833677885E+02  0.00000000000E+00 0. -1.
        -14    1    6    6    0    0  0.38163751852E+02 -0.34282526410E+01 -0.31253240530E+00  0.38318697108E+02  0.00000000000E+00 0.  1.
</event>
<event>
12    1  0.8798177E-003  0.3413229E+03  0.7818608E-02  0.1066374E+00
         21   -1    0    0  503  502  0.00000000000E+00  0.00000000000E+00  0.20192920823E+03  0.20192920823E+03  0.00000000000E+00 0.  1.
         21   -1    0    0  501  503 -0.00000000000E+00 -0.00000000000E+00 -0.61888881962E+03  0.61888881962E+03  0.00000000000E+00 0. -1.
          6    2    1    2  501    0  0.15185704655E+03  0.25252354764E+03 -0.31851424828E+03  0.46685398062E+03  0.17225738928E+03 0.  0.
         24    2    3    3    0    0  0.58669112966E+02  0.11117768208E+03 -0.75958985249E+02  0.17101992189E+03  0.87609956264E+02 0.  0.
         -6    2    1    2    0  502 -0.15185704655E+03 -0.25252354764E+03 -0.98445363112E+02  0.35396404723E+03  0.16961825526E+03 0.  0.
        -24    2    5    5    0    0 -0.64887090535E+02 -0.17019986487E+03 -0.14214014667E-01  0.19887780314E+03  0.79837659412E+02 0.  0.
          5    1    3    3  501    0  0.93187933587E+02  0.14134586556E+03 -0.24255526303E+03  0.29583405872E+03  0.47000000000E+01 0. -1.
        -13    1    4    4    0    0 -0.14284236262E+02  0.59288448454E+02 -0.46778405139E+02  0.76859473802E+02  0.00000000000E+00 0.  1.
         14    1    4    4    0    0  0.72953349228E+02  0.51889233623E+02 -0.29180580110E+02  0.94160448093E+02  0.00000000000E+00 0. -1.
         -5    1    5    5    0  502 -0.86969956018E+02 -0.82323682773E+02 -0.98431149098E+02  0.15508624410E+03  0.47000000000E+01 0.  1.
         11    1    6    6    0    0 -0.68614653067E+02 -0.71523966567E+02  0.10037310951E+02  0.99621262892E+02  0.00000000000E+00 0. -1.
        -12    1    6    6    0    0  0.37275625322E+01 -0.98675898298E+02 -0.10051524965E+02  0.99256540245E+02  0.00000000000E+00 0.  1.
</event>
<event>
12    1  0.8798177E-003  0.3042900E+03  0.7818608E-02  0.1083377E+00
         21   -1    0    0  503  502  0.00000000000E+00  0.00000000000E+00  0.30964769708E+03  0.30964769708E+03  0.00000000000E+00 0. -1.
         21   -1    0    0  501  503 -0.00000000000E+00 -0.00000000000E+00 -0.33211284688E+03  0.33211284688E+03  0.00000000000E+00 0. -1.
          6    2    1    2  501    0  0.58751740304E+02 -0.24073116894E+03 -0.11569190348E+03  0.32554112292E+03  0.17660448322E+03 0.  0.
         24    2    3    3    0    0  0.87213793528E+02 -0.19720200702E+03 -0.13873903210E+03  0.26846103402E+03  0.79548289755E+02 0.  0.
         -6    2    1    2    0  502 -0.58751740304E+02  0.24073116894E+03  0.93226753679E+02  0.31621942103E+03  0.17291683535E+03 0.  0.
        -24    2    5    5    0    0 -0.50632373273E+02  0.51394660362E+02  0.58029168579E+01  0.10746297240E+03  0.79432790808E+02 0.  0.
          5    1    3    3  501    0 -0.28462053223E+02 -0.43529161924E+02  0.23047128626E+02  0.57080088905E+02  0.47000000000E+01 0. -1.
        -13    1    4    4    0    0  0.25218021800E+02 -0.26566037652E+01 -0.11229244492E+02  0.27732690078E+02  0.00000000000E+00 0.  1.
         14    1    4    4    0    0  0.61995771728E+02 -0.19454540325E+03 -0.12750978761E+03  0.24072834394E+03  0.00000000000E+00 0. -1.
         -5    1    5    5    0  502 -0.81193670315E+01  0.18933650858E+03  0.87423836821E+02  0.20875644864E+03  0.47000000000E+01 0.  1.
         13    1    6    6    0    0 -0.30267039564E+02  0.71023897213E+02 -0.45610444700E+01  0.77338805175E+02  0.00000000000E+00 0. -1.
        -14    1    6    6    0    0 -0.20365333709E+02 -0.19629236851E+02  0.10363961328E+02  0.30124167222E+02  0.00000000000E+00 0.  1.
</event>
<event>
12    1  0.8798177E-003  0.1991662E+03  0.7818608E-02  0.1150836E+00
         21   -1    0    0  501  502  0.00000000000E+00  0.00000000000E+00  0.12975653860E+03  0.12975653860E+03  0.00000000000E+00 0.  1.
         21   -1    0    0  502  503 -0.00000000000E+00 -0.00000000000E+00 -0.55426654641E+03  0.55426654641E+03  0.00000000000E+00 0.  1.
          6    2    1    2  501    0 -0.58599728002E+02 -0.77105350864E+02  0.17531963383E+02  0.19993635517E+03  0.17403451704E+03 0.  0.
         24    2    3    3    0    0 -0.72556538695E+02  0.38950315307E+01  0.48227463689E+02  0.11207192407E+03  0.70388957462E+02 0.  0.
         -6    2    1    2    0  503  0.58599728002E+02  0.77105350864E+02 -0.44204197119E+03  0.48408672984E+03  0.17192932986E+03 0.  0.
        -24    2    5    5    0    0  0.92262540059E+02  0.20088671233E+02 -0.34454151611E+03  0.36613540339E+03  0.80189439973E+02 0.  0.
          5    1    3    3  501    0  0.13956810693E+02 -0.81000382395E+02 -0.30695500306E+02  0.87864431096E+02  0.47000000000E+01 0. -1.
        -13    1    4    4    0    0 -0.57851791976E+02 -0.19916633049E+02  0.56088648151E+02  0.83002641875E+02  0.00000000000E+00 0.  1.
         14    1    4    4    0    0 -0.14704746720E+02  0.23811664580E+02 -0.78611844612E+01  0.29069282194E+02  0.00000000000E+00 0. -1.
         -5    1    5    5    0  503 -0.33662812057E+02  0.57016679631E+02 -0.97500455082E+02  0.11795132646E+03  0.47000000000E+01 0.  1.
         13    1    6    6    0    0  0.52718677261E+02  0.29115175398E+02 -0.89418918654E+02  0.10780860533E+03  0.00000000000E+00 0. -1.
        -14    1    6    6    0    0  0.39543862798E+02 -0.90265041653E+01 -0.25512259745E+03  0.25832679805E+03  0.00000000000E+00 0.  1.
</event>
<event>
12    1  0.8798177E-003  0.1860220E+03  0.7818608E-02  0.1162796E+00
         21   -1    0    0  501  502  0.00000000000E+00  0.00000000000E+00  0.70566282006E+03  0.70566282006E+03  0.00000000000E+00 0.  1.
         21   -1    0    0  502  503 -0.00000000000E+00 -0.00000000000E+00 -0.48259454553E+02  0.48259454553E+02  0.00000000000E+00 0. -1.
          6    2    1    2  501    0  0.10219686740E+02  0.60902875540E+02  0.33502288159E+03  0.38320297854E+03  0.17547247456E+03 0.  0.
         24    2    3    3    0    0 -0.20982990556E+02 -0.20402684958E+02  0.97865169641E+02  0.13051726154E+03  0.81244130158E+02 0.  0.
         -6    2    1    2    0  503 -0.10219686740E+02 -0.60902875540E+02  0.32238048392E+03  0.37071929608E+03  0.17230791573E+03 0.  0.
        -24    2    5    5    0    0 -0.33029735373E+02 -0.32397481900E+02  0.74532349797E+02  0.12015265150E+03  0.82103765104E+02 0.  0.
          5    1    3    3  501    0  0.31202677296E+02  0.81305560498E+02  0.23715771195E+03  0.25268571700E+03  0.47000000000E+01 0. -1.
        -11    1    4    4    0    0 -0.25168926446E+02 -0.49109661343E+02  0.77216768259E+02  0.94908708748E+02  0.00000000000E+00 0.  1.
         12    1    4    4    0    0  0.41859358902E+01  0.28706976385E+02  0.20648401382E+02  0.35608552794E+02  0.00000000000E+00 0. -1.
         -5    1    5    5    0  503  0.22810048633E+02 -0.28505393640E+02  0.24784813412E+03  0.25056664458E+03  0.47000000000E+01 0.  1.
         11    1    6    6    0    0  0.15258835411E+02 -0.25446033083E+02 -0.16184785005E+01  0.29714510436E+02  0.00000000000E+00 0. -1.
        -12    1    6    6    0    0 -0.48288570784E+02 -0.69514488166E+01  0.76150828298E+02  0.90438141066E+02  0.00000000000E+00 0.  1.
</event>
<event>
12    1  0.8798177E-003  0.2034328E+03  0.7818608E-02  0.1147028E+00
         21   -1    0    0  501  502  0.00000000000E+00  0.00000000000E+00  0.19906418224E+03  0.19906418224E+03  0.00000000000E+00 0. -1.
         21   -1    0    0  502  503 -0.00000000000E+00 -0.00000000000E+00 -0.25365342333E+03  0.25365342333E+03  0.00000000000E+00 0. -1.
          6    2    1    2  501    0 -0.10816264586E+03 -0.11366609500E+02 -0.12418418154E+03  0.23770977961E+03  0.17104347577E+03 0.  0.
         24    2    3    3    0    0 -0.14444705539E+03 -0.92429867803E+01 -0.94140795925E+02  0.19032029588E+03  0.80055861448E+02 0.  0.
         -6    2    1    2    0  503  0.10816264586E+03  0.11366609500E+02  0.69594940448E+02  0.21500782596E+03  0.17192018996E+03 0.  0.
        -24    2    5    5    0    0  0.85907422661E+02 -0.55531376895E+02  0.27951042285E+02  0.13298990233E+03  0.80257300400E+02 0.  0.
          5    1    3    3  501    0  0.36284409529E+02 -0.21236227201E+01 -0.30043385619E+02  0.47389483725E+02  0.47000000000E+01 0. -1.
        -11    1    4    4    0    0 -0.23570559176E+02 -0.18093397091E+02  0.91348403234E+01  0.31086775096E+02  0.00000000000E+00 0.  1.
         12    1    4    4    0    0 -0.12087649621E+03  0.88504103106E+01 -0.10327563625E+03  0.15923352079E+03  0.00000000000E+00 0. -1.
         -5    1    5    5    0  503  0.22255223199E+02  0.66897986395E+02  0.41643898163E+02  0.82017923636E+02  0.47000000000E+01 0.  1.
         13    1    6    6    0    0  0.97915274496E+01  0.16641695978E+02  0.19994019412E+02  0.27795338945E+02  0.00000000000E+00 0. -1.
        -14    1    6    6    0    0  0.76115895211E+02 -0.72173072873E+02  0.79570228736E+01  0.10519456338E+03  0.00000000000E+00 0.  1.
</event>
<event>
12    1  0.8798177E-003  0.2116828E+03  0.7818608E-02  0.1140320E+00
         21   -1    0    0  503  502  0.00000000000E+00  0.00000000000E+00  0.12551224952E+04  0.12551224952E+04  0.00000000000E+00 0. -1.
         21   -1    0    0  501  503 -0.00000000000E+00 -0.00000000000E+00 -0.46247300559E+02  0.46247300559E+02  0.00000000000E+00 0. -1.
          6    2    1    2  501    0 -0.29067868857E+02 -0.11934442912E+03  0.29225333552E+03  0.36062262299E+03  0.17189715042E+03 0.  0.
         24    2    3    3    0    0  0.70347184237E+01 -0.36146129413E+02  0.24066481676E+03  0.25617733036E+03  0.79694671291E+02 0.  0.
         -6    2    1    2    0  502  0.29067868857E+02  0.11934442912E+03  0.91662185912E+03  0.94074717277E+03  0.17239946839E+03 0.  0.
        -24    2    5    5    0    0  0.48376442135E+02  0.11322116068E+03  0.36793111516E+03  0.39166253638E+03  0.53543678617E+02 0.  0.
          5    1    3    3  501    0 -0.36102587280E+02 -0.83198299712E+02  0.51588518768E+02  0.10444529263E+03  0.47000000000E+01 0. -1.
        -13    1    4    4    0    0  0.14498765674E+01  0.22585007972E+02  0.31075808107E+02  0.38443342423E+02  0.00000000000E+00 0.  1.
         14    1    4    4    0    0  0.55848418563E+01 -0.58731137385E+02  0.20958900865E+03  0.21773398794E+03  0.00000000000E+00 0. -1.
         -5    1    5    5    0  502 -0.19308573278E+02  0.61232684444E+01  0.54869074396E+03  0.54908463640E+03  0.47000000000E+01 0.  1.
         13    1    6    6    0    0  0.20783901364E+02  0.40805536800E+02  0.68729692944E+02  0.82588335022E+02  0.00000000000E+00 0. -1.
        -14    1    6    6    0    0  0.27592540770E+02  0.72415623880E+02  0.29920142221E+03  0.30907420135E+03  0.00000000000E+00 0.  1.
</event>
<event>
12    1  0.8798177E-003  0.1741950E+03  0.7818608E-02  0.1174020E+00
         21   -1    0    0  503  502  0.00000000000E+00  0.00000000000E+00  0.24322789613E+03  0.24322789613E+03  0.00000000000E+00 0. -1.
         21   -1    0    0  501  503 -0.00000000000E+00 -0.00000000000E+00 -0.13027700603E+03  0.13027700603E+03  0.00000000000E+00 0. -1.
          6    2    1    2  501    0 -0.62167272707E+01 -0.81932519410E+01  0.13896463372E+02  0.17474839808E+03  0.17389109770E+03 0.  0.
         24    2    3    3    0    0  0.20340996729E+02  0.34612207843E+00  0.75542768477E+02  0.10692074482E+03  0.72879763008E+02 0.  0.
         -6    2    1    2    0  502  0.62167272707E+01  0.81932519410E+01  0.99054426730E+02  0.19875650409E+03  0.17200753294E+03 0.  0.
        -24    2    5    5    0    0  0.53761690079E+02 -0.14227657955E+02  0.10683349795E+03  0.14541023301E+03  0.81473885447E+02 0.  0.
          5    1    3    3  501    0 -0.26557723999E+02 -0.85393740194E+01 -0.61646305104E+02  0.67827653252E+02  0.47000000000E+01 0. -1.
        -11    1    4    4    0    0 -0.70159750977E+01 -0.29522138570E+02  0.14420805030E+02  0.33596728859E+02  0.00000000000E+00 0.  1.
         12    1    4    4    0    0  0.27356971826E+02  0.29868260648E+02  0.61121963446E+02  0.73324015965E+02  0.00000000000E+00 0. -1.
         -5    1    5    5    0  502 -0.47544962809E+02  0.22420909896E+02 -0.77790712171E+01  0.53346271079E+02  0.47000000000E+01 0.  1.
         13    1    6    6    0    0 -0.12641477394E+02 -0.10004541722E+02  0.64645701781E+02  0.66625554891E+02  0.00000000000E+00 0. -1.
        -14    1    6    6    0    0  0.66403167474E+02 -0.42231162331E+01  0.42187796166E+02  0.78784678121E+02  0.00000000000E+00 0.  1.
</event>
<event>
12    1  0.8798177E-003  0.1966441E+03  0.7818608E-02  0.1152825E+00
         21   -1    0    0  503  502  0.00000000000E+00  0.00000000000E+00  0.41145736552E+02  0.41145736552E+02  0.00000000000E+00 0.  1.
         21   -1    0    0  501  503 -0.00000000000E+00 -0.00000000000E+00 -0.93617528690E+03  0.93617528690E+03  0.00000000000E+00 0.  1.
          6    2    1    2  501    0  0.87192863752E+02 -0.38583182661E+02 -0.42818982062E+03  0.47075589792E+03  0.17080203590E+03 0.  0.
         24    2    3    3    0    0  0.30979141735E+02 -0.25454130304E+02 -0.39301194734E+03  0.40299213675E+03  0.79603087617E+02 0.  0.
         -6    2    1    2    0  502 -0.87192863752E+02  0.38583182661E+02 -0.46683972972E+03  0.50656512553E+03  0.17198149809E+03 0.  0.
        -24    2    5    5    0    0 -0.13146850987E+02 -0.12603135076E+02 -0.34212588629E+03  0.35268697935E+03  0.83703671516E+02 0.  0.
          5    1    3    3  501    0  0.56213722017E+02 -0.13129052357E+02 -0.35177873280E+02  0.67763761166E+02  0.47000000000E+01 0. -1.
        -11    1    4    4    0    0  0.52489200662E+02 -0.14121235251E+02 -0.16578817611E+03  0.17447132948E+03  0.00000000000E+00 0.  1.
         12    1    4    4    0    0 -0.21510058927E+02 -0.11332895053E+02 -0.22722377123E+03  0.22852080727E+03  0.00000000000E+00 0. -1.
         -5    1    5    5    0  502 -0.74046012765E+02  0.51186317737E+02 -0.12471384343E+03  0.15387814618E+03  0.47000000000E+01 0.  1.
         13    1    6    6    0    0 -0.34785187449E+02 -0.35978816175E+02 -0.15527587428E+03  0.16314129340E+03  0.00000000000E+00 0. -1.
        -14    1    6    6    0    0  0.21638336462E+02  0.23375681099E+02 -0.18685001201E+03  0.18954568595E+03  0.00000000000E+00 0.  1.
</event>
<event>
12    1  0.8798177E-003  0.1907831E+03  0.7818608E-02  0.1157912E+00
         21   -1    0    0  503  502  0.00000000000E+00  0.00000000000E+00  0.10201683528E+03  0.10201683528E+03  0.00000000000E+00 0.  1.
         21   -1    0    0  501  503 -0.00000000000E+00 -0.00000000000E+00 -0.40476648923E+03  0.40476648923E+03  0.00000000000E+00 0.  1.
          6    2    1    2  501    0  0.78850026930E+02 -0.25012430213E+02 -0.24002123401E+03  0.30660785934E+03  0.17191636985E+03 0.  0.
         24    2    3    3    0    0  0.12161296543E+03 -0.20935971048E+02 -0.18817583152E+03  0.23911473238E+03  0.80855942423E+02 0.  0.
         -6    2    1    2    0  502 -0.78850026930E+02  0.25012430213E+02 -0.62728419941E+02  0.20017546517E+03  0.17115026665E+03 0.  0.
        -24    2    5    5    0    0 -0.11126614111E+03 -0.15203454417E+02 -0.44437155036E+02  0.14517744514E+03  0.80563829626E+02 0.  0.
          5    1    3    3  501    0 -0.42762938503E+02 -0.40764591654E+01 -0.51845402487E+02  0.67493126968E+02  0.47000000000E+01 0. -1.
        -13    1    4    4    0    0  0.68821055208E+02  0.87660710453E+01 -0.15553410999E+03  0.17030572806E+03  0.00000000000E+00 0.  1.
         14    1    4    4    0    0  0.52791910225E+02 -0.29702042093E+02 -0.32641721534E+02  0.68809004312E+02  0.00000000000E+00 0. -1.
         -5    1    5    5    0  502  0.32416114185E+02  0.40215884630E+02 -0.18291264905E+02  0.54998020030E+02  0.47000000000E+01 0.  1.
         11    1    6    6    0    0  0.19228892840E+01 -0.24142734232E+02 -0.12365588774E+02  0.27193324643E+02  0.00000000000E+00 0. -1.
        -12    1    6    6    0    0 -0.11318903040E+03  0.89392798155E+01 -0.32071566262E+02  0.11798412049E+03  0.00000000000E+00 0.  1.
</event>
<event>
12    1  0.8798177E-003  0.2985790E+03  0.7818608E-02  0.1086254E+00
         21   -1    0    0  501  502  0.00000000000E+00  0.00000000000E+00  0.29341664972E+03  0.29341664972E+03  0.00000000000E+00 0.  1.
         21   -1    0    0  502  503 -0.00000000000E+00 -0.00000000000E+00 -0.70653827647E+03  0.70653827647E+03  0.00000000000E+00 0. -1.
          6    2    1    2  501    0  0.18327160191E+03  0.16136622681E+03  0.17168147475E+03  0.34441824271E+03  0.17181925944E+03 0.  0.
         24    2    3    3    0    0  0.16234749260E+03  0.65297762186E+02  0.13961950821E+03  0.24089516343E+03  0.88973965794E+02 0.  0.
         -6    2    1    2    0  503 -0.18327160191E+03 -0.16136622681E+03 -0.58480310150E+03  0.65553668349E+03  0.16764884924E+03 0.  0.
        -24    2    5    5    0    0 -0.14867083552E+03 -0.84342260336E+02 -0.50610890407E+03  0.54001711305E+03  0.79092511587E+02 0.  0.
          5    1    3    3  501    0  0.20924109309E+02  0.96068464620E+02  0.32061966543E+02  0.10352307928E+03  0.47000000000E+01 0. -1.
        -13    1    4    4    0    0  0.54932732105E+02  0.63657210621E+02  0.87991269714E+02  0.12170583004E+03  0.00000000000E+00 0.  1.
         14    1    4    4    0    0  0.10741476050E+03  0.16405515653E+01  0.51628238492E+02  0.11918933338E+03  0.00000000000E+00 0. -1.
         -5    1    5    5    0  503 -0.34600766392E+02 -0.77023966470E+02 -0.78694197430E+02  0.11551957044E+03  0.47000000000E+01 0.  1.
         13    1    6    6    0    0 -0.77727763088E+02 -0.69420623555E+02 -0.20096382717E+03  0.22637863848E+03  0.00000000000E+00 0. -1.
        -14    1    6    6    0    0 -0.70943072433E+02 -0.14921636782E+02 -0.30514507691E+03  0.31363847457E+03  0.00000000000E+00 0.  1.
</event>
<event>
12    1  0.8798177E-003  0.1732854E+03  0.7818608E-02  0.1174659E+00
         21   -1    0    0  501  502  0.00000000000E+00  0.00000000000E+00  0.16160707478E+04  0.16160707478E+04  0.00000000000E+00 0.  1.
         21   -1    0    0  502  503 -0.00000000000E+00 -0.00000000000E+00 -0.18639076809E+02  0.18639076809E+02  0.00000000000E+00 0.  1.
          6    2    1    2  501    0 -0.74864505228E+01  0.31128639351E+01  0.86779229151E+03  0.88477553505E+03  0.17233267059E+03 0.  0.
         24    2    3    3    0    0 -0.66639347635E+02 -0.20835862535E+01  0.32365671772E+03  0.33738930852E+03  0.68064165258E+02 0.  0.
         -6    2    1    2    0  503  0.74864505228E+01 -0.31128639351E+01  0.72963937945E+03  0.74993428953E+03  0.17309557391E+03 0.  0.
        -24    2    5    5    0    0 -0.82131458869E+01  0.48170403993E+02  0.24149401842E+03  0.25882897049E+03  0.79279451594E+02 0.  0.
          5    1    3    3  501    0  0.59152897112E+02  0.51964501886E+01  0.54413557379E+03  0.54738622653E+03  0.47000000000E+01 0. -1.
        -13    1    4    4    0    0 -0.18834990608E+02  0.67510380963E+01  0.23846511351E+03  0.23930303748E+03  0.00000000000E+00 0.  1.
         14    1    4    4    0    0 -0.47804357027E+02 -0.88346243497E+01  0.85191604217E+02  0.98086271043E+02  0.00000000000E+00 0. -1.
         -5    1    5    5    0  503  0.15699596410E+02 -0.51283267928E+02  0.48814536103E+03  0.49110531904E+03  0.47000000000E+01 0.  1.
         11    1    6    6    0    0 -0.17888371032E+01 -0.18211935544E+02  0.18284148090E+02  0.25868602703E+02  0.00000000000E+00 0. -1.
        -12    1    6    6    0    0 -0.64243087836E+01  0.66382339536E+02  0.22320987033E+03  0.23296036778E+03  0.00000000000E+00 0.  1.
</event>
<event>
12    1  0.8798177E-003  0.2232473E+03  0.7818608E-02  0.1132977E+00
         21   -1    0    0  501  502  0.00000000000E+00  0.00000000000E+00  0.51243100684E+03  0.51243100684E+03  0.00000000000E+00 0.  1.
         21   -1    0    0  502  503 -0.00000000000E+00 -0.00000000000E+00 -0.10353530925E+03  0.10353530925E+03  0.00000000000E+00 0. -1.
          6    2    1    2  501    0  0.13440036363E+03 -0.48331822658E+02  0.29546656354E+03  0.36555563477E+03  0.16103108120E+03 0.  0.
         24    2    3    3    0    0  0.48515341282E+02  0.30732071926E+02  0.11291574003E+03  0.14882024390E+03  0.78098028545E+02 0.  0.
         -6    2    1    2    0  503 -0.13440036363E+03  0.48331822658E+02  0.11342913404E+03  0.25041068133E+03  0.17158064591E+03 0.  0.
        -24    2    5    5    0    0 -0.11365497917E+03 -0.31944249069E+01  0.20787290839E+02  0.14229071889E+03  0.82987219396E+02 0.  0.
          5    1    3    3  501    0  0.85885022344E+02 -0.79063894584E+02  0.18255082351E+03  0.21673539087E+03  0.47000000000E+01 0. -1.
        -11    1    4    4    0    0 -0.13692326773E+02  0.20714790931E+02  0.65243387238E+02  0.69808895953E+02  0.00000000000E+00 0.  1.
         12    1    4    4    0    0  0.62207668055E+02  0.10017280995E+02  0.47672352793E+02  0.79011347946E+02  0.00000000000E+00 0. -1.
         -5    1    5    5    0  503 -0.20745384459E+02  0.51526247564E+02  0.92641843206E+02  0.10811996243E+03  0.47000000000E+01 0.  1.
         13    1    6    6    0    0 -0.33602410600E+02 -0.40048004752E+02  0.28493732648E+01  0.52355358950E+02  0.00000000000E+00 0. -1.
        -14    1    6    6    0    0 -0.80052568567E+02  0.36853579845E+02  0.17937917574E+02  0.89935359945E+02  0.00000000000E+00 0.  1.
</event>
<event>
12    1  0.8798177E-003  0.1979147E+03  0.7818608E-02  0.1151555E+00
         21   -1    0    0  501  502  0.00000000000E+00  0.00000000000E+00  0.34684303186E+02  0.34684303186E+02  0.00000000000E+00 0.  1.
         21   -1    0    0  502  503 -0.00000000000E+00 -0.00000000000E+00 -0.12081586754E+04  0.12081586754E+04  0.00000000000E+00 0.  1.
          6    2    1    2  501    0 -0.27646511950E+02  0.93203146635E+02 -0.74637035459E+03  0.77211155555E+03  0.17215223450E+03 0.  0.
         24    2    3    3    0    0 -0.54887979249E+02  0.49192235372E+02 -0.23629525935E+03  0.25939550291E+03  0.77575840653E+02 0.  0.
         -6    2    1    2    0  503  0.27646511950E+02 -0.93203146635E+02 -0.42710401762E+03  0.47073142303E+03  0.17239221152E+03 0.  0.
        -24    2    5    5    0    0  0.31856566155E+02  0.20818297526E+02 -0.20510556583E+03  0.22108363737E+03  0.73221849616E+02 0.  0.
          5    1    3    3  501    0  0.27241467299E+02  0.44010911263E+02 -0.51007509524E+03  0.51271605264E+03  0.47000000000E+01 0. -1.
        -11    1    4    4    0    0 -0.61705600545E+02  0.21450674808E+02 -0.21218512735E+03  0.22201405554E+03  0.00000000000E+00 0.  1.
         12    1    4    4    0    0  0.68176212964E+01  0.27741560564E+02 -0.24110131999E+02  0.37381447373E+02  0.00000000000E+00 0. -1.
         -5    1    5    5    0  503 -0.42100542043E+01 -0.11402144416E+03 -0.22199845179E+03  0.24964778565E+03  0.47000000000E+01 0.  1.
         13    1    6    6    0    0  0.57407319679E+01 -0.21424499267E-01 -0.17791146326E+03  0.17800405957E+03  0.00000000000E+00 0. -1.
        -14    1    6    6    0    0  0.26115834187E+02  0.20839722026E+02 -0.27194102563E+02  0.43079577802E+02  0.00000000000E+00 0.  1.
</event>
<event>
12    1  0.8798177E-003  0.2454773E+03  0.7818608E-02  0.1116626E+00
         21   -1    0    0  503  502  0.00000000000E+00  0.00000000000E+00  0.26436562094E+03  0.26436562094E+03  0.00000000000E+00 0. -1.
         21   -1    0    0  501  503 -0.00000000000E+00 -0.00000000000E+00 -0.22826341011E+03  0.22826341011E+03  0.00000000000E+00 0.  1.
          6    2    1    2  501    0  0.11864976671E+03 -0.12312724822E+03  0.45265737402E+02  0.24961584861E+03  0.17612779025E+03 0.  0.
         24    2    3    3    0    0  0.59270671573E+01 -0.73564607871E+02  0.63258380529E+02  0.12508196760E+03  0.78720989925E+02 0.  0.
         -6    2    1    2    0  502 -0.11864976671E+03  0.12312724822E+03 -0.91635265695E+01  0.24301318244E+03  0.17243361106E+03 0.  0.
        -24    2    5    5    0    0 -0.40660161733E+02  0.10358744634E+01  0.26525605729E+02  0.93733290306E+02  0.80174810035E+02 0.  0.
          5    1    3    3  501    0  0.11272269955E+03 -0.49562640352E+02 -0.17992643127E+02  0.12453388101E+03  0.47000000000E+01 0. -1.
        -13    1    4    4    0    0  0.42337038891E+02 -0.40178223358E+02  0.31080918602E+02  0.66126681418E+02  0.00000000000E+00 0.  1.
         14    1    4    4    0    0 -0.36409971733E+02 -0.33386384513E+02  0.32177461927E+02  0.58955286179E+02  0.00000000000E+00 0. -1.
         -5    1    5    5    0  502 -0.77989604974E+02  0.12209137376E+03 -0.35689132299E+02  0.14927989213E+03  0.47000000000E+01 0.  1.
         13    1    6    6    0    0 -0.28177635364E+02  0.40005559848E+02  0.15982756994E+02  0.51476912054E+02  0.00000000000E+00 0. -1.
        -14    1    6    6    0    0 -0.12482526369E+02 -0.38969685385E+02  0.10542848735E+02  0.42256378252E+02  0.00000000000E+00 0.  1.
</event>
<event>
12    1  0.8798177E-003  0.1828699E+03  0.7818608E-02  0.1165506E+00
         21   -1    0    0  503  502  0.00000000000E+00  0.00000000000E+00  0.49785171652E+03  0.49785171652E+03  0.00000000000E+00 0. -1.
         21   -1    0    0  501  503 -0.00000000000E+00 -0.00000000000E+00 -0.66526975983E+02  0.66526975983E+02  0.00000000000E+00 0. -1.
          6    2    1    2  501    0  0.65083408097E+01 -0.60963248860E+02  0.22231851913E+03  0.28666480218E+03  0.17027127957E+03 0.  0.
         24    2    3    3    0    0  0.32520251147E+02 -0.78387756840E+02  0.79494013546E+02  0.14037344101E+03  0.78633310963E+02 0.  0.
         -6    2    1    2    0  502 -0.65083408097E+01  0.60963248860E+02  0.20900622140E+03  0.27771389032E+03  0.17228618076E+03 0.  0.
        -24    2    5    5    0    0 -0.47477386437E+02  0.69974138719E+02  0.77517324906E+02  0.13961581381E+03  0.79581137791E+02 0.  0.
          5    1    3    3  501    0 -0.26011910338E+02  0.17424507980E+02  0.14282450559E+03  0.14629136117E+03  0.47000000000E+01 0. -1.
        -13    1    4    4    0    0 -0.24830050454E+02 -0.38408022079E+02  0.29429230942E+02  0.54385542191E+02  0.00000000000E+00 0.  1.
         14    1    4    4    0    0  0.57350301601E+02 -0.39979734761E+02  0.50064782604E+02  0.85987898815E+02  0.00000000000E+00 0. -1.
         -5    1    5    5    0  502  0.40969045627E+02 -0.90108898595E+01  0.13148889650E+03  0.13809807652E+03  0.47000000000E+01 0.  1.
         11    1    6    6    0    0 -0.37789802764E+02 -0.24811993480E+01  0.79351961480E+01  0.38693576741E+02  0.00000000000E+00 0. -1.
        -12    1    6    6    0    0 -0.96875836732E+01  0.72455338067E+02  0.69582128758E+02  0.10092223707E+03  0.00000000000E+00 0.  1.
</event>
<event>
12    1  0.8798177E-003  0.3734567E+03  0.7818608E-02  0.1053393E+00
         21   -1    0    0  501  502  0.00000000000E+00  0.00000000000E+00  0.10932858137E+03  0.10932858137E+03  0.00000000000E+00 0.  1.
         21   -1    0    0  502  503 -0.00000000000E+00 -0.00000000000E+00 -0.12960937531E+04  0.12960937531E+04  0.00000000000E+00 0. -1.
          6    2    1    2  501    0 -0.33024918532E+03 -0.32577185795E+02 -0.50401707279E+03  0.62720973209E+03  0.17097672629E+03 0.  0.
         24    2    3    3    0    0 -0.25618450030E+03 -0.76023259362E+02 -0.32071319484E+03  0.42473617691E+03  0.78318787512E+02 0.  0.
         -6    2    1    2    0  503  0.33024918532E+03  0.32577185795E+02 -0.68274809898E+03  0.77821260241E+03  0.17130116882E+03 0.  0.
        -24    2    5    5    0    0  0.19583457748E+03  0.69947486026E+02 -0.32400767969E+03  0.39327026312E+03  0.80228989888E+02 0.  0.
          5    1    3    3  501    0 -0.74064685020E+02  0.43446073568E+02 -0.18330387795E+03  0.20247355518E+03  0.47000000000E+01 0. -1.
        -11    1    4    4    0    0 -0.94847316418E+02  0.78446461798E+01 -0.13136782957E+03  0.16221916826E+03  0.00000000000E+00 0.  1.
         12    1    4    4    0    0 -0.16133718389E+03 -0.83867905542E+02 -0.18934536527E+03  0.26251700865E+03  0.00000000000E+00 0. -1.
         -5    1    5    5    0  503  0.13441460784E+03 -0.37370300231E+02 -0.35874041929E+03  0.38494233929E+03  0.47000000000E+01 0.  1.
         11    1    6    6    0    0  0.10592830568E+03  0.10916835565E+02 -0.21611455529E+03  0.24092630461E+03  0.00000000000E+00 0. -1.
        -12    1    6    6    0    0  0.89906271800E+02  0.59030650461E+02 -0.10789312440E+03  0.15234395851E+03  0.00000000000E+00 0.  1.
</event>
<event>
12    1  0.8798177E-003  0.2669886E+03  0.7818608E-02  0.1103083E+00
         21   -1    0    0  501  502  0.00000000000E+00  0.00000000000E+00  0.31291097437E+03  0.31291097437E+03  0.00000000000E+00 0.  1.
         21   -1    0    0  502  503 -0.00000000000E+00 -0.00000000000E+00 -0.25124306681E+03  0.25124306681E+03  0.00000000000E+00 0.  1.
          6    2    1    2  501    0  0.20076295542E+03  0.34963530749E+02  0.11773935780E+03  0.29179700560E+03  0.17249557487E+03 0.  0.
         24    2    3    3    0    0  0.20115017626E+03 -0.54399043021E+01  0.11437474939E+03  0.25098036569E+03  0.97049341550E+02 0.  0.
         -6    2    1    2    0  503 -0.20076295542E+03 -0.34963530749E+02 -0.56071450239E+02  0.27235703558E+03  0.17177349779E+03 0.  0.
        -24    2    5    5    0    0 -0.28164148599E+02  0.12182588952E+02 -0.13131106531E+02  0.88294361907E+02  0.81742483727E+02 0.  0.
          5    1    3    3  501    0 -0.38722083674E+00  0.40403435051E+02  0.33646084150E+01  0.40816639912E+02  0.47000000000E+01 0. -1.
        -13    1    4    4    0    0  0.41961234894E+02  0.25485271925E+02 -0.53826053443E+01  0.49388427382E+02  0.00000000000E+00 0.  1.
         14    1    4    4    0    0  0.15918894137E+03 -0.30925176227E+02  0.11975735473E+03  0.20159193831E+03  0.00000000000E+00 0. -1.
         -5    1    5    5    0  503 -0.17259880683E+03 -0.47146119701E+02 -0.42940343708E+02  0.18406267367E+03  0.47000000000E+01 0.  1.
         13    1    6    6    0    0  0.12919274190E+01 -0.27934228473E+02 -0.24572735489E+02  0.37226462715E+02  0.00000000000E+00 0. -1.
        -14    1    6    6    0    0 -0.29456076018E+02  0.40116817425E+02  0.11441628958E+02  0.51067899192E+02  0.00000000000E+00 0.  1.
</event>
<event>
12    1  0.8798177E-003  0.1870172E+03  0.7818608E-02  0.1161909E+00
         21   -1    0    0  503  502  0.00000000000E+00  0.00000000000E+00  0.37366656005E+02  0.37366656005E+02  0.00000000000E+00 0.  1.
         21   -1    0    0  501  503 -0.00000000000E+00 -0.00000000000E+00 -0.99993885040E+03  0.99993885040E+03  0.00000000000E+00 0.  1.
          6    2    1    2  501    0  0.39331025852E+02 -0.64795893611E+02 -0.63134188236E+03  0.65845881334E+03  0.17096783035E+03 0.  0.
         24    2    3    3    0    0  0.86085172825E+02 -0.75072021501E+02 -0.48089115763E+03  0.50050610005E+03  0.78762842166E+02 0.  0.
         -6    2    1    2    0  502 -0.39331025852E+02  0.64795893611E+02 -0.33123031203E+03  0.37884669306E+03  0.16752868356E+03 0.  0.
        -24    2    5    5    0    0 -0.69135643875E+02  0.93334709200E+02 -0.23242273924E+03  0.27166551145E+03  0.79314029038E+02 0.  0.
          5    1    3    3  501    0 -0.46754146973E+02  0.10276127889E+02 -0.15045072473E+03  0.15795271329E+03  0.47000000000E+01 0. -1.
        -13    1    4    4    0    0  0.31029522191E+02 -0.55872206429E+02 -0.36735526336E+03  0.37287320126E+03  0.00000000000E+00 0.  1.
         14    1    4    4    0    0  0.55055650634E+02 -0.19199815071E+02 -0.11353589426E+03  0.12763289878E+03  0.00000000000E+00 0. -1.
         -5    1    5    5    0  502  0.29804618023E+02 -0.28538815588E+02 -0.98807572788E+02  0.10718118161E+03  0.47000000000E+01 0.  1.
         13    1    6    6    0    0 -0.17838527024E+02  0.68299093422E+02 -0.18306898715E+03  0.19620711828E+03  0.00000000000E+00 0. -1.
        -14    1    6    6    0    0 -0.51297116851E+02  0.25035615778E+02 -0.49353752089E+02  0.75458393170E+02  0.00000000000E+00 0.  1.
</event>
<event>
12    1  0.8798177E-003  0.1793300E+03  0.7818608E-02  0.1168753E+00
         21   -1    0    0  503  502  0.00000000000E+00  0.00000000000E+00  0.77477743340E+03  0.77477743340E+03  0.00000000000E+00 0.  1.
         21   -1    0    0  501  503 -0.00000000000E+00 -0.00000000000E+00 -0.41243985775E+02  0.41243985775E+02  0.00000000000E+00 0.  1.
          6    2    1    2  501    0  0.22877538200E+02  0.54117348912E+02  0.35643155471E+03  0.39845097253E+03  0.16812987573E+03 0.  0.
         24    2    3    3    0    0 -0.29890858668E+02 -0.27907106263E+01  0.11641120810E+03  0.14615176973E+03  0.83111484921E+02 0.  0.
         -6    2    1    2    0  502 -0.22877538200E+02 -0.54117348912E+02  0.37710189292E+03  0.41757044664E+03  0.16943190686E+03 0.  0.
        -24    2    5    5    0    0 -0.63074956482E+02  0.21675428273E+01  0.15489978989E+03  0.18480514411E+03  0.78586563764E+02 0.  0.
          5    1    3    3  501    0  0.52768396868E+02  0.56908059538E+02  0.24002034661E+03  0.25229920281E+03  0.47000000000E+01 0. -1.
        -11    1    4    4    0    0  0.28629022447E+02 -0.65888433212E+00  0.27596820179E+02  0.39769832019E+02  0.00000000000E+00 0.  1.
         12    1    4    4    0    0 -0.58519881115E+02 -0.21318262942E+01  0.88814387918E+02  0.10638193771E+03  0.00000000000E+00 0. -1.
         -5    1    5    5    0  502  0.40197418282E+02 -0.56284891739E+02  0.22220210303E+03  0.23276530254E+03  0.47000000000E+01 0.  1.
         13    1    6    6    0    0 -0.58214700054E+02 -0.31600585559E+02  0.11017479063E+03  0.12855361838E+03  0.00000000000E+00 0. -1.
        -14    1    6    6    0    0 -0.48602564283E+01  0.33768128387E+02  0.44724999261E+02  0.56251525723E+02  0.00000000000E+00 0.  1.
</event>
<event>
12    1  0.8798177E-003  0.3098089E+03  0.7818608E-02  0.1080623E+00
         21   -1    0    0  501  502  0.00000000000E+00  0.00000000000E+00  0.31166897077E+03  0.31166897077E+03  0.00000000000E+00 0. -1.
         21   -1    0    0  502  503 -0.00000000000E+00 -0.00000000000E+00 -0.31257971017E+03  0.31257971017E+03  0.00000000000E+00 0. -1.
          6    2    1    2  501    0 -0.25135903429E+03  0.39922069804E+02 -0.44250772930E+02  0.31295312292E+03  0.17665330584E+03 0.  0.
         24    2    3    3    0    0 -0.24136185514E+03  0.77213523667E+02 -0.56161768479E+02  0.27227686526E+03  0.82237909536E+02 0.  0.
         -6    2    1    2    0  503  0.25135903429E+03 -0.39922069804E+02  0.43340033538E+02  0.31129555802E+03  0.17392938267E+03 0.  0.
        -24    2    5    5    0    0  0.25951684916E+03 -0.57394856945E+02  0.16205369532E+02  0.27767669092E+03  0.78730972813E+02 0.  0.
          5    1    3    3  501    0 -0.99971791528E+01 -0.37291453862E+02  0.11910995548E+02  0.40676257659E+02  0.47000000000E+01 0. -1.
        -13    1    4    4    0    0  0.31041505561E+01 -0.64316342982E+01 -0.54110936490E+01  0.89600002733E+01  0.00000000000E+00 0.  1.
         14    1    4    4    0    0 -0.24446600570E+03  0.83645157965E+02 -0.50750674830E+02  0.26331686499E+03  0.00000000000E+00 0. -1.
         -5    1    5    5    0  503 -0.81578148663E+01  0.17472787141E+02  0.27134664006E+02  0.33618867093E+02  0.47000000000E+01 0.  1.
         13    1    6    6    0    0  0.10945158111E+03 -0.60851280263E+02  0.23408382832E+02  0.12739889836E+03  0.00000000000E+00 0. -1.
        -14    1    6    6    0    0  0.15006526805E+03  0.34564233178E+01 -0.72030132994E+01  0.15027779256E+03  0.00000000000E+00 0.  1.
</event>
<event>
12    1  0.8798177E-003  0.2305810E+03  0.7818608E-02  0.1126979E+00
         21   -1    0    0  501  502  0.00000000000E+00  0.00000000000E+00  0.24913425321E+03  0.24913425321E+03  0.00000000000E+00 0.  1.
         21   -1    0    0  502  503 -0.00000000000E+00 -0.00000000000E+00 -0.21019242546E+03  0.21019242546E+03  0.00000000000E+00 0.  1.
          6    2    1    2  501    0 -0.10963592928E+03  0.10538573581E+03  0.63072959385E+01  0.22644769193E+03  0.16766807955E+03 0.  0.
         24    2    3    3    0    0 -0.41225676554E+02  0.51244701638E+01 -0.37433235956E+02  0.97344600580E+02  0.79680032041E+02 0.  0.
         -6    2    1    2    0  503  0.10963592928E+03 -0.10538573581E+03  0.32634531807E+02  0.23287898673E+03  0.17332460730E+03 0.  0.
        -24    2    5    5    0    0  0.74517681303E+02 -0.75275959872E+02  0.89752091104E+02  0.15922849096E+03  0.77967425979E+02 0.  0.
          5    1    3    3  501    0 -0.68410252725E+02  0.10026126564E+03  0.43740531895E+02  0.12910309135E+03  0.47000000000E+01 0. -1.
        -11    1    4    4    0    0 -0.58840144036E+02  0.89611845854E+00 -0.48378059591E+02  0.76180064507E+02  0.00000000000E+00 0.  1.
         12    1    4    4    0    0  0.17614467482E+02  0.42283517052E+01  0.10944823634E+02  0.21164536073E+02  0.00000000000E+00 0. -1.
         -5    1    5    5    0  503  0.35118247976E+02 -0.30109775936E+02 -0.57117559297E+02  0.73650495775E+02  0.47000000000E+01 0.  1.
         11    1    6    6    0    0 -0.11408130590E+02 -0.33725346745E+02  0.18507996002E+02  0.40125931424E+02  0.00000000000E+00 0. -1.
        -12    1    6    6    0    0  0.85925811893E+02 -0.41550613127E+02  0.71244095102E+02  0.11910255953E+03  0.00000000000E+00 0.  1.
</event>
<event>
12    1  0.8798177E-003  0.1871332E+03  0.7818608E-02  0.1161227E+00
         21   -1    0    0  503  502  0.00000000000E+00  0.00000000000E+00  0.16510252493E+04  0.16510252493E+04  0.00000000000E+00 0.  1.
         21   -1    0    0  501  503 -0.00000000000E+00 -0.00000000000E+00 -0.21208140115E+02  0.21208140115E+02  0.00000000000E+00 0.  1.
          6    2    1    2  501    0 -0.64042173943E+01 -0.74482849347E+02  0.76709736823E+03  0.78959307247E+03  0.17155214627E+03 0.  0.
         24    2    3    3    0    0 -0.30803936261E+02 -0.80111634558E+02  0.74960409011E+03  0.75868782561E+03  0.79587488595E+02 0.  0.
         -6    2    1    2    0  502  0.64042173943E+01  0.74482849347E+02  0.86271974091E+03  0.88264031690E+03  0.17082116035E+03 0.  0.
        -24    2    5    5    0    0  0.14834455049E+02  0.16643947506E+02  0.75801937158E+03  0.76263754689E+03  0.80781050949E+02 0.  0.
          5    1    3    3  501    0  0.24399718866E+02  0.56287852111E+01  0.17493278122E+02  0.30905246855E+02  0.47000000000E+01 0. -1.
        -11    1    4    4    0    0 -0.40086214380E+02 -0.13122458036E+02  0.42657399705E+03  0.42865426446E+03  0.00000000000E+00 0.  1.
         12    1    4    4    0    0  0.92822781192E+01 -0.66989176522E+02  0.32303009306E+03  0.33003356115E+03  0.00000000000E+00 0. -1.
         -5    1    5    5    0  502 -0.84302376545E+01  0.57838901841E+02  0.10470036933E+03  0.12000277001E+03  0.47000000000E+01 0.  1.
         13    1    6    6    0    0 -0.19032419038E+02  0.38393428024E+01  0.60803283577E+03  0.60834275118E+03  0.00000000000E+00 0. -1.
        -14    1    6    6    0    0  0.33866874087E+02  0.12804604703E+02  0.14998653581E+03  0.15429479572E+03  0.00000000000E+00 0.  1.
</event>
<event>
12    1  0.8798177E-003  0.2570222E+03  0.7818608E-02  0.1109362E+00
         21   -1    0    0  501  502  0.00000000000E+00  0.00000000000E+00  0.46023365228E+02  0.46023365228E+02  0.00000000000E+00 0.  1.
         21   -1    0    0  502  503 -0.00000000000E+00 -0.00000000000E+00 -0.14419960779E+04  0.14419960779E+04  0.00000000000E+00 0. -1.
          6    2    1    2  501    0  0.14168058305E+03  0.12890557434E+03 -0.61025133863E+03  0.66216849660E+03  0.17137790664E+03 0.  0.
         24    2    3    3    0    0  0.45878817007E+02  0.62611030960E+02 -0.15202154810E+03  0.18933705117E+03  0.81932660225E+02 0.  0.
         -6    2    1    2    0  503 -0.14168058305E+03 -0.12890557434E+03 -0.78572137399E+03  0.82585094648E+03  0.16727723557E+03 0.  0.
        -24    2    5    5    0    0 -0.59311336252E+02 -0.13747813446E+03 -0.48335214361E+03  0.51231080058E+03  0.80093630191E+02 0.  0.
          5    1    3    3  501    0  0.95801766045E+02  0.66294543377E+02 -0.45822979053E+03  0.47283144543E+03  0.47000000000E+01 0. -1.
        -13    1    4    4    0    0  0.45864188481E+02  0.80648898384E+02 -0.11198622453E+03  0.14542586799E+03  0.00000000000E+00 0.  1.
         14    1    4    4    0    0  0.14628525949E-01 -0.18037867424E+02 -0.40035323571E+02  0.43911183184E+02  0.00000000000E+00 0. -1.
         -5    1    5    5    0  503 -0.82369246800E+02  0.85725601275E+01 -0.30236923038E+03  0.31354014589E+03  0.47000000000E+01 0.  1.
         11    1    6    6    0    0 -0.34302464100E+02 -0.93758597782E+02 -0.41824536644E+03  0.42999595376E+03  0.00000000000E+00 0. -1.
        -12    1    6    6    0    0 -0.25008872153E+02 -0.43719536682E+02 -0.65106777173E+02  0.82314846825E+02  0.00000000000E+00 0.  1.
</event>
<event>
12    1  0.8798177E-003  0.3228627E+03  0.7818608E-02  0.1074477E+00
         21   -1    0    0  503  502  0.00000000000E+00  0.00000000000E+00  0.48783073138E+03  0.48783073138E+03  0.00000000000E+00 0. -1.
         21   -1    0    0  501  503 -0.00000000000E+00 -0.00000000000E+00 -0.21382043499E+03  0.21382043499E+03  0.00000000000E+00 0.  1.
          6    2    1    2  501    0 -0.27210147141E+03  0.75384201557E+01  0.16052982128E+03  0.36056918575E+03  0.17362106920E+03 0.  0.
         24    2    3    3    0    0 -0.18675697392E+03  0.31686559640E+01  0.31285315613E+02  0.20555624972E+03  0.79914911857E+02 0.  0.
         -6    2    1    2    0  502  0.27210147141E+03 -0.75384201557E+01  0.11348047510E+03  0.34108198062E+03  0.17135653111E+03 0.  0.
        -24    2    5    5    0    0  0.11277073477E+03 -0.16593654813E+01 -0.64780587404E+01  0.14149995046E+03  0.85207268591E+02 0.  0.
          5    1    3    3  501    0 -0.85344497489E+02  0.43697641917E+01  0.12924450567E+03  0.15501293603E+03  0.47000000000E+01 0. -1.
        -13    1    4    4    0    0 -0.11908554993E+03 -0.13622687496E+02  0.55042682308E+02  0.13189633312E+03  0.00000000000E+00 0.  1.
         14    1    4    4    0    0 -0.67671423997E+02  0.16791343460E+02 -0.23757366695E+02  0.73659916598E+02  0.00000000000E+00 0. -1.
         -5    1    5    5    0  502  0.15933073664E+03 -0.58790546744E+01  0.11995853384E+03  0.19958203016E+03  0.47000000000E+01 0.  1.
         11    1    6    6    0    0  0.10132903983E+03 -0.32620878061E+02  0.49611060552E+01  0.10656598224E+03  0.00000000000E+00 0. -1.
        -12    1    6    6    0    0  0.11441694946E+02  0.30961512580E+02 -0.11439164796E+02  0.34933968222E+02  0.00000000000E+00 0.  1.
</event>
<event>
12    1  0.8798177E-003  0.1994665E+03  0.7818608E-02  0.1150743E+00
         21   -1    0    0  501  502  0.00000000000E+00  0.00000000000E+00  0.41044491815E+03  0.41044491815E+03  0.00000000000E+00 0. -1.
         21   -1    0    0  502  503 -0.00000000000E+00 -0.00000000000E+00 -0.10765236265E+03  0.10765236265E+03  0.00000000000E+00 0. -1.
          6    2    1    2  501    0 -0.70795380331E+02 -0.72045950964E+02  0.64127044538E+02  0.20705367071E+03  0.16898621182E+03 0.  0.
         24    2    3    3    0    0 -0.83731504836E+01 -0.63802840627E+02  0.88388930930E+02  0.13941335153E+03  0.86501834386E+02 0.  0.
         -6    2    1    2    0  503  0.70795380331E+02  0.72045950964E+02  0.23866551097E+03  0.31104361010E+03  0.17200086143E+03 0.  0.
        -24    2    5    5    0    0  0.28682321940E+02  0.10310026187E+02  0.21633156405E+03  0.23290444399E+03  0.80722748932E+02 0.  0.
          5    1    3    3  501    0 -0.62422229848E+02 -0.82431103366E+01 -0.24261886392E+02  0.67640319178E+02  0.47000000000E+01 0. -1.
        -11    1    4    4    0    0 -0.47293101018E+01 -0.49991094589E+02  0.34223387455E+00  0.50215466106E+02  0.00000000000E+00 0.  1.
         12    1    4    4    0    0 -0.36438403818E+01 -0.13811746038E+02  0.88046697055E+02  0.89197885422E+02  0.00000000000E+00 0. -1.
         -5    1    5    5    0  503  0.42113058391E+02  0.61735924776E+02  0.22333946919E+02  0.78139166108E+02  0.47000000000E+01 0.  1.
         13    1    6    6    0    0 -0.12156075124E+02  0.27249555899E+02  0.15164226564E+03  0.15454994399E+03  0.00000000000E+00 0. -1.
        -14    1    6    6    0    0  0.40838397064E+02 -0.16939529711E+02  0.64689298406E+02  0.78354499998E+02  0.00000000000E+00 0.  1.
</event>
<event>
12    1  0.8798177E-003  0.2263688E+03  0.7818608E-02  0.1130041E+00
         21   -1    0    0  501  502  0.00000000000E+00  0.00000000000E+00  0.21473900029E+03  0.21473900029E+03  0.00000000000E+00 0.  1.
         21   -1    0    0  502  503 -0.00000000000E+00 -0.00000000000E+00 -0.23457987908E+03  0.23457987908E+03  0.00000000000E+00 0.  1.
          6    2    1    2  501    0  0.11839618167E+03  0.73152337466E+02  0.23005437161E+01  0.22186978568E+03  0.17277728146E+03 0.  0.
         24    2    3    3    0    0  0.13308928791E+02  0.18237520387E+02  0.46828472703E+02  0.95126760977E+02  0.79664672616E+02 0.  0.
         -6    2    1    2    0  503 -0.11839618167E+03 -0.73152337466E+02 -0.22141422506E+02  0.22744909369E+03  0.17853270659E+03 0.  0.
        -24    2    5    5    0    0 -0.76172612758E+01  0.43757238087E+01  0.25095358176E+02  0.84145315176E+02  0.79834124508E+02 0.  0.
          5    1    3    3  501    0  0.10508725288E+03  0.54914817079E+02 -0.44527928987E+02  0.12674302471E+03  0.47000000000E+01 0. -1.
        -11    1    4    4    0    0  0.40254729275E+02  0.31150568187E+02  0.39317865195E+02  0.64317148965E+02  0.00000000000E+00 0.  1.
         12    1    4    4    0    0 -0.26945800485E+02 -0.12913047800E+02  0.75106075076E+01  0.30809612013E+02  0.00000000000E+00 0. -1.
         -5    1    5    5    0  503 -0.11077892039E+03 -0.77528061275E+02 -0.47236780683E+02  0.14330377852E+03  0.47000000000E+01 0.  1.
         13    1    6    6    0    0 -0.15784437030E+02  0.15682609735E+02  0.50488222723E+02  0.55173846469E+02  0.00000000000E+00 0. -1.
        -14    1    6    6    0    0  0.81671757540E+01 -0.11306885926E+02 -0.25392864547E+02  0.28971468707E+02  0.00000000000E+00 0.  1.
</event>
<event>
12    1  0.8798177E-003  0.3482106E+03  0.7818608E-02  0.1063470E+00
         21   -1    0    0  501  502  0.00000000000E+00  0.00000000000E+00  0.23004261189E+03  0.23004261189E+03  0.00000000000E+00 0.  1.
         21   -1    0    0  502  503 -0.00000000000E+00 -0.00000000000E+00 -0.53272889767E+03  0.53272889767E+03  0.00000000000E+00 0. -1.
          6    2    1    2  501    0  0.15518873352E+03  0.26031942506E+03 -0.10623308885E+03  0.36296594750E+03  0.16914214082E+03 0.  0.
         24    2    3    3    0    0  0.15186150029E+03  0.16886878388E+03 -0.12143612529E+03  0.27008154315E+03  0.81355552886E+02 0.  0.
         -6    2    1    2    0  503 -0.15518873352E+03 -0.26031942506E+03 -0.19645319693E+03  0.39980556207E+03  0.17146685629E+03 0.  0.
        -24    2    5    5    0    0 -0.12159842324E+03 -0.17921740335E+03 -0.20902460147E+03  0.31100253801E+03  0.78270303629E+02 0.  0.
          5    1    3    3  501    0  0.33272332292E+01  0.91450641182E+02  0.15203036446E+02  0.92884404346E+02  0.47000000000E+01 0. -1.
        -11    1    4    4    0    0  0.94528763695E+02  0.14548622654E+03 -0.61973699198E+02  0.18423536216E+03  0.00000000000E+00 0.  1.
         12    1    4    4    0    0  0.57332736595E+02  0.23382557337E+02 -0.59462426096E+02  0.85846180989E+02  0.00000000000E+00 0. -1.
         -5    1    5    5    0  503 -0.33590310283E+02 -0.81102021706E+02  0.12571404547E+02  0.88803024059E+02  0.47000000000E+01 0.  1.
         11    1    6    6    0    0 -0.11092860260E+03 -0.12172105073E+03 -0.11717314498E+03  0.20211559803E+03  0.00000000000E+00 0. -1.
        -12    1    6    6    0    0 -0.10669820641E+02 -0.57496352624E+02 -0.91851456492E+02  0.10888693998E+03  0.00000000000E+00 0.  1.
</event>
<event>
12    1  0.8798177E-003  0.1966867E+03  0.7818608E-02  0.1152669E+00
         21   -1    0    0  503  502  0.00000000000E+00  0.00000000000E+00  0.27258551253E+03  0.27258551253E+03  0.00000000000E+00 0. -1.
         21   -1    0    0  501  503 -0.00000000000E+00 -0.00000000000E+00 -0.14174975885E+03  0.14174975885E+03  0.00000000000E+00 0. -1.
          6    2    1    2  501    0  0.41762431829E+02 -0.86324548752E+02  0.58222176349E+02  0.20512312624E+03  0.17172549802E+03 0.  0.
         24    2    3    3    0    0 -0.28749923271E+02 -0.93207151707E+02  0.39353953475E+02  0.13165570299E+03  0.79185600062E+02 0.  0.
         -6    2    1    2    0  502 -0.41762431829E+02  0.86324548752E+02  0.72613577327E+02  0.20921214514E+03  0.17117523663E+03 0.  0.
        -24    2    5    5    0    0  0.45401503044E+01  0.52823220555E+02  0.10247255083E+03  0.14455987216E+03  0.87097803485E+02 0.  0.
          5    1    3    3  501    0  0.70512355100E+02  0.68826029552E+01  0.18868222875E+02  0.73467423255E+02  0.47000000000E+01 0. -1.
        -11    1    4    4    0    0 -0.11133942950E+02 -0.81811897112E+02  0.60120871667E+02  0.10213554917E+03  0.00000000000E+00 0.  1.
         12    1    4    4    0    0 -0.17615980321E+02 -0.11395254596E+02 -0.20766918193E+02  0.29520153814E+02  0.00000000000E+00 0. -1.
         -5    1    5    5    0  502 -0.46302582133E+02  0.33501328197E+02 -0.29858973500E+02  0.64652272981E+02  0.47000000000E+01 0.  1.
         11    1    6    6    0    0 -0.15577570917E+02 -0.10154466534E+02  0.66998467769E+02  0.69531062049E+02  0.00000000000E+00 0. -1.
        -12    1    6    6    0    0  0.20117721221E+02  0.62977687089E+02  0.35474083058E+02  0.75028810113E+02  0.00000000000E+00 0.  1.
</event>
<event>
12    1  0.8798177E-003  0.2551678E+03  0.7818608E-02  0.1110913E+00
         21   -1    0    0  501  502  0.00000000000E+00  0.00000000000E+00  0.11878035947E+04  0.11878035947E+04  0.00000000000E+00 0.  1.
         21   -1    0    0  502  503 -0.00000000000E+00 -0.00000000000E+00 -0.54766318128E+02  0.54766318128E+02  0.00000000000E+00 0. -1.
          6    2    1    2  501    0  0.13750446858E+03 -0.11902841190E+03  0.64836721007E+03  0.69483304848E+03  0.17128246974E+03 0.  0.
         24    2    3    3    0    0  0.25765041580E+02 -0.11249042710E+02  0.31833147496E+03  0.33007591226E+03  0.82612357272E+02 0.  0.
         -6    2    1    2    0  503 -0.13750446858E+03  0.11902841190E+03  0.48467006649E+03  0.54773686434E+03  0.17898423809E+03 0.  0.
        -24    2    5    5    0    0 -0.16506163130E+03  0.12966663791E+03  0.44301760859E+03  0.49645737215E+03  0.78399883495E+02 0.  0.
          5    1    3    3  501    0  0.11173942700E+03 -0.10777936919E+03  0.33003573511E+03  0.36475713622E+03  0.47000000000E+01 0. -1.
        -11    1    4    4    0    0  0.48287241482E+02 -0.92571697531E+01  0.28841856081E+03  0.29257925269E+03  0.00000000000E+00 0.  1.
         12    1    4    4    0    0 -0.22522199902E+02 -0.19918729568E+01  0.29912914150E+02  0.37496659574E+02  0.00000000000E+00 0. -1.
         -5    1    5    5    0  503  0.27557162721E+02 -0.10638226002E+02  0.41652457900E+02  0.51279492186E+02  0.47000000000E+01 0.  1.
         13    1    6    6    0    0 -0.12591225984E+03  0.61296403988E+02  0.22931126566E+03  0.26869090583E+03  0.00000000000E+00 0. -1.
        -14    1    6    6    0    0 -0.39149371468E+02  0.68370233918E+02  0.21370634293E+03  0.22776646632E+03  0.00000000000E+00 0.  1.
</event>
<event>
12    1  0.8798177E-003  0.1775403E+03  0.7818608E-02  0.1170393E+00
         21   -1    0    0  503  502  0.00000000000E+00  0.00000000000E+00  0.31105802520E+03  0.31105802520E+03  0.00000000000E+00 0.  1.
         21   -1    0    0  501  503 -0.00000000000E+00 -0.00000000000E+00 -0.10093225141E+03  0.10093225141E+03  0.00000000000E+00 0.  1.
          6    2    1    2  501    0  0.36571325666E+02 -0.13985135223E+02  0.10855549937E+03  0.20744914620E+03  0.17238853195E+03 0.  0.
         24    2    3    3    0    0  0.55897332228E+02 -0.61143253405E+02  0.10564768319E+03  0.15618582564E+03  0.79809585765E+02 0.  0.
         -6    2    1    2    0  502 -0.36571325666E+02  0.13985135223E+02  0.10157027442E+03  0.20454113041E+03  0.17316901431E+03 0.  0.
        -24    2    5    5    0    0 -0.32990743392E+02 -0.36333609713E+02  0.12226746537E+03  0.14981215843E+03  0.71315001089E+02 0.  0.
          5    1    3    3  501    0 -0.19326006563E+02  0.47158118182E+02  0.29078161809E+01  0.51263320562E+02  0.47000000000E+01 0. -1.
        -13    1    4    4    0    0  0.51969272630E+02 -0.58495228244E+01  0.78845899281E+02  0.94613413681E+02  0.00000000000E+00 0.  1.
         14    1    4    4    0    0  0.39280595987E+01 -0.55293730581E+02  0.26801783912E+02  0.61572411961E+02  0.00000000000E+00 0. -1.
         -5    1    5    5    0  502 -0.35805822732E+01  0.50318744937E+02 -0.20697190954E+02  0.54728971987E+02  0.47000000000E+01 0.  1.
         11    1    6    6    0    0 -0.11595933289E+02  0.10414899853E+02  0.84738706049E+02  0.86160223483E+02  0.00000000000E+00 0. -1.
        -12    1    6    6    0    0 -0.21394810103E+02 -0.46748509566E+02  0.37528759320E+02  0.63651934944E+02  0.00000000000E+00 0.  1.
</event>
<event>
12    1  0.8798177E-003  0.2050047E+03  0.7818608E-02  0.1145957E+00
         21   -1    0    0  503  502  0.00000000000E+00  0.00000000000E+00  0.32101636788E+02  0.32101636788E+02  0.00000000000E+00 0.  1.
         21   -1    0    0  501  503 -0.00000000000E+00 -0.00000000000E+00 -0.14418211443E+04  0.14418211443E+04  0.00000000000E+00 0. -1.
          6    2    1    2  501    0 -0.62060180171E+02 -0.89440500689E+02 -0.94074587968E+03  0.96282383987E+03  0.17371202420E+03 0.  0.
         24    2    3    3    0    0  0.35278045615E+02 -0.45541603759E+02 -0.45671085364E+03  0.46712853044E+03  0.79408324154E+02 0.  0.
         -6    2    1    2    0  502  0.62060180171E+02  0.89440500689E+02 -0.46897362779E+03  0.51109894118E+03  0.17156571624E+03 0.  0.
        -24    2    5    5    0    0  0.23015246454E+01  0.30714093018E+02 -0.37534125170E+03  0.38536509641E+03  0.81710157139E+02 0.  0.
          5    1    3    3  501    0 -0.97338225786E+02 -0.43898896930E+02 -0.48403502604E+03  0.49569530942E+03  0.47000000000E+01 0. -1.
        -13    1    4    4    0    0 -0.17847602316E+02  0.30033961572E+01 -0.19063970555E+03  0.19149687890E+03  0.00000000000E+00 0.  1.
         14    1    4    4    0    0  0.53125647931E+02 -0.48544999916E+02 -0.26607114809E+03  0.27563165154E+03  0.00000000000E+00 0. -1.
         -5    1    5    5    0  502  0.59758655525E+02  0.58726407671E+02 -0.93632376093E+02  0.12573384477E+03  0.47000000000E+01 0.  1.
         11    1    6    6    0    0  0.15501748547E+02 -0.24538654701E+02 -0.16257770161E+03  0.16514829349E+03  0.00000000000E+00 0. -1.
        -12    1    6    6    0    0 -0.13200223902E+02  0.55252747719E+02 -0.21276355008E+03  0.22021680291E+03  0.00000000000E+00 0.  1.
</event>
<event>
12    1  0.8798177E-003  0.1853347E+03  0.7818608E-02  0.1163280E+00
         21   -1    0    0  503  502  0.00000000000E+00  0.00000000000E+00  0.50093978949E+03  0.50093978949E+03  0.00000000000E+00 0. -1.
         21   -1    0    0  501  503 -0.00000000000E+00 -0.00000000000E+00 -0.72392118352E+02  0.72392118352E+02  0.00000000000E+00 0. -1.
          6    2    1    2  501    0 -0.44355019642E+02 -0.50226903042E+02  0.14015702190E+03  0.23052277722E+03  0.17031338900E+03 0.  0.
         24    2    3    3    0    0 -0.70214208529E+02 -0.75078920577E+02  0.14406947123E+03  0.19413984599E+03  0.79795913836E+02 0.  0.
         -6    2    1    2    0  502  0.44355019642E+02  0.50226903042E+02  0.28839064923E+03  0.34280913062E+03  0.17279705991E+03 0.  0.
        -24    2    5    5    0    0  0.24969732948E+02  0.77627477931E+02  0.10211358143E+03  0.15347393359E+03  0.80483239779E+02 0.  0.
          5    1    3    3  501    0  0.25859188887E+02  0.24852017534E+02 -0.39124493287E+01  0.36382931234E+02  0.47000000000E+01 0. -1.
        -13    1    4    4    0    0 -0.43332411761E+02 -0.19654861580E+02  0.11803570175E+03  0.12726522848E+03  0.00000000000E+00 0.  1.
         14    1    4    4    0    0 -0.26881796768E+02 -0.55424058997E+02  0.26033769481E+02  0.66874617506E+02  0.00000000000E+00 0. -1.
         -5    1    5    5    0  502  0.19385286694E+02 -0.27400574889E+02  0.18627706780E+03  0.18933519703E+03  0.47000000000E+01 0.  1.
         13    1    6    6    0    0  0.14759367984E+02  0.85318538118E+02  0.10879933662E+03  0.13904814827E+03  0.00000000000E+00 0. -1.
        -14    1    6    6    0    0  0.10210364964E+02 -0.76910601862E+01 -0.66857551893E+01  0.14425785314E+02  0.00000000000E+00 0.  1.
</event>
<event>
12    1  0.8798177E-003  0.2466754E+03  0.7818608E-02  0.1115425E+00
         21   -1    0    0  503  502  0.00000000000E+00  0.00000000000E+00  0.10370097075E+03  0.10370097075E+03  0.00000000000E+00 0. -1.
         21   -1    0    0  501  503 -0.00000000000E+00 -0.00000000000E+00 -0.77965859491E+03  0.77965859491E+03  0.00000000000E+00 0.  1.
          6    2    1    2  501    0  0.15416024831E+03  0.87117105839E+02 -0.55766938279E+03  0.60978894344E+03  0.17173422126E+03 0.  0.
         24    2    3    3    0    0  0.11257501215E+03 -0.51251593249E+01 -0.24849681870E+03  0.28444645968E+03  0.80372376503E+02 0.  0.
         -6    2    1    2    0  502 -0.15416024831E+03 -0.87117105839E+02 -0.11828824138E+03  0.27357062222E+03  0.17173818739E+03 0.  0.
        -24    2    5    5    0    0 -0.15058716285E+03 -0.49576681970E+02 -0.13607248424E+03  0.23161326699E+03  0.99973213761E+02 0.  0.
          5    1    3    3  501    0  0.41585236153E+02  0.92242265164E+02 -0.30917256409E+03  0.32534248376E+03  0.47000000000E+01 0. -1.
        -13    1    4    4    0    0  0.13565838459E+01 -0.12509712772E+02 -0.88861404532E+02  0.89747882698E+02  0.00000000000E+00 0.  1.
         14    1    4    4    0    0  0.11121842831E+03  0.73845534476E+01 -0.15963541416E+03  0.19469857698E+03  0.00000000000E+00 0. -1.
         -5    1    5    5    0  502 -0.35730854591E+01 -0.37540423869E+02  0.17784242862E+02  0.41957355233E+02  0.47000000000E+01 0.  1.
         13    1    6    6    0    0 -0.52033314512E+02 -0.12173683604E+02  0.70066896949E+01  0.53895807742E+02  0.00000000000E+00 0. -1.
        -14    1    6    6    0    0 -0.98553848333E+02 -0.37402998366E+02 -0.14307917393E+03  0.17771745925E+03  0.00000000000E+00 0.  1.
</event>
<event>
12    1  0.8798177E-003  0.3821296E+03  0.7818608E-02  0.1051095E+00
         21   -1    0    0  501  502  0.00000000000E+00  0.00000000000E+00  0.68394823456E+03  0.68394823456E+03  0.00000000000E+00 0.  1.
         21   -1    0    0  502  503 -0.00000000000E+00 -0.00000000000E+00 -0.21012497502E+03  0.21012497502E+03  0.00000000000E+00 0. -1.
          6    2    1    2  501    0  0.15847646530E+03 -0.28959964261E+03  0.18738229045E+03  0.41650495647E+03  0.17141036413E+03 0.  0.
         24    2    3    3    0    0  0.54999014427E+02 -0.24105240874E+03  0.14064283486E+03  0.29292873115E+03  0.69969130244E+02 0.  0.
         -6    2    1    2    0  503 -0.15847646530E+03  0.28959964261E+03  0.28644096908E+03  0.47756825311E+03  0.19245847488E+03 0.  0.
        -24    2    5    5    0    0 -0.12644801595E+03  0.28446517309E+03  0.18547460850E+03  0.37141515464E+03  0.81479146196E+02 0.  0.
          5    1    3    3  501    0  0.10347745087E+03 -0.48547233873E+02  0.46739455599E+02  0.12357622532E+03  0.47000000000E+01 0. -1.
        -13    1    4    4    0    0  0.42224608332E+02 -0.11584819143E+03  0.33834676455E+02  0.12786127771E+03  0.00000000000E+00 0.  1.
         14    1    4    4    0    0  0.12774406095E+02 -0.12520421731E+03  0.10680815840E+03  0.16506745344E+03  0.00000000000E+00 0. -1.
         -5    1    5    5    0  503 -0.32028449352E+02  0.51344695276E+01  0.10096636058E+03  0.10615309847E+03  0.47000000000E+01 0.  1.
         11    1    6    6    0    0 -0.12597721613E+03  0.19505206351E+03  0.13939433137E+03  0.27082530547E+03  0.00000000000E+00 0. -1.
        -12    1    6    6    0    0 -0.47079981360E+00  0.89413109578E+02  0.46080277126E+02  0.10058984917E+03  0.00000000000E+00 0.  1.
</event>
<event>
12    1  0.8798177E-003  0.2816451E+03  0.7818608E-02  0.1094801E+00
         21   -1    0    0  501  502  0.00000000000E+00  0.00000000000E+00  0.15067033481E+03  0.15067033481E+03  0.00000000000E+00 0.  1.
         21   -1    0    0  502  503 -0.00000000000E+00 -0.00000000000E+00 -0.53918034812E+03  0.53918034812E+03  0.00000000000E+00 0. -1.
          6    2    1    2  501    0 -0.20370383189E+03 -0.88570679567E+02 -0.24742880638E+03  0.37489326489E+03  0.17315868280E+03 0.  0.
         24    2    3    3    0    0 -0.28605775158E+02 -0.54053155213E+02 -0.73786538867E+02  0.12584604843E+03  0.81564334283E+02 0.  0.
         -6    2    1    2    0  503  0.20370383189E+03  0.88570679567E+02 -0.14108120692E+03  0.31495741804E+03  0.17307296677E+03 0.  0.
        -24    2    5    5    0    0  0.75829623630E+02 -0.21092849622E+02 -0.49056270176E+02  0.12294548675E+03  0.80709571580E+02 0.  0.
          5    1    3    3  501    0 -0.17509805673E+03 -0.34517524354E+02 -0.17364226752E+03  0.24904721646E+03  0.47000000000E+01 0. -1.
        -11    1    4    4    0    0  0.16825733578E+02  0.12257577112E+02 -0.93262712475E+01  0.22810805388E+02  0.00000000000E+00 0.  1.
         12    1    4    4    0    0 -0.45431508736E+02 -0.66310732325E+02 -0.64460267619E+02  0.10303524304E+03  0.00000000000E+00 0. -1.
         -5    1    5    5    0  503  0.12787420826E+03  0.10966352919E+03 -0.92024936745E+02  0.19201193128E+03  0.47000000000E+01 0.  1.
         13    1    6    6    0    0  0.27375705636E+01 -0.23807478575E+02  0.12786935153E+02  0.27162401206E+02  0.00000000000E+00 0. -1.
        -14    1    6    6    0    0  0.73092053066E+02  0.27146289532E+01 -0.61843205328E+02  0.95783085548E+02  0.00000000000E+00 0.  1.
</event>
<event>
12    1  0.8798177E-003  0.5391687E+03  0.7818608E-02  0.1004093E+00
         21   -1    0    0  503  502  0.00000000000E+00  0.00000000000E+00  0.82431472023E+02  0.82431472023E+02  0.00000000000E+00 0. -1.
         21   -1    0    0  501  503 -0.00000000000E+00 -0.00000000000E+00 -0.36977596543E+04  0.36977596543E+04  0.00000000000E+00 0.  1.
          6    2    1    2  501    0  0.44975288798E+03  0.24236585565E+03 -0.13915680869E+04  0.14920014776E+04  0.16907927264E+03 0.  0.
         24    2    3    3    0    0  0.36115418740E+03  0.12486754753E+03 -0.10207820645E+04  0.10930529263E+04  0.82124448471E+02 0.  0.
         -6    2    1    2    0  502 -0.44975288798E+03 -0.24236585565E+03 -0.22237600954E+04  0.22881896487E+04  0.17229056425E+03 0.  0.
        -24    2    5    5    0    0 -0.14049465893E+03 -0.41912518272E+02 -0.57041296493E+03  0.59425900775E+03  0.79230103830E+02 0.  0.
          5    1    3    3  501    0  0.88598700578E+02  0.11749830811E+03 -0.37078602245E+03  0.39894855132E+03  0.47000000000E+01 0. -1.
        -11    1    4    4    0    0  0.28764023958E+03  0.10068572806E+03 -0.89401657954E+03  0.94453171876E+03  0.00000000000E+00 0.  1.
         12    1    4    4    0    0  0.73513947819E+02  0.24181819471E+02 -0.12676548494E+03  0.14852120754E+03  0.00000000000E+00 0. -1.
         -5    1    5    5    0  502 -0.30925822905E+03 -0.20045333738E+03 -0.16533471304E+04  0.16939306410E+04  0.47000000000E+01 0.  1.
         11    1    6    6    0    0  0.67748224502E+01 -0.12916719888E+02 -0.29524547807E+02  0.32930818318E+02  0.00000000000E+00 0. -1.
        -12    1    6    6    0    0 -0.14726948138E+03 -0.28995798384E+02 -0.54088841712E+03  0.56132818943E+03  0.00000000000E+00 0.  1.
</event>
<event>
12    1  0.8798177E-003  0.2160911E+03  0.7818608E-02  0.1136983E+00
         21   -1    0    0  503  502  0.00000000000E+00  0.00000000000E+00  0.30642839551E+02  0.30642839551E+02  0.00000000000E+00 0. -1.
         21   -1    0    0  501  503 -0.00000000000E+00 -0.00000000000E+00 -0.15843330937E+04  0.15843330937E+04  0.00000000000E+00 0. -1.
          6    2    1    2  501    0  0.95711265020E+02 -0.87556191134E+02 -0.61056066833E+03  0.64740744986E+03  0.17182940250E+03 0.  0.
         24    2    3    3    0    0  0.11017232235E+03 -0.11781948261E+03 -0.48457263325E+03  0.51694648262E+03  0.80022858631E+02 0.  0.
         -6    2    1    2    0  502 -0.95711265020E+02  0.87556191134E+02 -0.94312958583E+03  0.96756848340E+03  0.17282540771E+03 0.  0.
        -24    2    5    5    0    0 -0.44817337852E+02  0.97813113802E+02 -0.39328225525E+03  0.41525555287E+03  0.78678096653E+02 0.  0.
          5    1    3    3  501    0 -0.14461057330E+02  0.30263291471E+02 -0.12598803508E+03  0.13046096724E+03  0.47000000000E+01 0. -1.
        -13    1    4    4    0    0  0.24669824574E+02 -0.81338254523E+02 -0.27108260928E+03  0.28409557010E+03  0.00000000000E+00 0.  1.
         14    1    4    4    0    0  0.85502497777E+02 -0.36481228082E+02 -0.21349002396E+03  0.23285091252E+03  0.00000000000E+00 0. -1.
         -5    1    5    5    0  502 -0.50893927168E+02 -0.10256922668E+02 -0.54984733058E+03  0.55231293053E+03  0.47000000000E+01 0.  1.
         13    1    6    6    0    0  0.11886100439E+02  0.58953126489E+01 -0.13010621192E+03  0.13078096374E+03  0.00000000000E+00 0. -1.
        -14    1    6    6    0    0 -0.56703438291E+02  0.91917801153E+02 -0.26317604332E+03  0.28447458913E+03  0.00000000000E+00 0.  1.
</event>
<event>
12    1  0.8798177E-003  0.2672370E+03  0.7818608E-02  0.1103018E+00
         21   -1    0    0  501  502  0.00000000000E+00  0.00000000000E+00  0.22699667570E+03  0.22699667570E+03  0.00000000000E+00 0. -1.
         21   -1    0    0  502  503 -0.00000000000E+00 -0.00000000000E+00 -0.41531029563E+03  0.41531029563E+03  0.00000000000E+00 0.  1.
          6    2    1    2  501    0  0.17624853578E+03  0.10369577388E+03  0.65043463662E+02  0.27406055029E+03  0.17047631264E+03 0.  0.
         24    2    3    3    0    0  0.11210909598E+03  0.26790936146E+02  0.95140615339E+02  0.16938891925E+03  0.79716156554E+02 0.  0.
         -6    2    1    2    0  503 -0.17624853578E+03 -0.10369577388E+03 -0.25335708360E+03  0.36824642104E+03  0.17204433997E+03 0.  0.
        -24    2    5    5    0    0 -0.17458762587E+03 -0.11064380840E+03 -0.27020373962E+03  0.34935373398E+03  0.79467471964E+02 0.  0.
          5    1    3    3  501    0  0.64139439797E+02  0.76904837737E+02 -0.30097151677E+02  0.10467163104E+03  0.47000000000E+01 0. -1.
        -11    1    4    4    0    0  0.52763188238E+02 -0.26924578168E+02  0.31261977622E+02  0.66979087687E+02  0.00000000000E+00 0.  1.
         12    1    4    4    0    0  0.59345907743E+02  0.53715514314E+02  0.63878637717E+02  0.10240983156E+03  0.00000000000E+00 0. -1.
         -5    1    5    5    0  503 -0.16609099123E+01  0.69480345131E+01  0.16846656020E+02  0.18892687061E+02  0.47000000000E+01 0.  1.
         13    1    6    6    0    0 -0.11075627424E+02  0.73943141962E+00 -0.58697918096E+02  0.59738278101E+02  0.00000000000E+00 0. -1.
        -14    1    6    6    0    0 -0.16351199844E+03 -0.11138323982E+03 -0.21150582152E+03  0.28961545588E+03  0.00000000000E+00 0.  1.
</event>
<event>
12    1  0.8798177E-003  0.1866024E+03  0.7818608E-02  0.1161880E+00
         21   -1    0    0  501  502  0.00000000000E+00  0.00000000000E+00  0.24716116635E+03  0.24716116635E+03  0.00000000000E+00 0. -1.
         21   -1    0    0  502  503 -0.00000000000E+00 -0.00000000000E+00 -0.14026388400E+03  0.14026388400E+03  0.00000000000E+00 0. -1.
          6    2    1    2  501    0  0.47407148208E+02  0.52148979145E+02  0.63807969042E+02  0.19591229338E+03  0.17129861663E+03 0.  0.
         24    2    3    3    0    0  0.10332462349E+02  0.19984197044E+02  0.10594649984E+03  0.13105204888E+03  0.73782455747E+02 0.  0.
         -6    2    1    2    0  503 -0.47407148208E+02 -0.52148979145E+02  0.43089313313E+02  0.19151275696E+03  0.17278163511E+03 0.  0.
        -24    2    5    5    0    0 -0.84516558810E+00 -0.91754245431E+02  0.47322433149E+02  0.13005867128E+03  0.79096709398E+02 0.  0.
          5    1    3    3  501    0  0.37074685859E+02  0.32164782101E+02 -0.42138530802E+02  0.64860244506E+02  0.47000000000E+01 0. -1.
        -13    1    4    4    0    0  0.30730866405E+02  0.25086005006E+01  0.98449507915E+02  0.10316484302E+03  0.00000000000E+00 0.  1.
         14    1    4    4    0    0 -0.20398404057E+02  0.17475596543E+02  0.74969919295E+01  0.27887205858E+02  0.00000000000E+00 0. -1.
         -5    1    5    5    0  503 -0.46561982620E+02  0.39605266287E+02 -0.42331198364E+01  0.61454085679E+02  0.47000000000E+01 0.  1.
         13    1    6    6    0    0  0.29570283263E+02 -0.84867442262E+02  0.32959107911E+02  0.95724538142E+02  0.00000000000E+00 0. -1.
        -14    1    6    6    0    0 -0.30415448851E+02 -0.68868031695E+01  0.14363325239E+02  0.34334133142E+02  0.00000000000E+00 0.  1.
</event>
<event>
12    1  0.8798177E-003  0.2284066E+03  0.7818608E-02  0.1128499E+00
         21   -1    0    0  503  502  0.00000000000E+00  0.00000000000E+00  0.57242468147E+02  0.57242468147E+02  0.00000000000E+00 0. -1.
         21   -1    0    0  501  503 -0.00000000000E+00 -0.00000000000E+00 -0.92957710994E+03  0.92957710994E+03  0.00000000000E+00 0. -1.
          6    2    1    2  501    0  0.20238369866E+02 -0.14358424710E+03 -0.53490588150E+03  0.58163034401E+03  0.17647528830E+03 0.  0.
         24    2    3    3    0    0  0.41372554805E+02 -0.14991592566E+03 -0.53087386666E+03  0.55871547831E+03  0.78418431116E+02 0.  0.
         -6    2    1    2    0  502 -0.20238369866E+02  0.14358424710E+03 -0.33742876029E+03  0.40518923408E+03  0.17115524972E+03 0.  0.
        -24    2    5    5    0    0  0.46865067383E+02  0.22645338042E+02 -0.52904639188E+02  0.88795244712E+02  0.48749859076E+02 0.  0.
          5    1    3    3  501    0 -0.21134184939E+02  0.63316785635E+01 -0.40320148360E+01  0.22914865701E+02  0.47000000000E+01 0. -1.
        -11    1    4    4    0    0  0.16822582991E+02 -0.14007381076E+03 -0.37594079238E+03  0.40154097068E+03  0.00000000000E+00 0.  1.
         12    1    4    4    0    0  0.24549971814E+02 -0.98421149025E+01 -0.15493307429E+03  0.15717450763E+03  0.00000000000E+00 0. -1.
         -5    1    5    5    0  502 -0.67103437249E+02  0.12093890906E+03 -0.28452412111E+03  0.31639398936E+03  0.47000000000E+01 0.  1.
         13    1    6    6    0    0 -0.31064626253E+01  0.19696022569E+02 -0.77907813811E+01  0.21407468080E+02  0.00000000000E+00 0. -1.
        -14    1    6    6    0    0  0.49971530008E+02  0.29493154736E+01 -0.45113857807E+02  0.67387776632E+02  0.00000000000E+00 0.  1.
</event>
<event>
12    1  0.8798177E-003  0.1843493E+03  0.7818608E-02  0.1164476E+00
         21   -1    0    0  501  502  0.00000000000E+00  0.00000000000E+00  0.84671955706E+02  0.84671955706E+02  0.00000000000E+00 0.  1.
         21   -1    0    0  502  503 -0.00000000000E+00 -0.00000000000E+00 -0.41549990203E+03  0.41549990203E+03  0.00000000000E+00 0.  1.
          6    2    1    2  501    0 -0.60586089030E+02 -0.16049252829E+01 -0.10690917710E+03  0.21012997950E+03  0.17044584526E+03 0.  0.
         24    2    3    3    0    0 -0.76102589825E+02 -0.56341942255E+02 -0.65652235589E+02  0.13969470391E+03  0.78983388300E+02 0.  0.
         -6    2    1    2    0  503  0.60586089030E+02  0.16049252829E+01 -0.22391876922E+03  0.29004187824E+03  0.17410176896E+03 0.  0.
        -24    2    5    5    0    0  0.47567673376E+02 -0.65928736940E+02 -0.11862949708E+03  0.16419198548E+03  0.79226060194E+02 0.  0.
          5    1    3    3  501    0  0.15516500795E+02  0.54737016972E+02 -0.41256941513E+02  0.70435275586E+02  0.47000000000E+01 0. -1.
        -11    1    4    4    0    0 -0.19965982917E+02 -0.54006574352E+02 -0.62287911070E+01  0.57915010021E+02  0.00000000000E+00 0.  1.
         12    1    4    4    0    0 -0.56136606908E+02 -0.23353679032E+01 -0.59423444482E+02  0.81779693889E+02  0.00000000000E+00 0. -1.
         -5    1    5    5    0  503  0.13018415654E+02  0.67533662223E+02 -0.10528927214E+03  0.12584989276E+03  0.47000000000E+01 0.  1.
         11    1    6    6    0    0  0.35163303839E+02 -0.21308185115E+02 -0.49151767305E+01  0.41408400742E+02  0.00000000000E+00 0. -1.
        -12    1    6    6    0    0  0.12404369538E+02 -0.44620551825E+02 -0.11371432035E+03  0.12278358474E+03  0.00000000000E+00 0.  1.
</event>
<event>
12    1  0.8798177E-003  0.1862590E+03  0.7818608E-02  0.1162301E+00
         21   -1    0    0  503  502  0.00000000000E+00  0.00000000000E+00  0.38845172253E+02  0.38845172253E+02  0.00000000000E+00 0. -1.
         21   -1    0    0  501  503 -0.00000000000E+00 -0.00000000000E+00 -0.14173206439E+04  0.14173206439E+04  0.00000000000E+00 0. -1.
          6    2    1    2  501    0 -0.24004287014E+02  0.61330727385E+02 -0.11377840780E+04  0.11529288896E+04  0.17422615360E+03 0.  0.
         24    2    3    3    0    0 -0.23576312595E+02  0.95138089879E+02 -0.55730079998E+03  0.57144282193E+03  0.79722132591E+02 0.  0.
         -6    2    1    2    0  502  0.24004287014E+02 -0.61330727385E+02 -0.24069139372E+03  0.30323692654E+03  0.17228645533E+03 0.  0.
        -24    2    5    5    0    0  0.66059812933E+02 -0.88904764368E+02 -0.18048341000E+03  0.22464884806E+03  0.74999250910E+02 0.  0.
          5    1    3    3  501    0 -0.42797441923E+00 -0.33807362494E+02 -0.58048327798E+03  0.58148606770E+03  0.47000000000E+01 0. -1.
        -11    1    4    4    0    0 -0.31362463447E+02  0.78973269473E+01 -0.82156048415E+02  0.88292628104E+02  0.00000000000E+00 0.  1.
         12    1    4    4    0    0  0.77861508524E+01  0.87240762932E+02 -0.47514475156E+03  0.48315019383E+03  0.00000000000E+00 0. -1.
         -5    1    5    5    0  502 -0.42055525920E+02  0.27574036983E+02 -0.60207983720E+02  0.78588078482E+02  0.47000000000E+01 0.  1.
         11    1    6    6    0    0  0.53981721224E+02 -0.82149318643E+02 -0.18549469994E+03  0.20993051347E+03  0.00000000000E+00 0. -1.
        -12    1    6    6    0    0  0.12078091710E+02 -0.67554457251E+01  0.50112899386E+01  0.14718334591E+02  0.00000000000E+00 0.  1.
</event>
<event>
12    1  0.8798177E-003  0.2079060E+03  0.7818608E-02  0.1143419E+00
         21   -1    0    0  501  502  0.00000000000E+00  0.00000000000E+00  0.48189483038E+03  0.48189483038E+03  0.00000000000E+00 0. -1.
         21   -1    0    0  502  503 -0.00000000000E+00 -0.00000000000E+00 -0.96232214829E+02  0.96232214829E+02  0.00000000000E+00 0.  1.
          6    2    1    2  501    0  0.59735938519E+02  0.98345629327E+02  0.26999671184E+03  0.34021214991E+03  0.17206346904E+03 0.  0.
         24    2    3    3    0    0  0.28139957228E+02  0.68405287613E+02  0.60205121932E+02  0.12590085461E+03  0.82190193561E+02 0.  0.
         -6    2    1    2    0  503 -0.59735938519E+02 -0.98345629327E+02  0.11566590370E+03  0.23791489530E+03  0.17316076625E+03 0.  0.
        -24    2    5    5    0    0 -0.10483555364E+03 -0.85050168489E+02  0.59031461572E+02  0.16415654256E+03  0.72378398309E+02 0.  0.
          5    1    3    3  501    0  0.31595981292E+02  0.29940341715E+02  0.20979158991E+03  0.21431129530E+03  0.47000000000E+01 0. -1.
        -13    1    4    4    0    0  0.45626375762E+02  0.10681910795E+02  0.41925469898E+02  0.62877773573E+02  0.00000000000E+00 0.  1.
         14    1    4    4    0    0 -0.17486418534E+02  0.57723376818E+02  0.18279652034E+02  0.63023081033E+02  0.00000000000E+00 0. -1.
         -5    1    5    5    0  503  0.45099615125E+02 -0.13295460839E+02  0.56634442132E+02  0.73758352740E+02  0.47000000000E+01 0.  1.
         11    1    6    6    0    0 -0.23922411677E+02 -0.61317667607E+02  0.42158490182E+02  0.78163139878E+02  0.00000000000E+00 0. -1.
        -12    1    6    6    0    0 -0.80913141967E+02 -0.23732500882E+02  0.16872971390E+02  0.85993402681E+02  0.00000000000E+00 0.  1.
</event>
<event>
12    1  0.8798177E-003  0.2048481E+03  0.7818608E-02  0.1146173E+00
         21   -1    0    0  503  502  0.00000000000E+00  0.00000000000E+00  0.28888312781E+02  0.28888312781E+02  0.00000000000E+00 0.  1.
         21   -1    0    0  501  503 -0.00000000000E+00 -0.00000000000E+00 -0.14374720588E+04  0.14374720588E+04  0.00000000000E+00 0. -1.
          6    2    1    2  501    0  0.10378605037E+03 -0.12792168115E+02 -0.69142257132E+03  0.72112961878E+03  0.17614644794E+03 0.  0.
         24    2    3    3    0    0  0.13896004841E+01  0.40287641266E+02 -0.31339892915E+03  0.32587468439E+03  0.79689372608E+02 0.  0.
         -6    2    1    2    0  502 -0.10378605037E+03  0.12792168115E+02 -0.71716117469E+03  0.74523075281E+03  0.17353253476E+03 0.  0.
        -24    2    5    5    0    0 -0.96034408724E+01  0.55824705756E+02 -0.33962182179E+03  0.35372057897E+03  0.81034821526E+02 0.  0.
          5    1    3    3  501    0  0.10239644988E+03 -0.53079809381E+02 -0.37802364218E+03  0.39525493439E+03  0.47000000000E+01 0. -1.
        -11    1    4    4    0    0 -0.37472187613E+02  0.21454765467E+02 -0.11522013915E+03  0.12304532608E+03  0.00000000000E+00 0.  1.
         12    1    4    4    0    0  0.38861788097E+02  0.18832875798E+02 -0.19817879000E+03  0.20282935830E+03  0.00000000000E+00 0. -1.
         -5    1    5    5    0  502 -0.94182609495E+02 -0.43032537641E+02 -0.37753935291E+03  0.39151017384E+03  0.47000000000E+01 0.  1.
         13    1    6    6    0    0 -0.24672723023E+02  0.69524515243E+02 -0.21165649487E+03  0.22414475970E+03  0.00000000000E+00 0. -1.
        -14    1    6    6    0    0  0.15069282151E+02 -0.13699809487E+02 -0.12796532692E+03  0.12957581927E+03  0.00000000000E+00 0.  1.
</event>
<event>
12    1  0.8798177E-003  0.1850102E+03  0.7818608E-02  0.1163683E+00
         21   -1    0    0  503  502  0.00000000000E+00  0.00000000000E+00  0.17355754520E+03  0.17355754520E+03  0.00000000000E+00 0.  1.
         21   -1    0    0  501  503 -0.00000000000E+00 -0.00000000000E+00 -0.19516303272E+03  0.19516303272E+03  0.00000000000E+00 0. -1.
          6    2    1    2  501    0 -0.70317200467E+02 -0.41005854867E+00 -0.22840868358E+02  0.18370622508E+03  0.16817132644E+03 0.  0.
         24    2    3    3    0    0 -0.31113946742E+02 -0.27433175046E+02  0.58891166235E+02  0.88999523062E+02  0.52269387501E+02 0.  0.
         -6    2    1    2    0  502  0.70317200467E+02  0.41005854867E+00  0.12353808383E+01  0.18501435284E+03  0.17112599966E+03 0.  0.
        -24    2    5    5    0    0  0.10753720145E+03 -0.25432666668E+01 -0.29758095138E+02  0.13626257178E+03  0.78174333018E+02 0.  0.
          5    1    3    3  501    0 -0.39203253725E+02  0.27023116497E+02 -0.81732034593E+02  0.94706702015E+02  0.47000000000E+01 0. -1.
        -11    1    4    4    0    0 -0.20493680328E+02  0.13429283861E+02  0.22253820491E+02  0.33099382545E+02  0.00000000000E+00 0.  1.
         12    1    4    4    0    0 -0.10620266414E+02 -0.40862458907E+02  0.36637345744E+02  0.55900140517E+02  0.00000000000E+00 0. -1.
         -5    1    5    5    0  502 -0.37220000978E+02  0.29533252154E+01  0.30993475977E+02  0.48751781052E+02  0.47000000000E+01 0.  1.
         11    1    6    6    0    0  0.18357432031E+02 -0.21600715707E+02  0.17740046039E+02  0.33440924977E+02  0.00000000000E+00 0. -1.
        -12    1    6    6    0    0  0.89179769415E+02  0.19057449040E+02 -0.47498141178E+02  0.10282164681E+03  0.00000000000E+00 0.  1.
</event>
<event>
12    1  0.8798177E-003  0.2860523E+03  0.7818608E-02  0.1092456E+00
         21   -1    0    0  501  502  0.00000000000E+00  0.00000000000E+00  0.17939326232E+03  0.17939326232E+03  0.00000000000E+00 0.  1.
         21   -1    0    0  502  503 -0.00000000000E+00 -0.00000000000E+00 -0.63583077394E+03  0.63583077394E+03  0.00000000000E+00 0. -1.
          6    2    1    2  501    0  0.18961043526E+03  0.12740704460E+03 -0.11378439557E+02  0.28627847885E+03  0.17216627542E+03 0.  0.
         24    2    3    3    0    0  0.15216291917E+03  0.13139980424E+03  0.42397885213E+02  0.22045871209E+03  0.79906198379E+02 0.  0.
         -6    2    1    2    0  503 -0.18961043526E+03 -0.12740704460E+03 -0.44505907206E+03  0.52894555741E+03  0.17181720784E+03 0.  0.
        -24    2    5    5    0    0 -0.14335235413E+03 -0.16224203308E+02 -0.25228807044E+03  0.30160400086E+03  0.80638580365E+02 0.  0.
          5    1    3    3  501    0  0.37447516088E+02 -0.39927596410E+01 -0.53776324770E+02  0.65819766761E+02  0.47000000000E+01 0. -1.
        -13    1    4    4    0    0  0.10008447737E+03  0.44088778583E+02  0.46203562825E+02  0.11872443819E+03  0.00000000000E+00 0.  1.
         14    1    4    4    0    0  0.52078441800E+02  0.87311025661E+02 -0.38056776119E+01  0.10173427389E+03  0.00000000000E+00 0. -1.
         -5    1    5    5    0  503 -0.46258081125E+02 -0.11118284129E+03 -0.19277100162E+03  0.22734155655E+03  0.47000000000E+01 0.  1.
         13    1    6    6    0    0 -0.13328084225E+03 -0.89591489318E+01 -0.25590310415E+03  0.28867013696E+03  0.00000000000E+00 0. -1.
        -14    1    6    6    0    0 -0.10071511880E+02 -0.72650543765E+01  0.36150337120E+01  0.12933863900E+02  0.00000000000E+00 0.  1.
</event>
<event>
12    1  0.8798177E-003  0.2311263E+03  0.7818608E-02  0.1126432E+00
         21   -1    0    0  503  502  0.00000000000E+00  0.00000000000E+00  0.12953724104E+03  0.12953724104E+03  0.00000000000E+00 0.  1.
         21   -1    0    0  501  503 -0.00000000000E+00 -0.00000000000E+00 -0.40708538004E+03  0.40708538004E+03  0.00000000000E+00 0.  1.
          6    2    1    2  501    0  0.15200248057E+03 -0.58442800613E+01 -0.14791198627E+03  0.27162280109E+03  0.16959386982E+03 0.  0.
         24    2    3    3    0    0  0.18077070891E+03 -0.46534638126E+01 -0.11724282207E+03  0.22929412715E+03  0.78295679906E+02 0.  0.
         -6    2    1    2    0  502 -0.15200248057E+03  0.58442800613E+01 -0.12963615273E+03  0.26499981998E+03  0.17401282362E+03 0.  0.
        -24    2    5    5    0    0 -0.13560139623E+03 -0.52855704396E+01 -0.16306978581E+03  0.22584925215E+03  0.77462595723E+02 0.  0.
          5    1    3    3  501    0 -0.28768228338E+02 -0.11908162486E+01 -0.30669164201E+02  0.42328673943E+02  0.47000000000E+01 0. -1.
        -13    1    4    4    0    0  0.21074349999E+02 -0.15711212881E+02  0.63656680090E+01  0.27046111870E+02  0.00000000000E+00 0.  1.
         14    1    4    4    0    0  0.15969635891E+03  0.11057749069E+02 -0.12360849008E+03  0.20224801528E+03  0.00000000000E+00 0. -1.
         -5    1    5    5    0  502 -0.16401084340E+02  0.11129850501E+02  0.33433633089E+02  0.39150567828E+02  0.47000000000E+01 0.  1.
         13    1    6    6    0    0  0.30108191989E+00 -0.23096013280E+01 -0.47127132433E+02  0.47184653437E+02  0.00000000000E+00 0. -1.
        -14    1    6    6    0    0 -0.13590247815E+03 -0.29759691116E+01 -0.11594265338E+03  0.17866459871E+03  0.00000000000E+00 0.  1.
</event>
<event>
12    1  0.8798177E-003  0.2340834E+03  0.7818608E-02  0.1123820E+00
         21   -1    0    0  501  502  0.00000000000E+00  0.00000000000E+00  0.88308023701E+02  0.88308023701E+02  0.00000000000E+00 0. -1.
         21   -1    0    0  502  503 -0.00000000000E+00 -0.00000000000E+00 -0.65245892027E+03  0.65245892027E+03  0.00000000000E+00 0.  1.
          6    2    1    2  501    0  0.12885343376E+03  0.92978437620E+02 -0.36454178789E+03  0.43322713257E+03  0.17189193123E+03 0.  0.
         24    2    3    3    0    0  0.12025595229E+03  0.13021495955E+03 -0.32268090578E+03  0.37635096265E+03  0.78100258520E+02 0.  0.
         -6    2    1    2    0  503 -0.12885343376E+03 -0.92978437620E+02 -0.19960910868E+03  0.30753981140E+03  0.17172286417E+03 0.  0.
        -24    2    5    5    0    0 -0.10231085298E+03 -0.88050852727E+01 -0.17169720575E+03  0.21485310165E+03  0.78338270747E+02 0.  0.
          5    1    3    3  501    0  0.85974814713E+01 -0.37236521933E+02 -0.41860882109E+02  0.56876169916E+02  0.47000000000E+01 0. -1.
        -13    1    4    4    0    0  0.36209089838E+02  0.53719477478E+02 -0.19469756112E+03  0.20519264303E+03  0.00000000000E+00 0.  1.
         14    1    4    4    0    0  0.84046862448E+02  0.76495482075E+02 -0.12798334467E+03  0.17115831963E+03  0.00000000000E+00 0. -1.
         -5    1    5    5    0  503 -0.26542580781E+02 -0.84173352347E+02 -0.27911902929E+02  0.92686709754E+02  0.47000000000E+01 0.  1.
         11    1    6    6    0    0 -0.26093165615E+02 -0.36098610518E+02 -0.37968763892E+02  0.58528540086E+02  0.00000000000E+00 0. -1.
        -12    1    6    6    0    0 -0.76217687361E+02  0.27293525245E+02 -0.13372844186E+03  0.15632456156E+03  0.00000000000E+00 0.  1.
</event>
<event>
12    1  0.8798177E-003  0.2257463E+03  0.7818608E-02  0.1129671E+00
         21   -1    0    0  501  502  0.00000000000E+00  0.00000000000E+00  0.16642092858E+03  0.16642092858E+03  0.00000000000E+00 0.  1.
         21   -1    0    0  502  503 -0.00000000000E+00 -0.00000000000E+00 -0.36164280943E+03  0.36164280943E+03  0.00000000000E+00 0.  1.
          6    2    1    2  501    0 -0.33769194855E+02  0.14253025846E+03  0.57617896711E+01  0.22581246217E+03  0.17176389828E+03 0.  0.
         24    2    3    3    0    0 -0.85558635395E+01  0.10449928293E+03  0.68215247923E+02  0.14832316211E+03  0.79706570837E+02 0.  0.
         -6    2    1    2    0  503  0.33769194855E+02 -0.14253025846E+03 -0.20098367052E+03  0.30225127585E+03  0.17177358598E+03 0.  0.
        -24    2    5    5    0    0  0.40800611335E+02 -0.88900136987E+02 -0.21226039555E+03  0.24679962777E+03  0.79294744526E+02 0.  0.
          5    1    3    3  501    0 -0.25213331315E+02  0.38030975533E+02 -0.62453458252E+02  0.77489300059E+02  0.47000000000E+01 0. -1.
        -11    1    4    4    0    0  0.33425612651E+02  0.30516792891E+02  0.13696734996E+02  0.47287913668E+02  0.00000000000E+00 0.  1.
         12    1    4    4    0    0 -0.41981476191E+02  0.73982490038E+02  0.54518512927E+02  0.10103524844E+03  0.00000000000E+00 0. -1.
         -5    1    5    5    0  503 -0.70314164798E+01 -0.53630121475E+02  0.11276725027E+02  0.55451648077E+02  0.47000000000E+01 0.  1.
         13    1    6    6    0    0 -0.95131867393E+01  0.82648508862E+01 -0.75747162824E+01  0.14703224438E+02  0.00000000000E+00 0. -1.
        -14    1    6    6    0    0  0.50313798074E+02 -0.97164987874E+02 -0.20468567927E+03  0.23209640334E+03  0.00000000000E+00 0.  1.
</event>
<event>
12    1  0.8798177E-003  0.2115817E+03  0.7818608E-02  0.1141914E+00
         21   -1    0    0  503  502  0.00000000000E+00  0.00000000000E+00  0.19339020331E+03  0.19339020331E+03  0.00000000000E+00 0.  1.
         21   -1    0    0  501  503 -0.00000000000E+00 -0.00000000000E+00 -0.24936040876E+03  0.24936040876E+03  0.00000000000E+00 0.  1.
          6    2    1    2  501    0  0.85715119937E+02  0.70287365497E+02 -0.99676517079E+02  0.22670186639E+03  0.17079500178E+03 0.  0.
         24    2    3    3    0    0  0.58445839245E+02  0.97563994141E+02 -0.11912787319E+03  0.18324989987E+03  0.80339445810E+02 0.  0.
         -6    2    1    2    0  502 -0.85715119937E+02 -0.70287365497E+02  0.43706311627E+02  0.21604874567E+03  0.18022048523E+03 0.  0.
        -24    2    5    5    0    0 -0.12471862729E+03 -0.63243530783E+02  0.61962711419E+01  0.16127665122E+03  0.80107953878E+02 0.  0.
          5    1    3    3  501    0  0.27269280692E+02 -0.27276628644E+02  0.19451356115E+02  0.43451966519E+02  0.47000000000E+01 0. -1.
        -11    1    4    4    0    0  0.41467244690E+02  0.48977074679E+02 -0.11490237961E+03  0.13160867398E+03  0.00000000000E+00 0.  1.
         12    1    4    4    0    0  0.16978594555E+02  0.48586919462E+02 -0.42254935874E+01  0.51641225895E+02  0.00000000000E+00 0. -1.
         -5    1    5    5    0  502  0.39003507354E+02 -0.70438347135E+01  0.37510040485E+02  0.54772094451E+02  0.47000000000E+01 0.  1.
         11    1    6    6    0    0  0.95626159079E+01 -0.13297175840E+02  0.74701061997E+01  0.18001694225E+02  0.00000000000E+00 0. -1.
        -12    1    6    6    0    0 -0.13428124320E+03 -0.49946354943E+02 -0.12738350578E+01  0.14327495700E+03  0.00000000000E+00 0.  1.
</event>
<event>
12    1  0.8798177E-003  0.2033370E+03  0.7818608E-02  0.1146982E+00
         21   -1    0    0  501  502  0.00000000000E+00  0.00000000000E+00  0.11779316468E+03  0.11779316468E+03  0.00000000000E+00 0.  1.
         21   -1    0    0  502  503 -0.00000000000E+00 -0.00000000000E+00 -0.40865325978E+03  0.40865325978E+03  0.00000000000E+00 0.  1.
          6    2    1    2  501    0 -0.10538168886E+03 -0.25217824804E+02 -0.46322024903E+02  0.20841373580E+03  0.17189914556E+03 0.  0.
         24    2    3    3    0    0 -0.78422245925E+02  0.50725940664E+02 -0.25654316907E+02  0.12508600194E+03  0.79152979684E+02 0.  0.
         -6    2    1    2    0  503  0.10538168886E+03  0.25217824804E+02 -0.24453807020E+03  0.31803268865E+03  0.17206011810E+03 0.  0.
        -24    2    5    5    0    0  0.77978684737E+02 -0.35357426849E+02 -0.81544943535E+02  0.14193858004E+03  0.78524899123E+02 0.  0.
          5    1    3    3  501    0 -0.26959442932E+02 -0.75943765469E+02 -0.20667707996E+02  0.83327733862E+02  0.47000000000E+01 0. -1.
        -13    1    4    4    0    0  0.86948345945E+01  0.31809816867E+02 -0.30482496051E+01  0.33117313046E+02  0.00000000000E+00 0.  1.
         14    1    4    4    0    0 -0.87117080520E+02  0.18916123798E+02 -0.22606067302E+02  0.91968688893E+02  0.00000000000E+00 0. -1.
         -5    1    5    5    0  503  0.27403004120E+02  0.60575251653E+02 -0.16299312666E+03  0.17609410861E+03  0.47000000000E+01 0.  1.
         11    1    6    6    0    0  0.94644114540E+01 -0.63932732504E+01  0.15756877268E+02  0.19460940580E+02  0.00000000000E+00 0. -1.
        -12    1    6    6    0    0  0.68514273283E+02 -0.28964153599E+02 -0.97301820803E+02  0.12247763946E+03  0.00000000000E+00 0.  1.
</event>
<event>
12    1  0.8798177E-003  0.2131504E+03  0.7818608E-02  0.1139150E+00
         21   -1    0    0  501  502  0.00000000000E+00  0.00000000000E+00  0.25657916933E+03  0.25657916933E+03  0.00000000000E+00 0. -1.
         21   -1    0    0  502  503 -0.00000000000E+00 -0.00000000000E+00 -0.17727669844E+03  0.17727669844E+03  0.00000000000E+00 0. -1.
          6    2    1    2  501    0 -0.12664771055E+03 -0.25432525740E+01  0.50398151260E+02  0.21875463883E+03  0.17107749016E+03 0.  0.
         24    2    3    3    0    0 -0.46124915607E+00 -0.26593419361E+02  0.26082547840E+02  0.87931200063E+02  0.79650322903E+02 0.  0.
         -6    2    1    2    0  503  0.12664771055E+03  0.25432525740E+01  0.28904319627E+02  0.21510122893E+03  0.17142627650E+03 0.  0.
        -24    2    5    5    0    0  0.15337937574E+03  0.14361896677E+02  0.10590400412E+02  0.18029100185E+03  0.93065524162E+02 0.  0.
          5    1    3    3  501    0 -0.12618646139E+03  0.24050166787E+02  0.24315603420E+02  0.13082343877E+03  0.47000000000E+01 0. -1.
        -13    1    4    4    0    0 -0.12134228778E+02 -0.83788299532E+00 -0.25979276441E+02  0.28685612428E+02  0.00000000000E+00 0.  1.
         14    1    4    4    0    0  0.11672979622E+02 -0.25755536365E+02  0.52061824281E+02  0.59245587635E+02  0.00000000000E+00 0. -1.
         -5    1    5    5    0  503 -0.26731665195E+02 -0.11818644103E+02  0.18313919216E+02  0.34810227083E+02  0.47000000000E+01 0.  1.
         11    1    6    6    0    0  0.96674118171E+02  0.36262967240E+02  0.42477174012E+02  0.11164765214E+03  0.00000000000E+00 0. -1.
        -12    1    6    6    0    0  0.56705257573E+02 -0.21901070563E+02 -0.31886773601E+02  0.68643349707E+02  0.00000000000E+00 0.  1.
</event>
<event>
12    1  0.8798177E-003  0.2944382E+03  0.7818608E-02  0.1088247E+00
         21   -1    0    0  503  502  0.00000000000E+00  0.00000000000E+00  0.37919461443E+03  0.37919461443E+03  0.00000000000E+00 0. -1.
         21   -1    0    0  501  503 -0.00000000000E+00 -0.00000000000E+00 -0.22856031873E+03  0.22856031873E+03  0.00000000000E+00 0. -1.
          6    2    1    2  501    0 -0.23686617007E+03 -0.98809126045E+01  0.54432028892E+02  0.29942729452E+03  0.17461570369E+03 0.  0.
         24    2    3    3    0    0 -0.24388561004E+03 -0.24154631076E+02  0.79795443352E+02  0.26912210734E+03  0.77432285879E+02 0.  0.
         -6    2    1    2    0  502  0.23686617007E+03  0.98809126045E+01  0.96202266809E+02  0.30832763864E+03  0.17206929317E+03 0.  0.
        -24    2    5    5    0    0  0.21377031582E+03 -0.17513468084E+02  0.12632403112E+03  0.26128211534E+03  0.79411041224E+02 0.  0.
          5    1    3    3  501    0  0.70194399696E+01  0.14273718472E+02 -0.25363414460E+02  0.30305187172E+02  0.47000000000E+01 0. -1.
        -13    1    4    4    0    0 -0.41544835008E+02  0.21123196755E+02  0.31421497237E+02  0.56209191825E+02  0.00000000000E+00 0.  1.
         14    1    4    4    0    0 -0.20234077503E+03 -0.45277827831E+02  0.48373946115E+02  0.21291291552E+03  0.00000000000E+00 0. -1.
         -5    1    5    5    0  502  0.23095854245E+02  0.27394380689E+02 -0.30121764313E+02  0.47045523294E+02  0.47000000000E+01 0.  1.
         11    1    6    6    0    0  0.60468412991E+02 -0.31343883500E+02  0.11099543906E+02  0.69007737808E+02  0.00000000000E+00 0. -1.
        -12    1    6    6    0    0  0.15330190283E+03  0.13830415416E+02  0.11522448722E+03  0.19227437753E+03  0.00000000000E+00 0.  1.
</event>
<event>
12    1  0.8798177E-003  0.2444768E+03  0.7818608E-02  0.1116848E+00
         21   -1    0    0  501  502  0.00000000000E+00  0.00000000000E+00  0.21555579550E+03  0.21555579550E+03  0.00000000000E+00 0. -1.
         21   -1    0    0  502  503 -0.00000000000E+00 -0.00000000000E+00 -0.37056183828E+03  0.37056183828E+03  0.00000000000E+00 0. -1.
          6    2    1    2  501    0 -0.44196115806E+02 -0.16783106223E+03  0.69544455522E+02  0.25416607422E+03  0.17217258751E+03 0.  0.
         24    2    3    3    0    0  0.30526977809E+02 -0.10525821779E+03  0.77117578099E+02  0.15629706091E+03  0.80439179574E+02 0.  0.
         -6    2    1    2    0  503  0.44196115806E+02  0.16783106223E+03 -0.22455049831E+03  0.33195155956E+03  0.17218696090E+03 0.  0.
        -24    2    5    5    0    0  0.66814723641E+02  0.16837463538E+03 -0.23458422408E+03  0.30675904986E+03  0.79102031273E+02 0.  0.
          5    1    3    3  501    0 -0.74723093615E+02 -0.62572844434E+02 -0.75731225771E+01  0.97869013307E+02  0.47000000000E+01 0. -1.
        -11    1    4    4    0    0  0.20690256393E+02 -0.31986120313E+01 -0.86201563753E+01  0.22641221797E+02  0.00000000000E+00 0.  1.
         12    1    4    4    0    0  0.98367214162E+01 -0.10205960576E+03  0.85737734475E+02  0.13365583912E+03  0.00000000000E+00 0. -1.
         -5    1    5    5    0  503 -0.22618607836E+02 -0.54357314696E+00  0.10033725772E+02  0.25192509701E+02  0.47000000000E+01 0.  1.
         13    1    6    6    0    0  0.21338775539E+02  0.32707227136E+02 -0.97430268040E+01  0.40249628814E+02  0.00000000000E+00 0. -1.
        -14    1    6    6    0    0  0.45475948103E+02  0.13566740824E+03 -0.22484119728E+03  0.26650942105E+03  0.00000000000E+00 0.  1.
</event>
<event>
12    1  0.8798177E-003  0.1864134E+03  0.7818608E-02  0.1161922E+00
         21   -1    0    0  503  502  0.00000000000E+00  0.00000000000E+00  0.28320645986E+03  0.28320645986E+03  0.00000000000E+00 0. -1.
         21   -1    0    0  501  503 -0.00000000000E+00 -0.00000000000E+00 -0.12742949992E+03  0.12742949992E+03  0.00000000000E+00 0.  1.
          6    2    1    2  501    0 -0.27432880660E+02 -0.64880368845E+02  0.36359886684E+02  0.18992631432E+03  0.17259182573E+03 0.  0.
         24    2    3    3    0    0  0.33132862124E+02  0.12951642551E+02  0.78560398013E+01  0.87161580657E+02  0.79182650777E+02 0.  0.
         -6    2    1    2    0  502  0.27432880660E+02  0.64880368845E+02  0.11941707326E+03  0.22070964546E+03  0.17172735662E+03 0.  0.
        -24    2    5    5    0    0  0.57538548350E+02  0.33764707084E+02  0.13105609006E+02  0.10582381924E+03  0.81093672633E+02 0.  0.
          5    1    3    3  501    0 -0.60565742784E+02 -0.77832011396E+02  0.28503846882E+02  0.10276473366E+03  0.47000000000E+01 0. -1.
        -11    1    4    4    0    0  0.26489818006E+02 -0.30531063815E+02 -0.63943052662E+01  0.40923629550E+02  0.00000000000E+00 0.  1.
         12    1    4    4    0    0  0.66430441182E+01  0.43482706366E+02  0.14250345067E+02  0.46237951108E+02  0.00000000000E+00 0. -1.
         -5    1    5    5    0  502 -0.30105667690E+02  0.31115661761E+02  0.10631146426E+03  0.11488582622E+03  0.47000000000E+01 0.  1.
         13    1    6    6    0    0  0.16870730697E+01  0.24459083569E+02  0.36984787895E+02  0.44373049480E+02  0.00000000000E+00 0. -1.
        -14    1    6    6    0    0  0.55851475281E+02  0.93056235154E+01 -0.23879178889E+02  0.61450769763E+02  0.00000000000E+00 0.  1.
</event>
<event>
12    1  0.8798177E-003  0.3234997E+03  0.7818608E-02  0.1074310E+00
         21   -1    0    0  503  502  0.00000000000E+00  0.00000000000E+00  0.57958182823E+02  0.57958182823E+02  0.00000000000E+00 0. -1.
         21   -1    0    0  501  503 -0.00000000000E+00 -0.00000000000E+00 -0.19294481505E+04  0.19294481505E+04  0.00000000000E+00 0. -1.
          6    2    1    2  501    0  0.24998919661E+03  0.10593826316E+03 -0.11970033920E+04  0.12393527294E+04  0.17164076858E+03 0.  0.
         24    2    3    3    0    0  0.22831781696E+03  0.13829580074E+03 -0.98300816722E+03  0.10217919215E+04  0.80615878608E+02 0.  0.
         -6    2    1    2    0  502 -0.24998919661E+03 -0.10593826316E+03 -0.67448657568E+03  0.74805360391E+03  0.17588217512E+03 0.  0.
        -24    2    5    5    0    0 -0.17516626668E+03 -0.13309445773E+03 -0.41313047088E+03  0.47480457232E+03  0.79782455876E+02 0.  0.
          5    1    3    3  501    0  0.21671379644E+02 -0.32357537576E+02 -0.21399522481E+03  0.21756080799E+03  0.47000000000E+01 0. -1.
        -11    1    4    4    0    0  0.98849530893E+02  0.91674903275E+02 -0.37770363735E+03  0.40104308411E+03  0.00000000000E+00 0.  1.
         12    1    4    4    0    0  0.12946828607E+03  0.46620897461E+02 -0.60530452987E+03  0.62074883734E+03  0.00000000000E+00 0. -1.
         -5    1    5    5    0  502 -0.74822929928E+02  0.27156194572E+02 -0.26135610480E+03  0.27324903159E+03  0.47000000000E+01 0.  1.
         13    1    6    6    0    0 -0.17218341999E+03 -0.14088148285E+03 -0.37721391705E+03  0.43793271349E+03  0.00000000000E+00 0. -1.
        -14    1    6    6    0    0 -0.29828466924E+01  0.77870251180E+01 -0.35916553832E+02  0.36871858832E+02  0.00000000000E+00 0.  1.
</event>
<event>
12    1  0.8798177E-003  0.1743581E+03  0.7818608E-02  0.1173977E+00
         21   -1    0    0  501  502  0.00000000000E+00  0.00000000000E+00  0.31560358152E+03  0.31560358152E+03  0.00000000000E+00 0.  1.
         21   -1    0    0  502  503 -0.00000000000E+00 -0.00000000000E+00 -0.97286481762E+02  0.97286481762E+02  0.00000000000E+00 0.  1.
          6    2    1    2  501    0 -0.27450543697E+02  0.52668749893E+01  0.76973014586E+02  0.18843763366E+03  0.16971335977E+03 0.  0.
         24    2    3    3    0    0 -0.44974812993E+02  0.12481047033E+02  0.11420697406E+03  0.14639477421E+03  0.78801565039E+02 0.  0.
         -6    2    1    2    0  503  0.27450543697E+02 -0.52668749893E+01  0.14134408517E+03  0.22445242962E+03  0.17210308082E+03 0.  0.
        -24    2    5    5    0    0  0.80877928365E+02  0.13731201497E+02  0.11532101626E+03  0.16188484650E+03  0.78600137038E+02 0.  0.
          5    1    3    3  501    0  0.17524269296E+02 -0.72141720438E+01 -0.37233959475E+02  0.42042859451E+02  0.47000000000E+01 0. -1.
        -13    1    4    4    0    0 -0.38675923655E+02 -0.13600342898E+02  0.11223813838E+03  0.11949140599E+03  0.00000000000E+00 0.  1.
         14    1    4    4    0    0 -0.62988893381E+01  0.26081389931E+02  0.19688356781E+01  0.26903368220E+02  0.00000000000E+00 0. -1.
         -5    1    5    5    0  503 -0.53427384668E+02 -0.18998076487E+02  0.26023068908E+02  0.62567583124E+02  0.47000000000E+01 0.  1.
         11    1    6    6    0    0  0.59103004005E+01 -0.27180617959E+02  0.22742093872E+02  0.35929381808E+02  0.00000000000E+00 0. -1.
        -12    1    6    6    0    0  0.74967627964E+02  0.40911819457E+02  0.92578922391E+02  0.12595546469E+03  0.00000000000E+00 0.  1.
</event>
<event>
12    1  0.8798177E-003  0.1834687E+03  0.7818608E-02  0.1164748E+00
         21   -1    0    0  501  502  0.00000000000E+00  0.00000000000E+00  0.42533956336E+02  0.42533956336E+02  0.00000000000E+00 0. -1.
         21   -1    0    0  502  503 -0.00000000000E+00 -0.00000000000E+00 -0.78852416766E+03  0.78852416766E+03  0.00000000000E+00 0. -1.
          6    2    1    2  501    0  0.49725952899E+02  0.33053320088E+02 -0.35164972507E+03  0.39612688470E+03  0.17231885352E+03 0.  0.
         24    2    3    3    0    0  0.90327964679E+02  0.64849207886E+01 -0.30695385249E+03  0.32998904207E+03  0.80441935126E+02 0.  0.
         -6    2    1    2    0  503 -0.49725952899E+02 -0.33053320088E+02 -0.39434048626E+03  0.43493123930E+03  0.17348075241E+03 0.  0.
        -24    2    5    5    0    0 -0.52223434661E+02  0.42183480256E+02 -0.27199589320E+03  0.29120544833E+03  0.79448814230E+02 0.  0.
          5    1    3    3  501    0 -0.40602011780E+02  0.26568399299E+02 -0.44695872578E+02  0.66137842628E+02  0.47000000000E+01 0. -1.
        -13    1    4    4    0    0  0.15375425265E+02 -0.12818005799E+02 -0.18136260538E+03  0.18246396796E+03  0.00000000000E+00 0.  1.
         14    1    4    4    0    0  0.74952539415E+02  0.19302926587E+02 -0.12559124711E+03  0.14752507411E+03  0.00000000000E+00 0. -1.
         -5    1    5    5    0  503  0.24974817623E+01 -0.75236800343E+02 -0.12234459306E+03  0.14372579098E+03  0.47000000000E+01 0.  1.
         11    1    6    6    0    0  0.13049333864E+02 -0.51701092381E+01 -0.10304082914E+03  0.10399244018E+03  0.00000000000E+00 0. -1.
        -12    1    6    6    0    0 -0.65272768525E+02  0.47353589494E+02 -0.16895506406E+03  0.18721300815E+03  0.00000000000E+00 0.  1.
</event>
<event>
12    1  0.8798177E-003  0.1918908E+03  0.7818608E-02  0.1158006E+00
         21   -1    0    0  503  502  0.00000000000E+00  0.00000000000E+00  0.28037094454E+02  0.28037094454E+02  0.00000000000E+00 0.  1.
         21   -1    0    0  501  503 -0.00000000000E+00 -0.00000000000E+00 -0.15857427454E+04  0.15857427454E+04  0.00000000000E+00 0.  1.
          6    2    1    2  501    0 -0.59983199148E+00 -0.85732306948E+02 -0.11263042003E+04  0.11416259615E+04  0.16552430624E+03 0.  0.
         24    2    3    3    0    0  0.62489854654E+02 -0.48562815533E+02 -0.75617407813E+03  0.76429284999E+03  0.77980735622E+02 0.  0.
         -6    2    1    2    0  502  0.59983199148E+00  0.85732306948E+02 -0.43140145057E+03  0.47215387834E+03  0.17167319251E+03 0.  0.
        -24    2    5    5    0    0  0.49041989483E+02  0.99869789215E+02 -0.35461424047E+03  0.38014911400E+03  0.79893665573E+02 0.  0.
          5    1    3    3  501    0 -0.63089686645E+02 -0.37169491415E+02 -0.37013012221E+03  0.37733311148E+03  0.47000000000E+01 0. -1.
        -11    1    4    4    0    0  0.15149451457E+02 -0.51823080784E+02 -0.55399217613E+03  0.55661698572E+03  0.00000000000E+00 0.  1.
         12    1    4    4    0    0  0.47340403197E+02  0.32602652508E+01 -0.20218190200E+03  0.20767586427E+03  0.00000000000E+00 0. -1.
         -5    1    5    5    0  502 -0.48442157491E+02 -0.14137482266E+02 -0.76787210103E+02  0.92004764347E+02  0.47000000000E+01 0.  1.
         13    1    6    6    0    0 -0.12116726534E+02  0.44457166151E+02 -0.19606404474E+03  0.20140596894E+03  0.00000000000E+00 0. -1.
        -14    1    6    6    0    0  0.61158716017E+02  0.55412623064E+02 -0.15855019573E+03  0.17874314506E+03  0.00000000000E+00 0.  1.
</event>
<event>
12    1  0.8798177E-003  0.2321175E+03  0.7818608E-02  0.1125238E+00
         21   -1    0    0  503  502  0.00000000000E+00  0.00000000000E+00  0.19966804332E+03  0.19966804332E+03  0.00000000000E+00 0. -1.
         21   -1    0    0  501  503 -0.00000000000E+00 -0.00000000000E+00 -0.35555623465E+03  0.35555623465E+03  0.00000000000E+00 0. -1.
          6    2    1    2  501    0  0.13357930602E+03 -0.79298288940E+02 -0.21461421166E+03  0.31579310860E+03  0.17185568936E+03 0.  0.
         24    2    3    3    0    0  0.10889946987E+03  0.26674635074E+01 -0.81917733127E+02  0.15781233666E+03  0.79548781895E+02 0.  0.
         -6    2    1    2    0  502 -0.13357930602E+03  0.79298288940E+02  0.58726020336E+02  0.23943116937E+03  0.17247286678E+03 0.  0.
        -24    2    5    5    0    0 -0.11994012238E+03  0.11092622112E+03  0.80036165717E+02  0.19865659738E+03  0.79802232879E+02 0.  0.
          5    1    3    3  501    0  0.24679836152E+02 -0.81965752447E+02 -0.13269647854E+03  0.15798077194E+03  0.47000000000E+01 0. -1.
        -11    1    4    4    0    0 -0.30280613939E+01 -0.20351845418E+02 -0.11135160595E+02  0.23395695527E+02  0.00000000000E+00 0.  1.
         12    1    4    4    0    0  0.11192753127E+03  0.23019308926E+02 -0.70782572532E+02  0.13441664113E+03  0.00000000000E+00 0. -1.
         -5    1    5    5    0  502 -0.13639183648E+02 -0.31627932184E+02 -0.21310145381E+02  0.40774571991E+02  0.47000000000E+01 0.  1.
         13    1    6    6    0    0 -0.78301834725E+02  0.27375387515E+02  0.62046861768E+02  0.10358765476E+03  0.00000000000E+00 0. -1.
        -14    1    6    6    0    0 -0.41638287651E+02  0.83550833609E+02  0.17989303949E+02  0.95068942625E+02  0.00000000000E+00 0.  1.
</event>
<event>
12    1  0.8798177E-003  0.1820006E+03  0.7818608E-02  0.1167078E+00
         21   -1    0    0  503  502  0.00000000000E+00  0.00000000000E+00  0.90130253876E+03  0.90130253876E+03  0.00000000000E+00 0.  1.
         21   -1    0    0  501  503 -0.00000000000E+00 -0.00000000000E+00 -0.52488309793E+02  0.52488309793E+02  0.00000000000E+00 0.  1.
          6    2    1    2  501    0 -0.33993831840E+02  0.35526813933E+02  0.15120581346E+03  0.23283195547E+03  0.17008758436E+03 0.  0.
         24    2    3    3    0    0  0.39674351439E+02  0.86457451854E+01  0.45536968223E+02  0.10115968072E+03  0.80689915457E+02 0.  0.
         -6    2    1    2    0  502  0.33993831840E+02 -0.35526813933E+02  0.69760841550E+03  0.72095889308E+03  0.17523267108E+03 0.  0.
        -24    2    5    5    0    0  0.25943026008E+02 -0.36028436255E+01  0.14607424239E+03  0.16842293093E+03  0.79640305702E+02 0.  0.
          5    1    3    3  501    0 -0.73668183278E+02  0.26881068747E+02  0.10566884523E+03  0.13167227475E+03  0.47000000000E+01 0. -1.
        -13    1    4    4    0    0 -0.23395190979E+02  0.12290013476E+02  0.77213605438E+01  0.27531778018E+02  0.00000000000E+00 0.  1.
         14    1    4    4    0    0  0.63069542417E+02 -0.36442682910E+01  0.37815607679E+02  0.73627902702E+02  0.00000000000E+00 0. -1.
         -5    1    5    5    0  502  0.80508058315E+01 -0.31923970307E+02  0.55153417312E+03  0.55253596215E+03  0.47000000000E+01 0.  1.
         13    1    6    6    0    0  0.37536814967E+02  0.26819025204E+02  0.11280838087E+03  0.12187700105E+03  0.00000000000E+00 0. -1.
        -14    1    6    6    0    0 -0.11593788959E+02 -0.30421868830E+02  0.33265861519E+02  0.46545929877E+02  0.00000000000E+00 0.  1.
</event>
<event>
12    1  0.8798177E-003  0.1967384E+03  0.7818608E-02  0.1152557E+00
         21   -1    0    0  501  502  0.00000000000E+00  0.00000000000E+00  0.32825875097E+02  0.32825875097E+02  0.00000000000E+00 0.  1.
         21   -1    0    0  502  503 -0.00000000000E+00 -0.00000000000E+00 -0.14162148227E+04  0.14162148227E+04  0.00000000000E+00 0.  1.
          6    2    1    2  501    0 -0.88250742373E+02 -0.35986679033E+01 -0.39436523691E+03  0.44063903395E+03  0.17560658933E+03 0.  0.
         24    2    3    3    0    0 -0.43425943720E+02 -0.12156584639E+02 -0.84861737140E+02  0.12775406007E+03  0.84178324376E+02 0.  0.
         -6    2    1    2    0  503  0.88250742373E+02  0.35986679033E+01 -0.98902371071E+03  0.10084016639E+04  0.17579781397E+03 0.  0.
        -24    2    5    5    0    0  0.48428630659E+02  0.70909503017E+02 -0.52591036968E+03  0.53870750194E+03  0.79060520011E+02 0.  0.
          5    1    3    3  501    0 -0.44824798653E+02  0.85579167361E+01 -0.30950349977E+03  0.31288497388E+03  0.47000000000E+01 0. -1.
        -13    1    4    4    0    0 -0.53469927764E+02 -0.16145800959E+02 -0.96732915540E+02  0.11170038949E+03  0.00000000000E+00 0.  1.
         14    1    4    4    0    0  0.10043984044E+02  0.39892163197E+01  0.11871178399E+02  0.16053670575E+02  0.00000000000E+00 0. -1.
         -5    1    5    5    0  503  0.39822111714E+02 -0.67310835114E+02 -0.46311334103E+03  0.46969416192E+03  0.47000000000E+01 0.  1.
         11    1    6    6    0    0  0.57444806424E+02  0.23432025653E+02 -0.20510312052E+03  0.21428078696E+03  0.00000000000E+00 0. -1.
        -12    1    6    6    0    0 -0.90161757650E+01  0.47477477364E+02 -0.32080724916E+03  0.32442671499E+03  0.00000000000E+00 0.  1.
</event>
<event>
12    1  0.8798177E-003  0.1799037E+03  0.7818608E-02  0.1168869E+00
         21   -1    0    0  503  502  0.00000000000E+00  0.00000000000E+00  0.20972048463E+03  0.20972048463E+03  0.00000000000E+00 0. -1.
         21   -1    0    0  501  503 -0.00000000000E+00 -0.00000000000E+00 -0.27813030837E+03  0.27813030837E+03  0.00000000000E+00 0. -1.
          6    2    1    2  501    0  0.32374785559E+02 -0.22074066998E+02 -0.19935976735E+03  0.26853240481E+03  0.17558457911E+03 0.  0.
         24    2    3    3    0    0  0.86649834347E+02 -0.23037211939E+02 -0.10621604609E+03  0.16062248229E+03  0.80491157543E+02 0.  0.
         -6    2    1    2    0  502 -0.32374785559E+02  0.22074066998E+02  0.13094994361E+03  0.21931838819E+03  0.17151465387E+03 0.  0.
        -24    2    5    5    0    0 -0.60914861853E+02 -0.38051801706E+02  0.63411674394E+02  0.12438070415E+03  0.79315566613E+02 0.  0.
          5    1    3    3  501    0 -0.54275048788E+02  0.96314494135E+00 -0.93143721261E+02  0.10790992252E+03  0.47000000000E+01 0. -1.
        -13    1    4    4    0    0  0.63924011374E+02  0.23891862521E+02 -0.63512453885E+02  0.93225168937E+02  0.00000000000E+00 0.  1.
         14    1    4    4    0    0  0.22725822973E+02 -0.46929074460E+02 -0.42703592206E+02  0.67397313350E+02  0.00000000000E+00 0. -1.
         -5    1    5    5    0  502  0.28540076294E+02  0.60125868704E+02  0.67538269213E+02  0.94937684039E+02  0.47000000000E+01 0.  1.
         13    1    6    6    0    0 -0.73702758413E+02 -0.19635307631E+02  0.25661995805E+02  0.80474716105E+02  0.00000000000E+00 0. -1.
        -14    1    6    6    0    0  0.12787896560E+02 -0.18416494075E+02  0.37749678590E+02  0.43905988043E+02  0.00000000000E+00 0.  1.
</event>
<event>
12    1  0.8798177E-003  0.2028590E+03  0.7818608E-02  0.1147540E+00
         21   -1    0    0  501  502  0.00000000000E+00  0.00000000000E+00  0.42383304420E+03  0.42383304420E+03  0.00000000000E+00 0. -1.
         21   -1    0    0  502  503 -0.00000000000E+00 -0.00000000000E+00 -0.11000499579E+03  0.11000499579E+03  0.00000000000E+00 0.  1.
          6    2    1    2  501    0  0.10600980052E+03 -0.77766901286E+01  0.25021261242E+03  0.32211509758E+03  0.17278087267E+03 0.  0.
         24    2    3    3    0    0  0.84458945875E+01  0.36071232743E+02  0.90721393242E+02  0.13001904068E+03  0.85452400678E+02 0.  0.
         -6    2    1    2    0  503 -0.10600980052E+03  0.77766901286E+01  0.63615435984E+02  0.21172294240E+03  0.17170068704E+03 0.  0.
        -24    2    5    5    0    0 -0.94464819904E+02  0.63632203442E+02  0.31814078764E+02  0.14625125947E+03  0.86050193347E+02 0.  0.
          5    1    3    3  501    0  0.97563905933E+02 -0.43847922872E+02  0.15949121918E+03  0.19209605690E+03  0.47000000000E+01 0. -1.
        -13    1    4    4    0    0 -0.36063514956E+02  0.17052545450E+02  0.62035149896E+02  0.73754499794E+02  0.00000000000E+00 0.  1.
         14    1    4    4    0    0  0.44509409543E+02  0.19018687293E+02  0.28686243346E+02  0.56264540890E+02  0.00000000000E+00 0. -1.
         -5    1    5    5    0  503 -0.11544980617E+02 -0.55855513313E+02  0.31801357219E+02  0.65471682932E+02  0.47000000000E+01 0.  1.
         11    1    6    6    0    0 -0.64766646036E+02  0.63538354881E+02 -0.13848731056E+02  0.91780326495E+02  0.00000000000E+00 0. -1.
        -12    1    6    6    0    0 -0.29698173868E+02  0.93848560840E-01  0.45662809820E+02  0.54470932976E+02  0.00000000000E+00 0.  1.
</event>
<event>
12    1  0.8798177E-003  0.1848490E+03  0.7818608E-02  0.1163379E+00
         21   -1    0    0  503  502  0.00000000000E+00  0.00000000000E+00  0.10585687646E+04  0.10585687646E+04  0.00000000000E+00 0.  1.
         21   -1    0    0  501  503 -0.00000000000E+00 -0.00000000000E+00 -0.41243127780E+02  0.41243127780E+02  0.00000000000E+00 0.  1.
          6    2    1    2  501    0  0.18947213799E+02 -0.65383354051E+02  0.76616914800E+03  0.78796459435E+03  0.17099432363E+03 0.  0.
         24    2    3    3    0    0  0.17749897083E+01  0.27442614170E+02  0.31646789323E+03  0.32843782234E+03  0.83445958786E+02 0.  0.
         -6    2    1    2    0  502 -0.18947213799E+02  0.65383354051E+02  0.25115648887E+03  0.31184729808E+03  0.17185800976E+03 0.  0.
        -24    2    5    5    0    0  0.32655173025E+02  0.27105314234E+02  0.57018250531E+02  0.10729960133E+03  0.80380751222E+02 0.  0.
          5    1    3    3  501    0  0.17172224091E+02 -0.92825968221E+02  0.44970125476E+03  0.45952677201E+03  0.47000000000E+01 0. -1.
        -13    1    4    4    0    0  0.33680769522E+02 -0.32054030638E+01  0.21636663702E+03  0.21899586859E+03  0.00000000000E+00 0.  1.
         14    1    4    4    0    0 -0.31905779813E+02  0.30648017234E+02  0.10010125621E+03  0.10944195375E+03  0.00000000000E+00 0. -1.
         -5    1    5    5    0  502 -0.51602386825E+02  0.38278039816E+02  0.19413823834E+03  0.20454769675E+03  0.47000000000E+01 0.  1.
         13    1    6    6    0    0  0.18498614171E+02 -0.26519934743E+02  0.34936064652E+02  0.47602880988E+02  0.00000000000E+00 0. -1.
        -14    1    6    6    0    0  0.14156558854E+02  0.53625248977E+02  0.22082185879E+02  0.59696720342E+02  0.00000000000E+00 0.  1.
</event>
<event>
12    1  0.8798177E-003  0.1724723E+03  0.7818608E-02  0.1175472E+00
         21   -1    0    0  501  502  0.00000000000E+00  0.00000000000E+00  0.58796562471E+03  0.58796562471E+03  0.00000000000E+00 0.  1.
         21   -1    0    0  502  503 -0.00000000000E+00 -0.00000000000E+00 -0.51310765072E+02  0.51310765072E+02  0.00000000000E+00 0.  1.
          6    2    1    2  501    0 -0.15965501944E+02 -0.11509014519E+02  0.22495197044E+03  0.28303858951E+03  0.17064612355E+03 0.  0.
         24    2    3    3    0    0  0.55018351434E+02 -0.20013348646E+02  0.14730376465E+03  0.17738649535E+03  0.79624220769E+02 0.  0.
         -6    2    1    2    0  503  0.15965501944E+02  0.11509014519E+02  0.31170288920E+03  0.35623780027E+03  0.17134562888E+03 0.  0.
        -24    2    5    5    0    0 -0.99187781688E+01  0.56933203140E+02  0.27352941373E+03  0.29133281511E+03  0.81955458668E+02 0.  0.
          5    1    3    3  501    0 -0.70983853378E+02  0.85043341268E+01  0.77648205788E+02  0.10565209416E+03  0.47000000000E+01 0. -1.
        -11    1    4    4    0    0 -0.83762111695E+01 -0.20818608706E+02  0.71369112979E+01  0.23548054800E+02  0.00000000000E+00 0.  1.
         12    1    4    4    0    0  0.63394562604E+02  0.80526005991E+00  0.14016685335E+03  0.15383844055E+03  0.00000000000E+00 0. -1.
         -5    1    5    5    0  503  0.25884280113E+02 -0.45424188621E+02  0.38173475471E+02  0.64904985158E+02  0.47000000000E+01 0.  1.
         13    1    6    6    0    0 -0.28913425210E+02  0.63671863157E+02  0.14218252373E+03  0.15844861114E+03  0.00000000000E+00 0. -1.
        -14    1    6    6    0    0  0.18994647041E+02 -0.67386600166E+01  0.13134689000E+03  0.13288420398E+03  0.00000000000E+00 0.  1.
</event>
<event>
12    1  0.8798177E-003  0.1921835E+03  0.7818608E-02  0.1156723E+00
         21   -1    0    0  503  502  0.00000000000E+00  0.00000000000E+00  0.12334887624E+04  0.12334887624E+04  0.00000000000E+00 0. -1.
         21   -1    0    0  501  503 -0.00000000000E+00 -0.00000000000E+00 -0.63776521684E+02  0.63776521684E+02  0.00000000000E+00 0. -1.
          6    2    1    2  501    0  0.70322495336E+02  0.49427814314E+02  0.11067377940E+03  0.22093031219E+03  0.17080150825E+03 0.  0.
         24    2    3    3    0    0  0.12160230279E+02  0.26568047689E+02  0.12712249543E+03  0.15613781058E+03  0.85820479426E+02 0.  0.
         -6    2    1    2    0  502 -0.70322495336E+02 -0.49427814314E+02  0.10590384613E+04  0.10763349719E+04  0.17188992699E+03 0.  0.
        -24    2    5    5    0    0 -0.47120992822E+02 -0.99467084554E+02  0.79114225453E+03  0.80277929951E+03  0.80215010696E+02 0.  0.
          5    1    3    3  501    0  0.58162265057E+02  0.22859766625E+02 -0.16448716026E+02  0.64792501616E+02  0.47000000000E+01 0. -1.
        -11    1    4    4    0    0  0.30019199257E+02  0.51510643562E+02  0.77171935077E+02  0.97519261112E+02  0.00000000000E+00 0.  1.
         12    1    4    4    0    0 -0.17858968978E+02 -0.24942595873E+02  0.49950560353E+02  0.58618549466E+02  0.00000000000E+00 0. -1.
         -5    1    5    5    0  502 -0.23201502514E+02  0.50039270240E+02  0.26789620678E+03  0.27355567238E+03  0.47000000000E+01 0.  1.
         13    1    6    6    0    0 -0.66196752905E+02 -0.73848602970E+02  0.67799974636E+03  0.68521477094E+03  0.00000000000E+00 0. -1.
        -14    1    6    6    0    0  0.19075760082E+02 -0.25618481584E+02  0.11314250817E+03  0.11756452857E+03  0.00000000000E+00 0.  1.
</event>
<event>
12    1  0.8798177E-003  0.3104095E+03  0.7818608E-02  0.1080769E+00
         21   -1    0    0  503  502  0.00000000000E+00  0.00000000000E+00  0.73454766442E+03  0.73454766442E+03  0.00000000000E+00 0. -1.
         21   -1    0    0  501  503 -0.00000000000E+00 -0.00000000000E+00 -0.18285976049E+03  0.18285976049E+03  0.00000000000E+00 0.  1.
          6    2    1    2  501    0 -0.25057527614E+03  0.28205511196E+02  0.25318117873E+02  0.30632705030E+03  0.17208060546E+03 0.  0.
         24    2    3    3    0    0 -0.17200321909E+03  0.84415177444E+02  0.20279742359E+02  0.20947370778E+03  0.82200588447E+02 0.  0.
         -6    2    1    2    0  502  0.25057527614E+03 -0.28205511196E+02  0.52636978606E+03  0.61108037461E+03  0.18102638670E+03 0.  0.
        -24    2    5    5    0    0  0.21308949166E+03  0.24001324134E+02  0.47987800047E+03  0.53161771784E+03  0.79695091275E+02 0.  0.
          5    1    3    3  501    0 -0.78572057052E+02 -0.56209666247E+02  0.50383755139E+01  0.96853342518E+02  0.47000000000E+01 0. -1.
        -13    1    4    4    0    0 -0.17889570725E+02  0.45223336123E+02 -0.31637693910E+01  0.48735985756E+02  0.00000000000E+00 0.  1.
         14    1    4    4    0    0 -0.15411364836E+03  0.39191841320E+02  0.23443511750E+02  0.16073772202E+03  0.00000000000E+00 0. -1.
         -5    1    5    5    0  502  0.37485784485E+02 -0.52206835330E+02  0.46491785591E+02  0.79462656771E+02  0.47000000000E+01 0.  1.
         11    1    6    6    0    0  0.86113664306E+02 -0.19847884861E+02  0.13346337762E+03  0.16006865677E+03  0.00000000000E+00 0. -1.
        -12    1    6    6    0    0  0.12697582735E+03  0.43849208995E+02  0.34641462284E+03  0.37154906107E+03  0.00000000000E+00 0.  1.
</event>
<event>
12    1  0.8798177E-003  0.2019064E+03  0.7818608E-02  0.1148356E+00
         21   -1    0    0  501  502  0.00000000000E+00  0.00000000000E+00  0.12511084870E+04  0.12511084870E+04  0.00000000000E+00 0. -1.
         21   -1    0    0  502  503 -0.00000000000E+00 -0.00000000000E+00 -0.33620486252E+02  0.33620486252E+02  0.00000000000E+00 0. -1.
          6    2    1    2  501    0  0.92726816987E+02  0.60319728879E+02  0.72873628215E+03  0.75591477493E+03  0.16767183949E+03 0.  0.
         24    2    3    3    0    0  0.82496203133E+02 -0.14434525645E+02  0.25941620723E+03  0.28054514323E+03  0.66293512122E+02 0.  0.
         -6    2    1    2    0  503 -0.92726816987E+02 -0.60319728879E+02  0.48875171858E+03  0.52881419830E+03  0.16890672465E+03 0.  0.
        -24    2    5    5    0    0  0.57832079562E+01  0.59747510175E+00  0.14548633165E+03  0.16650445979E+03  0.80769177061E+02 0.  0.
          5    1    3    3  501    0  0.10230613853E+02  0.74754254524E+02  0.46932007492E+03  0.47536963171E+03  0.47000000000E+01 0. -1.
        -13    1    4    4    0    0  0.10085809269E+02 -0.30741589153E+02  0.70431053837E+02  0.77506788070E+02  0.00000000000E+00 0.  1.
         14    1    4    4    0    0  0.72410393864E+02  0.16307063508E+02  0.18898515340E+03  0.20303835516E+03  0.00000000000E+00 0. -1.
         -5    1    5    5    0  503 -0.98510024943E+02 -0.60917203981E+02  0.34326538694E+03  0.36230973852E+03  0.47000000000E+01 0.  1.
         13    1    6    6    0    0  0.39222387110E+01  0.19837403089E+02  0.49207891773E+00  0.20227423451E+02  0.00000000000E+00 0. -1.
        -14    1    6    6    0    0  0.18609692452E+01 -0.19239927987E+02  0.14499425273E+03  0.14627703634E+03  0.00000000000E+00 0.  1.
</event>
<event>
12    1  0.8798177E-003  0.2172860E+03  0.7818608E-02  0.1136262E+00
         21   -1    0    0  503  502  0.00000000000E+00  0.00000000000E+00  0.10085371173E+03  0.10085371173E+03  0.00000000000E+00 0. -1.
         21   -1    0    0  501  503 -0.00000000000E+00 -0.00000000000E+00 -0.47285723663E+03  0.47285723663E+03  0.00000000000E+00 0. -1.
          6    2    1    2  501    0  0.97391251825E+02  0.86941209596E+02 -0.22383360061E+03  0.31071373911E+03  0.17145762464E+03 0.  0.
         24    2    3    3    0    0  0.27845867555E+02  0.98550726692E+02 -0.19579455474E+03  0.23468993064E+03  0.79096256585E+02 0.  0.
         -6    2    1    2    0  502 -0.97391251825E+02 -0.86941209596E+02 -0.14816992429E+03  0.26299720925E+03  0.17369333825E+03 0.  0.
        -24    2    5    5    0    0 -0.88915308238E+02 -0.12881061085E+03 -0.12511230382E+03  0.21422598574E+03  0.75773206977E+02 0.  0.
          5    1    3    3  501    0  0.69545384270E+02 -0.11609517096E+02 -0.28039045872E+02  0.76023808467E+02  0.47000000000E+01 0. -1.
        -13    1    4    4    0    0  0.36726636235E+02  0.10494515705E+03 -0.14495705767E+03  0.18268793164E+03  0.00000000000E+00 0.  1.
         14    1    4    4    0    0 -0.88807686796E+01 -0.63944303558E+01 -0.50837497072E+02  0.52001999005E+02  0.00000000000E+00 0. -1.
         -5    1    5    5    0  502 -0.84759435872E+01  0.41869401249E+02 -0.23057620470E+02  0.48771223507E+02  0.47000000000E+01 0.  1.
         13    1    6    6    0    0 -0.95516904178E+02 -0.11137968696E+03 -0.83963709251E+02  0.16905270812E+03  0.00000000000E+00 0. -1.
        -14    1    6    6    0    0  0.66015959403E+01 -0.17430923884E+02 -0.41148594567E+02  0.45173277624E+02  0.00000000000E+00 0.  1.
</event>
<event>
12    1  0.8798177E-003  0.1753637E+03  0.7818608E-02  0.1172638E+00
         21   -1    0    0  503  502  0.00000000000E+00  0.00000000000E+00  0.10986061642E+04  0.10986061642E+04  0.00000000000E+00 0. -1.
         21   -1    0    0  501  503 -0.00000000000E+00 -0.00000000000E+00 -0.50236514726E+02  0.50236514726E+02  0.00000000000E+00 0. -1.
          6    2    1    2  501    0 -0.17030809253E+02 -0.30892583966E+02  0.14137250542E+03  0.22525233827E+03  0.17177901618E+03 0.  0.
         24    2    3    3    0    0 -0.11880837806E+02 -0.74190954249E+02  0.14423007269E+03  0.18130319988E+03  0.80144147751E+02 0.  0.
         -6    2    1    2    0  502  0.17030809253E+02  0.30892583966E+02  0.90699714409E+03  0.92359034070E+03  0.17067776018E+03 0.  0.
        -24    2    5    5    0    0 -0.89683450980E+01 -0.13148697460E+01  0.84270740169E+03  0.84698396316E+03  0.84521647402E+02 0.  0.
          5    1    3    3  501    0 -0.51499714473E+01  0.43298370283E+02 -0.28575672647E+01  0.43949138396E+02  0.47000000000E+01 0. -1.
        -13    1    4    4    0    0  0.12892070036E+02 -0.24606820667E+02  0.11565182967E+03  0.11894135866E+03  0.00000000000E+00 0.  1.
         14    1    4    4    0    0 -0.24772907842E+02 -0.49584133582E+02  0.28578243011E+02  0.62361841214E+02  0.00000000000E+00 0. -1.
         -5    1    5    5    0  502  0.25999154351E+02  0.32207453712E+02  0.64289742402E+02  0.76606377539E+02  0.47000000000E+01 0.  1.
         13    1    6    6    0    0 -0.12232061717E+02  0.13448437089E+02  0.81668945337E+03  0.81689175969E+03  0.00000000000E+00 0. -1.
        -14    1    6    6    0    0  0.32637166192E+01 -0.14763306835E+02  0.26017948321E+02  0.30092203471E+02  0.00000000000E+00 0.  1.
</event>
<event>
12    1  0.8798177E-003  0.3713711E+03  0.7818608E-02  0.1054205E+00
         21   -1    0    0  501  502  0.00000000000E+00  0.00000000000E+00  0.34837183853E+03  0.34837183853E+03  0.00000000000E+00 0. -1.
         21   -1    0    0  502  503 -0.00000000000E+00 -0.00000000000E+00 -0.39581797049E+03  0.39581797049E+03  0.00000000000E+00 0. -1.
          6    2    1    2  501    0 -0.30115953624E+03 -0.13172340961E+03 -0.34336763056E+02  0.37295511480E+03  0.17282471309E+03 0.  0.
         24    2    3    3    0    0 -0.14304546512E+03 -0.47157117291E+01 -0.44402930253E+02  0.16984324285E+03  0.79942878970E+02 0.  0.
         -6    2    1    2    0  503  0.30115953624E+03  0.13172340961E+03 -0.13109368908E+02  0.37123469422E+03  0.17203261242E+03 0.  0.
        -24    2    5    5    0    0  0.12718462598E+03  0.16344553119E+02  0.36802943242E+02  0.15654217263E+03  0.81901902777E+02 0.  0.
          5    1    3    3  501    0 -0.15811407112E+03 -0.12700769788E+03  0.10066167197E+02  0.20311187195E+03  0.47000000000E+01 0. -1.
        -13    1    4    4    0    0 -0.64012649343E+02 -0.23325253967E+02 -0.55525606904E+02  0.87890726306E+02  0.00000000000E+00 0.  1.
         14    1    4    4    0    0 -0.79032815773E+02  0.18609542238E+02  0.11122676651E+02  0.81952516540E+02  0.00000000000E+00 0. -1.
         -5    1    5    5    0  503  0.17397491026E+03  0.11537885649E+03 -0.49912312150E+02  0.21469252159E+03  0.47000000000E+01 0.  1.
         11    1    6    6    0    0  0.63418478101E+02  0.47323511868E+02  0.63446274465E+01  0.79383074000E+02  0.00000000000E+00 0. -1.
        -12    1    6    6    0    0  0.63766147879E+02 -0.30978958749E+02  0.30458315796E+02  0.77159098631E+02  0.00000000000E+00 0.  1.
</event>
<event>
12    1  0.8798177E-003  0.2222328E+03  0.7818608E-02  0.1132229E+00
         21   -1    0    0  501  502  0.00000000000E+00  0.00000000000E+00  0.87776298507E+03  0.87776298507E+03  0.00000000000E+00 0.  1.
         21   -1    0    0  502  503 -0.00000000000E+00 -0.00000000000E+00 -0.64495822340E+02  0.64495822340E+02  0.00000000000E+00 0.  1.
          6    2    1    2  501    0  0.12091060790E+03  0.71163949603E+02  0.57493778435E+03  0.61639333218E+03  0.17234732737E+03 0.  0.
         24    2    3    3    0    0  0.97439910163E+02  0.47671387566E+01  0.48934964975E+03  0.50545718421E+03  0.80663645138E+02 0.  0.
         -6    2    1    2    0  503 -0.12091060790E+03 -0.71163949603E+02  0.23832937838E+03  0.32586547523E+03  0.17234770821E+03 0.  0.
        -24    2    5    5    0    0 -0.15468320619E+03 -0.66556633840E+02  0.21169660412E+03  0.28235443734E+03  0.80943784826E+02 0.  0.
          5    1    3    3  501    0  0.23470697733E+02  0.66396810847E+02  0.85588134597E+02  0.11093614797E+03  0.47000000000E+01 0. -1.
        -11    1    4    4    0    0  0.76354702655E+02  0.21541752040E+02  0.20471752398E+03  0.21955261858E+03  0.00000000000E+00 0.  1.
         12    1    4    4    0    0  0.21085207508E+02 -0.16774613284E+02  0.28463212577E+03  0.28590456563E+03  0.00000000000E+00 0. -1.
         -5    1    5    5    0  503  0.33772598295E+02 -0.46073157637E+01  0.26632774256E+02  0.43511037895E+02  0.47000000000E+01 0.  1.
         13    1    6    6    0    0 -0.47447863564E+02 -0.43846415040E+02  0.13157462083E+03  0.14657997378E+03  0.00000000000E+00 0. -1.
        -14    1    6    6    0    0 -0.10723534263E+03 -0.22710218800E+02  0.80121983293E+02  0.13577446355E+03  0.00000000000E+00 0.  1.
</event>
<event>
12    1  0.8798177E-003  0.1986197E+03  0.7818608E-02  0.1155170E+00
         21   -1    0    0  501  502  0.00000000000E+00  0.00000000000E+00  0.18852356356E+03  0.18852356356E+03  0.00000000000E+00 0.  1.
         21   -1    0    0  502  503 -0.00000000000E+00 -0.00000000000E+00 -0.19164152569E+03  0.19164152569E+03  0.00000000000E+00 0.  1.
          6    2    1    2  501    0 -0.92929300849E+02 -0.35614236736E+02 -0.20552747319E+02  0.19968028514E+03  0.17188825451E+03 0.  0.
         24    2    3    3    0    0 -0.12856266881E+03 -0.48412565795E+02 -0.64901876242E+01  0.15901851287E+03  0.79828745215E+02 0.  0.
         -6    2    1    2    0  503  0.92929300849E+02  0.35614236736E+02  0.17434785189E+02  0.18048480410E+03  0.14955455179E+03 0.  0.
        -24    2    5    5    0    0  0.10267078201E+03 -0.11598444264E+02  0.16464469366E+02  0.13203931705E+03  0.80544950859E+02 0.  0.
          5    1    3    3  501    0  0.35633367961E+02  0.12798329058E+02 -0.14062559694E+02  0.40661772270E+02  0.47000000000E+01 0. -1.
        -13    1    4    4    0    0 -0.10350879608E+03 -0.35893190781E+02 -0.38833074133E+02  0.11623424477E+03  0.00000000000E+00 0.  1.
         14    1    4    4    0    0 -0.25053872731E+02 -0.12519375014E+02  0.32342886509E+02  0.42784268105E+02  0.00000000000E+00 0. -1.
         -5    1    5    5    0  503 -0.97414811587E+01  0.47212681000E+02  0.97031582261E+00  0.48445487047E+02  0.47000000000E+01 0.  1.
         13    1    6    6    0    0  0.70032319474E+02 -0.10582948454E+02 -0.28603261887E+02  0.76385019208E+02  0.00000000000E+00 0. -1.
        -14    1    6    6    0    0  0.32638462534E+02 -0.10154958094E+01  0.45067731253E+02  0.55654297845E+02  0.00000000000E+00 0.  1.
</event>
<event>
12    1  0.8798177E-003  0.1933797E+03  0.7818608E-02  0.1155500E+00
         21   -1    0    0  501  502  0.00000000000E+00  0.00000000000E+00  0.38574121748E+03  0.38574121748E+03  0.00000000000E+00 0.  1.
         21   -1    0    0  502  503 -0.00000000000E+00 -0.00000000000E+00 -0.10960517883E+03  0.10960517883E+03  0.00000000000E+00 0.  1.
          6    2    1    2  501    0  0.83559971075E+02 -0.29971056428E+02  0.53575966960E+02  0.20066416287E+03  0.17179985167E+03 0.  0.
         24    2    3    3    0    0  0.10008974551E+03 -0.71799684634E+02  0.52894482242E+02  0.15543782097E+03  0.78676159450E+02 0.  0.
         -6    2    1    2    0  503 -0.83559971075E+02  0.29971056428E+02  0.22256007169E+03  0.29468223345E+03  0.17153454524E+03 0.  0.
        -24    2    5    5    0    0  0.20386896522E+02  0.27840257516E+02  0.11230327207E+03  0.14306381950E+03  0.81636548448E+02 0.  0.
          5    1    3    3  501    0 -0.16529774431E+02  0.41828628206E+02  0.68148471809E+00  0.45226341901E+02  0.47000000000E+01 0. -1.
        -13    1    4    4    0    0  0.58189494777E+01 -0.45985334170E+02  0.29475318730E+02  0.54930005880E+02  0.00000000000E+00 0.  1.
         14    1    4    4    0    0  0.94270796028E+02 -0.25814350465E+02  0.23419163512E+02  0.10050781509E+03  0.00000000000E+00 0. -1.
         -5    1    5    5    0  503 -0.10394686760E+03  0.21307989117E+01  0.11025679961E+03  0.15161841395E+03  0.47000000000E+01 0.  1.
         11    1    6    6    0    0  0.45620251179E+02 -0.57221051588E+00  0.37096703720E+02  0.58802212283E+02  0.00000000000E+00 0. -1.
        -12    1    6    6    0    0 -0.25233354657E+02  0.28412468032E+02  0.75206568355E+02  0.84261607216E+02  0.00000000000E+00 0.  1.
</event>
<event>
12    1  0.8798177E-003  0.2009335E+03  0.7818608E-02  0.1148977E+00
         21   -1    0    0  503  502  0.00000000000E+00  0.00000000000E+00  0.33601055906E+03  0.33601055906E+03  0.00000000000E+00 0.  1.
         21   -1    0    0  501  503 -0.00000000000E+00 -0.00000000000E+00 -0.15774579708E+03  0.15774579708E+03  0.00000000000E+00 0.  1.
          6    2    1    2  501    0 -0.59466626991E+01  0.10452283469E+03 -0.31505366732E+02  0.20327780164E+03  0.17137354154E+03 0.  0.
         24    2    3    3    0    0 -0.37303546224E+02  0.12657667686E+03 -0.47226236605E+02  0.16157813920E+03  0.80398805694E+02 0.  0.
         -6    2    1    2    0  502  0.59466626991E+01 -0.10452283469E+03  0.20977012871E+03  0.29047855450E+03  0.17150480446E+03 0.  0.
        -24    2    5    5    0    0  0.26890803038E+02 -0.71394560199E+02  0.22306915725E+03  0.24882409801E+03  0.79581934622E+02 0.  0.
          5    1    3    3  501    0  0.31356883525E+02 -0.22053842164E+02  0.15720869873E+02  0.41699662447E+02  0.47000000000E+01 0. -1.
        -13    1    4    4    0    0 -0.52690059909E+00  0.89713883781E+02  0.22588718731E+01  0.89743863687E+02  0.00000000000E+00 0.  1.
         14    1    4    4    0    0 -0.36776645625E+02  0.36862793077E+02 -0.49485108478E+02  0.71834275509E+02  0.00000000000E+00 0. -1.
         -5    1    5    5    0  502 -0.20944140339E+02 -0.33128274495E+02 -0.13299028540E+02  0.41654456492E+02  0.47000000000E+01 0.  1.
         13    1    6    6    0    0  0.18922685324E+02 -0.29288536825E+01  0.13806162148E+03  0.13938313215E+03  0.00000000000E+00 0. -1.
        -14    1    6    6    0    0  0.79681177140E+01 -0.68465706516E+02  0.85007535774E+02  0.10944096585E+03  0.00000000000E+00 0.  1.
</event>
<event>
12    1  0.8798177E-003  0.1937832E+03  0.7818608E-02  0.1155180E+00
         21   -1    0    0  501  502  0.00000000000E+00  0.00000000000E+00  0.19971767973E+03  0.19971767973E+03  0.00000000000E+00 0. -1.
         21   -1    0    0  502  503 -0.00000000000E+00 -0.00000000000E+00 -0.42017009046E+03  0.42017009046E+03  0.00000000000E+00 0.  1.
          6    2    1    2  501    0 -0.54911885164E+02  0.78535579797E+02  0.12029660163E+03  0.22808590898E+03  0.16843027366E+03 0.  0.
         24    2    3    3    0    0 -0.24271471076E+02 -0.98874923479E+00  0.43895206044E+01  0.84143228325E+02  0.80440866782E+02 0.  0.
         -6    2    1    2    0  503  0.54911885164E+02 -0.78535579797E+02 -0.34074901236E+03  0.39180186122E+03  0.16797516662E+03 0.  0.
        -24    2    5    5    0    0  0.57740602161E+02 -0.18068250650E+02 -0.88908398469E+02  0.13274571993E+03  0.77822130668E+02 0.  0.
          5    1    3    3  501    0 -0.30640414088E+02  0.79524329032E+02  0.11590708102E+03  0.14394268066E+03  0.47000000000E+01 0. -1.
        -13    1    4    4    0    0 -0.16652020437E+02 -0.34507001011E+02  0.23368015678E+02  0.44878581307E+02  0.00000000000E+00 0.  1.
         14    1    4    4    0    0 -0.76194506385E+01  0.33518251776E+02 -0.18978495073E+02  0.39264647018E+02  0.00000000000E+00 0. -1.
         -5    1    5    5    0  503 -0.28287169971E+01 -0.60467329147E+02 -0.25184061389E+03  0.25905614129E+03  0.47000000000E+01 0.  1.
         13    1    6    6    0    0  0.68858299236E+02 -0.20904443273E+02 -0.95450670108E+02  0.11953782475E+03  0.00000000000E+00 0. -1.
        -14    1    6    6    0    0 -0.11117697074E+02  0.28361926234E+01  0.65422716391E+01  0.13207895178E+02  0.00000000000E+00 0.  1.
</event>
<event>
12    1  0.8798177E-003  0.2189930E+03  0.7818608E-02  0.1134786E+00
         21   -1    0    0  503  502  0.00000000000E+00  0.00000000000E+00  0.11197818508E+03  0.11197818508E+03  0.00000000000E+00 0. -1.
         21   -1    0    0  501  503 -0.00000000000E+00 -0.00000000000E+00 -0.46756379106E+03  0.46756379106E+03  0.00000000000E+00 0.  1.
          6    2    1    2  501    0 -0.13173170923E+03 -0.28017768976E+02 -0.26373791562E+03  0.34280549337E+03  0.17268375591E+03 0.  0.
         24    2    3    3    0    0 -0.12047335099E+03  0.40102382949E+02 -0.17690899749E+03  0.23177190948E+03  0.79368729434E+02 0.  0.
         -6    2    1    2    0  502  0.13173170923E+03  0.28017768976E+02 -0.91847690357E+02  0.23673648277E+03  0.17166806766E+03 0.  0.
        -24    2    5    5    0    0  0.62852974902E+02  0.10792220936E+02  0.19639454004E+02  0.10447737001E+03  0.80391816778E+02 0.  0.
          5    1    3    3  501    0 -0.11258358238E+02 -0.68120151925E+02 -0.86828918134E+02  0.11103358390E+03  0.47000000000E+01 0. -1.
        -11    1    4    4    0    0  0.25815423298E+01  0.35304036024E+01 -0.53569104504E+02  0.53747344751E+02  0.00000000000E+00 0.  1.
         12    1    4    4    0    0 -0.12305489332E+03  0.36571979347E+02 -0.12333989298E+03  0.17802456472E+03  0.00000000000E+00 0. -1.
         -5    1    5    5    0  502  0.68878734330E+02  0.17225548039E+02 -0.11148714436E+03  0.13225911275E+03  0.47000000000E+01 0.  1.
         11    1    6    6    0    0  0.64904643197E+01 -0.19113338613E+02 -0.20761879799E+02  0.28956890248E+02  0.00000000000E+00 0. -1.
        -12    1    6    6    0    0  0.56362510582E+02  0.29905559550E+02  0.40401333803E+02  0.75520479767E+02  0.00000000000E+00 0.  1.
</event>
<event>
12    1  0.8798177E-003  0.1994026E+03  0.7818608E-02  0.1155192E+00
         21   -1    0    0  503  502  0.00000000000E+00  0.00000000000E+00  0.47611244996E+03  0.47611244996E+03  0.00000000000E+00 0.  1.
         21   -1    0    0  501  503 -0.00000000000E+00 -0.00000000000E+00 -0.15002123531E+03  0.15002123531E+03  0.00000000000E+00 0.  1.
          6    2    1    2  501    0 -0.13697593602E+02 -0.43404254649E+02 -0.63513162860E+02  0.18846602432E+03  0.17150500597E+03 0.  0.
         24    2    3    3    0    0 -0.59380394745E+02 -0.55402148833E+02  0.44778086435E+01  0.10554600266E+03  0.67264244086E+02 0.  0.
         -6    2    1    2    0  502  0.13697593602E+02  0.43404254649E+02  0.38960437751E+03  0.43766766096E+03  0.19413875728E+03 0.  0.
        -24    2    5    5    0    0 -0.43284958326E+02  0.45434334142E+02  0.93060621135E+02  0.13565537330E+03  0.76185528574E+02 0.  0.
          5    1    3    3  501    0  0.45682801143E+02  0.11997894184E+02 -0.67990971503E+02  0.82920021654E+02  0.47000000000E+01 0. -1.
        -11    1    4    4    0    0  0.13376534624E+02 -0.76010139663E+00  0.56673164144E+01  0.14547436476E+02  0.00000000000E+00 0.  1.
         12    1    4    4    0    0 -0.72756929369E+02 -0.54642047437E+02 -0.11895077709E+01  0.90998566187E+02  0.00000000000E+00 0. -1.
         -5    1    5    5    0  502  0.56982551928E+02 -0.20300794929E+01  0.29654375638E+03  0.30201228765E+03  0.47000000000E+01 0.  1.
         13    1    6    6    0    0  0.10898938130E+02 -0.11847252531E+02  0.32379001316E+02  0.36159977477E+02  0.00000000000E+00 0. -1.
        -14    1    6    6    0    0 -0.54183896456E+02  0.57281586674E+02  0.60681619819E+02  0.99495395827E+02  0.00000000000E+00 0.  1.
</event>
<event>
12    1  0.8798177E-003  0.2053535E+03  0.7818608E-02  0.1145441E+00
         21   -1    0    0  503  502  0.00000000000E+00  0.00000000000E+00  0.21659768646E+04  0.21659768646E+04  0.00000000000E+00 0.  1.
         21   -1    0    0  501  503 -0.00000000000E+00 -0.00000000000E+00 -0.21722657584E+02  0.21722657584E+02  0.00000000000E+00 0. -1.
          6    2    1    2  501    0  0.78387627651E+02 -0.78261717627E+02  0.71311814040E+03  0.74190545374E+03  0.17209504207E+03 0.  0.
         24    2    3    3    0    0  0.95068993760E+02 -0.67861408987E+02  0.34044502158E+03  0.36868463722E+03  0.79889076831E+02 0.  0.
         -6    2    1    2    0  502 -0.78387627651E+02  0.78261717627E+02  0.14311360666E+04  0.14457940685E+04  0.17291769883E+03 0.  0.
        -24    2    5    5    0    0 -0.64599609471E+02 -0.89587574771E+01  0.50980116636E+03  0.52022526541E+03  0.80521603742E+02 0.  0.
          5    1    3    3  501    0 -0.16681366109E+02 -0.10400308640E+02  0.37267311881E+03  0.37322081652E+03  0.47000000000E+01 0. -1.
        -13    1    4    4    0    0  0.25987558441E+02 -0.15844284377E+02  0.20990410628E+03  0.21209933610E+03  0.00000000000E+00 0.  1.
         14    1    4    4    0    0  0.69081435319E+02 -0.52017124610E+02  0.13054091530E+03  0.15658530112E+03  0.00000000000E+00 0. -1.
         -5    1    5    5    0  502 -0.13788018181E+02  0.87220475104E+02  0.92133490028E+03  0.92556880306E+03  0.47000000000E+01 0.  1.
         13    1    6    6    0    0 -0.47779568427E+02  0.26832562678E+02  0.18266889178E+03  0.19071129386E+03  0.00000000000E+00 0. -1.
        -14    1    6    6    0    0 -0.16820041044E+02 -0.35791320155E+02  0.32713227458E+03  0.32951397156E+03  0.00000000000E+00 0.  1.
</event>
<event>
12    1  0.8798177E-003  0.2636960E+03  0.7818608E-02  0.1105003E+00
         21   -1    0    0  501  502  0.00000000000E+00  0.00000000000E+00  0.60697629912E+03  0.60697629912E+03  0.00000000000E+00 0.  1.
         21   -1    0    0  502  503 -0.00000000000E+00 -0.00000000000E+00 -0.13289575150E+03  0.13289575150E+03  0.00000000000E+00 0. -1.
          6    2    1    2  501    0  0.19871186149E+03 -0.13844493348E+02  0.37495093503E+03  0.45815896523E+03  0.17217247123E+03 0.  0.
         24    2    3    3    0    0  0.74939729930E+02 -0.95988714781E+01  0.28307313731E+03  0.30388263662E+03  0.80660735905E+02 0.  0.
         -6    2    1    2    0  503 -0.19871186149E+03  0.13844493348E+02  0.99129612594E+02  0.28171308539E+03  0.17279325361E+03 0.  0.
        -24    2    5    5    0    0 -0.96396117727E+02  0.65794062547E+01 -0.17687172384E+02  0.12618320348E+03  0.79207731156E+02 0.  0.
          5    1    3    3  501    0  0.12377213156E+03 -0.42456218697E+01  0.91877797719E+02  0.15427632861E+03  0.47000000000E+01 0. -1.
        -13    1    4    4    0    0  0.30023175917E+02 -0.17968226648E+02  0.28177849260E+02  0.44924819977E+02  0.00000000000E+00 0.  1.
         14    1    4    4    0    0  0.44916554012E+02  0.83693551700E+01  0.25489528805E+03  0.25895781664E+03  0.00000000000E+00 0. -1.
         -5    1    5    5    0  503 -0.10231574376E+03  0.72650870931E+01  0.11681678498E+03  0.15552988190E+03  0.47000000000E+01 0.  1.
         11    1    6    6    0    0 -0.14336782254E+02 -0.29832958129E+02 -0.15073923703E+02  0.36369931151E+02  0.00000000000E+00 0. -1.
        -12    1    6    6    0    0 -0.82059335473E+02  0.36412364384E+02 -0.26132486804E+01  0.89813272332E+02  0.00000000000E+00 0.  1.
</event>
<event>
12    1  0.8798177E-003  0.1755689E+03  0.7818608E-02  0.1172324E+00
         21   -1    0    0  503  502  0.00000000000E+00  0.00000000000E+00  0.54372908557E+03  0.54372908557E+03  0.00000000000E+00 0.  1.
         21   -1    0    0  501  503 -0.00000000000E+00 -0.00000000000E+00 -0.65851192162E+02  0.65851192162E+02  0.00000000000E+00 0.  1.
          6    2    1    2  501    0  0.23182268548E+02 -0.16217005947E+02  0.12435058011E+03  0.21514532582E+03  0.17327445164E+03 0.  0.
         24    2    3    3    0    0  0.77703733672E+02  0.19582719034E+01  0.44968376413E+02  0.11703031602E+03  0.75048217409E+02 0.  0.
         -6    2    1    2    0  502 -0.23182268548E+02  0.16217005947E+02  0.35352731330E+03  0.39443495191E+03  0.17261796309E+03 0.  0.
        -24    2    5    5    0    0  0.94062112776E+01  0.41792413183E+02  0.33772600290E+03  0.34984928288E+03  0.80626205951E+02 0.  0.
          5    1    3    3  501    0 -0.54521465124E+02 -0.18175277850E+02  0.79382203693E+02  0.98115009796E+02  0.47000000000E+01 0. -1.
        -11    1    4    4    0    0  0.35019099208E+02 -0.28205234228E+02  0.46575173351E+02  0.64738854792E+02  0.00000000000E+00 0.  1.
         12    1    4    4    0    0  0.42684634463E+02  0.30163506131E+02 -0.16067969374E+01  0.52291461232E+02  0.00000000000E+00 0. -1.
         -5    1    5    5    0  502 -0.32588479826E+02 -0.25575407236E+02  0.15801310403E+02  0.44585669033E+02  0.47000000000E+01 0.  1.
         13    1    6    6    0    0  0.42005535539E+02  0.36652742188E+02  0.17000436935E+03  0.17891163775E+03  0.00000000000E+00 0. -1.
        -14    1    6    6    0    0 -0.32599324261E+02  0.51396709949E+01  0.16772163355E+03  0.17093764512E+03  0.00000000000E+00 0.  1.
</event>
<event>
12    1  0.8798177E-003  0.1765481E+03  0.7818608E-02  0.1171243E+00
         21   -1    0    0  501  502  0.00000000000E+00  0.00000000000E+00  0.53291151924E+03  0.53291151924E+03  0.00000000000E+00 0.  1.
         21   -1    0    0  502  503 -0.00000000000E+00 -0.00000000000E+00 -0.58830472178E+02  0.58830472178E+02  0.00000000000E+00 0.  1.
          6    2    1    2  501    0 -0.23583628457E+02 -0.31398369637E+02  0.26182267762E+03  0.31565714312E+03  0.17189029158E+03 0.  0.
         24    2    3    3    0    0 -0.30832384566E+02 -0.62566728274E+02  0.85328874175E+02  0.13622424842E+03  0.80067456968E+02 0.  0.
         -6    2    1    2    0  503  0.23583628457E+02  0.31398369637E+02  0.21225836944E+03  0.27608484829E+03  0.17212548595E+03 0.  0.
        -24    2    5    5    0    0  0.33602083965E+02  0.94266264869E+01  0.30196911690E+02  0.92368786543E+02  0.80013610830E+02 0.  0.
          5    1    3    3  501    0  0.72487561084E+01  0.31168358637E+02  0.17649380345E+03  0.17943289470E+03  0.47000000000E+01 0. -1.
        -13    1    4    4    0    0  0.23169473164E+02 -0.20652770485E+00  0.24563277895E+02  0.33767169874E+02  0.00000000000E+00 0.  1.
         14    1    4    4    0    0 -0.54001857729E+02 -0.62360200569E+02  0.60765596280E+02  0.10245707855E+03  0.00000000000E+00 0. -1.
         -5    1    5    5    0  503 -0.10018455508E+02  0.21971743150E+02  0.18206145775E+03  0.18371606175E+03  0.47000000000E+01 0.  1.
         11    1    6    6    0    0  0.51036089711E+02  0.28242963864E+02  0.88508310327E+01  0.58997327658E+02  0.00000000000E+00 0. -1.
        -12    1    6    6    0    0 -0.17434005746E+02 -0.18816337377E+02  0.21346080657E+02  0.33371458884E+02  0.00000000000E+00 0.  1.
</event>
<event>
12    1  0.8798177E-003  0.2095020E+03  0.7818608E-02  0.1142014E+00
         21   -1    0    0  501  502  0.00000000000E+00  0.00000000000E+00  0.46258506473E+02  0.46258506473E+02  0.00000000000E+00 0.  1.
         21   -1    0    0  502  503 -0.00000000000E+00 -0.00000000000E+00 -0.12115829440E+04  0.12115829440E+04  0.00000000000E+00 0.  1.
          6    2    1    2  501    0 -0.90428864873E+02  0.77263208801E+02 -0.87650547584E+03  0.90119527501E+03  0.17246475432E+03 0.  0.
         24    2    3    3    0    0 -0.63236387143E+02  0.99991124673E+02 -0.42579985779E+03  0.44907401567E+03  0.79780241805E+02 0.  0.
         -6    2    1    2    0  503  0.90428864873E+02 -0.77263208801E+02 -0.28881896166E+03  0.35664617543E+03  0.17214272800E+03 0.  0.
        -24    2    5    5    0    0  0.58504117844E+02  0.24975774046E+02 -0.13540189443E+03  0.16948077905E+03  0.79646345550E+02 0.  0.
          5    1    3    3  501    0 -0.27192477730E+02 -0.22727915872E+02 -0.45070561804E+03  0.45212125933E+03  0.47000000000E+01 0. -1.
        -13    1    4    4    0    0 -0.42741173582E+02  0.91540539279E+02 -0.40890677260E+03  0.42120212123E+03  0.00000000000E+00 0.  1.
         14    1    4    4    0    0 -0.20495213561E+02  0.84505853941E+01 -0.16893085194E+02  0.27871894442E+02  0.00000000000E+00 0. -1.
         -5    1    5    5    0  503  0.31924747029E+02 -0.10223898285E+03 -0.15341706723E+03  0.18716539638E+03  0.47000000000E+01 0.  1.
         13    1    6    6    0    0 -0.60542782180E+01 -0.48513543607E+01  0.69099438437E+01  0.10389285240E+02  0.00000000000E+00 0. -1.
        -14    1    6    6    0    0  0.64558396062E+02  0.29827128406E+02 -0.14231183827E+03  0.15909149381E+03  0.00000000000E+00 0.  1.
</event>
<event>
12    1  0.8798177E-003  0.1994288E+03  0.7818608E-02  0.1150344E+00
         21   -1    0    0  503  502  0.00000000000E+00  0.00000000000E+00  0.11489575846E+03  0.11489575846E+03  0.00000000000E+00 0. -1.
         21   -1    0    0  501  503 -0.00000000000E+00 -0.00000000000E+00 -0.34645176744E+03  0.34645176744E+03  0.00000000000E+00 0. -1.
          6    2    1    2  501    0  0.98374257135E+02 -0.23059519215E+02 -0.10185584213E+03  0.22393403783E+03  0.17193779349E+03 0.  0.
         24    2    3    3    0    0  0.11642400166E+03  0.19506489846E+02 -0.10419939700E+03  0.17740189137E+03  0.81724325732E+02 0.  0.
         -6    2    1    2    0  502 -0.98374257135E+02  0.23059519215E+02 -0.12970016685E+03  0.23741348807E+03  0.17127111590E+03 0.  0.
        -24    2    5    5    0    0 -0.10816652696E+03 -0.26972498824E+02 -0.61191950559E+02  0.15188830419E+03  0.83054734299E+02 0.  0.
          5    1    3    3  501    0 -0.18049744527E+02 -0.42566009061E+02  0.23435548697E+01  0.46532146461E+02  0.47000000000E+01 0. -1.
        -11    1    4    4    0    0  0.77668857286E+02  0.50676411014E+02 -0.57121027277E+02  0.10891906069E+03  0.00000000000E+00 0.  1.
         12    1    4    4    0    0  0.38755144376E+02 -0.31169921168E+02 -0.47078369723E+02  0.68482830673E+02  0.00000000000E+00 0. -1.
         -5    1    5    5    0  502  0.97922698236E+01  0.50032018039E+02 -0.68508216295E+02  0.85525183878E+02  0.47000000000E+01 0.  1.
         13    1    6    6    0    0 -0.73918064070E+02 -0.57098967638E+02 -0.41026353180E+02  0.10201634161E+03  0.00000000000E+00 0. -1.
        -14    1    6    6    0    0 -0.34248462889E+02  0.30126468814E+02 -0.20165597379E+02  0.49871962575E+02  0.00000000000E+00 0.  1.
</event>
<event>
12    1  0.8798177E-003  0.1765588E+03  0.7818608E-02  0.1171386E+00
         21   -1    0    0  503  502  0.00000000000E+00  0.00000000000E+00  0.90446093561E+02  0.90446093561E+02  0.00000000000E+00 0. -1.
         21   -1    0    0  501  503 -0.00000000000E+00 -0.00000000000E+00 -0.60120604397E+03  0.60120604397E+03  0.00000000000E+00 0. -1.
          6    2    1    2  501    0 -0.15614538748E+02 -0.31764678982E+02 -0.48236062864E+03  0.51365824017E+03  0.17297457321E+03 0.  0.
         24    2    3    3    0    0 -0.25024067380E+02 -0.81153621631E+02 -0.39991674514E+03  0.41697892070E+03  0.82011602938E+02 0.  0.
         -6    2    1    2    0  502  0.15614538748E+02  0.31764678982E+02 -0.28399321771E+02  0.17799389737E+03  0.17211187458E+03 0.  0.
        -24    2    5    5    0    0  0.57268014468E+02 -0.27932259878E+02 -0.25800984058E+01  0.10061522560E+03  0.77826281500E+02 0.  0.
          5    1    3    3  501    0  0.94095286323E+01  0.49388942649E+02 -0.82443883502E+02  0.96679319464E+02  0.47000000000E+01 0. -1.
        -13    1    4    4    0    0  0.21135624947E+02 -0.43094977139E+01 -0.34184816047E+02  0.40421381231E+02  0.00000000000E+00 0.  1.
         14    1    4    4    0    0 -0.46159692327E+02 -0.76844123917E+02 -0.36573192909E+03  0.37655753947E+03  0.00000000000E+00 0. -1.
         -5    1    5    5    0  502 -0.41653475720E+02  0.59696938860E+02 -0.25819223365E+02  0.77378671764E+02  0.47000000000E+01 0.  1.
         11    1    6    6    0    0 -0.17879454976E+02 -0.15283887689E+02 -0.61989363937E+01  0.24324862703E+02  0.00000000000E+00 0. -1.
        -12    1    6    6    0    0  0.75147469444E+02 -0.12648372189E+02  0.36188379880E+01  0.76290362899E+02  0.00000000000E+00 0.  1.
</event>
<event>
12    1  0.8798177E-003  0.2048777E+03  0.7818608E-02  0.1146139E+00
         21   -1    0    0  501  502  0.00000000000E+00  0.00000000000E+00  0.84395773048E+03  0.84395773048E+03  0.00000000000E+00 0.  1.
         21   -1    0    0  502  503 -0.00000000000E+00 -0.00000000000E+00 -0.49374177719E+02  0.49374177719E+02  0.00000000000E+00 0.  1.
          6    2    1    2  501    0  0.68389663115E+02 -0.78019082610E+02  0.37322966490E+03  0.42576433929E+03  0.17666569157E+03 0.  0.
         24    2    3    3    0    0  0.86172211052E+02 -0.10336793875E+03  0.22382341824E+03  0.27311080982E+03  0.79887490685E+02 0.  0.
         -6    2    1    2    0  503 -0.68389663115E+02  0.78019082610E+02  0.42135388786E+03  0.46756756891E+03  0.17411550594E+03 0.  0.
        -24    2    5    5    0    0 -0.26277629839E+02  0.11320695026E+03  0.35788833420E+03  0.38353438571E+03  0.74217503683E+02 0.  0.
          5    1    3    3  501    0 -0.17782547937E+02  0.25348856140E+02  0.14940624666E+03  0.15265352947E+03  0.47000000000E+01 0. -1.
        -13    1    4    4    0    0  0.21796651548E+02 -0.67351233049E+02  0.57631392477E+02  0.91283404904E+02  0.00000000000E+00 0.  1.
         14    1    4    4    0    0  0.64375559504E+02 -0.36016705701E+02  0.16619202576E+03  0.18182740491E+03  0.00000000000E+00 0. -1.
         -5    1    5    5    0  503 -0.42112033276E+02 -0.35187867648E+02  0.63465553660E+02  0.84033183194E+02  0.47000000000E+01 0.  1.
         11    1    6    6    0    0  0.86718791821E+01 -0.21436834405E+01  0.41957830551E+01  0.98692179370E+01  0.00000000000E+00 0. -1.
        -12    1    6    6    0    0 -0.34949509021E+02  0.11535063370E+03  0.35369255114E+03  0.37366516778E+03  0.00000000000E+00 0.  1.
</event>
<event>
12    1  0.8798177E-003  0.2126255E+03  0.7818608E-02  0.1139586E+00
         21   -1    0    0  501  502  0.00000000000E+00  0.00000000000E+00  0.76644827118E+03  0.76644827118E+03  0.00000000000E+00 0. -1.
         21   -1    0    0  502  503 -0.00000000000E+00 -0.00000000000E+00 -0.66585307387E+02  0.66585307387E+02  0.00000000000E+00 0. -1.
          6    2    1    2  501    0 -0.71151724772E+02  0.10141440775E+03  0.49202557120E+03  0.53600259226E+03  0.17280673065E+03 0.  0.
         24    2    3    3    0    0 -0.79058651879E+02  0.51851354000E+00  0.25876972962E+03  0.28169396363E+03  0.78352899662E+02 0.  0.
         -6    2    1    2    0  503  0.71151724772E+02 -0.10141440775E+03  0.20783739260E+03  0.29703098631E+03  0.17228921913E+03 0.  0.
        -24    2    5    5    0    0  0.86635913218E+02 -0.61359111679E+02  0.21583260023E+03  0.25309694279E+03  0.78763120068E+02 0.  0.
          5    1    3    3  501    0  0.79069271071E+01  0.10089589421E+03  0.23325584158E+03  0.25430862863E+03  0.47000000000E+01 0. -1.
        -11    1    4    4    0    0 -0.59335213853E+02 -0.31152818411E+02  0.20906685165E+03  0.21954524398E+03  0.00000000000E+00 0.  1.
         12    1    4    4    0    0 -0.19723438027E+02  0.31671331951E+02  0.49702877974E+02  0.62148719649E+02  0.00000000000E+00 0. -1.
         -5    1    5    5    0  503 -0.15484188446E+02 -0.40055296067E+02 -0.79952076332E+01  0.43934043519E+02  0.47000000000E+01 0.  1.
         11    1    6    6    0    0  0.56227893120E+02 -0.32035353185E+01  0.52178881997E+02  0.76775480003E+02  0.00000000000E+00 0. -1.
        -12    1    6    6    0    0  0.30408020098E+02 -0.58155576361E+02  0.16365371823E+03  0.17632146279E+03  0.00000000000E+00 0.  1.
</event>
<event>
12    1  0.8798177E-003  0.2620781E+03  0.7818608E-02  0.1105963E+00
         21   -1    0    0  503  502  0.00000000000E+00  0.00000000000E+00  0.76578287726E+03  0.76578287726E+03  0.00000000000E+00 0. -1.
         21   -1    0    0  501  503 -0.00000000000E+00 -0.00000000000E+00 -0.95791871955E+02  0.95791871955E+02  0.00000000000E+00 0. -1.
          6    2    1    2  501    0  0.19658459549E+03  0.17783481799E+02  0.22527119385E+03  0.34558944253E+03  0.17240416644E+03 0.  0.
         24    2    3    3    0    0  0.11160370616E+03  0.62430207842E+02  0.79683962683E+02  0.17113941079E+03  0.81155689490E+02 0.  0.
         -6    2    1    2    0  502 -0.19658459549E+03 -0.17783481799E+02  0.44471981146E+03  0.51598530668E+03  0.17176545229E+03 0.  0.
        -24    2    5    5    0    0 -0.10912324948E+03  0.54406687131E+02  0.28297429778E+03  0.31838821983E+03  0.80178763678E+02 0.  0.
          5    1    3    3  501    0  0.84980889321E+02 -0.44646726043E+02  0.14558723116E+03  0.17445003174E+03  0.47000000000E+01 0. -1.
        -13    1    4    4    0    0  0.50910027409E+01  0.40377272236E+02  0.98247739949E+01  0.41866079422E+02  0.00000000000E+00 0.  1.
         14    1    4    4    0    0  0.10651270342E+03  0.22052935607E+02  0.69859188688E+02  0.12927333137E+03  0.00000000000E+00 0. -1.
         -5    1    5    5    0  502 -0.87461346005E+02 -0.72190168930E+02  0.16174551368E+03  0.19759708685E+03  0.47000000000E+01 0.  1.
         13    1    6    6    0    0 -0.49151594013E+01  0.11603560215E+02 -0.12384285232E+01  0.12662349972E+02  0.00000000000E+00 0. -1.
        -14    1    6    6    0    0 -0.10420809008E+03  0.42803126915E+02  0.28421272630E+03  0.30572586986E+03  0.00000000000E+00 0.  1.
</event>
<event>
12    1  0.8798177E-003  0.2117654E+03  0.7818608E-02  0.1140818E+00
         21   -1    0    0  503  502  0.00000000000E+00  0.00000000000E+00  0.81335630720E+02  0.81335630720E+02  0.00000000000E+00 0.  1.
         21   -1    0    0  501  503 -0.00000000000E+00 -0.00000000000E+00 -0.58168965376E+03  0.58168965376E+03  0.00000000000E+00 0. -1.
          6    2    1    2  501    0 -0.11441219043E+03 -0.27120438380E+02 -0.33756880022E+03  0.39849375204E+03  0.17612185563E+03 0.  0.
         24    2    3    3    0    0 -0.11826768670E+02  0.38781051024E+02 -0.15901269203E+03  0.18222736806E+03  0.79233421415E+02 0.  0.
         -6    2    1    2    0  502  0.11441219043E+03  0.27120438380E+02 -0.16278522282E+03  0.26453153245E+03  0.17219824445E+03 0.  0.
        -24    2    5    5    0    0  0.82980226329E+02  0.17814600816E+02 -0.18485971082E+03  0.22473278874E+03  0.95543894042E+02 0.  0.
          5    1    3    3  501    0 -0.10258542176E+03 -0.65901489403E+02 -0.17855610820E+03  0.21626638398E+03  0.47000000000E+01 0. -1.
        -13    1    4    4    0    0 -0.31093636715E+02  0.44749127081E+02 -0.15098733110E+03  0.16051938441E+03  0.00000000000E+00 0.  1.
         14    1    4    4    0    0  0.19266868045E+02 -0.59680760576E+01 -0.80253609225E+01  0.21707983647E+02  0.00000000000E+00 0. -1.
         -5    1    5    5    0  502  0.31431964102E+02  0.93058375643E+01  0.22074487997E+02  0.39798743704E+02  0.47000000000E+01 0.  1.
         11    1    6    6    0    0  0.37093061543E+02 -0.30190422493E+02 -0.13025333957E+03  0.13875622254E+03  0.00000000000E+00 0. -1.
        -12    1    6    6    0    0  0.45887164786E+02  0.48005023308E+02 -0.54606371249E+02  0.85976566202E+02  0.00000000000E+00 0.  1.
</event>
<event>
12    1  0.8798177E-003  0.2127277E+03  0.7818608E-02  0.1139631E+00
         21   -1    0    0  503  502  0.00000000000E+00  0.00000000000E+00  0.39010278450E+03  0.39010278450E+03  0.00000000000E+00 0.  1.
         21   -1    0    0  501  503 -0.00000000000E+00 -0.00000000000E+00 -0.11752691810E+03  0.11752691810E+03  0.00000000000E+00 0. -1.
          6    2    1    2  501    0  0.66154281828E+02  0.10274650376E+03  0.17055118852E+03  0.27265507462E+03  0.17412595664E+03 0.  0.
         24    2    3    3    0    0  0.84369836981E+02  0.14712068828E+02  0.13425092383E+03  0.17558980071E+03  0.73984817382E+02 0.  0.
         -6    2    1    2    0  502 -0.66154281828E+02 -0.10274650376E+03  0.10202467788E+03  0.23497462798E+03  0.17283173279E+03 0.  0.
        -24    2    5    5    0    0 -0.11175800443E+03 -0.72765524461E+02  0.68635101133E+02  0.17082236793E+03  0.81760816860E+02 0.  0.
          5    1    3    3  501    0 -0.18215555153E+02  0.88034434935E+02  0.36300264690E+02  0.97065273916E+02  0.47000000000E+01 0. -1.
        -11    1    4    4    0    0  0.79354008454E+02  0.19957884276E+02  0.61202773211E+02  0.10218197126E+03  0.00000000000E+00 0.  1.
         12    1    4    4    0    0  0.50158285270E+01 -0.52458154473E+01  0.73048150615E+02  0.73407829445E+02  0.00000000000E+00 0. -1.
         -5    1    5    5    0  502  0.45603722598E+02 -0.29980979303E+02  0.33389576749E+02  0.64152260055E+02  0.47000000000E+01 0.  1.
         11    1    6    6    0    0 -0.41596759724E+02  0.14004116548E+02  0.11083850435E+02  0.45268724747E+02  0.00000000000E+00 0. -1.
        -12    1    6    6    0    0 -0.70161244702E+02 -0.86769641008E+02  0.57551250699E+02  0.12555364318E+03  0.00000000000E+00 0.  1.
</event>
<event>
12    1  0.8798177E-003  0.2829310E+03  0.7818608E-02  0.1095584E+00
         21   -1    0    0  501  502  0.00000000000E+00  0.00000000000E+00  0.45600517174E+03  0.45600517174E+03  0.00000000000E+00 0.  1.
         21   -1    0    0  502  503 -0.00000000000E+00 -0.00000000000E+00 -0.20142223285E+03  0.20142223285E+03  0.00000000000E+00 0. -1.
          6    2    1    2  501    0 -0.31950490786E+02 -0.22004193982E+03  0.25725424935E+03  0.37448376436E+03  0.15690459462E+03 0.  0.
         24    2    3    3    0    0 -0.10591007876E+02 -0.70986902952E+02  0.16791546549E+03  0.19933485677E+03  0.79921659976E+02 0.  0.
         -6    2    1    2    0  503  0.31950490786E+02  0.22004193982E+03 -0.26713104638E+01  0.28294364023E+03  0.17495907666E+03 0.  0.
        -24    2    5    5    0    0  0.57080092695E+02  0.20202074475E+03 -0.46567479380E+02  0.22904351027E+03  0.78878901938E+02 0.  0.
          5    1    3    3  501    0 -0.21359482909E+02 -0.14905503687E+03  0.89338783868E+02  0.17514890759E+03  0.47000000000E+01 0. -1.
        -11    1    4    4    0    0 -0.32341910080E+02 -0.74090461468E+02  0.10384812892E+03  0.13160482327E+03  0.00000000000E+00 0.  1.
         12    1    4    4    0    0  0.21750902204E+02  0.31035585159E+01  0.64067336571E+02  0.67730033497E+02  0.00000000000E+00 0. -1.
         -5    1    5    5    0  503 -0.25129601909E+02  0.18021195076E+02  0.43896168916E+02  0.53900129959E+02  0.47000000000E+01 0.  1.
         13    1    6    6    0    0  0.19164816695E+02  0.12140611445E+03 -0.63529487611E+02  0.13835725721E+03  0.00000000000E+00 0. -1.
        -14    1    6    6    0    0  0.37915276000E+02  0.80614630294E+02  0.16962008231E+02  0.90686253064E+02  0.00000000000E+00 0.  1.
</event>
<event>
12    1  0.8798177E-003  0.2512954E+03  0.7818608E-02  0.1112540E+00
         21   -1    0    0  503  502  0.00000000000E+00  0.00000000000E+00  0.37234175593E+03  0.37234175593E+03  0.00000000000E+00 0. -1.
         21   -1    0    0  501  503 -0.00000000000E+00 -0.00000000000E+00 -0.17374409186E+03  0.17374409186E+03  0.00000000000E+00 0.  1.
          6    2    1    2  501    0 -0.13391569957E+03 -0.12558077332E+03  0.56102702912E+02  0.25748178338E+03  0.17159664996E+03 0.  0.
         24    2    3    3    0    0 -0.10802472003E+03 -0.14654629031E+03  0.81932611437E+02  0.21506516047E+03  0.79968213008E+02 0.  0.
         -6    2    1    2    0  502  0.13391569957E+03  0.12558077332E+03  0.14249496117E+03  0.28860406441E+03  0.17112436067E+03 0.  0.
        -24    2    5    5    0    0  0.12200462899E+03  0.15877680793E+03  0.14225163482E+03  0.25302317735E+03  0.60745340854E+02 0.  0.
          5    1    3    3  501    0 -0.25890979547E+02  0.20965516989E+02 -0.25829908526E+02  0.42416622908E+02  0.47000000000E+01 0. -1.
        -13    1    4    4    0    0  0.42976729335E+01 -0.99975235436E+01 -0.10868984506E+02  0.15380354152E+02  0.00000000000E+00 0.  1.
         14    1    4    4    0    0 -0.11232239296E+03 -0.13654876677E+03  0.92801595943E+02  0.19968480632E+03  0.00000000000E+00 0. -1.
         -5    1    5    5    0  502  0.11911070584E+02 -0.33196034608E+02  0.24332634158E+00  0.35580887058E+02  0.47000000000E+01 0.  1.
         13    1    6    6    0    0  0.99125511706E+01  0.49759012235E+02  0.51202525084E+02  0.72082706277E+02  0.00000000000E+00 0. -1.
        -14    1    6    6    0    0  0.11209207782E+03  0.10901779570E+03  0.91049109741E+02  0.18094047107E+03  0.00000000000E+00 0.  1.
</event>
<event>
12    1  0.8798177E-003  0.2072372E+03  0.7818608E-02  0.1144533E+00
         21   -1    0    0  501  502  0.00000000000E+00  0.00000000000E+00  0.10945684000E+03  0.10945684000E+03  0.00000000000E+00 0.  1.
         21   -1    0    0  502  503 -0.00000000000E+00 -0.00000000000E+00 -0.68901980877E+03  0.68901980877E+03  0.00000000000E+00 0. -1.
          6    2    1    2  501    0 -0.39038822550E+02 -0.10747237338E+03 -0.26206576255E+02  0.20888763050E+03  0.17283783390E+03 0.  0.
         24    2    3    3    0    0  0.14305557593E+02 -0.29900685477E+02 -0.63304629525E+02  0.10758933232E+03  0.80431886333E+02 0.  0.
         -6    2    1    2    0  503  0.39038822550E+02  0.10747237338E+03 -0.55335639252E+03  0.58958901827E+03  0.16833767439E+03 0.  0.
        -24    2    5    5    0    0  0.56959377009E+02  0.29494275765E+02 -0.43124144989E+03  0.44352095471E+03  0.81408637307E+02 0.  0.
          5    1    3    3  501    0 -0.53344380143E+02 -0.77571687906E+02  0.37098053270E+02  0.10129829818E+03  0.47000000000E+01 0. -1.
        -11    1    4    4    0    0 -0.12836193458E+02 -0.13081178973E+02  0.14576223331E+02  0.23416903989E+02  0.00000000000E+00 0.  1.
         12    1    4    4    0    0  0.27141751051E+02 -0.16819506505E+02 -0.77880852856E+02  0.84172428329E+02  0.00000000000E+00 0. -1.
         -5    1    5    5    0  503 -0.17920554459E+02  0.77978097619E+02 -0.12211494263E+03  0.14606806357E+03  0.47000000000E+01 0.  1.
         11    1    6    6    0    0  0.69663464102E+02 -0.18548139245E+01 -0.27978699675E+03  0.28833522524E+03  0.00000000000E+00 0. -1.
        -12    1    6    6    0    0 -0.12704087093E+02  0.31349089689E+02 -0.15145445314E+03  0.15518572947E+03  0.00000000000E+00 0.  1.
</event>
<event>
12    1  0.8798177E-003  0.1900081E+03  0.7818608E-02  0.1159198E+00
         21   -1    0    0  501  502  0.00000000000E+00  0.00000000000E+00  0.15132835697E+03  0.15132835697E+03  0.00000000000E+00 0.  1.
         21   -1    0    0  502  503 -0.00000000000E+00 -0.00000000000E+00 -0.29549652800E+03  0.29549652800E+03  0.00000000000E+00 0.  1.
          6    2    1    2  501    0 -0.10338246295E+01 -0.82786978750E+02  0.28930603836E+02  0.19219794138E+03  0.17102139103E+03 0.  0.
         24    2    3    3    0    0  0.40260805317E+02 -0.98793170805E+02 -0.16055318105E+02  0.12889495710E+03  0.70534485771E+02 0.  0.
         -6    2    1    2    0  503  0.10338246295E+01  0.82786978750E+02 -0.17309877486E+03  0.25462694359E+03  0.16738262125E+03 0.  0.
        -24    2    5    5    0    0  0.41654354636E+02  0.58740617031E+02 -0.17695705589E+03  0.20703249746E+03  0.79769104445E+02 0.  0.
          5    1    3    3  501    0 -0.41294629947E+02  0.16006192056E+02  0.44985921941E+02  0.63302984285E+02  0.47000000000E+01 0. -1.
        -11    1    4    4    0    0  0.56924929124E+02 -0.48228566923E+02 -0.77255714043E+01  0.75007510802E+02  0.00000000000E+00 0.  1.
         12    1    4    4    0    0 -0.16664123807E+02 -0.50564603883E+02 -0.83297467010E+01  0.53887446295E+02  0.00000000000E+00 0. -1.
         -5    1    5    5    0  503 -0.40620530007E+02  0.24046361718E+02  0.38582810302E+01  0.47594446130E+02  0.47000000000E+01 0.  1.
         11    1    6    6    0    0  0.25634297329E+02  0.75083316202E+01 -0.13836811916E+03  0.14092277546E+03  0.00000000000E+00 0. -1.
        -12    1    6    6    0    0  0.16020057307E+02  0.51232285411E+02 -0.38588936734E+02  0.66109722000E+02  0.00000000000E+00 0.  1.
</event>
<event>
12    1  0.8798177E-003  0.5326984E+03  0.7818608E-02  0.1005607E+00
         21   -1    0    0  503  502  0.00000000000E+00  0.00000000000E+00  0.75888024083E+03  0.75888024083E+03  0.00000000000E+00 0. -1.
         21   -1    0    0  501  503 -0.00000000000E+00 -0.00000000000E+00 -0.50570888128E+03  0.50570888128E+03  0.00000000000E+00 0.  1.
          6    2    1    2  501    0 -0.47495964331E+03  0.16934393959E+03 -0.19653319243E+03  0.56779650659E+03  0.17176595857E+03 0.  0.
         24    2    3    3    0    0 -0.44652785993E+03  0.13548299128E+03 -0.13525958330E+03  0.49208999893E+03  0.78196173500E+02 0.  0.
         -6    2    1    2    0  502  0.47495964331E+03 -0.16934393959E+03  0.44970455199E+03  0.69679261552E+03  0.17035765998E+03 0.  0.
        -24    2    5    5    0    0  0.26614890590E+03 -0.14566457235E+03  0.20820519404E+03  0.37662599269E+03  0.80276570617E+02 0.  0.
          5    1    3    3  501    0 -0.28431783377E+02  0.33860948318E+02 -0.61273609131E+02  0.75706507665E+02  0.47000000000E+01 0. -1.
        -11    1    4    4    0    0 -0.20355686020E+03  0.25904420884E+02 -0.77638463592E+02  0.21939499854E+03  0.00000000000E+00 0.  1.
         12    1    4    4    0    0 -0.24297099973E+03  0.10957857039E+03 -0.57621119710E+02  0.27269500039E+03  0.00000000000E+00 0. -1.
         -5    1    5    5    0  502  0.20881073740E+03 -0.23679367248E+02  0.24149935794E+03  0.32016662283E+03  0.47000000000E+01 0.  1.
         13    1    6    6    0    0  0.16364937354E+03 -0.45240624182E+02  0.10160498942E+03  0.19786714080E+03  0.00000000000E+00 0. -1.
        -14    1    6    6    0    0  0.10249953237E+03 -0.10042394816E+03  0.10660020462E+03  0.17875885188E+03  0.00000000000E+00 0.  1.
</event>
<event>
12    1  0.8798177E-003  0.2086534E+03  0.7818608E-02  0.1142676E+00
         21   -1    0    0  501  502  0.00000000000E+00  0.00000000000E+00  0.33874690323E+03  0.33874690323E+03  0.00000000000E+00 0.  1.
         21   -1    0    0  502  503 -0.00000000000E+00 -0.00000000000E+00 -0.13570869319E+03  0.13570869319E+03  0.00000000000E+00 0.  1.
          6    2    1    2  501    0 -0.92702586257E+02  0.72896725695E+02  0.15661038552E+03  0.26088895132E+03  0.17212939886E+03 0.  0.
         24    2    3    3    0    0 -0.96380961627E+02 -0.83949807499E+01  0.80016006978E+02  0.14903788603E+03  0.80311671837E+02 0.  0.
         -6    2    1    2    0  503  0.92702586257E+02 -0.72896725695E+02  0.46427824520E+02  0.21356664511E+03  0.17189376631E+03 0.  0.
        -24    2    5    5    0    0  0.78089715944E+02 -0.84858508289E+02  0.88375702628E+02  0.16732451389E+03  0.82995529810E+02 0.  0.
          5    1    3    3  501    0  0.36783753699E+01  0.81291706445E+02  0.76594378538E+02  0.11185106529E+03  0.47000000000E+01 0. -1.
        -13    1    4    4    0    0 -0.33219083906E+02 -0.21386710256E+02 -0.76176818334E+01  0.40235904211E+02  0.00000000000E+00 0.  1.
         14    1    4    4    0    0 -0.63161877721E+02  0.12991729506E+02  0.87633688811E+02  0.10880198182E+03  0.00000000000E+00 0. -1.
         -5    1    5    5    0  503  0.14612870313E+02  0.11961782594E+02 -0.41947878107E+02  0.46242131215E+02  0.47000000000E+01 0.  1.
         11    1    6    6    0    0 -0.63497337100E+01 -0.19006458003E+02 -0.95675947834E+01  0.22205932404E+02  0.00000000000E+00 0. -1.
        -12    1    6    6    0    0  0.84439449654E+02 -0.65852050287E+02  0.97943297411E+02  0.14511858149E+03  0.00000000000E+00 0.  1.
</event>
<event>
12    1  0.8798177E-003  0.1721967E+03  0.7818608E-02  0.1175903E+00
         21   -1    0    0  503  502  0.00000000000E+00  0.00000000000E+00  0.71085688259E+02  0.71085688259E+02  0.00000000000E+00 0. -1.
         21   -1    0    0  501  503 -0.00000000000E+00 -0.00000000000E+00 -0.41690946038E+03  0.41690946038E+03  0.00000000000E+00 0. -1.
          6    2    1    2  501    0 -0.15563644057E+02 -0.12159059002E+02 -0.15208338879E+03  0.22879050970E+03  0.16978124293E+03 0.  0.
         24    2    3    3    0    0 -0.18953595137E+01  0.58192817248E+02 -0.87045239489E+02  0.13189747920E+03  0.80187748041E+02 0.  0.
         -6    2    1    2    0  502  0.15563644057E+02  0.12159059002E+02 -0.19374038333E+03  0.25920463894E+03  0.17106033726E+03 0.  0.
        -24    2    5    5    0    0  0.56366163969E+02 -0.13014017972E+02 -0.44816517054E+02  0.10268327496E+03  0.72033503670E+02 0.  0.
          5    1    3    3  501    0 -0.13668284543E+02 -0.70351876250E+02 -0.65038149303E+02  0.96893030498E+02  0.47000000000E+01 0. -1.
        -13    1    4    4    0    0  0.11884911076E+02  0.41801733110E+02 -0.98464803383E+02  0.10762877639E+03  0.00000000000E+00 0.  1.
         14    1    4    4    0    0 -0.13780270589E+02  0.16391084137E+02  0.11419563894E+02  0.24268702813E+02  0.00000000000E+00 0. -1.
         -5    1    5    5    0  502 -0.40802519912E+02  0.25173076974E+02 -0.14892386628E+03  0.15652136398E+03  0.47000000000E+01 0.  1.
         11    1    6    6    0    0  0.47274481586E+02  0.24501717181E+02 -0.20474363705E+02  0.57047439234E+02  0.00000000000E+00 0. -1.
        -12    1    6    6    0    0  0.90916823831E+01 -0.37515735153E+02 -0.24342153349E+02  0.45635835725E+02  0.00000000000E+00 0.  1.
</event>
<event>
12    1  0.8798177E-003  0.2164163E+03  0.7818608E-02  0.1137425E+00
         21   -1    0    0  503  502  0.00000000000E+00  0.00000000000E+00  0.31277402745E+03  0.31277402745E+03  0.00000000000E+00 0.  1.
         21   -1    0    0  501  503 -0.00000000000E+00 -0.00000000000E+00 -0.17979406582E+03  0.17979406582E+03  0.00000000000E+00 0. -1.
          6    2    1    2  501    0 -0.72449849395E+02 -0.10250279333E+03 -0.39667492006E+02  0.21572312071E+03  0.17090099932E+03 0.  0.
         24    2    3    3    0    0 -0.18588985235E+02 -0.23008138568E+02 -0.75946972163E+02  0.11296766585E+03  0.78222925882E+02 0.  0.
         -6    2    1    2    0  502  0.72449849395E+02  0.10250279333E+03  0.17264745364E+03  0.27684497256E+03  0.17629575226E+03 0.  0.
        -24    2    5    5    0    0  0.97763792481E+02  0.81191415325E+02  0.62398873881E+02  0.16164163109E+03  0.78003797326E+02 0.  0.
          5    1    3    3  501    0 -0.53860864161E+02 -0.79494654759E+02  0.36279480157E+02  0.10275545486E+03  0.47000000000E+01 0. -1.
        -11    1    4    4    0    0 -0.14998460610E+02  0.28349494162E+02 -0.26870419349E+02  0.41840973649E+02  0.00000000000E+00 0.  1.
         12    1    4    4    0    0 -0.35905246242E+01 -0.51357632730E+02 -0.49076552815E+02  0.71126692197E+02  0.00000000000E+00 0. -1.
         -5    1    5    5    0  502 -0.25313943086E+02  0.21311378002E+02  0.11024857976E+03  0.11520334147E+03  0.47000000000E+01 0.  1.
         11    1    6    6    0    0 -0.11680499664E+02  0.15162542080E+00 -0.37634001411E+00  0.11687544416E+02  0.00000000000E+00 0. -1.
        -12    1    6    6    0    0  0.10944429215E+03  0.81039789905E+02  0.62775213895E+02  0.14995408668E+03  0.00000000000E+00 0.  1.
</event>
<event>
12    1  0.8798177E-003  0.2386935E+03  0.7818608E-02  0.1120712E+00
         21   -1    0    0  501  502  0.00000000000E+00  0.00000000000E+00  0.58000156135E+03  0.58000156135E+03  0.00000000000E+00 0. -1.
         21   -1    0    0  502  503 -0.00000000000E+00 -0.00000000000E+00 -0.12580605276E+03  0.12580605276E+03  0.00000000000E+00 0. -1.
          6    2    1    2  501    0  0.10936578642E+03 -0.12344224450E+03  0.61441361474E+02  0.24620954243E+03  0.17217791646E+03 0.  0.
         24    2    3    3    0    0  0.98712755027E+02 -0.76209619586E+02  0.10477889872E+03  0.18105864014E+03  0.79066424163E+02 0.  0.
         -6    2    1    2    0  503 -0.10936578642E+03  0.12344224450E+03  0.39275414711E+03  0.45959807168E+03  0.17255638050E+03 0.  0.
        -24    2    5    5    0    0 -0.59575626656E+02  0.78020056743E+02  0.36580601824E+03  0.38686206409E+03  0.78815157839E+02 0.  0.
          5    1    3    3  501    0  0.10653031395E+02 -0.47232624911E+02 -0.43337537250E+02  0.65150902287E+02  0.47000000000E+01 0. -1.
        -11    1    4    4    0    0 -0.11019364093E+02  0.56347965464E+00  0.25844794426E-01  0.11033791837E+02  0.00000000000E+00 0.  1.
         12    1    4    4    0    0  0.10973211912E+03 -0.76773099240E+02  0.10475305393E+03  0.17002484831E+03  0.00000000000E+00 0. -1.
         -5    1    5    5    0  503 -0.49790159766E+02  0.45422187754E+02  0.26948128868E+02  0.72736007585E+02  0.47000000000E+01 0.  1.
         11    1    6    6    0    0  0.16758067504E+02  0.24981380944E+02  0.12913253278E+03  0.13259001939E+03  0.00000000000E+00 0. -1.
        -12    1    6    6    0    0 -0.76333694160E+02  0.53038675799E+02  0.23667348547E+03  0.25427204470E+03  0.00000000000E+00 0.  1.
</event>
<event>
12    1  0.8798177E-003  0.2911143E+03  0.7818608E-02  0.1090082E+00
         21   -1    0    0  503  502  0.00000000000E+00  0.00000000000E+00  0.20188069057E+03  0.20188069057E+03  0.00000000000E+00 0.  1.
         21   -1    0    0  501  503 -0.00000000000E+00 -0.00000000000E+00 -0.44228165942E+03  0.44228165942E+03  0.00000000000E+00 0.  1.
          6    2    1    2  501    0 -0.15554604604E+03  0.17487662663E+03 -0.41714656142E+02  0.29170836222E+03  0.16904806733E+03 0.  0.
         24    2    3    3    0    0 -0.16389151928E+03  0.12102816850E+03  0.48753156700E+01  0.21986117131E+03  0.82504050118E+02 0.  0.
         -6    2    1    2    0  502  0.15554604604E+03 -0.17487662663E+03 -0.19868631270E+03  0.35245398777E+03  0.17312179430E+03 0.  0.
        -24    2    5    5    0    0  0.37221999261E+02 -0.11630743143E+03 -0.50203374092E+02  0.15370740609E+03  0.78693659730E+02 0.  0.
          5    1    3    3  501    0  0.83454732369E+01  0.53848458140E+02 -0.46589971812E+02  0.71847190905E+02  0.47000000000E+01 0. -1.
        -13    1    4    4    0    0 -0.49929094766E+02  0.28423983643E+02  0.38573530880E+02  0.69200828282E+02  0.00000000000E+00 0.  1.
         14    1    4    4    0    0 -0.11396242451E+03  0.92604184852E+02 -0.33698215210E+02  0.15066034303E+03  0.00000000000E+00 0. -1.
         -5    1    5    5    0  502  0.11832404678E+03 -0.58569195205E+02 -0.14848293861E+03  0.19874658169E+03  0.47000000000E+01 0.  1.
         11    1    6    6    0    0  0.12123446679E-01  0.73820795938E+01  0.89833418579E+01  0.11627367589E+02  0.00000000000E+00 0. -1.
        -12    1    6    6    0    0  0.37209875814E+02 -0.12368951102E+03 -0.59186715949E+02  0.14208003850E+03  0.00000000000E+00 0.  1.
</event>
<event>
12    1  0.8798177E-003  0.2094735E+03  0.7818608E-02  0.1142008E+00
         21   -1    0    0  503  502  0.00000000000E+00  0.00000000000E+00  0.13522092733E+03  0.13522092733E+03  0.00000000000E+00 0.  1.
         21   -1    0    0  501  503 -0.00000000000E+00 -0.00000000000E+00 -0.34020431458E+03  0.34020431458E+03  0.00000000000E+00 0.  1.
          6    2    1    2  501    0  0.11038914235E+03 -0.48615234143E+02 -0.15389579685E+03  0.25992895133E+03  0.17125986018E+03 0.  0.
         24    2    3    3    0    0  0.10522191679E+03 -0.12215410338E+02 -0.37788506301E+02  0.13804933731E+03  0.80054858077E+02 0.  0.
         -6    2    1    2    0  502 -0.11038914235E+03  0.48615234143E+02 -0.51087590393E+02  0.21549629059E+03  0.17111255251E+03 0.  0.
        -24    2    5    5    0    0 -0.10976730252E+03 -0.23181105650E+02 -0.36538782652E+02  0.14208744303E+03  0.79167761539E+02 0.  0.
          5    1    3    3  501    0  0.51672255552E+01 -0.36399823805E+02 -0.11610729055E+03  0.12187961401E+03  0.47000000000E+01 0. -1.
        -13    1    4    4    0    0  0.69744184174E+02 -0.38110432593E+02 -0.48144254934E+02  0.92922147961E+02  0.00000000000E+00 0.  1.
         14    1    4    4    0    0  0.35477732616E+02  0.25895022255E+02  0.10355748633E+02  0.45127189353E+02  0.00000000000E+00 0. -1.
         -5    1    5    5    0  502 -0.62183982022E+00  0.71796339793E+02 -0.14548807741E+02  0.73408847553E+02  0.47000000000E+01 0.  1.
         11    1    6    6    0    0 -0.82817188458E+02 -0.43321648252E+02 -0.14498852852E+01  0.93474884749E+02  0.00000000000E+00 0. -1.
        -12    1    6    6    0    0 -0.26950114066E+02  0.20140542602E+02 -0.35088897367E+02  0.48612558284E+02  0.00000000000E+00 0.  1.
</event>
<event>
12    1  0.8798177E-003  0.1888317E+03  0.7818608E-02  0.1159647E+00
         21   -1    0    0  503  502  0.00000000000E+00  0.00000000000E+00  0.14948168317E+03  0.14948168317E+03  0.00000000000E+00 0. -1.
         21   -1    0    0  501  503 -0.00000000000E+00 -0.00000000000E+00 -0.24137290734E+03  0.24137290734E+03  0.00000000000E+00 0. -1.
          6    2    1    2  501    0 -0.31661683159E+02  0.69793650743E+02 -0.69684522022E+02  0.20127928006E+03  0.17257983691E+03 0.  0.
         24    2    3    3    0    0 -0.21629007133E+01  0.11174182877E+03 -0.45362792657E+02  0.14432785931E+03  0.79258019034E+02 0.  0.
         -6    2    1    2    0  502  0.31661683159E+02 -0.69793650743E+02 -0.22206702157E+02  0.18957531045E+03  0.17196524314E+03 0.  0.
        -24    2    5    5    0    0  0.59728855327E+02 -0.25816649478E+02 -0.64949372718E+02  0.12196785021E+03  0.80147987620E+02 0.  0.
          5    1    3    3  501    0 -0.29498782445E+02 -0.41948178023E+02 -0.24321729365E+02  0.56951420742E+02  0.47000000000E+01 0. -1.
        -13    1    4    4    0    0 -0.34196561139E+02  0.54005312824E+02 -0.45220661517E+02  0.78299979789E+02  0.00000000000E+00 0.  1.
         14    1    4    4    0    0  0.32033660426E+02  0.57736515942E+02 -0.14213114037E+00  0.66027879525E+02  0.00000000000E+00 0. -1.
         -5    1    5    5    0  502 -0.28067172169E+02 -0.43977001265E+02  0.42742670561E+02  0.67607460243E+02  0.47000000000E+01 0.  1.
         11    1    6    6    0    0  0.36042856645E+02 -0.48165627877E+02 -0.66106821332E+02  0.89381916798E+02  0.00000000000E+00 0. -1.
        -12    1    6    6    0    0  0.23685998683E+02  0.22348978399E+02  0.11574486143E+01  0.32585933412E+02  0.00000000000E+00 0.  1.
</event>
<event>
12    1  0.8798177E-003  0.1983487E+03  0.7818608E-02  0.1151428E+00
         21   -1    0    0  503  502  0.00000000000E+00  0.00000000000E+00  0.79434455146E+02  0.79434455146E+02  0.00000000000E+00 0. -1.
         21   -1    0    0  501  503 -0.00000000000E+00 -0.00000000000E+00 -0.53382048992E+03  0.53382048992E+03  0.00000000000E+00 0. -1.
          6    2    1    2  501    0  0.55933723899E+02 -0.81553673917E+02 -0.31381274102E+03  0.37124204544E+03  0.17193788610E+03 0.  0.
         24    2    3    3    0    0  0.16084544852E+02  0.19614651876E+02 -0.17433114550E+03  0.19432344070E+03  0.82017096767E+02 0.  0.
         -6    2    1    2    0  502 -0.55933723899E+02  0.81553673917E+02 -0.14057329375E+03  0.24201289962E+03  0.17038136479E+03 0.  0.
        -24    2    5    5    0    0 -0.11531112721E+02  0.11466846195E+03 -0.84005439404E+02  0.16270216131E+03  0.78315111683E+02 0.  0.
          5    1    3    3  501    0  0.39849179048E+02 -0.10116832579E+03 -0.13948159552E+03  0.17691860474E+03  0.47000000000E+01 0. -1.
        -11    1    4    4    0    0  0.16507425635E+02  0.32954913198E+02 -0.25323279191E+02  0.44719010208E+02  0.00000000000E+00 0.  1.
         12    1    4    4    0    0 -0.42288078356E+00 -0.13340261321E+02 -0.14900786631E+03  0.14960443049E+03  0.00000000000E+00 0. -1.
         -5    1    5    5    0  502 -0.44402611178E+02 -0.33114788037E+02 -0.56567854343E+02  0.79310738309E+02  0.47000000000E+01 0.  1.
         11    1    6    6    0    0 -0.44701293570E+02  0.67572785893E+02 -0.40920879454E+02  0.90767865544E+02  0.00000000000E+00 0. -1.
        -12    1    6    6    0    0  0.33170180849E+02  0.47095676062E+02 -0.43084559950E+02  0.71934295766E+02  0.00000000000E+00 0.  1.
</event>
<event>
12    1  0.8798177E-003  0.2093673E+03  0.7818608E-02  0.1142301E+00
         21   -1    0    0  501  502  0.00000000000E+00  0.00000000000E+00  0.47612538231E+03  0.47612538231E+03  0.00000000000E+00 0. -1.
         21   -1    0    0  502  503 -0.00000000000E+00 -0.00000000000E+00 -0.13572601828E+03  0.13572601828E+03  0.00000000000E+00 0. -1.
          6    2    1    2  501    0  0.46712115126E+02 -0.10745826512E+03  0.34440607847E+03  0.40244577681E+03  0.17209809978E+03 0.  0.
         24    2    3    3    0    0  0.31046671837E+02 -0.94532307475E+02  0.11214979489E+03  0.16925581614E+03  0.78547449457E+02 0.  0.
         -6    2    1    2    0  503 -0.46712115126E+02  0.10745826512E+03 -0.40067144374E+01  0.20940562377E+03  0.17350896537E+03 0.  0.
        -24    2    5    5    0    0 -0.75001826357E+02  0.95914389010E+02 -0.49988344253E+02  0.15399832175E+03  0.79948762116E+02 0.  0.
          5    1    3    3  501    0  0.15665443289E+02 -0.12925957643E+02  0.23225628358E+03  0.23318996067E+03  0.47000000000E+01 0. -1.
        -11    1    4    4    0    0  0.78593761341E+01  0.10371015917E+02 -0.12162682194E+01  0.13069317991E+02  0.00000000000E+00 0.  1.
         12    1    4    4    0    0  0.23187295703E+02 -0.10490332339E+03  0.11336606311E+03  0.15618649815E+03  0.00000000000E+00 0. -1.
         -5    1    5    5    0  503  0.28289711231E+02  0.11543876109E+02  0.45981629816E+02  0.55407302025E+02  0.47000000000E+01 0.  1.
         13    1    6    6    0    0 -0.61900834276E+01 -0.11848835079E+02 -0.17598787470E+02  0.22100437687E+02  0.00000000000E+00 0. -1.
        -14    1    6    6    0    0 -0.68811742929E+02  0.10776322409E+03 -0.32389556783E+02  0.13189788406E+03  0.00000000000E+00 0.  1.
</event>
<event>
12    1  0.8798177E-003  0.1847035E+03  0.7818608E-02  0.1164172E+00
         21   -1    0    0  503  502  0.00000000000E+00  0.00000000000E+00  0.13130156285E+03  0.13130156285E+03  0.00000000000E+00 0. -1.
         21   -1    0    0  501  503 -0.00000000000E+00 -0.00000000000E+00 -0.31560938399E+03  0.31560938399E+03  0.00000000000E+00 0. -1.
          6    2    1    2  501    0  0.47040553243E+02  0.18877882644E+01  0.66338496956E+01  0.18125308857E+03  0.17490653721E+03 0.  0.
         24    2    3    3    0    0 -0.33342560527E+02  0.21876559338E+02  0.32956630545E+02  0.94213013083E+02  0.78737806334E+02 0.  0.
         -6    2    1    2    0  502 -0.47040553243E+02 -0.18877882644E+01 -0.19094167084E+03  0.26565785828E+03  0.17860290762E+03 0.  0.
        -24    2    5    5    0    0 -0.94954095463E+02  0.28235424729E+02 -0.13985446973E+03  0.18926998224E+03  0.80313971499E+02 0.  0.
          5    1    3    3  501    0  0.80383113770E+02 -0.19988771073E+02 -0.26322780849E+02  0.87040075483E+02  0.47000000000E+01 0. -1.
        -11    1    4    4    0    0  0.58793680665E+01  0.42474690940E+02  0.88726642421E+01  0.43788017882E+02  0.00000000000E+00 0.  1.
         12    1    4    4    0    0 -0.39221928594E+02 -0.20598131602E+02  0.24083966303E+02  0.50424995201E+02  0.00000000000E+00 0. -1.
         -5    1    5    5    0  502  0.47913542220E+02 -0.30123212994E+02 -0.51087201104E+02  0.76387876039E+02  0.47000000000E+01 0.  1.
         11    1    6    6    0    0 -0.37344981219E+02 -0.15903329976E+02 -0.96605000132E+02  0.10478592261E+03  0.00000000000E+00 0. -1.
        -12    1    6    6    0    0 -0.57609114244E+02  0.44138754706E+02 -0.43249469602E+02  0.84484059631E+02  0.00000000000E+00 0.  1.
</event>
<event>
12    1  0.8798177E-003  0.4182135E+03  0.7818608E-02  0.1037887E+00
         21   -1    0    0  503  502  0.00000000000E+00  0.00000000000E+00  0.42174448651E+03  0.42174448651E+03  0.00000000000E+00 0. -1.
         21   -1    0    0  501  503 -0.00000000000E+00 -0.00000000000E+00 -0.52274802606E+03  0.52274802606E+03  0.00000000000E+00 0.  1.
          6    2    1    2  501    0  0.32584118277E+03 -0.19215413640E+03  0.16715291941E+03  0.44769229781E+03  0.17144272083E+03 0.  0.
         24    2    3    3    0    0  0.26502490086E+03 -0.91712825053E+02  0.15308328171E+03  0.32934061056E+03  0.79883078720E+02 0.  0.
         -6    2    1    2    0  502 -0.32584118277E+03  0.19215413640E+03 -0.26815645896E+03  0.49680021476E+03  0.17834482999E+03 0.  0.
        -24    2    5    5    0    0 -0.78796682724E+02  0.94984385963E+02 -0.57250043325E+02  0.15771829021E+03  0.79790606095E+02 0.  0.
          5    1    3    3  501    0  0.60816281910E+02 -0.10044131135E+03  0.14069637696E+02  0.11835168725E+03  0.47000000000E+01 0. -1.
        -13    1    4    4    0    0  0.25499936907E+02  0.60492754748E+00 -0.74553360608E+01  0.26574325116E+02  0.00000000000E+00 0.  1.
         14    1    4    4    0    0  0.23952496396E+03 -0.92317752601E+02  0.16053861777E+03  0.30276628544E+03  0.00000000000E+00 0. -1.
         -5    1    5    5    0  502 -0.24704450005E+03  0.97169750437E+02 -0.21090641563E+03  0.33908192455E+03  0.47000000000E+01 0.  1.
         13    1    6    6    0    0  0.12924654597E+01  0.20992994244E+02 -0.42851589220E+02  0.47735049733E+02  0.00000000000E+00 0. -1.
        -14    1    6    6    0    0 -0.80089148183E+02  0.73991391719E+02 -0.14398454105E+02  0.10998324048E+03  0.00000000000E+00 0.  1.
</event>
<event>
12    1  0.8798177E-003  0.2149478E+03  0.7818608E-02  0.1137731E+00
         21   -1    0    0  501  502  0.00000000000E+00  0.00000000000E+00  0.36714488744E+03  0.36714488744E+03  0.00000000000E+00 0.  1.
         21   -1    0    0  502  503 -0.00000000000E+00 -0.00000000000E+00 -0.14551113463E+03  0.14551113463E+03  0.00000000000E+00 0. -1.
          6    2    1    2  501    0  0.95377248657E+02 -0.86532800502E+02  0.20520807305E+03  0.29708153198E+03  0.17193701835E+03 0.  0.
         24    2    3    3    0    0  0.12626181961E+03 -0.93431069646E+02  0.19661599520E+03  0.26395515817E+03  0.79643355612E+02 0.  0.
         -6    2    1    2    0  503 -0.95377248657E+02  0.86532800502E+02  0.16425679772E+02  0.21557449008E+03  0.17209826465E+03 0.  0.
        -24    2    5    5    0    0 -0.68169579303E+02  0.50742137415E+02  0.76930195863E+02  0.14004889639E+03  0.80458575005E+02 0.  0.
          5    1    3    3  501    0 -0.30884570952E+02  0.68982691437E+01  0.85920778467E+01  0.33126373810E+02  0.47000000000E+01 0. -1.
        -13    1    4    4    0    0  0.60629159036E+01 -0.46135875318E+02  0.44358707109E+02  0.64288201383E+02  0.00000000000E+00 0.  1.
         14    1    4    4    0    0  0.12019890371E+03 -0.47295194328E+02  0.15225728809E+03  0.19966695679E+03  0.00000000000E+00 0. -1.
         -5    1    5    5    0  503 -0.27207669354E+02  0.35790663087E+02 -0.60504516091E+02  0.75525593697E+02  0.47000000000E+01 0.  1.
         13    1    6    6    0    0  0.91367247616E+01 -0.13567020280E+02  0.86828840724E+01  0.18518538130E+02  0.00000000000E+00 0. -1.
        -14    1    6    6    0    0 -0.77306304064E+02  0.64309157695E+02  0.68247311791E+02  0.12153035826E+03  0.00000000000E+00 0.  1.
</event>
<event>
12    1  0.8798177E-003  0.1820662E+03  0.7818608E-02  0.1166075E+00
         21   -1    0    0  501  502  0.00000000000E+00  0.00000000000E+00  0.66361258751E+03  0.66361258751E+03  0.00000000000E+00 0. -1.
         21   -1    0    0  502  503 -0.00000000000E+00 -0.00000000000E+00 -0.50052288693E+02  0.50052288693E+02  0.00000000000E+00 0. -1.
          6    2    1    2  501    0  0.27046280788E+02  0.50807142904E+02  0.27417129899E+03  0.32852463587E+03  0.17159740123E+03 0.  0.
         24    2    3    3    0    0 -0.17159143274E+02 -0.93399225879E+01  0.56739715203E+02  0.98589052213E+02  0.78222347083E+02 0.  0.
         -6    2    1    2    0  503 -0.27046280788E+02 -0.50807142904E+02  0.33938899982E+03  0.38514024033E+03  0.17272881764E+03 0.  0.
        -24    2    5    5    0    0 -0.71152668170E+02 -0.50401028698E+02  0.30812581682E+03  0.33087224840E+03  0.83258392298E+02 0.  0.
          5    1    3    3  501    0  0.44205424062E+02  0.60147065492E+02  0.21743158379E+03  0.22993558366E+03  0.47000000000E+01 0. -1.
        -13    1    4    4    0    0  0.82901697099E+01  0.18272879178E+00  0.68486080761E+02  0.68986256324E+02  0.00000000000E+00 0.  1.
         14    1    4    4    0    0 -0.25449312984E+02 -0.95226513796E+01 -0.11746365558E+02  0.29602795889E+02  0.00000000000E+00 0. -1.
         -5    1    5    5    0  503  0.44106387381E+02 -0.40611420662E+00  0.31263183003E+02  0.54267991930E+02  0.47000000000E+01 0.  1.
         13    1    6    6    0    0 -0.49125757962E+01 -0.23698979203E+02  0.19891374577E+03  0.20038077072E+03  0.00000000000E+00 0. -1.
        -14    1    6    6    0    0 -0.66240092373E+02 -0.26702049495E+02  0.10921207105E+03  0.13049147768E+03  0.00000000000E+00 0.  1.
</event>
<event>
12    1  0.8798177E-003  0.1899614E+03  0.7818608E-02  0.1158497E+00
         21   -1    0    0  501  502  0.00000000000E+00  0.00000000000E+00  0.38236354899E+03  0.38236354899E+03  0.00000000000E+00 0. -1.
         21   -1    0    0  502  503 -0.00000000000E+00 -0.00000000000E+00 -0.11070853962E+03  0.11070853962E+03  0.00000000000E+00 0. -1.
          6    2    1    2  501    0 -0.38353744770E+01 -0.80812729615E+02  0.41121493918E+02  0.19435642843E+03  0.17186633366E+03 0.  0.
         24    2    3    3    0    0 -0.44144980748E+02 -0.44421129436E+00  0.18604069729E+02  0.10154970730E+03  0.89539125488E+02 0.  0.
         -6    2    1    2    0  503  0.38353744770E+01  0.80812729615E+02  0.23053351546E+03  0.29871566018E+03  0.17187186076E+03 0.  0.
        -24    2    5    5    0    0  0.23810788759E+01 -0.25802752650E+01  0.39142084639E+02  0.89887314331E+02  0.80841196990E+02 0.  0.
          5    1    3    3  501    0  0.40309606271E+02 -0.80368518320E+02  0.22517424190E+02  0.92806721130E+02  0.47000000000E+01 0. -1.
        -13    1    4    4    0    0  0.10428810564E+02  0.14731179092E+02 -0.24457065244E+02  0.30395982754E+02  0.00000000000E+00 0.  1.
         14    1    4    4    0    0 -0.54573791312E+02 -0.15175390386E+02  0.43061134972E+02  0.71153724545E+02  0.00000000000E+00 0. -1.
         -5    1    5    5    0  503  0.14542956010E+01  0.83393004880E+02  0.19139143082E+03  0.20882834585E+03  0.47000000000E+01 0.  1.
         13    1    6    6    0    0 -0.21277377200E+02  0.32353524874E+02  0.19129869114E+02  0.43190615237E+02  0.00000000000E+00 0. -1.
        -14    1    6    6    0    0  0.23658456076E+02 -0.34933800139E+02  0.20012215525E+02  0.46696699094E+02  0.00000000000E+00 0.  1.
</event>
<event>
12    1  0.8798177E-003  0.2865292E+03  0.7818608E-02  0.1092456E+00
         21   -1    0    0  501  502  0.00000000000E+00  0.00000000000E+00  0.37317382572E+03  0.37317382572E+03  0.00000000000E+00 0. -1.
         21   -1    0    0  502  503 -0.00000000000E+00 -0.00000000000E+00 -0.23768329076E+03  0.23768329076E+03  0.00000000000E+00 0.  1.
          6    2    1    2  501    0 -0.13251358254E+03  0.18350838197E+03  0.15499984272E+03  0.32576665449E+03  0.17568092133E+03 0.  0.
         24    2    3    3    0    0  0.33830419627E+01  0.83458688191E+02  0.81229404436E+02  0.14153310341E+03  0.80353006220E+02 0.  0.
         -6    2    1    2    0  503  0.13251358254E+03 -0.18350838197E+03 -0.19509307765E+02  0.28509046199E+03  0.17222306063E+03 0.  0.
        -24    2    5    5    0    0  0.13314612999E+03 -0.71394931244E+02 -0.24822836558E+02  0.17275102306E+03  0.80010090708E+02 0.  0.
          5    1    3    3  501    0 -0.13589662450E+03  0.10004969378E+03  0.73770438289E+02  0.18423355108E+03  0.47000000000E+01 0. -1.
        -11    1    4    4    0    0 -0.13218713919E+02 -0.54487168333E+01 -0.63416455917E+01  0.15640952069E+02  0.00000000000E+00 0.  1.
         12    1    4    4    0    0  0.16601755882E+02  0.88907405024E+02  0.87571050028E+02  0.12589215134E+03  0.00000000000E+00 0. -1.
         -5    1    5    5    0  503 -0.63254744442E+00 -0.11211345073E+03  0.53135287922E+01  0.11233943893E+03  0.47000000000E+01 0.  1.
         13    1    6    6    0    0  0.18451743226E+02 -0.21434179152E+02  0.25331867029E+02  0.37968333532E+02  0.00000000000E+00 0. -1.
        -14    1    6    6    0    0  0.11469438676E+03 -0.49960752091E+02 -0.50154703587E+02  0.13478268953E+03  0.00000000000E+00 0.  1.
</event>
<event>
12    1  0.8798177E-003  0.1764921E+03  0.7818608E-02  0.1172106E+00
         21   -1    0    0  501  502  0.00000000000E+00  0.00000000000E+00  0.25799298223E+03  0.25799298223E+03  0.00000000000E+00 0. -1.
         21   -1    0    0  502  503 -0.00000000000E+00 -0.00000000000E+00 -0.13359040444E+03  0.13359040444E+03  0.00000000000E+00 0. -1.
          6    2    1    2  501    0  0.55294056051E+01 -0.16184143896E+02  0.12769572322E+03  0.21506059612E+03  0.17219861043E+03 0.  0.
         24    2    3    3    0    0 -0.11327065415E+02 -0.18428136788E+02 -0.27004346464E+01  0.83476310939E+02  0.80579795882E+02 0.  0.
         -6    2    1    2    0  503 -0.55294056051E+01  0.16184143896E+02 -0.32931454332E+01  0.17652279056E+03  0.17566146401E+03 0.  0.
        -24    2    5    5    0    0 -0.73061034169E+02  0.13529424173E+02  0.63721875984E+01  0.10808977911E+03  0.78242159611E+02 0.  0.
          5    1    3    3  501    0  0.16856471020E+02  0.22439928924E+01  0.13039615787E+03  0.13158428518E+03  0.47000000000E+01 0. -1.
        -13    1    4    4    0    0  0.31633684369E+02  0.65098221902E+01  0.65344129430E+01  0.32950968487E+02  0.00000000000E+00 0.  1.
         14    1    4    4    0    0 -0.42960749784E+02 -0.24937958979E+02 -0.92348475894E+01  0.50525342453E+02  0.00000000000E+00 0. -1.
         -5    1    5    5    0  503  0.67531628564E+02  0.26547197229E+01 -0.96653330316E+01  0.68433011448E+02  0.47000000000E+01 0.  1.
         13    1    6    6    0    0 -0.40915837800E+02  0.40887445726E+02 -0.16405653016E+02  0.60125156563E+02  0.00000000000E+00 0. -1.
        -14    1    6    6    0    0 -0.32145196369E+02 -0.27358021552E+02  0.22777840614E+02  0.47964622545E+02  0.00000000000E+00 0.  1.
</event>
<event>
12    1  0.8798177E-003  0.2433455E+03  0.7818608E-02  0.1118135E+00
         21   -1    0    0  503  502  0.00000000000E+00  0.00000000000E+00  0.17295909365E+03  0.17295909365E+03  0.00000000000E+00 0. -1.
         21   -1    0    0  501  503 -0.00000000000E+00 -0.00000000000E+00 -0.36171846029E+03  0.36171846029E+03  0.00000000000E+00 0. -1.
          6    2    1    2  501    0 -0.16047285477E+03 -0.34596633739E+02 -0.16389300835E+03  0.29339040677E+03  0.17963448560E+03 0.  0.
         24    2    3    3    0    0 -0.62200062187E+02 -0.23755343447E+02 -0.16454858033E+03  0.19440760467E+03  0.79277470874E+02 0.  0.
         -6    2    1    2    0  502  0.16047285477E+03  0.34596633739E+02 -0.24866358283E+02  0.24128714717E+03  0.17507908907E+03 0.  0.
        -24    2    5    5    0    0  0.10099676572E+03  0.72176258932E+02 -0.63509844302E+02  0.16088165973E+03  0.80247424101E+02 0.  0.
          5    1    3    3  501    0 -0.98272792583E+02 -0.10841290292E+02  0.65557197483E+00  0.98982802102E+02  0.47000000000E+01 0. -1.
        -13    1    4    4    0    0 -0.57031515101E+02  0.17588511384E+02 -0.76748721718E+02  0.97223020591E+02  0.00000000000E+00 0.  1.
         14    1    4    4    0    0 -0.51685470859E+01 -0.41343854831E+02 -0.87799858609E+02  0.97184584081E+02  0.00000000000E+00 0. -1.
         -5    1    5    5    0  502  0.59476089055E+02 -0.37579625194E+02  0.38643486019E+02  0.80405487441E+02  0.47000000000E+01 0.  1.
         13    1    6    6    0    0  0.80964434185E+02  0.20322508949E+02 -0.10614407721E+02  0.84148140943E+02  0.00000000000E+00 0. -1.
        -14    1    6    6    0    0  0.20032331530E+02  0.51853749984E+02 -0.52895436581E+02  0.76733518784E+02  0.00000000000E+00 0.  1.
</event>
<event>
12    1  0.8798177E-003  0.2286900E+03  0.7818608E-02  0.1128565E+00
         21   -1    0    0  501  502  0.00000000000E+00  0.00000000000E+00  0.80551360965E+03  0.80551360965E+03  0.00000000000E+00 0. -1.
         21   -1    0    0  502  503 -0.00000000000E+00 -0.00000000000E+00 -0.67805585476E+02  0.67805585476E+02  0.00000000000E+00 0.  1.
          6    2    1    2  501    0  0.11549340968E+03 -0.95488319418E+02  0.47645890575E+03  0.52611574115E+03  0.16531163720E+03 0.  0.
         24    2    3    3    0    0  0.62014699371E+02 -0.26485760798E+02  0.38870276018E+03  0.40224259378E+03  0.78498089279E+02 0.  0.
         -6    2    1    2    0  503 -0.11549340968E+03  0.95488319418E+02  0.26124911842E+03  0.34720345397E+03  0.17274949999E+03 0.  0.
        -24    2    5    5    0    0 -0.23774073185E+02  0.49096119257E+02  0.46672905328E+02  0.10923346816E+03  0.82328336505E+02 0.  0.
          5    1    3    3  501    0  0.53478710314E+02 -0.69002558620E+02  0.87756145567E+02  0.12387314736E+03  0.47000000000E+01 0. -1.
        -11    1    4    4    0    0  0.80454510215E+01 -0.23818237004E+02  0.28476547184E+02  0.37986200595E+02  0.00000000000E+00 0.  1.
         12    1    4    4    0    0  0.53969248349E+02 -0.26675237938E+01  0.36022621300E+03  0.36425639319E+03  0.00000000000E+00 0. -1.
         -5    1    5    5    0  503 -0.91719336499E+02  0.46392200162E+02  0.21457621310E+03  0.23796998582E+03  0.47000000000E+01 0.  1.
         11    1    6    6    0    0  0.25907812486E+02  0.35166767949E+02  0.35861870177E+02  0.56515396561E+02  0.00000000000E+00 0. -1.
        -12    1    6    6    0    0 -0.49681885671E+02  0.13929351307E+02  0.10811035150E+02  0.52718071595E+02  0.00000000000E+00 0.  1.
</event>
<event>
12    1  0.8798177E-003  0.2604344E+03  0.7818608E-02  0.1106967E+00
         21   -1    0    0  503  502  0.00000000000E+00  0.00000000000E+00  0.22166277939E+03  0.22166277939E+03  0.00000000000E+00 0.  1.
         21   -1    0    0  501  503 -0.00000000000E+00 -0.00000000000E+00 -0.31710543903E+03  0.31710543903E+03  0.00000000000E+00 0. -1.
          6    2    1    2  501    0 -0.14756100427E+03 -0.12798295755E+03  0.41503609310E+01  0.26046750573E+03  0.17225622963E+03 0.  0.
         24    2    3    3    0    0 -0.72189048386E+02 -0.14568037521E+03 -0.10338390313E+02  0.18156158556E+03  0.80147966981E+02 0.  0.
         -6    2    1    2    0  502  0.14756100427E+03  0.12798295755E+03 -0.99593020569E+02  0.27830071268E+03  0.17140195311E+03 0.  0.
        -24    2    5    5    0    0  0.15532524629E+03  0.57928250651E+02 -0.49401404065E+02  0.19164487745E+03  0.82496339140E+02 0.  0.
          5    1    3    3  501    0 -0.75371955881E+02  0.17697417661E+02  0.14488751244E+02  0.78905920170E+02  0.47000000000E+01 0. -1.
        -13    1    4    4    0    0 -0.60268804401E+02 -0.35932225291E+02  0.37786760075E+01  0.70268997365E+02  0.00000000000E+00 0.  1.
         14    1    4    4    0    0 -0.11920243984E+02 -0.10974814992E+03 -0.14117066321E+02  0.11129258820E+03  0.00000000000E+00 0. -1.
         -5    1    5    5    0  502 -0.77642420195E+01  0.70054706894E+02 -0.50191616505E+02  0.86655835231E+02  0.47000000000E+01 0.  1.
         11    1    6    6    0    0  0.50664727777E+01  0.29147175657E+02  0.34457438597E+01  0.29784226462E+02  0.00000000000E+00 0. -1.
        -12    1    6    6    0    0  0.15025877351E+03  0.28781074994E+02 -0.52847147924E+02  0.16186065099E+03  0.00000000000E+00 0.  1.
</event>
<event>
12    1  0.8798177E-003  0.2561163E+03  0.7818608E-02  0.1109925E+00
         21   -1    0    0  501  502  0.00000000000E+00  0.00000000000E+00  0.86335662841E+03  0.86335662841E+03  0.00000000000E+00 0. -1.
         21   -1    0    0  502  503 -0.00000000000E+00 -0.00000000000E+00 -0.97981029356E+02  0.97981029356E+02  0.00000000000E+00 0. -1.
          6    2    1    2  501    0 -0.17163144357E+03 -0.71999383759E+02  0.61624878914E+03  0.66735159041E+03  0.17593837394E+03 0.  0.
         24    2    3    3    0    0 -0.10813285551E+03 -0.15986255540E+02  0.52798145295E+03  0.54494753061E+03  0.79089327007E+02 0.  0.
         -6    2    1    2    0  503  0.17163144357E+03  0.71999383759E+02  0.14912680992E+03  0.29398606736E+03  0.17189455687E+03 0.  0.
        -24    2    5    5    0    0  0.16501877065E+03  0.26286125395E+02  0.16178303244E+03  0.24586435291E+03  0.79708063515E+02 0.  0.
          5    1    3    3  501    0 -0.63498588062E+02 -0.56013128220E+02  0.88267336184E+02  0.12240405980E+03  0.47000000000E+01 0. -1.
        -11    1    4    4    0    0  0.44899195750E+01 -0.21459555512E+02  0.98594792226E+02  0.10100299478E+03  0.00000000000E+00 0.  1.
         12    1    4    4    0    0 -0.11262277509E+03  0.54732999725E+01  0.42938666073E+03  0.44394453583E+03  0.00000000000E+00 0. -1.
         -5    1    5    5    0  503  0.66126729258E+01  0.45713258364E+02 -0.12656222521E+02  0.48121714454E+02  0.47000000000E+01 0.  1.
         11    1    6    6    0    0  0.12481450244E+03  0.24885355086E+02  0.16151697792E+03  0.20563480997E+03  0.00000000000E+00 0. -1.
        -12    1    6    6    0    0  0.40204268209E+02  0.14007703097E+01  0.26605452528E+00  0.40229542934E+02  0.00000000000E+00 0.  1.
</event>
<event>
12    1  0.8798177E-003  0.2251156E+03  0.7818608E-02  0.1130478E+00
         21   -1    0    0  501  502  0.00000000000E+00  0.00000000000E+00  0.19972175214E+03  0.19972175214E+03  0.00000000000E+00 0.  1.
         21   -1    0    0  502  503 -0.00000000000E+00 -0.00000000000E+00 -0.26933563331E+03  0.26933563331E+03  0.00000000000E+00 0. -1.
          6    2    1    2  501    0 -0.35513364121E+02 -0.13807838169E+03  0.25588588846E+02  0.22463862652E+03  0.17170002366E+03 0.  0.
         24    2    3    3    0    0 -0.19978810394E+02 -0.39939359635E+01  0.32089294015E+02  0.89419137867E+02  0.80937970306E+02 0.  0.
         -6    2    1    2    0  503  0.35513364121E+02  0.13807838169E+03 -0.95202470014E+02  0.24441875893E+03  0.17421303310E+03 0.  0.
        -24    2    5    5    0    0  0.65546710854E+02  0.11089717585E+03 -0.11302059293E+02  0.15113323602E+03  0.78223804361E+02 0.  0.
          5    1    3    3  501    0 -0.15534553727E+02 -0.13408444572E+03 -0.65007051691E+01  0.13521948865E+03  0.47000000000E+01 0. -1.
        -13    1    4    4    0    0 -0.46274194437E+02 -0.22195689626E+02  0.22450959661E+02  0.56017812332E+02  0.00000000000E+00 0.  1.
         14    1    4    4    0    0  0.26295384043E+02  0.18201753662E+02  0.96383343534E+01  0.33401325535E+02  0.00000000000E+00 0. -1.
         -5    1    5    5    0  503 -0.30033346733E+02  0.27181205834E+02 -0.83900410722E+02  0.93285522917E+02  0.47000000000E+01 0.  1.
         13    1    6    6    0    0  0.69544549434E+02  0.93115518366E+02 -0.34872338674E+02  0.12133846925E+03  0.00000000000E+00 0. -1.
        -14    1    6    6    0    0 -0.39978385796E+01  0.17781657486E+02  0.23570279381E+02  0.29794766762E+02  0.00000000000E+00 0.  1.
</event>
<event>
12    1  0.8798177E-003  0.2038399E+03  0.7818608E-02  0.1146803E+00
         21   -1    0    0  503  502  0.00000000000E+00  0.00000000000E+00  0.65949681754E+03  0.65949681754E+03  0.00000000000E+00 0.  1.
         21   -1    0    0  501  503 -0.00000000000E+00 -0.00000000000E+00 -0.67200161275E+02  0.67200161275E+02  0.00000000000E+00 0.  1.
          6    2    1    2  501    0 -0.32204188065E+02 -0.10341433034E+03  0.20204995014E+03  0.28701028657E+03  0.17268204538E+03 0.  0.
         24    2    3    3    0    0  0.40222819070E+02 -0.93488166276E+02  0.11577727765E+03  0.17383226700E+03  0.80345296204E+02 0.  0.
         -6    2    1    2    0  502  0.32204188065E+02  0.10341433034E+03  0.39024670613E+03  0.43968669225E+03  0.17117319372E+03 0.  0.
        -24    2    5    5    0    0 -0.27436946074E+02  0.84855115935E+02  0.33706763370E+03  0.35751849241E+03  0.79067730556E+02 0.  0.
          5    1    3    3  501    0 -0.72427007134E+02 -0.99261640624E+01  0.86272672491E+02  0.11317801957E+03  0.47000000000E+01 0. -1.
        -13    1    4    4    0    0  0.46752122942E+02 -0.90531671201E+02  0.61350123023E+02  0.11893520120E+03  0.00000000000E+00 0.  1.
         14    1    4    4    0    0 -0.65293038727E+01 -0.29564950755E+01  0.54427154628E+02  0.54897065797E+02  0.00000000000E+00 0. -1.
         -5    1    5    5    0  502  0.59641134138E+02  0.18559214404E+02  0.53179072421E+02  0.82168199836E+02  0.47000000000E+01 0.  1.
         13    1    6    6    0    0 -0.23024673110E+02 -0.19101757853E+01  0.27128067264E+02  0.35633079811E+02  0.00000000000E+00 0. -1.
        -14    1    6    6    0    0 -0.44122729641E+01  0.86765291720E+02  0.30993956644E+03  0.32188541260E+03  0.00000000000E+00 0.  1.
</event>
<event>
12    1  0.8798177E-003  0.1982469E+03  0.7818608E-02  0.1151812E+00
         21   -1    0    0  503  502  0.00000000000E+00  0.00000000000E+00  0.19364924009E+03  0.19364924009E+03  0.00000000000E+00 0. -1.
         21   -1    0    0  501  503 -0.00000000000E+00 -0.00000000000E+00 -0.21265521349E+03  0.21265521349E+03  0.00000000000E+00 0. -1.
          6    2    1    2  501    0 -0.17671799035E+02 -0.98181845661E+02  0.39775079067E+02  0.19952673131E+03  0.16815734385E+03 0.  0.
         24    2    3    3    0    0 -0.30457252302E+02 -0.91948971690E+02 -0.27566072546E+02  0.13053950616E+03  0.83056707733E+02 0.  0.
         -6    2    1    2    0  502  0.17671799035E+02  0.98181845661E+02 -0.58781052462E+02  0.20677772227E+03  0.17131797046E+03 0.  0.
        -24    2    5    5    0    0  0.11411659597E+02  0.13143474832E+03 -0.20414499550E+02  0.15540625876E+03  0.79555228805E+02 0.  0.
          5    1    3    3  501    0  0.12785453267E+02 -0.62328739709E+01  0.67341151613E+02  0.68987225149E+02  0.47000000000E+01 0. -1.
        -11    1    4    4    0    0  0.26781111032E+02 -0.41638997425E+02 -0.21863417071E+02  0.54120633964E+02  0.00000000000E+00 0.  1.
         12    1    4    4    0    0 -0.57238363334E+02 -0.50309974265E+02 -0.57026554751E+01  0.76418872193E+02  0.00000000000E+00 0. -1.
         -5    1    5    5    0  502  0.62601394388E+01 -0.33252902657E+02 -0.38366552913E+02  0.51371463512E+02  0.47000000000E+01 0.  1.
         13    1    6    6    0    0  0.12880786742E+02  0.41413713098E+02 -0.44569938543E+02  0.62189144723E+02  0.00000000000E+00 0. -1.
        -14    1    6    6    0    0 -0.14691271452E+01  0.90021035220E+02  0.24155438994E+02  0.93217114038E+02  0.00000000000E+00 0.  1.
</event>
<event>
12    1  0.8798177E-003  0.2071085E+03  0.7818608E-02  0.1143910E+00
         21   -1    0    0  503  502  0.00000000000E+00  0.00000000000E+00  0.14387995529E+03  0.14387995529E+03  0.00000000000E+00 0.  1.
         21   -1    0    0  501  503 -0.00000000000E+00 -0.00000000000E+00 -0.33550790476E+03  0.33550790476E+03  0.00000000000E+00 0. -1.
          6    2    1    2  501    0 -0.52182744022E+02 -0.10382792474E+03 -0.17604808357E+03  0.27169421399E+03  0.17123533939E+03 0.  0.
         24    2    3    3    0    0 -0.50357661419E+02 -0.51891697235E+02 -0.23042789892E+02  0.11003589361E+03  0.79676128236E+02 0.  0.
         -6    2    1    2    0  502  0.52182744022E+02  0.10382792474E+03 -0.15579865899E+02  0.20769364606E+03  0.17143699036E+03 0.  0.
        -24    2    5    5    0    0 -0.15872869571E+02  0.82314150313E+02 -0.57755565038E+02  0.12465577139E+03  0.71942954613E+02 0.  0.
          5    1    3    3  501    0 -0.18250826037E+01 -0.51936227509E+02 -0.15300529368E+03  0.16165832038E+03  0.47000000000E+01 0. -1.
        -11    1    4    4    0    0 -0.17922260071E+02  0.20897830458E+02 -0.19339188717E+01  0.27598310929E+02  0.00000000000E+00 0.  1.
         12    1    4    4    0    0 -0.32435401347E+02 -0.72789527693E+02 -0.21108871021E+02  0.82437582680E+02  0.00000000000E+00 0. -1.
         -5    1    5    5    0  502  0.68055613593E+02  0.21513774431E+02  0.42175699139E+02  0.83037874670E+02  0.47000000000E+01 0.  1.
         13    1    6    6    0    0  0.93258217083E+01 -0.10308172501E+02 -0.11797064992E+02  0.18231843387E+02  0.00000000000E+00 0. -1.
        -14    1    6    6    0    0 -0.25198691279E+02  0.92622322815E+02 -0.45958500046E+02  0.10642392801E+03  0.00000000000E+00 0.  1.
</event>
<event>
12    1  0.8798177E-003  0.1759859E+03  0.7818608E-02  0.1172102E+00
         21   -1    0    0  503  502  0.00000000000E+00  0.00000000000E+00  0.11143690946E+02  0.11143690946E+02  0.00000000000E+00 0.  1.
         21   -1    0    0  501  503 -0.00000000000E+00 -0.00000000000E+00 -0.30359185613E+04  0.30359185613E+04  0.00000000000E+00 0.  1.
          6    2    1    2  501    0 -0.20434217084E+02 -0.39064599263E+02 -0.19687777838E+04  0.19765012377E+04  0.16890109601E+03 0.  0.
         24    2    3    3    0    0  0.20015956925E+02  0.22882782384E+02 -0.14410291343E+04  0.14435712031E+04  0.80053683372E+02 0.  0.
         -6    2    1    2    0  502  0.20434217084E+02  0.39064599263E+02 -0.10559970865E+04  0.10705610145E+04  0.17037440846E+03 0.  0.
        -24    2    5    5    0    0  0.76252366458E+02  0.41516936128E+02 -0.77239362891E+03  0.78146813863E+03  0.81008976917E+02 0.  0.
          5    1    3    3  501    0 -0.40450174009E+02 -0.61947381647E+02 -0.52774864953E+03  0.53293003457E+03  0.47000000000E+01 0. -1.
        -13    1    4    4    0    0 -0.26099065678E+01  0.12081481442E+00 -0.12394809430E+04  0.12394836967E+04  0.00000000000E+00 0.  1.
         14    1    4    4    0    0  0.22625863493E+02  0.22761967569E+02 -0.20154819130E+03  0.20408750644E+03  0.00000000000E+00 0. -1.
         -5    1    5    5    0  502 -0.55818149373E+02 -0.24523368650E+01 -0.28360345758E+03  0.28909287592E+03  0.47000000000E+01 0.  1.
         11    1    6    6    0    0  0.37905594017E+02  0.59771176314E+02 -0.58813253661E+03  0.59237598550E+03  0.00000000000E+00 0. -1.
        -12    1    6    6    0    0  0.38346772440E+02 -0.18254240186E+02 -0.18426109230E+03  0.18909215313E+03  0.00000000000E+00 0.  1.
</event>
<event>
12    1  0.8798177E-003  0.2195984E+03  0.7818608E-02  0.1134870E+00
         21   -1    0    0  503  502  0.00000000000E+00  0.00000000000E+00  0.23321623286E+02  0.23321623286E+02  0.00000000000E+00 0. -1.
         21   -1    0    0  501  503 -0.00000000000E+00 -0.00000000000E+00 -0.21603935902E+04  0.21603935902E+04  0.00000000000E+00 0. -1.
          6    2    1    2  501    0 -0.10540406267E+03  0.79700075978E+02 -0.13246502922E+04  0.13421378563E+04  0.17080254703E+03 0.  0.
         24    2    3    3    0    0  0.26902746727E+01  0.64368108498E+02 -0.74616425931E+03  0.75342091644E+03  0.82045624451E+02 0.  0.
         -6    2    1    2    0  502  0.10540406267E+03 -0.79700075978E+02 -0.81242167470E+03  0.84157735720E+03  0.17538914475E+03 0.  0.
        -24    2    5    5    0    0  0.33597683271E+02 -0.10906422901E+03 -0.59206026691E+03  0.60791167797E+03  0.77443128774E+02 0.  0.
          5    1    3    3  501    0 -0.10809433734E+03  0.15331967480E+02 -0.57848603292E+03  0.58871693986E+03  0.47000000000E+01 0. -1.
        -11    1    4    4    0    0 -0.65827611001E+01  0.79470046443E+01 -0.80302988668E+01  0.13075676901E+02  0.00000000000E+00 0.  1.
         12    1    4    4    0    0  0.92730357728E+01  0.56421103853E+02 -0.73813396044E+03  0.74034523954E+03  0.00000000000E+00 0. -1.
         -5    1    5    5    0  502  0.71806379398E+02  0.29364153032E+02 -0.22036140779E+03  0.23366567923E+03  0.47000000000E+01 0.  1.
         11    1    6    6    0    0  0.13693026624E+02 -0.80475115147E+02 -0.22771168934E+03  0.24190154320E+03  0.00000000000E+00 0. -1.
        -12    1    6    6    0    0  0.19904656647E+02 -0.28589113863E+02 -0.36434857756E+03  0.36601013478E+03  0.00000000000E+00 0.  1.
</event>
<event>
12    1  0.8798177E-003  0.1946208E+03  0.7818608E-02  0.1154763E+00
         21   -1    0    0  501  502  0.00000000000E+00  0.00000000000E+00  0.20224665145E+03  0.20224665145E+03  0.00000000000E+00 0. -1.
         21   -1    0    0  502  503 -0.00000000000E+00 -0.00000000000E+00 -0.18832049307E+03  0.18832049307E+03  0.00000000000E+00 0. -1.
          6    2    1    2  501    0  0.64691345161E+02  0.53719711863E+02  0.30826295596E+02  0.19704700999E+03  0.17551776567E+03 0.  0.
         24    2    3    3    0    0  0.39144080193E+02  0.16951475075E+02 -0.50178820328E+02  0.10437293169E+03  0.80970262063E+02 0.  0.
         -6    2    1    2    0  503 -0.64691345161E+02 -0.53719711863E+02 -0.16900137215E+02  0.19352013453E+03  0.17347521508E+03 0.  0.
        -24    2    5    5    0    0 -0.93593198997E+02 -0.85663280217E+02 -0.19281389301E+02  0.15012118205E+03  0.77889106115E+02 0.  0.
          5    1    3    3  501    0  0.25547264968E+02  0.36768236788E+02  0.81005115925E+02  0.92674078306E+02  0.47000000000E+01 0. -1.
        -11    1    4    4    0    0 -0.17092122061E+02  0.22773829939E+02 -0.36340277823E+02  0.46167128553E+02  0.00000000000E+00 0.  1.
         12    1    4    4    0    0  0.56236202253E+02 -0.58223548639E+01 -0.13838542505E+02  0.58205803136E+02  0.00000000000E+00 0. -1.
         -5    1    5    5    0  503  0.28901853836E+02  0.31943568354E+02  0.23812520858E+01  0.43398952474E+02  0.47000000000E+01 0.  1.
         13    1    6    6    0    0 -0.35505905671E+02 -0.59110148853E+02  0.23952045156E+02  0.72995749891E+02  0.00000000000E+00 0. -1.
        -14    1    6    6    0    0 -0.58087293325E+02 -0.26553131364E+02 -0.43233434458E+02  0.77125432161E+02  0.00000000000E+00 0.  1.
</event>
<event>
12    1  0.8798177E-003  0.1926509E+03  0.7818608E-02  0.1156170E+00
         21   -1    0    0  503  502  0.00000000000E+00  0.00000000000E+00  0.22391748577E+03  0.22391748577E+03  0.00000000000E+00 0.  1.
         21   -1    0    0  501  503 -0.00000000000E+00 -0.00000000000E+00 -0.18485931201E+03  0.18485931201E+03  0.00000000000E+00 0.  1.
          6    2    1    2  501    0  0.40813917801E+02  0.75225704010E+02 -0.46690634532E+02  0.19822809106E+03  0.17259686644E+03 0.  0.
         24    2    3    3    0    0  0.57167823365E+02  0.10477162415E+03 -0.65620092372E+02  0.15923032192E+03  0.82480577341E+02 0.  0.
         -6    2    1    2    0  502 -0.40813917801E+02 -0.75225704010E+02  0.85748808297E+02  0.21054870671E+03  0.17220109565E+03 0.  0.
        -24    2    5    5    0    0 -0.10089140427E+02  0.31010832688E+01  0.96125998972E+02  0.12564362067E+03  0.80216608405E+02 0.  0.
          5    1    3    3  501    0 -0.16353905564E+02 -0.29545920143E+02  0.18929457840E+02  0.38997769147E+02  0.47000000000E+01 0. -1.
        -11    1    4    4    0    0 -0.34075965735E+01  0.13134464092E+02 -0.45594880385E+02  0.47571199047E+02  0.00000000000E+00 0.  1.
         12    1    4    4    0    0  0.60575419939E+02  0.91637160061E+02 -0.20025211987E+02  0.11165912287E+03  0.00000000000E+00 0. -1.
         -5    1    5    5    0  502 -0.30724777374E+02 -0.78326787279E+02 -0.10377190676E+02  0.84905086046E+02  0.47000000000E+01 0.  1.
         11    1    6    6    0    0 -0.14142627412E+02  0.19827737890E+02 -0.34440686616E+01  0.24597046752E+02  0.00000000000E+00 0. -1.
        -12    1    6    6    0    0  0.40534869851E+01 -0.16726654621E+02  0.99570067634E+02  0.10104657392E+03  0.00000000000E+00 0.  1.
</event>
<event>
12    1  0.8798177E-003  0.2702467E+03  0.7818608E-02  0.1101156E+00
         21   -1    0    0  503  502  0.00000000000E+00  0.00000000000E+00  0.18477784764E+03  0.18477784764E+03  0.00000000000E+00 0.  1.
         21   -1    0    0  501  503 -0.00000000000E+00 -0.00000000000E+00 -0.47311650568E+03  0.47311650568E+03  0.00000000000E+00 0. -1.
          6    2    1    2  501    0 -0.76429214818E+02 -0.19386586548E+03 -0.27774617813E+03  0.38744015260E+03  0.17187650715E+03 0.  0.
         24    2    3    3    0    0 -0.57552283002E+02 -0.38706399897E+02 -0.15938543414E+03  0.19132244807E+03  0.79938175157E+02 0.  0.
         -6    2    1    2    0  502  0.76429214818E+02  0.19386586548E+03 -0.10592479911E+02  0.27045420072E+03  0.17206939117E+03 0.  0.
        -24    2    5    5    0    0  0.41366445262E+02  0.20174124375E+02 -0.50607242668E+01  0.93110159213E+02  0.80781883678E+02 0.  0.
          5    1    3    3  501    0 -0.18876931816E+02 -0.15515946558E+03 -0.11836074398E+03  0.19611770453E+03  0.47000000000E+01 0. -1.
        -13    1    4    4    0    0 -0.66340529453E+02 -0.39588257554E+02 -0.79152287597E+02  0.11060461390E+03  0.00000000000E+00 0.  1.
         14    1    4    4    0    0  0.87882464511E+01  0.88185765782E+00 -0.80233146544E+02  0.80717834169E+02  0.00000000000E+00 0. -1.
         -5    1    5    5    0  502  0.35062769556E+02  0.17369174110E+03 -0.55317556447E+01  0.17734404150E+03  0.47000000000E+01 0.  1.
         13    1    6    6    0    0  0.32316349107E+02  0.18642439893E+02 -0.41341278535E+02  0.55686518078E+02  0.00000000000E+00 0. -1.
        -14    1    6    6    0    0  0.90500961553E+01  0.15316844814E+01  0.36280554268E+02  0.37423641135E+02  0.00000000000E+00 0.  1.
</event>
<event>
12    1  0.8798177E-003  0.1806687E+03  0.7818608E-02  0.1168808E+00
         21   -1    0    0  501  502  0.00000000000E+00  0.00000000000E+00  0.73851785632E+02  0.73851785632E+02  0.00000000000E+00 0.  1.
         21   -1    0    0  502  503 -0.00000000000E+00 -0.00000000000E+00 -0.43132303355E+03  0.43132303355E+03  0.00000000000E+00 0.  1.
          6    2    1    2  501    0  0.99040887685E+00  0.32076749919E+02 -0.14657698535E+03  0.22747432142E+03  0.17096741057E+03 0.  0.
         24    2    3    3    0    0  0.79514758296E+01  0.86300358777E+01 -0.17334259194E+03  0.19091351524E+03  0.79136670593E+02 0.  0.
         -6    2    1    2    0  503 -0.99040887685E+00 -0.32076749919E+02 -0.21089426257E+03  0.27770049777E+03  0.17779560647E+03 0.  0.
        -24    2    5    5    0    0 -0.16160705444E+02  0.77502586004E+00 -0.22476829768E+03  0.23866261975E+03  0.78595733718E+02 0.  0.
          5    1    3    3  501    0 -0.69610669528E+01  0.23446714042E+02  0.26765606591E+02  0.36560806181E+02  0.47000000000E+01 0. -1.
        -11    1    4    4    0    0 -0.35577780673E+02  0.74978361646E+00 -0.70966714081E+02  0.79389011586E+02  0.00000000000E+00 0.  1.
         12    1    4    4    0    0  0.43529256502E+02  0.78802522613E+01 -0.10237587786E+03  0.11152450365E+03  0.00000000000E+00 0. -1.
         -5    1    5    5    0  503  0.15170296568E+02 -0.32851775779E+02  0.13874035109E+02  0.39037878016E+02  0.47000000000E+01 0.  1.
         11    1    6    6    0    0 -0.29209061742E+02 -0.32960478239E+02 -0.12676740329E+03  0.13419961606E+03  0.00000000000E+00 0. -1.
        -12    1    6    6    0    0  0.13048356298E+02  0.33735504099E+02 -0.98000894391E+02  0.10446300369E+03  0.00000000000E+00 0.  1.
</event>
<event>
12    1  0.8798177E-003  0.1774630E+03  0.7818608E-02  0.1171916E+00
         21   -1    0    0  503  502  0.00000000000E+00  0.00000000000E+00  0.24930821799E+03  0.24930821799E+03  0.00000000000E+00 0.  1.
         21   -1    0    0  501  503 -0.00000000000E+00 -0.00000000000E+00 -0.14205546998E+03  0.14205546998E+03  0.00000000000E+00 0.  1.
          6    2    1    2  501    0  0.26028167267E+02  0.34148408984E+02  0.12847905506E+03  0.21908899948E+03  0.17219042592E+03 0.  0.
         24    2    3    3    0    0 -0.10676001386E+02  0.80528790529E+02  0.10705082374E+03  0.15600496912E+03  0.79238932460E+02 0.  0.
         -6    2    1    2    0  502 -0.26028167267E+02 -0.34148408984E+02 -0.21226307040E+02  0.17227468849E+03  0.16548242462E+03 0.  0.
        -24    2    5    5    0    0  0.62757641482E+01 -0.79831447938E+02 -0.21150998622E+02  0.11612685056E+03  0.81398006015E+02 0.  0.
          5    1    3    3  501    0  0.36704168654E+02 -0.46380381545E+02  0.21428231315E+02  0.63084030357E+02  0.47000000000E+01 0. -1.
        -13    1    4    4    0    0 -0.30832912467E+02  0.79478521289E+02  0.58404008395E+02  0.10333698290E+03  0.00000000000E+00 0.  1.
         14    1    4    4    0    0  0.20156911080E+02  0.10502692401E+01  0.48646815346E+02  0.52667986226E+02  0.00000000000E+00 0. -1.
         -5    1    5    5    0  502 -0.32303931415E+02  0.45683038954E+02 -0.75308418251E-01  0.56147837931E+02  0.47000000000E+01 0.  1.
         13    1    6    6    0    0 -0.24139767525E+02 -0.55960984764E+02  0.15464032279E+02  0.62876835848E+02  0.00000000000E+00 0. -1.
        -14    1    6    6    0    0  0.30415531673E+02 -0.23870463173E+02 -0.36615030901E+02  0.53250014713E+02  0.00000000000E+00 0.  1.
</event>
<event>
12    1  0.8798177E-003  0.1807653E+03  0.7818608E-02  0.1168475E+00
         21   -1    0    0  503  502  0.00000000000E+00  0.00000000000E+00  0.10426221143E+03  0.10426221143E+03  0.00000000000E+00 0.  1.
         21   -1    0    0  501  503 -0.00000000000E+00 -0.00000000000E+00 -0.31130047785E+03  0.31130047785E+03  0.00000000000E+00 0.  1.
          6    2    1    2  501    0  0.34812446605E+02 -0.44831509677E+02 -0.68981658401E+02  0.18810782489E+03  0.16554248364E+03 0.  0.
         24    2    3    3    0    0  0.23650058920E+02 -0.30144062521E+02  0.27411698241E+02  0.89852600049E+02  0.76512082333E+02 0.  0.
         -6    2    1    2    0  502 -0.34812446605E+02  0.44831509677E+02 -0.13805660802E+03  0.22745486439E+03  0.17162260230E+03 0.  0.
        -24    2    5    5    0    0 -0.60728212566E+02 -0.20338777342E+02 -0.47858999330E+02  0.11310237492E+03  0.80000510812E+02 0.  0.
          5    1    3    3  501    0  0.11162387685E+02 -0.14687447156E+02 -0.96393356642E+02  0.98255224836E+02  0.47000000000E+01 0. -1.
        -11    1    4    4    0    0 -0.22569384558E+02 -0.24985889142E+02  0.27298549031E+02  0.43346078886E+02  0.00000000000E+00 0.  1.
         12    1    4    4    0    0  0.46219443478E+02 -0.51581733787E+01  0.11314921002E+00  0.46506521164E+02  0.00000000000E+00 0. -1.
         -5    1    5    5    0  502  0.25915765960E+02  0.65170287019E+02 -0.90197608693E+02  0.11435248948E+03  0.47000000000E+01 0.  1.
         13    1    6    6    0    0 -0.38003707592E+01  0.20418885977E+02  0.92640346492E+01  0.22741944957E+02  0.00000000000E+00 0. -1.
        -14    1    6    6    0    0 -0.56927841807E+02 -0.40757663319E+02 -0.57123033979E+02  0.90360429962E+02  0.00000000000E+00 0.  1.
</event>
<event>
12    1  0.8798177E-003  0.1814812E+03  0.7818608E-02  0.1168320E+00
         21   -1    0    0  501  502  0.00000000000E+00  0.00000000000E+00  0.17782717069E+03  0.17782717069E+03  0.00000000000E+00 0.  1.
         21   -1    0    0  502  503 -0.00000000000E+00 -0.00000000000E+00 -0.18421104744E+03  0.18421104744E+03  0.00000000000E+00 0.  1.
          6    2    1    2  501    0 -0.22141655346E+02 -0.12638287292E+01  0.32150150446E+02  0.17651110843E+03  0.17213567051E+03 0.  0.
         24    2    3    3    0    0  0.25288540433E+01  0.64587480225E+02  0.21877486701E+02  0.10528859412E+03  0.80181830377E+02 0.  0.
         -6    2    1    2    0  503  0.22141655346E+02  0.12638287292E+01 -0.38534027190E+02  0.18552710970E+03  0.18012103435E+03 0.  0.
        -24    2    5    5    0    0 -0.57019773083E+02  0.14187454267E+02 -0.30806507842E+02  0.10480935203E+03  0.81138282985E+02 0.  0.
          5    1    3    3  501    0 -0.24670509389E+02 -0.65851308954E+02  0.10272663744E+02  0.71222514312E+02  0.47000000000E+01 0. -1.
        -13    1    4    4    0    0  0.87143094677E+01  0.28318519928E+02  0.50583609493E+02  0.58622344800E+02  0.00000000000E+00 0.  1.
         14    1    4    4    0    0 -0.61854554244E+01  0.36268960297E+02 -0.28706122792E+02  0.46666249319E+02  0.00000000000E+00 0. -1.
         -5    1    5    5    0  503  0.79161428430E+02 -0.12923625538E+02 -0.77275193477E+01  0.80717757670E+02  0.47000000000E+01 0.  1.
         13    1    6    6    0    0 -0.26589544918E+02  0.36291342523E+02 -0.45910124454E+02  0.64279117670E+02  0.00000000000E+00 0. -1.
        -14    1    6    6    0    0 -0.30430228165E+02 -0.22103888256E+02  0.15103616611E+02  0.40530234356E+02  0.00000000000E+00 0.  1.
</event>
<event>
12    1  0.8798177E-003  0.1964868E+03  0.7818608E-02  0.1153001E+00
         21   -1    0    0  503  502  0.00000000000E+00  0.00000000000E+00  0.57003702456E+02  0.57003702456E+02  0.00000000000E+00 0. -1.
         21   -1    0    0  501  503 -0.00000000000E+00 -0.00000000000E+00 -0.68103388232E+03  0.68103388232E+03  0.00000000000E+00 0.  1.
          6    2    1    2  501    0  0.81057564343E+02  0.51624299452E+02 -0.35093469652E+03  0.40160303485E+03  0.16998364435E+03 0.  0.
         24    2    3    3    0    0  0.81914152864E+02 -0.88862066050E+01 -0.30146121587E+03  0.32329613621E+03  0.82780637268E+02 0.  0.
         -6    2    1    2    0  502 -0.81057564343E+02 -0.51624299452E+02 -0.27309548335E+03  0.33643454993E+03  0.17138163942E+03 0.  0.
        -24    2    5    5    0    0 -0.88058652114E+01 -0.32710179823E+01 -0.46544481554E+02  0.93729390797E+02  0.80811924339E+02 0.  0.
          5    1    3    3  501    0 -0.85658852065E+00  0.60510506058E+02 -0.49473480653E+02  0.78306898643E+02  0.47000000000E+01 0. -1.
        -11    1    4    4    0    0  0.27722458038E+02 -0.33329207583E+02 -0.20844197262E+03  0.21290238775E+03  0.00000000000E+00 0.  1.
         12    1    4    4    0    0  0.54191694826E+02  0.24443000978E+02 -0.93019243244E+02  0.11039374846E+03  0.00000000000E+00 0. -1.
         -5    1    5    5    0  502 -0.72251699132E+02 -0.48353281470E+02 -0.22655100179E+03  0.24270515913E+03  0.47000000000E+01 0.  1.
         11    1    6    6    0    0 -0.38471494983E+01  0.38199629694E+02 -0.30324693853E+02  0.48924424629E+02  0.00000000000E+00 0. -1.
        -12    1    6    6    0    0 -0.49587157131E+01 -0.41470647677E+02 -0.16219787701E+02  0.44804966168E+02  0.00000000000E+00 0.  1.
</event>
<event>
12    1  0.8798177E-003  0.1801442E+03  0.7818608E-02  0.1168280E+00
         21   -1    0    0  501  502  0.00000000000E+00  0.00000000000E+00  0.10542912653E+04  0.10542912653E+04  0.00000000000E+00 0.  1.
         21   -1    0    0  502  503 -0.00000000000E+00 -0.00000000000E+00 -0.75678975953E+02  0.75678975953E+02  0.00000000000E+00 0.  1.
          6    2    1    2  501    0 -0.38161587287E+02 -0.21479050712E+02  0.92517234880E+03  0.94206663235E+03  0.17212788396E+03 0.  0.
         24    2    3    3    0    0 -0.74791263815E+02 -0.43077507949E+01  0.84693964115E+03  0.85386780419E+03  0.78556867361E+02 0.  0.
         -6    2    1    2    0  503  0.38161587287E+02  0.21479050712E+02  0.53439940546E+02  0.18790360890E+03  0.17474061528E+03 0.  0.
        -24    2    5    5    0    0  0.51384522742E+02  0.30835483451E+02  0.98154985005E+02  0.14011329549E+03  0.80038355015E+02 0.  0.
          5    1    3    3  501    0  0.36629676528E+02 -0.17171299917E+02  0.78232707645E+02  0.88198828161E+02  0.47000000000E+01 0. -1.
        -13    1    4    4    0    0 -0.49147465785E+02  0.35171577354E+02  0.53356441106E+03  0.53697625086E+03  0.00000000000E+00 0.  1.
         14    1    4    4    0    0 -0.25643798029E+02 -0.39479328149E+02  0.31337523010E+03  0.31689155332E+03  0.00000000000E+00 0. -1.
         -5    1    5    5    0  503 -0.13222935456E+02 -0.93564327385E+01 -0.44715044458E+02  0.47790313418E+02  0.47000000000E+01 0.  1.
         11    1    6    6    0    0  0.65382669038E+02  0.15345201133E+02  0.39640103512E+02  0.77985296145E+02  0.00000000000E+00 0. -1.
        -12    1    6    6    0    0 -0.13998146296E+02  0.15490282317E+02  0.58514881493E+02  0.62127999341E+02  0.00000000000E+00 0.  1.
</event>
<event>
12    1  0.8798177E-003  0.1733420E+03  0.7818608E-02  0.1174520E+00
         21   -1    0    0  503  502  0.00000000000E+00  0.00000000000E+00  0.10939857133E+03  0.10939857133E+03  0.00000000000E+00 0. -1.
         21   -1    0    0  501  503 -0.00000000000E+00 -0.00000000000E+00 -0.27609868654E+03  0.27609868654E+03  0.00000000000E+00 0. -1.
          6    2    1    2  501    0 -0.10288059361E+02 -0.46907827588E+01 -0.10021353234E+03  0.19984193739E+03  0.17252883894E+03 0.  0.
         24    2    3    3    0    0  0.54170626749E+02 -0.15371010428E+02 -0.31182550568E+02  0.10467704931E+03  0.82548218805E+02 0.  0.
         -6    2    1    2    0  502  0.10288059361E+02  0.46907827588E+01 -0.66486582870E+02  0.18565532049E+03  0.17297278606E+03 0.  0.
        -24    2    5    5    0    0  0.58519751414E+02 -0.37083930613E+02 -0.52747213171E+02  0.12021616497E+03  0.82884730842E+02 0.  0.
          5    1    3    3  501    0 -0.64458686110E+02  0.10680227669E+02 -0.69030981776E+02  0.95164888079E+02  0.47000000000E+01 0. -1.
        -11    1    4    4    0    0  0.22486347101E+01  0.30350507896E+02 -0.13345490585E+02  0.33231187258E+02  0.00000000000E+00 0.  1.
         12    1    4    4    0    0  0.51921992039E+02 -0.45721518324E+02 -0.17837059983E+02  0.71445862050E+02  0.00000000000E+00 0. -1.
         -5    1    5    5    0  502 -0.48231692054E+02  0.41774713372E+02 -0.13739369699E+02  0.65439155522E+02  0.47000000000E+01 0.  1.
         13    1    6    6    0    0  0.26942357992E+02 -0.54085762347E+02 -0.51833397223E+01  0.60646742315E+02  0.00000000000E+00 0. -1.
        -14    1    6    6    0    0  0.31577393423E+02  0.17001831733E+02 -0.47563873448E+02  0.59569422652E+02  0.00000000000E+00 0.  1.
</event>
<event>
12    1  0.8798177E-003  0.2384972E+03  0.7818608E-02  0.1120866E+00
         21   -1    0    0  503  502  0.00000000000E+00  0.00000000000E+00  0.53059802697E+03  0.53059802697E+03  0.00000000000E+00 0.  1.
         21   -1    0    0  501  503 -0.00000000000E+00 -0.00000000000E+00 -0.12216645397E+03  0.12216645397E+03  0.00000000000E+00 0. -1.
          6    2    1    2  501    0  0.16249939412E+03 -0.31233128441E+02  0.89137342044E+02  0.25422999425E+03  0.17118955234E+03 0.  0.
         24    2    3    3    0    0  0.13623856098E+03 -0.29649375069E+01  0.12849677321E+01  0.15816308191E+03  0.80275606412E+02 0.  0.
         -6    2    1    2    0  502 -0.16249939412E+03  0.31233128441E+02  0.31929423096E+03  0.39853448669E+03  0.17175380567E+03 0.  0.
        -24    2    5    5    0    0 -0.63749567257E+02 -0.24855350684E+02  0.92184063018E+02  0.14456881150E+03  0.87866057159E+02 0.  0.
          5    1    3    3  501    0  0.26260833139E+02 -0.28268190934E+02  0.87852374312E+02  0.96066912348E+02  0.47000000000E+01 0. -1.
        -11    1    4    4    0    0  0.45840930855E+02  0.16465400503E+02 -0.33779594695E+02  0.59275301544E+02  0.00000000000E+00 0.  1.
         12    1    4    4    0    0  0.90397630122E+02 -0.19430338010E+02  0.35064562427E+02  0.98887780363E+02  0.00000000000E+00 0. -1.
         -5    1    5    5    0  502 -0.98749826859E+02  0.56088479125E+02  0.22711016794E+03  0.25396567519E+03  0.47000000000E+01 0.  1.
         13    1    6    6    0    0  0.14709037417E+02  0.12483251078E+02  0.20958324189E+01  0.19405665480E+02  0.00000000000E+00 0. -1.
        -14    1    6    6    0    0 -0.78458604674E+02 -0.37338601762E+02  0.90088230599E+02  0.12516314602E+03  0.00000000000E+00 0.  1.
</event>
<event>
12    1  0.8798177E-003  0.1936334E+03  0.7818608E-02  0.1155368E+00
         21   -1    0    0  503  502  0.00000000000E+00  0.00000000000E+00  0.23305268057E+03  0.23305268057E+03  0.00000000000E+00 0. -1.
         21   -1    0    0  501  503 -0.00000000000E+00 -0.00000000000E+00 -0.22764397673E+03  0.22764397673E+03  0.00000000000E+00 0. -1.
          6    2    1    2  501    0  0.89737688797E+01  0.87397642689E+02 -0.12253989132E+03  0.22915040888E+03  0.17255436375E+03 0.  0.
         24    2    3    3    0    0  0.34800617592E+02 -0.52860562815E+00 -0.14464803834E+02  0.87374650048E+02  0.78827257420E+02 0.  0.
         -6    2    1    2    0  502 -0.89737688797E+01 -0.87397642689E+02  0.12794859516E+03  0.23154624842E+03  0.17182533480E+03 0.  0.
        -24    2    5    5    0    0 -0.42867687482E+02 -0.34821161705E+02  0.93352327725E+01  0.97366131386E+02  0.79642105934E+02 0.  0.
          5    1    3    3  501    0 -0.25826848712E+02  0.87926248317E+02 -0.10807508748E+03  0.14177575883E+03  0.47000000000E+01 0. -1.
        -11    1    4    4    0    0 -0.43054126522E+01 -0.33830668316E+02 -0.11243965686E+02  0.35909294914E+02  0.00000000000E+00 0.  1.
         12    1    4    4    0    0  0.39106030244E+02  0.33302062688E+02 -0.32208381479E+01  0.51465355134E+02  0.00000000000E+00 0. -1.
         -5    1    5    5    0  502  0.33893918602E+02 -0.52576480984E+02  0.11861336238E+03  0.13418011703E+03  0.47000000000E+01 0.  1.
         11    1    6    6    0    0 -0.44160333012E+02 -0.54561312865E+02  0.22374603181E+02  0.73672890135E+02  0.00000000000E+00 0. -1.
        -12    1    6    6    0    0  0.12926455304E+01  0.19740151161E+02 -0.13039370408E+02  0.23693241251E+02  0.00000000000E+00 0.  1.
</event>
<event>
12    1  0.8798177E-003  0.2115567E+03  0.7818608E-02  0.1141065E+00
         21   -1    0    0  503  502  0.00000000000E+00  0.00000000000E+00  0.15472797620E+03  0.15472797620E+03  0.00000000000E+00 0.  1.
         21   -1    0    0  501  503 -0.00000000000E+00 -0.00000000000E+00 -0.33029738185E+03  0.33029738185E+03  0.00000000000E+00 0. -1.
          6    2    1    2  501    0 -0.67499310243E+02 -0.95163202005E+02 -0.17897369686E+03  0.27710612826E+03  0.17647671305E+03 0.  0.
         24    2    3    3    0    0 -0.85022094016E+02 -0.57779806088E+02 -0.19408332502E+03  0.23289123139E+03  0.77477262120E+02 0.  0.
         -6    2    1    2    0  502  0.67499310243E+02  0.95163202005E+02  0.34042912137E+01  0.20791922979E+03  0.17206575783E+03 0.  0.
        -24    2    5    5    0    0  0.93787103269E+02  0.10836976636E+03  0.31860383459E+02  0.16672092169E+03  0.78998447412E+02 0.  0.
          5    1    3    3  501    0  0.17522783773E+02 -0.37383395917E+02  0.15109628160E+02  0.44214896863E+02  0.47000000000E+01 0. -1.
        -11    1    4    4    0    0 -0.84471474914E+01 -0.16796312469E+02  0.15303714967E+01  0.18862991550E+02  0.00000000000E+00 0.  1.
         12    1    4    4    0    0 -0.76574946525E+02 -0.40983493619E+02 -0.19561369652E+03  0.21402823984E+03  0.00000000000E+00 0. -1.
         -5    1    5    5    0  502 -0.26287793026E+02 -0.13206564356E+02 -0.28456092245E+02  0.41198308098E+02  0.47000000000E+01 0.  1.
         11    1    6    6    0    0  0.80112375139E+02  0.37852340654E+02  0.11812544101E+01  0.88612570809E+02  0.00000000000E+00 0. -1.
        -12    1    6    6    0    0  0.13674728130E+02  0.70517425707E+02  0.30679129049E+02  0.78108350879E+02  0.00000000000E+00 0.  1.
</event>
<event>
12    1  0.8798177E-003  0.1860767E+03  0.7818608E-02  0.1162119E+00
         21   -1    0    0  501  502  0.00000000000E+00  0.00000000000E+00  0.29933506857E+03  0.29933506857E+03  0.00000000000E+00 0. -1.
         21   -1    0    0  502  503 -0.00000000000E+00 -0.00000000000E+00 -0.11884348612E+03  0.11884348612E+03  0.00000000000E+00 0. -1.
          6    2    1    2  501    0  0.68562846998E+02  0.15824841329E+02  0.12549036752E+03  0.22443792614E+03  0.17225928352E+03 0.  0.
         24    2    3    3    0    0  0.84870179233E+02  0.65867031765E+02  0.84143282121E+02  0.15734231243E+03  0.78326867415E+02 0.  0.
         -6    2    1    2    0  503 -0.68562846998E+02 -0.15824841329E+02  0.55001214930E+02  0.19374062855E+03  0.17192733324E+03 0.  0.
        -24    2    5    5    0    0 -0.39848243598E+01 -0.60280555946E+02  0.67801139206E+01  0.10157775016E+03  0.81378407045E+02 0.  0.
          5    1    3    3  501    0 -0.16307332235E+02 -0.50042190436E+02  0.41347085394E+02  0.67095613708E+02  0.47000000000E+01 0. -1.
        -13    1    4    4    0    0  0.44169626835E+02  0.75276470219E+02  0.73822644634E+02  0.11431222929E+03  0.00000000000E+00 0.  1.
         14    1    4    4    0    0  0.40700552398E+02 -0.94094384544E+01  0.10320637487E+02  0.43030083147E+02  0.00000000000E+00 0. -1.
         -5    1    5    5    0  503 -0.64578022638E+02  0.44455714616E+02  0.48221101009E+02  0.92162878386E+02  0.47000000000E+01 0.  1.
         11    1    6    6    0    0 -0.17086142454E+02  0.12294739584E+02 -0.13605138766E+02  0.25063852183E+02  0.00000000000E+00 0. -1.
        -12    1    6    6    0    0  0.13101318094E+02 -0.72575295530E+02  0.20385252686E+02  0.76513897980E+02  0.00000000000E+00 0.  1.
</event>
<event>
12    1  0.8798177E-003  0.2125932E+03  0.7818608E-02  0.1139541E+00
         21   -1    0    0  501  502  0.00000000000E+00  0.00000000000E+00  0.61624859370E+03  0.61624859370E+03  0.00000000000E+00 0. -1.
         21   -1    0    0  502  503 -0.00000000000E+00 -0.00000000000E+00 -0.75556003453E+02  0.75556003453E+02  0.00000000000E+00 0. -1.
          6    2    1    2  501    0  0.47419744145E+02 -0.11642936494E+03  0.21079164721E+03  0.29933739493E+03  0.17136314748E+03 0.  0.
         24    2    3    3    0    0  0.26449904546E+02  0.20821746833E+02  0.87669171682E+02  0.11370648200E+03  0.64110356361E+02 0.  0.
         -6    2    1    2    0  503 -0.47419744145E+02  0.11642936494E+03  0.32990094303E+03  0.39246720222E+03  0.17143932878E+03 0.  0.
        -24    2    5    5    0    0  0.24763204096E+02  0.29948119984E+02  0.21154621951E+03  0.22900676564E+03  0.78626900961E+02 0.  0.
          5    1    3    3  501    0  0.20969839600E+02 -0.13725111177E+03  0.12312247553E+03  0.18563091293E+03  0.47000000000E+01 0. -1.
        -13    1    4    4    0    0  0.31871138106E+01 -0.32045450280E+01  0.79038977668E+02  0.79168092020E+02  0.00000000000E+00 0.  1.
         14    1    4    4    0    0  0.23262790735E+02  0.24026291861E+02  0.86301940137E+01  0.34538389976E+02  0.00000000000E+00 0. -1.
         -5    1    5    5    0  503 -0.72182948241E+02  0.86481244955E+02  0.11835472352E+03  0.16346043657E+03  0.47000000000E+01 0.  1.
         13    1    6    6    0    0  0.67266520301E+01 -0.15405828763E+02  0.14763752475E+03  0.14859147392E+03  0.00000000000E+00 0. -1.
        -14    1    6    6    0    0  0.18036552066E+02  0.45353948747E+02  0.63908694759E+02  0.80415291725E+02  0.00000000000E+00 0.  1.
</event>
<event>
12    1  0.8798177E-003  0.2560596E+03  0.7818608E-02  0.1109581E+00
         21   -1    0    0  501  502  0.00000000000E+00  0.00000000000E+00  0.39002359648E+03  0.39002359648E+03  0.00000000000E+00 0.  1.
         21   -1    0    0  502  503 -0.00000000000E+00 -0.00000000000E+00 -0.17688807491E+03  0.17688807491E+03  0.00000000000E+00 0.  1.
          6    2    1    2  501    0 -0.12809839642E+03  0.14015784755E+03  0.17037803783E+03  0.30730677033E+03  0.17133404191E+03 0.  0.
         24    2    3    3    0    0 -0.20967686435E+01  0.39285790599E+02  0.15412528607E+02  0.83503327264E+02  0.72024230953E+02 0.  0.
         -6    2    1    2    0  503  0.12809839642E+03 -0.14015784755E+03  0.42757483734E+02  0.25960490106E+03  0.17179371596E+03 0.  0.
        -24    2    5    5    0    0  0.10175754068E+03 -0.10645222444E+03 -0.33931924247E+02  0.17166591649E+03  0.81431801088E+02 0.  0.
          5    1    3    3  501    0 -0.12600162778E+03  0.10087205695E+03  0.15496550922E+03  0.22380344306E+03  0.47000000000E+01 0. -1.
        -13    1    4    4    0    0 -0.35491979140E+02  0.91468069342E+01  0.11186752639E+02  0.38320857179E+02  0.00000000000E+00 0.  1.
         14    1    4    4    0    0  0.33395210496E+02  0.30138983665E+02  0.42257759682E+01  0.45182470085E+02  0.00000000000E+00 0. -1.
         -5    1    5    5    0  503  0.26340855745E+02 -0.33705623107E+02  0.76689407981E+02  0.87938984569E+02  0.47000000000E+01 0.  1.
         11    1    6    6    0    0  0.49533573763E+01  0.12550507403E+02 -0.90770233499E+01  0.16261713878E+02  0.00000000000E+00 0. -1.
        -12    1    6    6    0    0  0.96804183302E+02 -0.11900273185E+03 -0.24854900897E+02  0.15540420262E+03  0.00000000000E+00 0.  1.
</event>
<event>
12    1  0.8798177E-003  0.3934887E+03  0.7818608E-02  0.1046088E+00
         21   -1    0    0  503  502  0.00000000000E+00  0.00000000000E+00  0.57210735989E+03  0.57210735989E+03  0.00000000000E+00 0. -1.
         21   -1    0    0  501  503 -0.00000000000E+00 -0.00000000000E+00 -0.27757310498E+03  0.27757310498E+03  0.00000000000E+00 0.  1.
          6    2    1    2  501    0 -0.22004579101E+03 -0.27691114824E+03  0.78942959627E+02  0.40100134570E+03  0.17166873394E+03 0.  0.
         24    2    3    3    0    0 -0.10274079255E+03 -0.22351233998E+03  0.83603617029E+02  0.27194435396E+03  0.80316438504E+02 0.  0.
         -6    2    1    2    0  502  0.22004579101E+03  0.27691114824E+03  0.21559129529E+03  0.44867911918E+03  0.17243378792E+03 0.  0.
        -24    2    5    5    0    0  0.11263869385E+03  0.22797875194E+03  0.19258444340E+03  0.32833765017E+03  0.77814253128E+02 0.  0.
          5    1    3    3  501    0 -0.11730499846E+03 -0.53398808265E+02 -0.46606574012E+01  0.12905699174E+03  0.47000000000E+01 0. -1.
        -11    1    4    4    0    0 -0.83463322014E+01 -0.26697685250E+02 -0.15766702229E+02  0.32109446556E+02  0.00000000000E+00 0.  1.
         12    1    4    4    0    0 -0.94394460348E+02 -0.19681465473E+03  0.99370319257E+02  0.23983490740E+03  0.00000000000E+00 0. -1.
         -5    1    5    5    0  502  0.10740709716E+03  0.48932396302E+02  0.23006851883E+02  0.12034146900E+03  0.47000000000E+01 0.  1.
         11    1    6    6    0    0  0.23570890156E+02  0.75599445009E+02  0.10439445727E+03  0.13103078133E+03  0.00000000000E+00 0. -1.
        -12    1    6    6    0    0  0.89067803697E+02  0.15237930693E+03  0.88189986135E+02  0.19730686884E+03  0.00000000000E+00 0.  1.
</event>
<event>
12    1  0.8798177E-003  0.1769723E+03  0.7818608E-02  0.1171464E+00
         21   -1    0    0  501  502  0.00000000000E+00  0.00000000000E+00  0.92198040204E+02  0.92198040204E+02  0.00000000000E+00 0. -1.
         21   -1    0    0  502  503 -0.00000000000E+00 -0.00000000000E+00 -0.42019249835E+03  0.42019249835E+03  0.00000000000E+00 0. -1.
          6    2    1    2  501    0 -0.23577900952E+02 -0.21141335386E+02 -0.47159111596E+02  0.18044523538E+03  0.17127062705E+03 0.  0.
         24    2    3    3    0    0 -0.70526177565E+02 -0.45977882073E+02 -0.52790010489E+02  0.12682815088E+03  0.78807913857E+02 0.  0.
         -6    2    1    2    0  503  0.23577900952E+02  0.21141335386E+02 -0.28083534655E+03  0.33194530317E+03  0.17411582051E+03 0.  0.
        -24    2    5    5    0    0  0.68847798175E+02 -0.22250224352E+02 -0.21613531540E+03  0.24172127598E+03  0.80496017935E+02 0.  0.
          5    1    3    3  501    0  0.46948276612E+02  0.24836546687E+02  0.56308988922E+01  0.53617084502E+02  0.47000000000E+01 0. -1.
        -11    1    4    4    0    0  0.11468166008E+02 -0.13046794395E+02 -0.31448835801E+02  0.35927245216E+02  0.00000000000E+00 0.  1.
         12    1    4    4    0    0 -0.81994343572E+02 -0.32931087678E+02 -0.21341174687E+02  0.90900905664E+02  0.00000000000E+00 0. -1.
         -5    1    5    5    0  503 -0.45269897223E+02  0.43391559738E+02 -0.64700031155E+02  0.90224027191E+02  0.47000000000E+01 0.  1.
         11    1    6    6    0    0  0.27450319163E+02  0.30424821357E+02 -0.74011214087E+02  0.84598165390E+02  0.00000000000E+00 0. -1.
        -12    1    6    6    0    0  0.41397479011E+02 -0.52675045708E+02 -0.14212410131E+03  0.15712311059E+03  0.00000000000E+00 0.  1.
</event>
<event>
12    1  0.8798177E-003  0.1956398E+03  0.7818608E-02  0.1153845E+00
         21   -1    0    0  501  502  0.00000000000E+00  0.00000000000E+00  0.80920444207E+03  0.80920444207E+03  0.00000000000E+00 0. -1.
         21   -1    0    0  502  503 -0.00000000000E+00 -0.00000000000E+00 -0.70258543544E+02  0.70258543544E+02  0.00000000000E+00 0. -1.
          6    2    1    2  501    0 -0.62389268046E+02 -0.68709195987E+02  0.62418754077E+03  0.65412921683E+03  0.17222535202E+03 0.  0.
         24    2    3    3    0    0  0.23314307169E+02  0.79161337336E+01  0.21671991465E+03  0.23072810642E+03  0.75244372512E+02 0.  0.
         -6    2    1    2    0  503  0.62389268046E+02  0.68709195987E+02  0.11475835775E+03  0.22533376878E+03  0.17027170140E+03 0.  0.
        -24    2    5    5    0    0 -0.22869988564E+02  0.61614662074E+02  0.34237878324E+02  0.10775353721E+03  0.78225248541E+02 0.  0.
          5    1    3    3  501    0 -0.85703575215E+02 -0.76625329721E+02  0.40746762612E+03  0.42340111041E+03  0.47000000000E+01 0. -1.
        -11    1    4    4    0    0 -0.17549135142E+02  0.26807579970E+02  0.64969074297E+02  0.72440314074E+02  0.00000000000E+00 0.  1.
         12    1    4    4    0    0  0.40863442311E+02 -0.18891446236E+02  0.15175084036E+03  0.15828779235E+03  0.00000000000E+00 0. -1.
         -5    1    5    5    0  503  0.85259256610E+02  0.70945339135E+01  0.80520479428E+02  0.11758023157E+03  0.47000000000E+01 0.  1.
         11    1    6    6    0    0  0.11077960780E+02  0.60283215401E+02  0.26285857661E+01  0.61348975031E+02  0.00000000000E+00 0. -1.
        -12    1    6    6    0    0 -0.33947949344E+02  0.13314466726E+01  0.31609292558E+02  0.46404562178E+02  0.00000000000E+00 0.  1.
</event>
<event>
12    1  0.8798177E-003  0.1974592E+03  0.7818608E-02  0.1153115E+00
         21   -1    0    0  501  502  0.00000000000E+00  0.00000000000E+00  0.33351208576E+03  0.33351208576E+03  0.00000000000E+00 0.  1.
         21   -1    0    0  502  503 -0.00000000000E+00 -0.00000000000E+00 -0.11854540326E+03  0.11854540326E+03  0.00000000000E+00 0.  1.
          6    2    1    2  501    0  0.52508247321E+02 -0.70324866572E+02  0.15498200517E+03  0.25101707953E+03  0.17688258647E+03 0.  0.
         24    2    3    3    0    0  0.10318869151E+03 -0.83259179392E+01  0.95558456101E+02  0.15118910130E+03  0.54858899489E+02 0.  0.
         -6    2    1    2    0  503 -0.52508247321E+02  0.70324866572E+02  0.59984677323E+02  0.20104040949E+03  0.17063523036E+03 0.  0.
        -24    2    5    5    0    0 -0.72532404845E+02  0.92774704509E+02  0.81233134172E+02  0.16391159283E+03  0.80000578927E+02 0.  0.
          5    1    3    3  501    0 -0.50680444189E+02 -0.61998948633E+02  0.59423549071E+02  0.99827978237E+02  0.47000000000E+01 0. -1.
        -11    1    4    4    0    0  0.22979201972E+02 -0.12252320589E+02  0.55806082460E+02  0.61583130178E+02  0.00000000000E+00 0.  1.
         12    1    4    4    0    0  0.80209489539E+02  0.39264026494E+01  0.39752373641E+02  0.89605971118E+02  0.00000000000E+00 0. -1.
         -5    1    5    5    0  503  0.20024157524E+02 -0.22449837937E+02 -0.21248456849E+02  0.37128816658E+02  0.47000000000E+01 0.  1.
         11    1    6    6    0    0 -0.24923635980E+02  0.79580351430E+02  0.78349747341E+02  0.11442422328E+03  0.00000000000E+00 0. -1.
        -12    1    6    6    0    0 -0.47608768865E+02  0.13194353079E+02  0.28833868310E+01  0.49487369557E+02  0.00000000000E+00 0.  1.
</event>
<event>
12    1  0.8798177E-003  0.3763449E+03  0.7818608E-02  0.1052316E+00
         21   -1    0    0  503  502  0.00000000000E+00  0.00000000000E+00  0.10325201735E+04  0.10325201735E+04  0.00000000000E+00 0. -1.
         21   -1    0    0  501  503 -0.00000000000E+00 -0.00000000000E+00 -0.13724129901E+03  0.13724129901E+03  0.00000000000E+00 0.  1.
          6    2    1    2  501    0 -0.21693261977E+02 -0.33296386429E+03  0.42788572617E+03  0.56968497447E+03  0.17354896411E+03 0.  0.
         24    2    3    3    0    0 -0.15405075171E+02 -0.15486486001E+03  0.99315514185E+02  0.19586781219E+03  0.65423140287E+02 0.  0.
         -6    2    1    2    0  502  0.21693261977E+02  0.33296386429E+03  0.46739314831E+03  0.60007649803E+03  0.17406871018E+03 0.  0.
        -24    2    5    5    0    0  0.81956560716E+02  0.20737729977E+03  0.28797781286E+03  0.37288582270E+03  0.79939938495E+02 0.  0.
          5    1    3    3  501    0 -0.62881868059E+01 -0.17809900428E+03  0.32857021198E+03  0.37381716229E+03  0.47000000000E+01 0. -1.
        -11    1    4    4    0    0 -0.99048256653E+01 -0.11935987922E+03  0.10526010506E+03  0.15945085781E+03  0.00000000000E+00 0.  1.
         12    1    4    4    0    0 -0.55002495060E+01 -0.35504980790E+02 -0.59445908710E+01  0.36416954377E+02  0.00000000000E+00 0. -1.
         -5    1    5    5    0  502 -0.60263298739E+02  0.12558656452E+03  0.17941533545E+03  0.22719067533E+03  0.47000000000E+01 0.  1.
         11    1    6    6    0    0  0.36341303889E+02  0.42308792630E+02  0.12317114322E+03  0.13521040945E+03  0.00000000000E+00 0. -1.
        -12    1    6    6    0    0  0.45615256828E+02  0.16506850714E+03  0.16480666965E+03  0.23767541325E+03  0.00000000000E+00 0.  1.
</event>
<event>
12    1  0.8798177E-003  0.2143581E+03  0.7818608E-02  0.1138173E+00
         21   -1    0    0  501  502  0.00000000000E+00  0.00000000000E+00  0.19270751416E+04  0.19270751416E+04  0.00000000000E+00 0. -1.
         21   -1    0    0  502  503 -0.00000000000E+00 -0.00000000000E+00 -0.26906060297E+02  0.26906060297E+02  0.00000000000E+00 0.  1.
          6    2    1    2  501    0 -0.10333399747E+03 -0.75105319385E+02  0.62024069966E+03  0.65623771565E+03  0.17213567292E+03 0.  0.
         24    2    3    3    0    0 -0.30922683669E+02  0.84955419240E+01  0.40659053562E+03  0.41561148065E+03  0.79929047216E+02 0.  0.
         -6    2    1    2    0  503  0.10333399747E+03  0.75105319385E+02  0.12799283817E+04  0.12977434863E+04  0.17205455511E+03 0.  0.
        -24    2    5    5    0    0  0.12550190507E+03  0.97574079003E+02  0.11697699414E+04  0.11830559401E+04  0.77383541681E+02 0.  0.
          5    1    3    3  501    0 -0.72411313800E+02 -0.83600861309E+02  0.21365016404E+03  0.24062623500E+03  0.47000000000E+01 0. -1.
        -11    1    4    4    0    0 -0.42180198754E+02 -0.80710398944E+01  0.10620933066E+03  0.11456322609E+03  0.00000000000E+00 0.  1.
         12    1    4    4    0    0  0.11257515085E+02  0.16566581818E+02  0.30038120496E+03  0.30104825456E+03  0.00000000000E+00 0. -1.
         -5    1    5    5    0  503 -0.22167907601E+02 -0.22468759618E+02  0.11015844025E+03  0.11468754616E+03  0.47000000000E+01 0.  1.
         13    1    6    6    0    0  0.24751275945E+02 -0.12316653019E+02  0.17109316612E+03  0.17331242626E+03  0.00000000000E+00 0. -1.
        -14    1    6    6    0    0  0.10075062913E+03  0.10989073202E+03  0.99867677529E+03  0.10097435138E+04  0.00000000000E+00 0.  1.
</event>
<event>
12    1  0.8798177E-003  0.1892789E+03  0.7818608E-02  0.1159418E+00
         21   -1    0    0  501  502  0.00000000000E+00  0.00000000000E+00  0.68202842267E+03  0.68202842267E+03  0.00000000000E+00 0. -1.
         21   -1    0    0  502  503 -0.00000000000E+00 -0.00000000000E+00 -0.55532713649E+02  0.55532713649E+02  0.00000000000E+00 0.  1.
          6    2    1    2  501    0 -0.47358862197E+02  0.61836396064E+02  0.40311152430E+03  0.44476940502E+03  0.17103894560E+03 0.  0.
         24    2    3    3    0    0  0.88511097052E+01 -0.24124407870E+02  0.20246862452E+03  0.21931767185E+03  0.80289277465E+02 0.  0.
         -6    2    1    2    0  503  0.47358862197E+02 -0.61836396064E+02  0.22338418472E+03  0.29279173130E+03  0.17251058584E+03 0.  0.
        -24    2    5    5    0    0  0.89798389908E+02 -0.89975457227E+01  0.12726051185E+03  0.17508485765E+03  0.79465482085E+02 0.  0.
          5    1    3    3  501    0 -0.56209971902E+02  0.85960803934E+02  0.20064289978E+03  0.22545173316E+03  0.47000000000E+01 0. -1.
        -13    1    4    4    0    0 -0.22236376532E+02 -0.42492237613E+02  0.10733958351E+03  0.11756629146E+03  0.00000000000E+00 0.  1.
         14    1    4    4    0    0  0.31087486237E+02  0.18367829744E+02  0.95129041007E+02  0.10175138040E+03  0.00000000000E+00 0. -1.
         -5    1    5    5    0  503 -0.42439527712E+02 -0.52838850341E+02  0.96123672871E+02  0.11770687365E+03  0.47000000000E+01 0.  1.
         13    1    6    6    0    0  0.30702147448E+01 -0.23288477722E+02  0.59909975833E+02  0.64350482652E+02  0.00000000000E+00 0. -1.
        -14    1    6    6    0    0  0.86728175163E+02  0.14290932000E+02  0.67350536018E+02  0.11073437500E+03  0.00000000000E+00 0.  1.
</event>
<event>
12    1  0.8798177E-003  0.2579242E+03  0.7818608E-02  0.1108537E+00
         21   -1    0    0  503  502  0.00000000000E+00  0.00000000000E+00  0.44827768899E+03  0.44827768899E+03  0.00000000000E+00 0.  1.
         21   -1    0    0  501  503 -0.00000000000E+00 -0.00000000000E+00 -0.22091362134E+03  0.22091362134E+03  0.00000000000E+00 0.  1.
          6    2    1    2  501    0  0.36459018920E+01 -0.19061125954E+03 -0.78577352314E+02  0.26962807271E+03  0.17372090385E+03 0.  0.
         24    2    3    3    0    0 -0.40972699246E+02 -0.92772774703E+02  0.10150200400E+02  0.13013664899E+03  0.80913355090E+02 0.  0.
         -6    2    1    2    0  502 -0.36459018920E+01  0.19061125954E+03  0.30594141997E+03  0.39956323762E+03  0.17235046719E+03 0.  0.
        -24    2    5    5    0    0 -0.17903335857E+02  0.19206322448E+02  0.10329492196E+03  0.13372377472E+03  0.80763820887E+02 0.  0.
          5    1    3    3  501    0  0.44618601138E+02 -0.97838484837E+02 -0.88727552714E+02  0.13949142373E+03  0.47000000000E+01 0. -1.
        -11    1    4    4    0    0  0.23019237736E+02 -0.29627954832E+02  0.14269051719E+02  0.40141086811E+02  0.00000000000E+00 0.  1.
         12    1    4    4    0    0 -0.63991936981E+02 -0.63144819872E+02 -0.41188513186E+01  0.89995562176E+02  0.00000000000E+00 0. -1.
         -5    1    5    5    0  502  0.14257433965E+02  0.17140493709E+03  0.20264649800E+03  0.26583946290E+03  0.47000000000E+01 0.  1.
         11    1    6    6    0    0  0.26986602482E+02  0.20482103682E+02  0.70169942735E+02  0.77920563064E+02  0.00000000000E+00 0. -1.
        -12    1    6    6    0    0 -0.44889938339E+02 -0.12757812343E+01  0.33124979228E+02  0.55803211652E+02  0.00000000000E+00 0.  1.
</event>
<event>
12    1  0.8798177E-003  0.2095710E+03  0.7818608E-02  0.1147896E+00
         21   -1    0    0  503  502  0.00000000000E+00  0.00000000000E+00  0.63828531381E+03  0.63828531381E+03  0.00000000000E+00 0. -1.
         21   -1    0    0  501  503 -0.00000000000E+00 -0.00000000000E+00 -0.70250563058E+02  0.70250563058E+02  0.00000000000E+00 0. -1.
          6    2    1    2  501    0 -0.78085884952E+02 -0.24201017670E+02  0.13123391932E+03  0.22406195793E+03  0.16216758223E+03 0.  0.
         24    2    3    3    0    0 -0.10560938324E+03  0.58448910016E+01  0.12779650954E+03  0.18290123185E+03  0.77028619238E+02 0.  0.
         -6    2    1    2    0  502  0.78085884952E+02  0.24201017670E+02  0.43680083143E+03  0.48447391893E+03  0.19296869463E+03 0.  0.
        -24    2    5    5    0    0  0.13746097024E+02 -0.29554719812E+02  0.36196429414E+03  0.37199332089E+03  0.79362736270E+02 0.  0.
          5    1    3    3  501    0  0.27523498284E+02 -0.30045908672E+02  0.34374097792E+01  0.41160726083E+02  0.47000000000E+01 0. -1.
        -11    1    4    4    0    0  0.19834596816E+01  0.21400874465E+02  0.28263217037E+02  0.35506914502E+02  0.00000000000E+00 0.  1.
         12    1    4    4    0    0 -0.10759284292E+03 -0.15555983464E+02  0.99533292504E+02  0.14739431734E+03  0.00000000000E+00 0. -1.
         -5    1    5    5    0  502  0.64339787928E+02  0.53755737482E+02  0.74836537286E+02  0.11248059804E+03  0.47000000000E+01 0.  1.
         13    1    6    6    0    0 -0.27687369753E+01  0.19661688430E+02  0.21894837241E+03  0.21984685050E+03  0.00000000000E+00 0. -1.
        -14    1    6    6    0    0  0.16514833999E+02 -0.49216408242E+02  0.14301592174E+03  0.15214647039E+03  0.00000000000E+00 0.  1.
</event>
<event>
12    1  0.8798177E-003  0.1825781E+03  0.7818608E-02  0.1165719E+00
         21   -1    0    0  503  502  0.00000000000E+00  0.00000000000E+00  0.21740473227E+03  0.21740473227E+03  0.00000000000E+00 0.  1.
         21   -1    0    0  501  503 -0.00000000000E+00 -0.00000000000E+00 -0.21243103186E+03  0.21243103186E+03  0.00000000000E+00 0.  1.
          6    2    1    2  501    0  0.30097757239E+02  0.49357266162E+02 -0.11216198390E+03  0.21427802130E+03  0.17318413631E+03 0.  0.
         24    2    3    3    0    0 -0.16835243520E+02 -0.27885589494E+02 -0.23487760795E+02  0.87572168429E+02  0.77821451094E+02 0.  0.
         -6    2    1    2    0  502 -0.30097757239E+02 -0.49357266162E+02  0.11713568430E+03  0.21555774282E+03  0.17147115571E+03 0.  0.
        -24    2    5    5    0    0  0.20358947699E+02  0.24991489836E+02  0.35166213979E+02  0.93842087889E+02  0.80812211565E+02 0.  0.
          5    1    3    3  501    0  0.46933000759E+02  0.77242855656E+02 -0.88674223100E+02  0.12670585287E+03  0.47000000000E+01 0. -1.
        -13    1    4    4    0    0 -0.42942633356E+02 -0.19847504949E+02 -0.34047160342E+02  0.58285524272E+02  0.00000000000E+00 0.  1.
         14    1    4    4    0    0  0.26107389836E+02 -0.80380845446E+01  0.10559399547E+02  0.29286644157E+02  0.00000000000E+00 0. -1.
         -5    1    5    5    0  502 -0.50456704939E+02 -0.74348755998E+02  0.81969470321E+02  0.12171565494E+03  0.47000000000E+01 0.  1.
         13    1    6    6    0    0 -0.28628191954E+02  0.24865393017E+02  0.17550749638E+02  0.41783848044E+02  0.00000000000E+00 0. -1.
        -14    1    6    6    0    0  0.48987139653E+02  0.12609681839E+00  0.17615464341E+02  0.52058239845E+02  0.00000000000E+00 0.  1.
</event>
<event>
12    1  0.8798177E-003  0.1904884E+03  0.7818608E-02  0.1158366E+00
         21   -1    0    0  501  502  0.00000000000E+00  0.00000000000E+00  0.49499288303E+02  0.49499288303E+02  0.00000000000E+00 0. -1.
         21   -1    0    0  502  503 -0.00000000000E+00 -0.00000000000E+00 -0.73300752526E+03  0.73300752526E+03  0.00000000000E+00 0.  1.
          6    2    1    2  501    0 -0.34567598755E+02  0.71447911872E+02 -0.30826235940E+03  0.36236931222E+03  0.17316498844E+03 0.  0.
         24    2    3    3    0    0 -0.28430995731E+02 -0.57564400046E+01 -0.25429528951E+03  0.26785632646E+03  0.78990247725E+02 0.  0.
         -6    2    1    2    0  503  0.34567598755E+02 -0.71447911872E+02 -0.37524587756E+03  0.42013750135E+03  0.17148273504E+03 0.  0.
        -24    2    5    5    0    0  0.75268012183E+02 -0.85399157761E+02 -0.22069926490E+03  0.25964480245E+03  0.75821950030E+02 0.  0.
          5    1    3    3  501    0 -0.61366030236E+01  0.77204351876E+02 -0.53967069886E+02  0.94512985761E+02  0.47000000000E+01 0. -1.
        -11    1    4    4    0    0 -0.51785324296E+01  0.35253444803E+02 -0.86168147070E+02  0.93244689597E+02  0.00000000000E+00 0.  1.
         12    1    4    4    0    0 -0.23252463302E+02 -0.41009884807E+02 -0.16812714244E+03  0.17461163686E+03  0.00000000000E+00 0. -1.
         -5    1    5    5    0  503 -0.40700413429E+02  0.13951245889E+02 -0.15454661266E+03  0.16049269890E+03  0.47000000000E+01 0.  1.
         11    1    6    6    0    0  0.86557136266E+02 -0.78055372659E+02 -0.21589206768E+03  0.24534498961E+03  0.00000000000E+00 0. -1.
        -12    1    6    6    0    0 -0.11289124082E+02 -0.73437851018E+01 -0.48071972249E+01  0.14299812842E+02  0.00000000000E+00 0.  1.
</event>
<event>
12    1  0.8798177E-003  0.1822056E+03  0.7818608E-02  0.1165992E+00
         21   -1    0    0  501  502  0.00000000000E+00  0.00000000000E+00  0.77608302266E+02  0.77608302266E+02  0.00000000000E+00 0.  1.
         21   -1    0    0  502  503 -0.00000000000E+00 -0.00000000000E+00 -0.47761275180E+03  0.47761275180E+03  0.00000000000E+00 0.  1.
          6    2    1    2  501    0  0.26701345901E+02 -0.52993255846E+02 -0.10703449110E+03  0.21021339159E+03  0.17091530265E+03 0.  0.
         24    2    3    3    0    0 -0.40909813906E+02  0.31902904694E+01 -0.36299985816E+02  0.97282793233E+02  0.80389439991E+02 0.  0.
         -6    2    1    2    0  503 -0.26701345901E+02  0.52993255846E+02 -0.29296995843E+03  0.34500766248E+03  0.17227200465E+03 0.  0.
        -24    2    5    5    0    0 -0.78290488525E+02  0.33064028216E+01 -0.18469531130E+03  0.21510111064E+03  0.77561568362E+02 0.  0.
          5    1    3    3  501    0  0.67611159806E+02 -0.56183546315E+02 -0.70734505288E+02  0.11293059836E+03  0.47000000000E+01 0. -1.
        -11    1    4    4    0    0  0.79244525242E+01  0.32381472731E+02 -0.14535178779E+02  0.36367954935E+02  0.00000000000E+00 0.  1.
         12    1    4    4    0    0 -0.48834266430E+02 -0.29191182261E+02 -0.21764807037E+02  0.60914838298E+02  0.00000000000E+00 0. -1.
         -5    1    5    5    0  503  0.51589142624E+02  0.49686853024E+02 -0.10827464713E+03  0.12990655184E+03  0.47000000000E+01 0.  1.
         13    1    6    6    0    0 -0.49871005768E+02 -0.23059324578E+02 -0.47812201320E+02  0.72834444196E+02  0.00000000000E+00 0. -1.
        -14    1    6    6    0    0 -0.28419482757E+02  0.26365727400E+02 -0.13688310998E+03  0.14226666644E+03  0.00000000000E+00 0.  1.
</event>
<event>
12    1  0.8798177E-003  0.1787177E+03  0.7818608E-02  0.1169313E+00
         21   -1    0    0  501  502  0.00000000000E+00  0.00000000000E+00  0.44270959798E+02  0.44270959798E+02  0.00000000000E+00 0.  1.
         21   -1    0    0  502  503 -0.00000000000E+00 -0.00000000000E+00 -0.75328971883E+03  0.75328971883E+03  0.00000000000E+00 0. -1.
          6    2    1    2  501    0  0.14885228406E+01  0.53087645671E+02 -0.26613090077E+03  0.31997335242E+03  0.16951924992E+03 0.  0.
         24    2    3    3    0    0 -0.52814306140E+02  0.24266182957E+02 -0.88782224242E+02  0.13221255509E+03  0.78864933995E+02 0.  0.
         -6    2    1    2    0  503 -0.14885228406E+01 -0.53087645671E+02 -0.44288785827E+03  0.47758732621E+03  0.17064432406E+03 0.  0.
        -24    2    5    5    0    0  0.61782286811E+02 -0.66712870518E+01 -0.25690550496E+03  0.27567348457E+03  0.78319056338E+02 0.  0.
          5    1    3    3  501    0  0.54302828980E+02  0.28821462714E+02 -0.17734867653E+03  0.18776079733E+03  0.47000000000E+01 0. -1.
        -11    1    4    4    0    0 -0.32649371062E+02 -0.20721287677E+02 -0.68989015933E+02  0.79087530706E+02  0.00000000000E+00 0.  1.
         12    1    4    4    0    0 -0.20164935077E+02  0.44987470634E+02 -0.19793208308E+02  0.53125024385E+02  0.00000000000E+00 0. -1.
         -5    1    5    5    0  503 -0.63270809652E+02 -0.46416358619E+02 -0.18598235331E+03  0.20191384163E+03  0.47000000000E+01 0.  1.
         13    1    6    6    0    0  0.41523044560E+02  0.20767763130E+02 -0.60149481994E+02  0.75983046787E+02  0.00000000000E+00 0. -1.
        -14    1    6    6    0    0  0.20259242251E+02 -0.27439050182E+02 -0.19675602296E+03  0.19969043779E+03  0.00000000000E+00 0.  1.
</event>
<event>
12    1  0.8798177E-003  0.2081582E+03  0.7818608E-02  0.1143269E+00
         21   -1    0    0  503  502  0.00000000000E+00  0.00000000000E+00  0.73606845562E+03  0.73606845562E+03  0.00000000000E+00 0. -1.
         21   -1    0    0  501  503 -0.00000000000E+00 -0.00000000000E+00 -0.63404216046E+02  0.63404216046E+02  0.00000000000E+00 0.  1.
          6    2    1    2  501    0 -0.65885976237E+02 -0.96318084146E+02  0.22467863668E+03  0.30548793068E+03  0.17095101875E+03 0.  0.
         24    2    3    3    0    0  0.28964425208E+02 -0.64272539480E+02  0.12115966865E+03  0.16139843651E+03  0.79999329637E+02 0.  0.
         -6    2    1    2    0  502  0.65885976237E+02  0.96318084146E+02  0.44798560290E+03  0.49398474099E+03  0.17237078850E+03 0.  0.
        -24    2    5    5    0    0  0.37598756786E+02  0.13331267682E+03  0.32120779142E+03  0.35884233405E+03  0.80046481012E+02 0.  0.
          5    1    3    3  501    0 -0.94850401445E+02 -0.32045544667E+02  0.10351896803E+03  0.14408949417E+03  0.47000000000E+01 0. -1.
        -13    1    4    4    0    0  0.46215105503E+02 -0.71456351563E+02  0.82821840956E+02  0.11874890945E+03  0.00000000000E+00 0.  1.
         14    1    4    4    0    0 -0.17250680295E+02  0.71838120830E+01  0.38337827693E+02  0.42649527065E+02  0.00000000000E+00 0. -1.
         -5    1    5    5    0  502  0.28287219450E+02 -0.36994592675E+02  0.12677781147E+03  0.13514240694E+03  0.47000000000E+01 0.  1.
         13    1    6    6    0    0 -0.64547154471E+01  0.10074147995E+03  0.24502487782E+03  0.26500509407E+03  0.00000000000E+00 0. -1.
        -14    1    6    6    0    0  0.44053472234E+02  0.32571196871E+02  0.76182913606E+02  0.93837239979E+02  0.00000000000E+00 0.  1.
</event>
<event>
12    1  0.8798177E-003  0.1913550E+03  0.7818608E-02  0.1157334E+00
         21   -1    0    0  501  502  0.00000000000E+00  0.00000000000E+00  0.14480507860E+03  0.14480507860E+03  0.00000000000E+00 0. -1.
         21   -1    0    0  502  503 -0.00000000000E+00 -0.00000000000E+00 -0.29494688122E+03  0.29494688122E+03  0.00000000000E+00 0. -1.
          6    2    1    2  501    0  0.35243362250E+02 -0.76104581421E+02  0.85623314385E+01  0.19114837226E+03  0.17155286300E+03 0.  0.
         24    2    3    3    0    0  0.57628015200E+02 -0.56055714145E+02 -0.50931073657E+02  0.12433082205E+03  0.80005923676E+02 0.  0.
         -6    2    1    2    0  503 -0.35243362250E+02  0.76104581421E+02 -0.15870413406E+03  0.24860358756E+03  0.17199633626E+03 0.  0.
        -24    2    5    5    0    0 -0.87122702564E+01  0.98527419028E+01 -0.15770228808E+03  0.17707528004E+03  0.79452268433E+02 0.  0.
          5    1    3    3  501    0 -0.22384652951E+02 -0.20048867276E+02  0.59493405096E+02  0.66817550214E+02  0.47000000000E+01 0. -1.
        -11    1    4    4    0    0  0.35364535621E+02 -0.15912793218E+02 -0.65544590939E+02  0.76157473495E+02  0.00000000000E+00 0.  1.
         12    1    4    4    0    0  0.22263479580E+02 -0.40142920927E+02  0.14613517282E+02  0.48173348554E+02  0.00000000000E+00 0. -1.
         -5    1    5    5    0  503 -0.26531091993E+02  0.66251839518E+02 -0.10018459755E+01  0.71528307524E+02  0.47000000000E+01 0.  1.
         13    1    6    6    0    0 -0.39415971403E+02  0.10391130337E+02 -0.12807223545E+03  0.13440272275E+03  0.00000000000E+00 0. -1.
        -14    1    6    6    0    0  0.30703701146E+02 -0.53838843418E+00 -0.29630052633E+02  0.42672557285E+02  0.00000000000E+00 0.  1.
</event>
<event>
12    1  0.8798177E-003  0.1762298E+03  0.7818608E-02  0.1171570E+00
         21   -1    0    0  501  502  0.00000000000E+00  0.00000000000E+00  0.32119904856E+02  0.32119904856E+02  0.00000000000E+00 0.  1.
         21   -1    0    0  502  503 -0.00000000000E+00 -0.00000000000E+00 -0.14415982744E+04  0.14415982744E+04  0.00000000000E+00 0.  1.
          6    2    1    2  501    0  0.25882615402E+02  0.29241574684E+02 -0.28160883471E+03  0.33220550128E+03  0.17184871202E+03 0.  0.
         24    2    3    3    0    0 -0.26306412148E+02  0.59526019910E+02 -0.11335228283E+03  0.15339498854E+03  0.80286413033E+02 0.  0.
         -6    2    1    2    0  503 -0.25882615402E+02 -0.29241574684E+02 -0.11278695348E+04  0.11415126780E+04  0.17157076353E+03 0.  0.
        -24    2    5    5    0    0 -0.60903695276E+02 -0.70035793157E+02 -0.71422385985E+03  0.72436105239E+03  0.77258914151E+02 0.  0.
          5    1    3    3  501    0  0.52189027550E+02 -0.30284445226E+02 -0.16825655187E+03  0.17881051274E+03  0.47000000000E+01 0. -1.
        -13    1    4    4    0    0  0.17828940132E+02  0.23333380822E+02 -0.34658835058E+01  0.29569073629E+02  0.00000000000E+00 0.  1.
         14    1    4    4    0    0 -0.44135352280E+02  0.36192639088E+02 -0.10988639933E+03  0.12382591491E+03  0.00000000000E+00 0. -1.
         -5    1    5    5    0  503  0.35021079874E+02  0.40794218473E+02 -0.41364567496E+03  0.41715162557E+03  0.47000000000E+01 0.  1.
         11    1    6    6    0    0 -0.28284207538E+02  0.33348439796E+01 -0.76999740586E+02  0.82097975802E+02  0.00000000000E+00 0. -1.
        -12    1    6    6    0    0 -0.32619487738E+02 -0.73370637137E+02 -0.63722411927E+03  0.64226307659E+03  0.00000000000E+00 0.  1.
</event>
<event>
12    1  0.8798177E-003  0.1847197E+03  0.7818608E-02  0.1163406E+00
         21   -1    0    0  501  502  0.00000000000E+00  0.00000000000E+00  0.14119410631E+03  0.14119410631E+03  0.00000000000E+00 0.  1.
         21   -1    0    0  502  503 -0.00000000000E+00 -0.00000000000E+00 -0.24963940469E+03  0.24963940469E+03  0.00000000000E+00 0.  1.
          6    2    1    2  501    0  0.61610731294E+02 -0.24179902724E+02 -0.18213032900E+02  0.18561540975E+03  0.17245525757E+03 0.  0.
         24    2    3    3    0    0  0.31575071375E+02  0.26905097931E+01  0.54187976119E+02  0.10262049399E+03  0.81181309767E+02 0.  0.
         -6    2    1    2    0  503 -0.61610731294E+02  0.24179902724E+02 -0.90232265481E+02  0.20521810124E+03  0.17202342119E+03 0.  0.
        -24    2    5    5    0    0 -0.89338217046E+02  0.54288976545E+02 -0.36444975216E+02  0.13746463353E+03  0.81484227032E+02 0.  0.
          5    1    3    3  501    0  0.30035659919E+02 -0.26870412517E+02 -0.72401009019E+02  0.82994915763E+02  0.47000000000E+01 0. -1.
        -11    1    4    4    0    0  0.52285803319E+02 -0.16682536255E+02  0.20503408882E+02  0.58587558580E+02  0.00000000000E+00 0.  1.
         12    1    4    4    0    0 -0.20710731943E+02  0.19373046049E+02  0.33684567237E+02  0.44032935409E+02  0.00000000000E+00 0. -1.
         -5    1    5    5    0  503  0.27727485752E+02 -0.30109073821E+02 -0.53787290265E+02  0.67753467708E+02  0.47000000000E+01 0.  1.
         13    1    6    6    0    0 -0.59707551478E+02 -0.77231660338E+01 -0.11775160952E+01  0.60216488948E+02  0.00000000000E+00 0. -1.
        -14    1    6    6    0    0 -0.29630665568E+02  0.62012142579E+02 -0.35267459121E+02  0.77248144586E+02  0.00000000000E+00 0.  1.
</event>
<event>
12    1  0.8798177E-003  0.2059758E+03  0.7818608E-02  0.1145341E+00
         21   -1    0    0  503  502  0.00000000000E+00  0.00000000000E+00  0.33438444415E+02  0.33438444415E+02  0.00000000000E+00 0.  1.
         21   -1    0    0  501  503 -0.00000000000E+00 -0.00000000000E+00 -0.12653675255E+04  0.12653675255E+04  0.00000000000E+00 0.  1.
          6    2    1    2  501    0  0.84693642272E+02 -0.62005880729E+02 -0.67789349182E+03  0.70772099030E+03  0.17410247434E+03 0.  0.
         24    2    3    3    0    0  0.81747413821E+02  0.24812705498E+02 -0.36555729358E+03  0.38349554727E+03  0.78347877228E+02 0.  0.
         -6    2    1    2    0  502 -0.84693642272E+02  0.62005880729E+02 -0.55403558931E+03  0.59108497967E+03  0.17722380391E+03 0.  0.
        -24    2    5    5    0    0 -0.96477540834E+02  0.97195775043E+02 -0.50651006309E+03  0.53060395314E+03  0.78950468648E+02 0.  0.
          5    1    3    3  501    0  0.29462284509E+01 -0.86818586226E+02 -0.31233619823E+03  0.32422544302E+03  0.47000000000E+01 0. -1.
        -13    1    4    4    0    0  0.80848666991E+01 -0.33560994543E+01 -0.19918928014E+03  0.19938153825E+03  0.00000000000E+00 0.  1.
         14    1    4    4    0    0  0.73662547122E+02  0.28168804952E+02 -0.16636801344E+03  0.18411400902E+03  0.00000000000E+00 0. -1.
         -5    1    5    5    0  502  0.11783898562E+02 -0.35189894314E+02 -0.47525526221E+02  0.60481026527E+02  0.47000000000E+01 0.  1.
         11    1    6    6    0    0 -0.11427335876E+02  0.30396858910E+02 -0.25180791568E+03  0.25389324417E+03  0.00000000000E+00 0. -1.
        -12    1    6    6    0    0 -0.85050204958E+02  0.66798916133E+02 -0.25470214741E+03  0.27671070897E+03  0.00000000000E+00 0.  1.
</event>
<event>
12    1  0.8798177E-003  0.1724256E+03  0.7818608E-02  0.1175450E+00
         21   -1    0    0  501  502  0.00000000000E+00  0.00000000000E+00  0.41195661071E+02  0.41195661071E+02  0.00000000000E+00 0.  1.
         21   -1    0    0  502  503 -0.00000000000E+00 -0.00000000000E+00 -0.74024458156E+03  0.74024458156E+03  0.00000000000E+00 0.  1.
          6    2    1    2  501    0 -0.11743155966E+02 -0.36204545643E+01 -0.28520018390E+03  0.33327127719E+03  0.17198717945E+03 0.  0.
         24    2    3    3    0    0 -0.30059271290E+02 -0.61236231974E+02 -0.22171265237E+03  0.24547711709E+03  0.80306157278E+02 0.  0.
         -6    2    1    2    0  503  0.11743155966E+02  0.36204545643E+01 -0.41384873659E+03  0.44816896545E+03  0.17156233680E+03 0.  0.
        -24    2    5    5    0    0 -0.41339202888E+02  0.47225544588E+02 -0.20847040057E+03  0.23155527335E+03  0.78859082834E+02 0.  0.
          5    1    3    3  501    0  0.18316115324E+02  0.57615777410E+02 -0.63487531532E+02  0.87794160097E+02  0.47000000000E+01 0. -1.
        -11    1    4    4    0    0 -0.24677730106E+02 -0.54549118281E+02 -0.64404077436E+02  0.87934531663E+02  0.00000000000E+00 0.  1.
         12    1    4    4    0    0 -0.53815411839E+01 -0.66871136928E+01 -0.15730857493E+03  0.15754258543E+03  0.00000000000E+00 0. -1.
         -5    1    5    5    0  503  0.53082358854E+02 -0.43605090024E+02 -0.20537833602E+03  0.21661369210E+03  0.47000000000E+01 0.  1.
         11    1    6    6    0    0 -0.59572939729E+02  0.40324513951E+02 -0.19503303437E+03  0.20787709366E+03  0.00000000000E+00 0. -1.
        -12    1    6    6    0    0  0.18233736841E+02  0.69010306375E+01 -0.13437366201E+02  0.23678179691E+02  0.00000000000E+00 0.  1.
</event>
<event>
12    1  0.8798177E-003  0.2791329E+03  0.7818608E-02  0.1096311E+00
         21   -1    0    0  503  502  0.00000000000E+00  0.00000000000E+00  0.12019964487E+04  0.12019964487E+04  0.00000000000E+00 0.  1.
         21   -1    0    0  501  503 -0.00000000000E+00 -0.00000000000E+00 -0.10341888478E+03  0.10341888478E+03  0.00000000000E+00 0. -1.
          6    2    1    2  501    0 -0.19673764011E+03 -0.94641542363E+02  0.14991635232E+03  0.31684394384E+03  0.17393231867E+03 0.  0.
         24    2    3    3    0    0 -0.11984483063E+03 -0.30415176953E+02  0.15851666295E+03  0.21617823216E+03  0.79483515342E+02 0.  0.
         -6    2    1    2    0  502  0.19673764011E+03  0.94641542363E+02  0.94866121161E+03  0.98857138965E+03  0.17219923766E+03 0.  0.
        -24    2    5    5    0    0  0.19935905087E+03  0.73768035265E+02  0.63838220772E+03  0.67754450119E+03  0.79680322334E+02 0.  0.
          5    1    3    3  501    0 -0.76892809483E+02 -0.64226365410E+02 -0.86003106351E+01  0.10066571168E+03  0.47000000000E+01 0. -1.
        -13    1    4    4    0    0 -0.22063184890E+02  0.19900650327E+02  0.66332821534E+02  0.72683307737E+02  0.00000000000E+00 0.  1.
         14    1    4    4    0    0 -0.97781645736E+02 -0.50315827280E+02  0.92183841417E+02  0.14349492443E+03  0.00000000000E+00 0. -1.
         -5    1    5    5    0  502 -0.26214107606E+01  0.20873507098E+02  0.31027900389E+03  0.31102688847E+03  0.47000000000E+01 0.  1.
         13    1    6    6    0    0  0.13127622704E+03  0.84233312988E+01  0.33836840465E+03  0.36303936089E+03  0.00000000000E+00 0. -1.
        -14    1    6    6    0    0  0.68082823834E+02  0.65344703966E+02  0.30001380307E+03  0.31450514029E+03  0.00000000000E+00 0.  1.
</event>
<event>
12    1  0.8798177E-003  0.1840947E+03  0.7818608E-02  0.1164528E+00
         21   -1    0    0  503  502  0.00000000000E+00  0.00000000000E+00  0.17225595056E+03  0.17225595056E+03  0.00000000000E+00 0. -1.
         21   -1    0    0  501  503 -0.00000000000E+00 -0.00000000000E+00 -0.27823409792E+03  0.27823409792E+03  0.00000000000E+00 0. -1.
          6    2    1    2  501    0  0.15913979100E+02 -0.58352562572E+02 -0.17671615921E+03  0.25327258516E+03  0.17105591243E+03 0.  0.
         24    2    3    3    0    0 -0.99733541967E+01 -0.50651891286E+02 -0.19668300377E+03  0.21935770280E+03  0.82270990756E+02 0.  0.
         -6    2    1    2    0  502 -0.15913979100E+02  0.58352562572E+02  0.70738011845E+02  0.19721746333E+03  0.17387520016E+03 0.  0.
        -24    2    5    5    0    0  0.37826485064E+02  0.14071381345E+02 -0.99066255614E+01  0.90566124650E+02  0.80468844647E+02 0.  0.
          5    1    3    3  501    0  0.25887333297E+02 -0.77006712856E+01  0.19966844564E+02  0.33914882358E+02  0.47000000000E+01 0. -1.
        -13    1    4    4    0    0 -0.30227379708E+02  0.10941099924E+02 -0.59698009381E+02  0.67803056536E+02  0.00000000000E+00 0.  1.
         14    1    4    4    0    0  0.20254025512E+02 -0.61592991211E+02 -0.13698499439E+03  0.15155464626E+03  0.00000000000E+00 0. -1.
         -5    1    5    5    0  502 -0.53740464164E+02  0.44281181227E+02  0.80644637407E+02  0.10665133868E+03  0.47000000000E+01 0.  1.
         13    1    6    6    0    0  0.15721019874E+02  0.38118763108E+02  0.20403796073E+02  0.46005493813E+02  0.00000000000E+00 0. -1.
        -14    1    6    6    0    0  0.22105465190E+02 -0.24047381763E+02 -0.30310421634E+02  0.44560630837E+02  0.00000000000E+00 0.  1.
</event>
<event>
12    1  0.8798177E-003  0.2029726E+03  0.7818608E-02  0.1148241E+00
         21   -1    0    0  501  502  0.00000000000E+00  0.00000000000E+00  0.26120590653E+02  0.26120590653E+02  0.00000000000E+00 0.  1.
         21   -1    0    0  502  503 -0.00000000000E+00 -0.00000000000E+00 -0.18183001083E+04  0.18183001083E+04  0.00000000000E+00 0. -1.
          6    2    1    2  501    0 -0.20736211631E+02  0.10449579038E+03 -0.12473892633E+04  0.12630479247E+04  0.16721460788E+03 0.  0.
         24    2    3    3    0    0  0.26673396481E+02  0.26526692578E+02 -0.87754361993E+03  0.88208238675E+03  0.81064151297E+02 0.  0.
         -6    2    1    2    0  503  0.20736211631E+02 -0.10449579038E+03 -0.54479025430E+03  0.58137277425E+03  0.17276724454E+03 0.  0.
        -24    2    5    5    0    0 -0.47732846256E+02 -0.96620414153E+02 -0.41567709713E+03  0.43494077368E+03  0.69080376995E+02 0.  0.
          5    1    3    3  501    0 -0.47409608111E+02  0.77969097798E+02 -0.36984564338E+03  0.38096553791E+03  0.47000000000E+01 0. -1.
        -13    1    4    4    0    0 -0.44147156366E+01 -0.69369268068E+01 -0.84537416376E+01  0.11793066410E+02  0.00000000000E+00 0.  1.
         14    1    4    4    0    0  0.31088112117E+02  0.33463619385E+02 -0.86908987830E+03  0.87028932034E+03  0.00000000000E+00 0. -1.
         -5    1    5    5    0  503  0.68469057887E+02 -0.78753762243E+01 -0.12911315717E+03  0.14643200058E+03  0.47000000000E+01 0.  1.
         11    1    6    6    0    0 -0.28106962646E+02 -0.13153925497E+02 -0.20733975196E+03  0.20964923050E+03  0.00000000000E+00 0. -1.
        -12    1    6    6    0    0 -0.19625883610E+02 -0.83466488655E+02 -0.20833734517E+03  0.22529154318E+03  0.00000000000E+00 0.  1.
</event>
<event>
12    1  0.8798177E-003  0.1797637E+03  0.7818608E-02  0.1171369E+00
         21   -1    0    0  503  502  0.00000000000E+00  0.00000000000E+00  0.11202391097E+04  0.11202391097E+04  0.00000000000E+00 0. -1.
         21   -1    0    0  501  503 -0.00000000000E+00 -0.00000000000E+00 -0.71218617919E+02  0.71218617919E+02  0.00000000000E+00 0. -1.
          6    2    1    2  501    0 -0.41886385983E+02  0.33810671891E+02  0.61501855051E+02  0.18999334448E+03  0.17151490287E+03 0.  0.
         24    2    3    3    0    0 -0.61145121328E+02  0.10147839722E+02 -0.19183544577E+02  0.10360438554E+03  0.80772246520E+02 0.  0.
         -6    2    1    2    0  502  0.41886385983E+02 -0.33810671891E+02  0.98751863674E+03  0.10014643831E+04  0.15760781053E+03 0.  0.
        -24    2    5    5    0    0  0.18963085739E+02  0.19658578105E+02  0.80313520356E+03  0.80806381743E+03  0.84822871480E+02 0.  0.
          5    1    3    3  501    0  0.19258735344E+02  0.23662832169E+02  0.80685399629E+02  0.86388958939E+02  0.47000000000E+01 0. -1.
        -13    1    4    4    0    0 -0.34615720375E+01  0.17006591759E+02  0.25130974015E+02  0.30541324450E+02  0.00000000000E+00 0.  1.
         14    1    4    4    0    0 -0.57683549290E+02 -0.68587520364E+01 -0.44314518592E+02  0.73063061093E+02  0.00000000000E+00 0. -1.
         -5    1    5    5    0  502  0.22923300244E+02 -0.53469249996E+02  0.18438343317E+03  0.19340056571E+03  0.47000000000E+01 0.  1.
         13    1    6    6    0    0 -0.14589386108E+02  0.35559975374E+02  0.62067919165E+03  0.62186817010E+03  0.00000000000E+00 0. -1.
        -14    1    6    6    0    0  0.33552471848E+02 -0.15901397269E+02  0.18245601191E+03  0.18619564733E+03  0.00000000000E+00 0.  1.
</event>
